Generated by trjconv : CNT in water t= 252.00000
33518
    1C        C    1   2.846   2.770   4.745
    1C        C    2   2.902   2.725   4.867
    1C        C    3   2.844   2.772   4.986
    1C        C    4   2.854   2.780   4.261
    1C        C    5   2.904   2.729   4.383
    1C        C    6   2.847   2.773   4.504
    1C        C    7   3.016   2.641   4.626
    1C        C    8   2.898   2.719   4.624
    1C        C    9   3.079   2.604   4.746
    1C        C   10   3.009   2.633   4.865
    1C        C   11   3.179   2.488   4.972
    1C        C   12   3.060   2.562   4.974
    1C        C   13   2.849   2.773   3.771
    1C        C   14   2.905   2.730   3.893
    1C        C   15   2.850   2.773   4.016
    1C        C   16   3.017   2.645   4.138
    1C        C   17   2.903   2.728   4.139
    1C        C   18   3.081   2.613   4.260
    1C        C   19   3.021   2.651   4.382
    1C        C   20   3.212   2.558   4.505
    1C        C   21   3.080   2.610   4.504
    1C        C   22   3.282   2.533   4.625
    1C        C   23   3.211   2.551   4.746
    1C        C   24   3.415   2.484   4.866
    1C        C   25   3.274   2.507   4.867
    1C        C   26   3.491   2.476   4.984
    1C        C   27   2.852   2.775   3.282
    1C        C   28   2.908   2.730   3.403
    1C        C   29   2.860   2.779   3.526
    1C        C   30   3.022   2.648   3.647
    1C        C   31   2.907   2.729   3.650
    1C        C   32   3.080   2.611   3.771
    1C        C   33   3.019   2.646   3.893
    1C        C   34   3.210   2.556   4.018
    1C        C   35   3.079   2.610   4.016
    1C        C   36   3.278   2.534   4.139
    1C        C   37   3.212   2.560   4.262
    1C        C   38   3.417   2.504   4.383
    1C        C   39   3.281   2.539   4.384
    1C        C   40   3.490   2.491   4.503
    1C        C   41   3.419   2.500   4.626
    1C        C   42   3.632   2.472   4.744
    1C        C   43   3.490   2.474   4.746
    1C        C   44   3.705   2.477   4.864
    1C        C   45   3.630   2.475   4.983
    1C        C   46   2.841   2.755   2.795
    1C        C   47   2.895   2.711   2.918
    1C        C   48   2.846   2.768   3.038
    1C        C   49   3.019   2.645   3.158
    1C        C   50   2.903   2.726   3.160
    1C        C   51   3.083   2.612   3.280
    1C        C   52   3.022   2.646   3.402
    1C        C   53   3.212   2.552   3.527
    1C        C   54   3.084   2.613   3.525
    1C        C   55   3.278   2.532   3.650
    1C        C   56   3.212   2.559   3.772
    1C        C   57   3.415   2.507   3.894
    1C        C   58   3.277   2.535   3.895
    1C        C   59   3.487   2.501   4.016
    1C        C   60   3.417   2.509   4.138
    1C        C   61   3.629   2.498   4.256
    1C        C   62   3.488   2.499   4.260
    1C        C   63   3.700   2.502   4.378
    1C        C   64   3.631   2.497   4.501
    1C        C   65   3.836   2.537   4.622
    1C        C   66   3.702   2.493   4.623
    1C        C   67   3.902   2.557   4.745
    1C        C   68   3.840   2.517   4.866
    1C        C   69   4.052   2.585   4.979
    1C        C   70   3.924   2.528   4.978
    1C        C   71   2.824   2.737   2.309
    1C        C   72   2.885   2.696   2.430
    1C        C   73   2.829   2.744   2.550
    1C        C   74   3.008   2.630   2.672
    1C        C   75   2.888   2.704   2.672
    1C        C   76   3.073   2.596   2.793
    1C        C   77   3.011   2.632   2.915
    1C        C   78   3.206   2.544   3.037
    1C        C   79   3.075   2.599   3.037
    1C        C   80   3.277   2.529   3.158
    1C        C   81   3.211   2.552   3.281
    1C        C   82   3.414   2.496   3.401
    1C        C   83   3.276   2.525   3.404
    1C        C   84   3.484   2.495   3.524
    1C        C   85   3.416   2.503   3.648
    1C        C   86   3.626   2.500   3.767
    1C        C   87   3.485   2.498   3.771
    1C        C   88   3.695   2.510   3.890
    1C        C   89   3.628   2.491   4.013
    1C        C   90   3.836   2.539   4.134
    1C        C   91   3.699   2.502   4.134
    1C        C   92   3.903   2.564   4.256
    1C        C   93   3.837   2.538   4.378
    1C        C   94   4.029   2.627   4.499
    1C        C   95   3.903   2.562   4.501
    1C        C   96   4.089   2.667   4.620
    1C        C   97   4.027   2.624   4.740
    1C        C   98   4.185   2.766   4.862
    1C        C   99   4.091   2.659   4.862
    1C        C  100   4.210   2.842   4.978
    1C        C  101   2.817   2.730   2.070
    1C        C  102   2.986   2.592   2.190
    1C        C  103   2.874   2.681   2.188
    1C        C  104   3.061   2.571   2.310
    1C        C  105   3.004   2.620   2.429
    1C        C  106   3.201   2.538   2.550
    1C        C  107   3.070   2.591   2.551
    1C        C  108   3.271   2.522   2.672
    1C        C  109   3.203   2.540   2.794
    1C        C  110   3.412   2.501   2.914
    1C        C  111   3.272   2.518   2.915
    1C        C  112   3.485   2.495   3.035
    1C        C  113   3.416   2.503   3.158
    1C        C  114   3.627   2.495   3.278
    1C        C  115   3.486   2.492   3.280
    1C        C  116   3.694   2.509   3.402
    1C        C  117   3.625   2.503   3.525
    1C        C  118   3.835   2.541   3.645
    1C        C  119   3.698   2.506   3.646
    1C        C  120   3.900   2.563   3.769
    1C        C  121   3.833   2.542   3.891
    1C        C  122   4.024   2.637   4.013
    1C        C  123   3.903   2.565   4.012
    1C        C  124   4.086   2.672   4.135
    1C        C  125   4.028   2.630   4.257
    1C        C  126   4.194   2.764   4.377
    1C        C  127   4.089   2.669   4.378
    1C        C  128   4.236   2.823   4.499
    1C        C  129   4.187   2.768   4.620
    1C        C  130   4.320   2.935   4.739
    1C        C  131   4.238   2.818   4.741
    1C        C  132   4.349   3.005   4.858
    1C        C  133   4.286   2.958   4.974
    1C        C  134   3.171   2.470   2.080
    1C        C  135   3.038   2.512   2.084
    1C        C  136   3.258   2.473   2.190
    1C        C  137   3.194   2.521   2.306
    1C        C  138   3.404   2.483   2.425
    1C        C  139   3.265   2.510   2.428
    1C        C  140   3.479   2.482   2.545
    1C        C  141   3.409   2.495   2.667
    1C        C  142   3.621   2.490   2.789
    1C        C  143   3.480   2.491   2.790
    1C        C  144   3.693   2.497   2.910
    1C        C  145   3.626   2.491   3.034
    1C        C  146   3.834   2.533   3.155
    1C        C  147   3.698   2.496   3.156
    1C        C  148   3.900   2.562   3.277
    1C        C  149   3.832   2.541   3.400
    1C        C  150   4.026   2.627   3.522
    1C        C  151   3.899   2.566   3.522
    1C        C  152   4.087   2.662   3.645
    1C        C  153   4.023   2.633   3.768
    1C        C  154   4.195   2.759   3.888
    1C        C  155   4.080   2.676   3.890
    1C        C  156   4.246   2.809   4.009
    1C        C  157   4.194   2.763   4.133
    1C        C  158   4.334   2.922   4.251
    1C        C  159   4.243   2.814   4.255
    1C        C  160   4.373   2.983   4.373
    1C        C  161   4.324   2.933   4.496
    1C        C  162   4.435   3.114   4.615
    1C        C  163   4.360   2.995   4.617
    1C        C  164   4.463   3.186   4.733
    1C        C  165   4.427   3.123   4.854
    1C        C  166   4.507   3.322   4.971
    1C        C  167   4.470   3.188   4.971
    1C        C  168   3.477   2.440   2.069
    1C        C  169   3.398   2.461   2.184
    1C        C  170   3.616   2.467   2.306
    1C        C  171   3.473   2.466   2.303
    1C        C  172   3.689   2.484   2.425
    1C        C  173   3.620   2.484   2.548
    1C        C  174   3.829   2.537   2.667
    1C        C  175   3.694   2.497   2.668
    1C        C  176   3.898   2.556   2.789
    1C        C  177   3.830   2.532   2.911
    1C        C  178   4.022   2.627   3.030
    1C        C  179   3.897   2.560   3.032
    1C        C  180   4.084   2.663   3.152
    1C        C  181   4.026   2.625   3.275
    1C        C  182   4.196   2.748   3.398
    1C        C  183   4.086   2.659   3.398
    1C        C  184   4.243   2.804   3.519
    1C        C  185   4.193   2.754   3.641
    1C        C  186   4.332   2.914   3.763
    1C        C  187   4.243   2.805   3.763
    1C        C  188   4.370   2.978   3.883
    1C        C  189   4.333   2.920   4.007
    1C        C  190   4.439   3.104   4.129
    1C        C  191   4.375   2.978   4.128
    1C        C  192   4.467   3.173   4.249
    1C        C  193   4.438   3.109   4.372
    1C        C  194   4.501   3.314   4.490
    1C        C  195   4.462   3.178   4.492
    1C        C  196   4.517   3.388   4.610
    1C        C  197   4.507   3.321   4.734
    1C        C  198   4.558   3.535   4.851
    1C        C  199   4.533   3.394   4.853
    1C        C  200   4.576   3.622   4.963
    1C        C  201   3.616   2.421   2.070
    1C        C  202   3.825   2.512   2.182
    1C        C  203   3.691   2.461   2.185
    1C        C  204   3.894   2.540   2.303
    1C        C  205   3.826   2.520   2.425
    1C        C  206   4.020   2.619   2.543
    1C        C  207   3.895   2.553   2.543
    1C        C  208   4.083   2.654   2.665
    1C        C  209   4.023   2.621   2.788
    1C        C  210   4.195   2.750   2.908
    1C        C  211   4.083   2.664   2.908
    1C        C  212   4.248   2.796   3.031
    1C        C  213   4.198   2.746   3.153
    1C        C  214   4.334   2.908   3.270
    1C        C  215   4.247   2.796   3.275
    1C        C  216   4.368   2.970   3.392
    1C        C  217   4.331   2.915   3.517
    1C        C  218   4.434   3.099   3.639
    1C        C  219   4.370   2.973   3.640
    1C        C  220   4.464   3.166   3.760
    1C        C  221   4.434   3.104   3.883
    1C        C  222   4.496   3.306   4.002
    1C        C  223   4.465   3.169   4.005
    1C        C  224   4.506   3.378   4.124
    1C        C  225   4.505   3.309   4.247
    1C        C  226   4.522   3.523   4.364
    1C        C  227   4.516   3.381   4.367
    1C        C  228   4.524   3.597   4.485
    1C        C  229   4.531   3.528   4.608
    1C        C  230   4.504   3.740   4.726
    1C        C  231   4.544   3.603   4.727
    1C        C  232   4.498   3.822   4.841
    1C        C  233   4.545   3.758   4.957
    1C        C  234   4.014   2.612   2.061
    1C        C  235   3.897   2.538   2.065
    1C        C  236   4.079   2.648   2.180
    1C        C  237   4.018   2.611   2.302
    1C        C  238   4.197   2.734   2.420
    1C        C  239   4.085   2.646   2.421
    1C        C  240   4.250   2.786   2.540
    1C        C  241   4.197   2.738   2.662
    1C        C  242   4.335   2.902   2.782
    1C        C  243   4.243   2.794   2.783
    1C        C  244   4.381   2.958   2.903
    1C        C  245   4.339   2.904   3.027
    1C        C  246   4.434   3.095   3.147
    1C        C  247   4.375   2.966   3.148
    1C        C  248   4.457   3.160   3.270
    1C        C  249   4.427   3.098   3.393
    1C        C  250   4.491   3.300   3.515
    1C        C  251   4.454   3.164   3.516
    1C        C  252   4.507   3.372   3.635
    1C        C  253   4.503   3.302   3.758
    1C        C  254   4.528   3.514   3.877
    1C        C  255   4.510   3.374   3.879
    1C        C  256   4.526   3.587   3.999
    1C        C  257   4.520   3.519   4.122
    1C        C  258   4.499   3.733   4.240
    1C        C  259   4.518   3.593   4.242
    1C        C  260   4.476   3.802   4.361
    1C        C  261   4.489   3.734   4.484
    1C        C  262   4.428   3.938   4.601
    1C        C  263   4.476   3.806   4.605
    1C        C  264   4.401   4.010   4.719
    1C        C  265   4.434   3.948   4.842
    1C        C  266   4.317   4.130   4.957
    1C        C  267   4.385   4.009   4.958
    1C        C  268   4.258   2.772   2.061
    1C        C  269   4.193   2.731   2.178
    1C        C  270   4.342   2.890   2.299
    1C        C  271   4.249   2.782   2.298
    1C        C  272   4.379   2.953   2.419
    1C        C  273   4.345   2.890   2.540
    1C        C  274   4.453   3.077   2.660
    1C        C  275   4.386   2.953   2.660
    1C        C  276   4.474   3.149   2.780
    1C        C  277   4.444   3.084   2.902
    1C        C  278   4.503   3.290   3.022
    1C        C  279   4.464   3.155   3.023
    1C        C  280   4.511   3.361   3.144
    1C        C  281   4.499   3.295   3.268
    1C        C  282   4.515   3.507   3.387
    1C        C  283   4.507   3.366   3.390
    1C        C  284   4.511   3.579   3.509
    1C        C  285   4.510   3.513   3.634
    1C        C  286   4.491   3.724   3.754
    1C        C  287   4.518   3.585   3.756
    1C        C  288   4.475   3.793   3.876
    1C        C  289   4.495   3.725   3.998
    1C        C  290   4.425   3.931   4.112
    1C        C  291   4.478   3.800   4.117
    1C        C  292   4.394   3.994   4.235
    1C        C  293   4.427   3.935   4.359
    1C        C  294   4.328   4.126   4.477
    1C        C  295   4.394   4.001   4.479
    1C        C  296   4.288   4.189   4.597
    1C        C  297   4.329   4.133   4.720
    1C        C  298   4.198   4.311   4.835
    1C        C  299   4.284   4.196   4.839
    1C        C  300   4.171   4.401   4.942
    1C        C  301   4.345   2.880   2.060
    1C        C  302   4.468   3.063   2.179
    1C        C  303   4.395   2.941   2.177
    1C        C  304   4.484   3.140   2.298
    1C        C  305   4.447   3.077   2.419
    1C        C  306   4.508   3.283   2.536
    1C        C  307   4.478   3.145   2.539
    1C        C  308   4.516   3.357   2.656
    1C        C  309   4.502   3.288   2.779
    1C        C  310   4.526   3.500   2.897
    1C        C  311   4.517   3.360   2.900
    1C        C  312   4.519   3.571   3.019
    1C        C  313   4.515   3.503   3.143
    1C        C  314   4.493   3.715   3.262
    1C        C  315   4.509   3.575   3.264
    1C        C  316   4.475   3.785   3.383
    1C        C  317   4.485   3.717   3.506
    1C        C  318   4.426   3.920   3.625
    1C        C  319   4.473   3.787   3.629
    1C        C  320   4.398   3.987   3.746
    1C        C  321   4.430   3.926   3.870
    1C        C  322   4.321   4.114   3.988
    1C        C  323   4.396   3.994   3.989
    1C        C  324   4.281   4.171   4.111
    1C        C  325   4.323   4.116   4.234
    1C        C  326   4.187   4.282   4.353
    1C        C  327   4.285   4.180   4.354
    1C        C  328   4.134   4.333   4.473
    1C        C  329   4.191   4.291   4.595
    1C        C  330   4.022   4.433   4.712
    1C        C  331   4.138   4.351   4.712
    1C        C  332   3.969   4.486   4.831
    1C        C  333   4.052   4.475   4.943
    1C        C  334   4.550   3.268   2.061
    1C        C  335   4.528   3.130   2.067
    1C        C  336   4.537   3.349   2.174
    1C        C  337   4.516   3.279   2.295
    1C        C  338   4.520   3.495   2.410
    1C        C  339   4.520   3.354   2.414
    1C        C  340   4.521   3.567   2.531
    1C        C  341   4.522   3.498   2.654
    1C        C  342   4.500   3.711   2.774
    1C        C  343   4.523   3.572   2.775
    1C        C  344   4.483   3.782   2.895
    1C        C  345   4.497   3.710   3.016
    1C        C  346   4.425   3.911   3.137
    1C        C  347   4.478   3.780   3.137
    1C        C  348   4.394   3.978   3.257
    1C        C  349   4.425   3.918   3.381
    1C        C  350   4.317   4.101   3.500
    1C        C  351   4.397   3.984   3.503
    1C        C  352   4.272   4.160   3.621
    1C        C  353   4.322   4.106   3.741
    1C        C  354   4.179   4.263   3.866
    1C        C  355   4.276   4.161   3.863
    1C        C  356   4.121   4.310   3.986
    1C        C  357   4.175   4.264   4.108
    1C        C  358   4.010   4.397   4.228
    1C        C  359   4.129   4.320   4.230
    1C        C  360   3.951   4.441   4.348
    1C        C  361   4.018   4.413   4.470
    1C        C  362   3.825   4.509   4.593
    1C        C  363   3.958   4.460   4.589
    1C        C  364   3.764   4.545   4.715
    1C        C  365   3.840   4.543   4.835
    1C        C  366   3.628   4.595   4.951
    1C        C  367   3.765   4.573   4.949
    1C        C  368   4.504   3.563   2.052
    1C        C  369   4.524   3.490   2.169
    1C        C  370   4.498   3.706   2.284
    1C        C  371   4.519   3.566   2.288
    1C        C  372   4.484   3.774   2.406
    1C        C  373   4.499   3.707   2.530
    1C        C  374   4.428   3.908   2.649
    1C        C  375   4.482   3.778   2.650
    1C        C  376   4.390   3.970   2.770
    1C        C  377   4.431   3.913   2.893
    1C        C  378   4.317   4.092   3.013
    1C        C  379   4.398   3.976   3.015
    1C        C  380   4.273   4.153   3.133
    1C        C  381   4.317   4.097   3.255
    1C        C  382   4.178   4.257   3.377
    1C        C  383   4.275   4.155   3.377
    1C        C  384   4.122   4.306   3.497
    1C        C  385   4.173   4.261   3.621
    1C        C  386   4.007   4.389   3.741
    1C        C  387   4.122   4.308   3.744
    1C        C  388   3.944   4.430   3.861
    1C        C  389   4.007   4.393   3.982
    1C        C  390   3.819   4.486   4.107
    1C        C  391   3.950   4.433   4.105
    1C        C  392   3.754   4.517   4.228
    1C        C  393   3.825   4.503   4.350
    1C        C  394   3.617   4.553   4.476
    1C        C  395   3.756   4.527   4.471
    1C        C  396   3.547   4.570   4.597
    1C        C  397   3.625   4.569   4.715
    1C        C  398   3.413   4.547   4.838
    1C        C  399   3.552   4.572   4.836
    1C        C  400   3.342   4.514   4.955
    1C        C  401   4.505   3.702   2.048
    1C        C  402   4.454   3.916   2.166
    1C        C  403   4.489   3.780   2.164
    1C        C  404   4.414   3.978   2.286
    1C        C  405   4.441   3.909   2.406
    1C        C  406   4.325   4.090   2.526
    1C        C  407   4.403   3.973   2.526
    1C        C  408   4.273   4.145   2.646
    1C        C  409   4.311   4.087   2.769
    1C        C  410   4.170   4.245   2.889
    1C        C  411   4.270   4.145   2.891
    1C        C  412   4.116   4.293   3.010
    1C        C  413   4.169   4.248   3.133
    1C        C  414   3.999   4.373   3.253
    1C        C  415   4.117   4.296   3.256
    1C        C  416   3.939   4.411   3.375
    1C        C  417   4.002   4.381   3.498
    1C        C  418   3.811   4.475   3.618
    1C        C  419   3.941   4.420   3.620
    1C        C  420   3.747   4.504   3.740
    1C        C  421   3.815   4.487   3.863
    1C        C  422   3.609   4.532   3.987
    1C        C  423   3.748   4.504   3.986
    1C        C  424   3.543   4.537   4.112
    1C        C  425   3.615   4.536   4.233
    1C        C  426   3.403   4.547   4.357
    1C        C  427   3.544   4.547   4.355
    1C        C  428   3.331   4.545   4.479
    1C        C  429   3.406   4.557   4.599
    1C        C  430   3.195   4.522   4.724
    1C        C  431   3.336   4.545   4.720
    1C        C  432   3.124   4.498   4.845
    1C        C  433   3.204   4.497   4.960
    1C        C  434   4.379   4.119   2.049
    1C        C  435   4.439   3.992   2.049
    1C        C  436   4.301   4.160   2.162
    1C        C  437   4.332   4.094   2.284
    1C        C  438   4.181   4.247   2.402
    1C        C  439   4.282   4.148   2.405
    1C        C  440   4.124   4.294   2.522
    1C        C  441   4.175   4.247   2.645
    1C        C  442   4.003   4.373   2.768
    1C        C  443   4.119   4.293   2.766
    1C        C  444   3.942   4.413   2.889
    1C        C  445   4.003   4.378   3.011
    1C        C  446   3.810   4.473   3.130
    1C        C  447   3.938   4.414   3.132
    1C        C  448   3.744   4.495   3.253
    1C        C  449   3.810   4.469   3.375
    1C        C  450   3.604   4.525   3.496
    1C        C  451   3.742   4.492   3.496
    1C        C  452   3.537   4.537   3.620
    1C        C  453   3.608   4.534   3.742
    1C        C  454   3.399   4.546   3.866
    1C        C  455   3.540   4.543   3.865
    1C        C  456   3.330   4.537   3.989
    1C        C  457   3.401   4.539   4.111
    1C        C  458   3.196   4.503   4.237
    1C        C  459   3.333   4.536   4.235
    1C        C  460   3.129   4.486   4.360
    1C        C  461   3.194   4.512   4.482
    1C        C  462   2.999   4.430   4.605
    1C        C  463   3.128   4.489   4.605
    1C        C  464   2.934   4.397   4.726
    1C        C  465   2.992   4.441   4.848
    1C        C  466   2.799   4.334   4.960
    1C        C  467   2.906   4.425   4.961
    1C        C  468   4.123   4.285   2.040
    1C        C  469   4.186   4.245   2.159
    1C        C  470   4.006   4.367   2.278
    1C        C  471   4.127   4.292   2.279
    1C        C  472   3.943   4.403   2.399
    1C        C  473   4.004   4.368   2.522
    1C        C  474   3.813   4.460   2.641
    1C        C  475   3.942   4.404   2.644
    1C        C  476   3.746   4.490   2.762
    1C        C  477   3.812   4.468   2.885
    1C        C  478   3.606   4.522   3.008
    1C        C  479   3.745   4.493   3.007
    1C        C  480   3.537   4.531   3.131
    1C        C  481   3.606   4.525   3.254
    1C        C  482   3.391   4.536   3.376
    1C        C  483   3.532   4.534   3.375
    1C        C  484   3.324   4.529   3.500
    1C        C  485   3.396   4.536   3.622
    1C        C  486   3.189   4.502   3.747
    1C        C  487   3.326   4.536   3.745
    1C        C  488   3.125   4.478   3.871
    1C        C  489   3.192   4.505   3.993
    1C        C  490   3.002   4.413   4.116
    1C        C  491   3.129   4.476   4.116
    1C        C  492   2.942   4.379   4.239
    1C        C  493   3.003   4.421   4.360
    1C        C  494   2.831   4.301   4.484
    1C        C  495   2.944   4.386   4.483
    1C        C  496   2.774   4.255   4.605
    1C        C  497   2.819   4.314   4.725
    1C        C  498   2.662   4.164   4.844
    1C        C  499   2.751   4.274   4.843
    1C        C  500   2.597   4.113   4.957
    1C        C  501   4.000   4.348   2.040
    1C        C  502   3.819   4.470   2.159
    1C        C  503   3.942   4.400   2.157
    1C        C  504   3.743   4.476   2.278
    1C        C  505   3.812   4.457   2.399
    1C        C  506   3.603   4.503   2.519
    1C        C  507   3.742   4.475   2.520
    1C        C  508   3.534   4.517   2.641
    1C        C  509   3.606   4.512   2.763
    1C        C  510   3.396   4.526   2.889
    1C        C  511   3.537   4.523   2.885
    1C        C  512   3.321   4.525   3.010
    1C        C  513   3.396   4.533   3.130
    1C        C  514   3.189   4.488   3.256
    1C        C  515   3.325   4.527   3.252
    1C        C  516   3.124   4.463   3.379
    1C        C  517   3.188   4.492   3.501
    1C        C  518   2.999   4.407   3.623
    1C        C  519   3.123   4.476   3.626
    1C        C  520   2.942   4.372   3.747
    1C        C  521   2.999   4.414   3.870
    1C        C  522   2.836   4.283   3.996
    1C        C  523   2.943   4.376   3.994
    1C        C  524   2.788   4.236   4.120
    1C        C  525   2.832   4.290   4.242
    1C        C  526   2.693   4.133   4.364
    1C        C  527   2.778   4.246   4.365
    1C        C  528   2.652   4.074   4.485
    1C        C  529   2.689   4.143   4.603
    1C        C  530   2.583   3.961   4.728
    1C        C  531   2.640   4.092   4.725
    1C        C  532   2.541   3.898   4.849
    1C        C  533   2.523   3.994   4.953
    1C        C  534   3.619   4.554   2.040
    1C        C  535   3.753   4.515   2.044
    1C        C  536   3.534   4.534   2.154
    1C        C  537   3.606   4.511   2.274
    1C        C  538   3.394   4.510   2.400
    1C        C  539   3.535   4.516   2.396
    1C        C  540   3.322   4.506   2.522
    1C        C  541   3.393   4.509   2.644
    1C        C  542   3.187   4.483   2.766
    1C        C  543   3.326   4.509   2.768
    1C        C  544   3.120   4.464   2.889
    1C        C  545   3.185   4.487   3.012
    1C        C  546   2.995   4.398   3.135
    1C        C  547   3.119   4.466   3.135
    1C        C  548   2.940   4.358   3.259
    1C        C  549   2.998   4.399   3.381
    1C        C  550   2.829   4.275   3.506
    1C        C  551   2.934   4.369   3.504
    1C        C  552   2.780   4.229   3.630
    1C        C  553   2.833   4.283   3.750
    1C        C  554   2.706   4.117   3.875
    1C        C  555   2.785   4.234   3.874
    1C        C  556   2.660   4.064   3.997
    1C        C  557   2.702   4.124   4.118
    1C        C  558   2.607   3.938   4.244
    1C        C  559   2.668   4.065   4.242
    1C        C  560   2.576   3.875   4.367
    1C        C  561   2.593   3.946   4.488
    1C        C  562   2.527   3.747   4.615
    1C        C  563   2.562   3.884   4.612
    1C        C  564   2.509   3.680   4.738
    1C        C  565   2.512   3.758   4.856
    1C        C  566   2.526   3.545   4.978
    1C        C  567   2.522   3.684   4.975
    1C        C  568   3.326   4.473   2.038
    1C        C  569   3.394   4.512   2.155
    1C        C  570   3.184   4.474   2.282
    1C        C  571   3.324   4.502   2.278
    1C        C  572   3.113   4.455   2.402
    1C        C  573   3.182   4.481   2.523
    1C        C  574   2.989   4.400   2.649
    1C        C  575   3.115   4.464   2.646
    1C        C  576   2.934   4.354   2.771
    1C        C  577   2.998   4.393   2.890
    1C        C  578   2.826   4.270   3.016
    1C        C  579   2.936   4.359   3.013
    1C        C  580   2.780   4.219   3.139
    1C        C  581   2.835   4.263   3.261
    1C        C  582   2.689   4.113   3.385
    1C        C  583   2.785   4.216   3.385
    1C        C  584   2.656   4.057   3.510
    1C        C  585   2.695   4.116   3.633
    1C        C  586   2.596   3.930   3.755
    1C        C  587   2.662   4.055   3.756
    1C        C  588   2.574   3.867   3.880
    1C        C  589   2.600   3.936   4.000
    1C        C  590   2.534   3.736   4.128
    1C        C  591   2.578   3.871   4.123
    1C        C  592   2.513   3.669   4.250
    1C        C  593   2.532   3.741   4.371
    1C        C  594   2.507   3.533   4.498
    1C        C  595   2.519   3.674   4.495
    1C        C  596   2.511   3.463   4.621
    1C        C  597   2.511   3.538   4.741
    1C        C  598   2.530   3.326   4.862
    1C        C  599   2.522   3.466   4.862
    1C        C  600   2.527   3.244   4.976
    1C        C  601   3.193   4.438   2.040
    1C        C  602   2.985   4.391   2.157
    1C        C  603   3.120   4.439   2.160
    1C        C  604   2.927   4.358   2.283
    1C        C  605   2.985   4.397   2.405
    1C        C  606   2.821   4.266   2.529
    1C        C  607   2.927   4.360   2.529
    1C        C  608   2.772   4.217   2.652
    1C        C  609   2.826   4.263   2.774
    1C        C  610   2.686   4.106   2.896
    1C        C  611   2.772   4.218   2.896
    1C        C  612   2.649   4.049   3.020
    1C        C  613   2.693   4.107   3.141
    1C        C  614   2.588   3.925   3.264
    1C        C  615   2.652   4.051   3.264
    1C        C  616   2.565   3.864   3.389
    1C        C  617   2.594   3.930   3.511
    1C        C  618   2.532   3.728   3.638
    1C        C  619   2.571   3.863   3.633
    1C        C  620   2.512   3.662   3.762
    1C        C  621   2.526   3.734   3.883
    1C        C  622   2.507   3.526   4.009
    1C        C  623   2.514   3.667   4.007
    1C        C  624   2.505   3.457   4.132
    1C        C  625   2.502   3.528   4.254
    1C        C  626   2.531   3.321   4.379
    1C        C  627   2.504   3.460   4.378
    1C        C  628   2.551   3.252   4.501
    1C        C  629   2.533   3.323   4.621
    1C        C  630   2.594   3.118   4.744
    1C        C  631   2.549   3.253   4.742
    1C        C  632   2.615   3.045   4.864
    1C        C  633   2.558   3.107   4.980
    1C        C  634   2.779   4.304   2.056
    1C        C  635   2.893   4.384   2.047
    1C        C  636   2.748   4.228   2.170
    1C        C  637   2.814   4.272   2.287
    1C        C  638   2.683   4.103   2.410
    1C        C  639   2.768   4.216   2.408
    1C        C  640   2.645   4.043   2.532
    1C        C  641   2.687   4.104   2.652
    1C        C  642   2.581   3.921   2.778
    1C        C  643   2.647   4.046   2.775
    1C        C  644   2.555   3.857   2.901
    1C        C  645   2.582   3.924   3.022
    1C        C  646   2.520   3.721   3.147
    1C        C  647   2.559   3.856   3.143
    1C        C  648   2.511   3.655   3.272
    1C        C  649   2.529   3.728   3.392
    1C        C  650   2.506   3.518   3.519
    1C        C  651   2.518   3.659   3.515
    1C        C  652   2.504   3.450   3.643
    1C        C  653   2.500   3.521   3.765
    1C        C  654   2.530   3.313   3.888
    1C        C  655   2.508   3.452   3.888
    1C        C  656   2.547   3.249   4.013
    1C        C  657   2.527   3.317   4.135
    1C        C  658   2.601   3.119   4.256
    1C        C  659   2.551   3.251   4.258
    1C        C  660   2.637   3.059   4.379
    1C        C  661   2.602   3.120   4.501
    1C        C  662   2.711   2.939   4.624
    1C        C  663   2.630   3.055   4.623
    1C        C  664   2.750   2.875   4.744
    1C        C  665   2.698   2.929   4.865
    1C        C  666   2.748   2.872   4.983
    1C        C  667   2.676   4.024   2.054
    1C        C  668   2.681   4.104   2.169
    1C        C  669   2.585   3.911   2.292
    1C        C  670   2.641   4.042   2.290
    1C        C  671   2.557   3.848   2.415
    1C        C  672   2.582   3.916   2.536
    1C        C  673   2.511   3.716   2.660
    1C        C  674   2.553   3.851   2.658
    1C        C  675   2.504   3.647   2.783
    1C        C  676   2.523   3.719   2.903
    1C        C  677   2.501   3.509   3.030
    1C        C  678   2.509   3.650   3.025
    1C        C  679   2.509   3.439   3.153
    1C        C  680   2.504   3.514   3.273
    1C        C  681   2.524   3.308   3.399
    1C        C  682   2.501   3.447   3.397
    1C        C  683   2.546   3.243   3.522
    1C        C  684   2.525   3.310   3.644
    1C        C  685   2.599   3.111   3.772
    1C        C  686   2.548   3.243   3.767
    1C        C  687   2.634   3.052   3.895
    1C        C  688   2.597   3.117   4.015
    1C        C  689   2.711   2.937   4.138
    1C        C  690   2.628   3.051   4.136
    1C        C  691   2.759   2.885   4.260
    1C        C  692   2.714   2.941   4.382
    1C        C  693   2.756   2.881   4.503
    1C        C  694   2.631   3.891   2.058
    1C        C  695   2.525   3.704   2.176
    1C        C  696   2.574   3.836   2.173
    1C        C  697   2.500   3.638   2.298
    1C        C  698   2.513   3.713   2.417
    1C        C  699   2.479   3.505   2.544
    1C        C  700   2.490   3.646   2.539
    1C        C  701   2.485   3.433   2.665
    1C        C  702   2.493   3.506   2.786
    1C        C  703   2.520   3.296   2.910
    1C        C  704   2.502   3.437   2.909
    1C        C  705   2.539   3.228   3.033
    1C        C  706   2.526   3.299   3.154
    1C        C  707   2.592   3.103   3.281
    1C        C  708   2.542   3.235   3.279
    1C        C  709   2.627   3.044   3.405
    1C        C  710   2.599   3.112   3.526
    1C        C  711   2.711   2.932   3.648
    1C        C  712   2.633   3.050   3.649
    1C        C  713   2.757   2.880   3.771
    1C        C  714   2.717   2.937   3.894
    1C        C  715   2.761   2.883   4.017
    1C        C  716   2.444   3.501   2.065
    1C        C  717   2.483   3.635   2.061
    1C        C  718   2.461   3.421   2.183
    1C        C  719   2.474   3.499   2.301
    1C        C  720   2.510   3.292   2.426
    1C        C  721   2.477   3.430   2.424
    1C        C  722   2.536   3.224   2.547
    1C        C  723   2.514   3.295   2.667
    1C        C  724   2.587   3.096   2.791
    1C        C  725   2.530   3.225   2.789
    1C        C  726   2.612   3.028   2.912
    1C        C  727   2.575   3.091   3.033
    1C        C  728   2.703   2.926   3.160
    1C        C  729   2.618   3.039   3.158
    1C        C  730   2.753   2.876   3.282
    1C        C  731   2.713   2.932   3.405
    1C        C  732   2.760   2.878   3.527
    1C        C  733   2.488   3.199   2.073
    1C        C  734   2.489   3.280   2.187
    1C        C  735   2.581   3.085   2.305
    1C        C  736   2.522   3.215   2.309
    1C        C  737   2.613   3.021   2.427
    1C        C  738   2.590   3.093   2.546
    1C        C  739   2.699   2.914   2.671
    1C        C  740   2.624   3.033   2.670
    1C        C  741   2.746   2.860   2.793
    1C        C  742   2.701   2.918   2.914
    1C        C  743   2.750   2.872   3.038
    1C        C  744   2.542   3.071   2.072
    1C        C  745   2.681   2.897   2.186
    1C        C  746   2.606   3.017   2.184
    1C        C  747   2.722   2.836   2.307
    1C        C  748   2.685   2.900   2.428
    1C        C  749   2.734   2.849   2.550
    1C        C  750   2.735   2.842   2.069
    1C        C  751   3.654   2.304   1.989
    1C        O  752   3.576   2.205   1.978
    1C        O  753   3.725   2.326   1.870
    1C        C  754   4.598   3.053   1.961
    1C        O  755   4.568   3.088   1.844
    1C        O  756   4.730   3.010   1.979
    1C        C  757   4.437   4.224   1.963
    1C        O  758   4.550   4.275   1.986
    1C        O  759   4.402   4.234   1.828
    1C        C  760   3.576   4.629   1.919
    1C        O  761   3.552   4.753   1.912
    1C        O  762   3.538   4.564   1.801
    1C        C  763   2.885   4.485   1.939
    1C        O  764   2.892   4.457   1.817
    1C        O  765   2.852   4.620   1.957
    1C        C  766   2.331   3.477   1.973
    1C        O  767   2.349   3.425   1.860
    1C        O  768   2.195   3.474   2.009
    1C        C  769   4.669   3.583   5.072
    1C        O  770   4.627   3.593   5.190
    1C        O  771   4.808   3.587   5.051
    1C        C  772   4.281   4.466   5.018
    1C        O  773   4.328   4.414   5.122
    1C        O  774   4.347   4.583   4.979
    1C        C  775   4.158   2.499   5.036
    1C        O  776   4.205   2.405   4.966
    1C        O  777   4.167   2.447   5.165
    1C        C  778   2.887   4.526   5.067
    1C        O  779   2.861   4.645   5.033
    1C        O  780   2.959   4.528   5.187
    1C        C  781   2.455   3.040   5.062
    1C        O  782   2.373   2.955   5.017
    1C        O  783   2.458   3.054   5.201
    1C        C  784   2.394   4.003   5.025
    1C        O  785   2.305   4.084   4.988
    1C        O  786   2.370   3.915   5.132
    1C        C  787   2.956   2.410   2.013
    1C        O  788   2.895   2.435   1.905
    1C        O  789   2.934   2.280   2.058
    1C        C  790   3.198   2.385   5.077
    1C        O  791   3.208   2.262   5.053
    1C        O  792   3.259   2.418   5.199
    1C        H  793   4.292   3.018   5.062
    1C        H  794   4.189   2.805   5.076
    1C        H  795   4.506   3.121   5.045
    1C        H  796   4.526   3.365   5.067
    1C        H  797   4.546   3.816   5.047
    1C        H  798   4.408   3.964   5.052
    1C        H  799   4.311   4.188   5.048
    1C        H  800   4.001   4.449   5.034
    1C        H  801   3.817   4.617   5.032
    1C        H  802   3.597   4.686   4.998
    1C        H  803   3.398   4.507   5.046
    1C        H  804   3.162   4.452   5.048
    1C        H  805   3.903   2.463   5.060
    1C        H  806   3.682   2.468   5.076
    1C        H  807   3.022   2.580   5.073
    1C        H  808   3.449   2.443   5.077
    1C        H  809   2.837   2.704   5.069
    1C        H  810   2.749   2.933   5.071
    1C        H  811   2.470   3.283   5.057
    1C        H  812   2.574   3.509   5.066
    1C        H  813   2.536   3.731   5.070
    1C        H  814   2.569   4.190   5.026
    1C        H  815   2.771   4.286   5.051
    1C        H  816   2.750   2.911   1.988
    1C        H  817   2.840   2.677   1.980
    1C        H  818   3.210   2.454   1.981
    1C        H  819   3.427   2.417   1.978
    1C        H  820   3.866   2.500   1.970
    1C        H  821   4.074   2.593   1.974
    1C        H  822   4.214   2.735   1.971
    1C        H  823   4.338   2.946   1.976
    1C        H  824   4.606   3.312   1.981
    1C        H  825   4.455   3.514   1.970
    1C        H  826   4.519   3.752   1.955
    1C        H  827   3.796   4.487   1.950
    1C        H  828   3.940   4.315   1.958
    1C        H  829   4.149   4.231   1.952
    1C        H  830   4.514   3.980   1.974
    1C        H  831   2.642   3.832   1.969
    1C        H  832   2.662   4.074   1.961
    1C        H  833   2.702   4.318   1.984
    1C        H  834   3.367   4.503   1.944
    1C        H  835   3.155   4.393   1.951
    1C        H  836   2.553   3.016   1.981
    1C        H  837   2.461   3.240   1.977
    1C        H  838   2.455   3.688   1.972
    2V3OU   H29  839   2.801   3.542   2.490
    2V3OU   C27  840   2.786   3.505   2.595
    2V3OU   H27  841   2.728   3.573   2.663
    2V3OU   H28  842   2.735   3.407   2.578
    2V3OU   O11  843   2.911   3.473   2.656
    2V3OU   C15  844   2.924   3.402   2.774
    2V3OU   C13  845   3.050   3.375   2.830
    2V3OU   C14  846   3.073   3.269   2.919
    2V3OU   C16  847   2.972   3.185   2.964
    2V3OU    H6  848   2.991   3.101   3.032
    2V3OU   C12  849   3.211   3.231   2.959
    2V3OU    O2  850   3.234   3.133   3.033
    2V3OU   C10  851   3.325   3.311   2.915
    2V3OU    C8  852   3.456   3.273   2.941
    2V3OU   O10  853   3.487   3.149   2.990
    2V3OU   H26  854   3.401   3.114   3.019
    2V3OU    C6  855   3.568   3.351   2.899
    2V3OU    C5  856   3.539   3.468   2.829
    2V3OU    C4  857   3.705   3.293   2.896
    2V3OU    H4  858   3.722   3.226   2.985
    2V3OU    H5  859   3.713   3.228   2.804
    2V3OU    C2  860   3.816   3.398   2.891
    2V3OU    O6  861   3.814   3.478   3.010
    2V3OU   H21  862   3.759   3.554   2.983
    2V3OU    C3  863   3.783   3.498   2.780
    2V3OU    H2  864   3.866   3.573   2.776
    2V3OU    H3  865   3.782   3.440   2.684
    2V3OU   C25  866   3.950   3.326   2.874
    2V3OU    O7  867   3.998   3.295   2.765
    2V3OU   C26  868   4.027   3.290   3.000
    2V3OU   H22  869   4.059   3.382   3.056
    2V3OU   H23  870   4.115   3.225   2.974
    2V3OU    O8  871   3.962   3.204   3.091
    2V3OU   H24  872   3.922   3.261   3.158
    2V3OU    C1  873   3.649   3.566   2.798
    2V3OU    H1  874   3.626   3.626   2.705
    2V3OU    O3  875   3.661   3.653   2.911
    2V3OU   C19  876   3.618   3.789   2.908
    2V3OU    H9  877   3.517   3.801   2.859
    2V3OU    O4  878   3.714   3.850   2.825
    2V3OU   C20  879   3.843   3.873   2.882
    2V3OU   H10  880   3.900   3.776   2.898
    2V3OU   C24  881   3.610   3.854   3.047
    2V3OU   H16  882   3.551   3.791   3.118
    2V3OU   H17  883   3.560   3.954   3.041
    2V3OU   C23  884   3.747   3.876   3.109
    2V3OU   H15  885   3.792   3.772   3.127
    2V3OU    N1  886   3.730   3.954   3.230
    2V3OU   H19  887   3.804   3.925   3.291
    2V3OU   H20  888   3.648   3.931   3.282
    2V3OU   C21  889   3.851   3.946   3.016
    2V3OU   H11  890   3.956   3.921   3.051
    2V3OU    O5  891   3.836   4.087   3.014
    2V3OU   H18  892   3.781   4.105   3.092
    2V3OU   C22  893   3.912   3.947   2.770
    2V3OU   H12  894   3.870   4.050   2.757
    2V3OU   H13  895   3.892   3.895   2.673
    2V3OU   H14  896   4.021   3.959   2.794
    2V3OU   C11  897   3.159   3.472   2.815
    2V3OU    O1  898   3.132   3.590   2.785
    2V3OU    C9  899   3.298   3.425   2.834
    2V3OU    C7  900   3.405   3.502   2.791
    2V3OU    O9  901   3.386   3.620   2.722
    2V3OU   H25  902   3.291   3.632   2.708
    2V3OU   C17  903   2.824   3.316   2.826
    2V3OU    H7  904   2.729   3.345   2.782
    2V3OU   C18  905   2.844   3.215   2.919
    2V3OU    H8  906   2.777   3.170   2.994
    3SOL     OW  907   2.574   5.501   0.273
    3SOL    HW1  908   2.631   5.454   0.206
    3SOL    HW2  909   2.543   5.588   0.236
    4SOL     OW  910   6.803   0.035   2.176
    4SOL    HW1  911   6.811   0.120   2.228
    4SOL    HW2  912   6.728   0.043   2.111
    5SOL     OW  913   4.275   1.718   2.591
    5SOL    HW1  914   4.193   1.728   2.535
    5SOL    HW2  915   4.356   1.726   2.533
    6SOL     OW  916   3.978   0.908   1.683
    6SOL    HW1  917   3.942   0.899   1.591
    6SOL    HW2  918   4.069   0.866   1.688
    7SOL     OW  919   0.567   3.936   3.384
    7SOL    HW1  920   0.551   4.034   3.399
    7SOL    HW2  921   0.481   3.892   3.357
    8SOL     OW  922   3.315   0.842   0.148
    8SOL    HW1  923   3.394   0.786   0.123
    8SOL    HW2  924   3.240   0.826   0.084
    9SOL     OW  925   4.919   0.491   6.011
    9SOL    HW1  926   4.906   0.470   5.914
    9SOL    HW2  927   5.015   0.515   6.027
   10SOL     OW  928   1.730   5.060   5.730
   10SOL    HW1  929   1.665   4.987   5.710
   10SOL    HW2  930   1.793   5.071   5.653
   11SOL     OW  931   2.792   0.732   5.816
   11SOL    HW1  932   2.727   0.736   5.741
   11SOL    HW2  933   2.760   0.789   5.892
   12SOL     OW  934   3.318   5.378   3.425
   12SOL    HW1  935   3.235   5.403   3.375
   12SOL    HW2  936   3.298   5.301   3.485
   13SOL     OW  937   4.361   6.238   3.754
   13SOL    HW1  938   4.301   6.230   3.834
   13SOL    HW2  939   4.412   6.324   3.760
   14SOL     OW  940   3.631   5.208   5.751
   14SOL    HW1  941   3.633   5.248   5.660
   14SOL    HW2  942   3.641   5.109   5.744
   15SOL     OW  943   0.316   6.350   2.035
   15SOL    HW1  944   0.228   6.348   2.082
   15SOL    HW2  945   0.328   6.439   1.990
   16SOL     OW  946   5.585   2.630   5.937
   16SOL    HW1  947   5.499   2.675   5.912
   16SOL    HW2  948   5.607   2.652   6.032
   17SOL     OW  949   5.394   6.706   6.492
   17SOL    HW1  950   5.430   6.725   6.583
   17SOL    HW2  951   5.469   6.701   6.427
   18SOL     OW  952   3.202   1.021   5.792
   18SOL    HW1  953   3.272   0.951   5.782
   18SOL    HW2  954   3.244   1.111   5.787
   19SOL     OW  955   0.086   1.205   2.786
   19SOL    HW1  956   0.170   1.154   2.805
   19SOL    HW2  957   0.007   1.153   2.818
   20SOL     OW  958   5.364   1.614   4.327
   20SOL    HW1  959   5.390   1.677   4.254
   20SOL    HW2  960   5.265   1.601   4.328
   21SOL     OW  961   3.232   1.403   2.514
   21SOL    HW1  962   3.174   1.482   2.534
   21SOL    HW2  963   3.236   1.344   2.594
   22SOL     OW  964   1.361   6.418   6.737
   22SOL    HW1  965   1.447   6.465   6.757
   22SOL    HW2  966   1.285   6.479   6.757
   23SOL     OW  967   5.516   5.645   3.110
   23SOL    HW1  968   5.416   5.639   3.115
   23SOL    HW2  969   5.553   5.670   3.199
   24SOL     OW  970   4.043   0.003   3.593
   24SOL    HW1  971   3.961   0.032   3.642
   24SOL    HW2  972   4.035   0.026   3.497
   25SOL     OW  973   3.548   0.512   4.711
   25SOL    HW1  974   3.620   0.455   4.752
   25SOL    HW2  975   3.586   0.602   4.689
   26SOL     OW  976   0.006   0.494   0.731
   26SOL    HW1  977   6.982   0.482   0.643
   26SOL    HW2  978   6.960   0.512   0.802
   27SOL     OW  979   1.548   2.246   2.827
   27SOL    HW1  980   1.576   2.311   2.897
   27SOL    HW2  981   1.457   2.210   2.849
   28SOL     OW  982   2.633   1.207   6.129
   28SOL    HW1  983   2.643   1.137   6.199
   28SOL    HW2  984   2.563   1.273   6.157
   29SOL     OW  985   6.375   1.909   2.207
   29SOL    HW1  986   6.443   1.937   2.275
   29SOL    HW2  987   6.330   1.826   2.237
   30SOL     OW  988   3.915   0.877   3.812
   30SOL    HW1  989   3.920   0.797   3.753
   30SOL    HW2  990   3.865   0.950   3.764
   31SOL     OW  991   0.802   2.901   6.378
   31SOL    HW1  992   0.775   2.988   6.419
   31SOL    HW2  993   0.898   2.883   6.398
   32SOL     OW  994   6.827   1.871   2.584
   32SOL    HW1  995   6.736   1.872   2.624
   32SOL    HW2  996   6.853   1.776   2.563
   33SOL     OW  997   1.362   5.092   5.277
   33SOL    HW1  998   1.382   5.186   5.249
   33SOL    HW2  999   1.359   5.032   5.197
   34SOL     OW 1000   2.829   0.115   4.637
   34SOL    HW1 1001   2.901   0.116   4.567
   34SOL    HW2 1002   2.821   0.206   4.679
   35SOL     OW 1003   4.080   3.433   6.305
   35SOL    HW1 1004   4.179   3.428   6.290
   35SOL    HW2 1005   4.040   3.343   6.294
   36SOL     OW 1006   5.585   0.881   4.801
   36SOL    HW1 1007   5.640   0.865   4.719
   36SOL    HW2 1008   5.628   0.836   4.879
   37SOL     OW 1009   1.117   1.945   0.179
   37SOL    HW1 1010   1.092   1.932   0.083
   37SOL    HW2 1011   1.202   1.998   0.184
   38SOL     OW 1012   0.968   4.861   2.625
   38SOL    HW1 1013   0.994   4.778   2.576
   38SOL    HW2 1014   0.869   4.874   2.620
   39SOL     OW 1015   6.850   4.416   6.738
   39SOL    HW1 1016   6.776   4.360   6.700
   39SOL    HW2 1017   6.823   4.449   6.828
   40SOL     OW 1018   4.442   1.615   0.900
   40SOL    HW1 1019   4.368   1.556   0.934
   40SOL    HW2 1020   4.523   1.559   0.883
   41SOL     OW 1021   6.874   4.913   3.091
   41SOL    HW1 1022   6.846   4.908   3.187
   41SOL    HW2 1023   6.871   4.822   3.051
   42SOL     OW 1024   3.018   4.858   4.664
   42SOL    HW1 1025   3.028   4.783   4.598
   42SOL    HW2 1026   3.026   4.946   4.616
   43SOL     OW 1027   5.072   6.640   5.483
   43SOL    HW1 1028   5.063   6.729   5.439
   43SOL    HW2 1029   5.135   6.648   5.561
   44SOL     OW 1030   4.267   1.775   6.481
   44SOL    HW1 1031   4.176   1.741   6.458
   44SOL    HW2 1032   4.292   1.848   6.417
   45SOL     OW 1033   4.619   6.078   1.549
   45SOL    HW1 1034   4.572   6.129   1.621
   45SOL    HW2 1035   4.709   6.049   1.583
   46SOL     OW 1036   0.398   3.278   2.899
   46SOL    HW1 1037   0.442   3.244   2.982
   46SOL    HW2 1038   0.325   3.341   2.923
   47SOL     OW 1039   4.754   4.003   0.873
   47SOL    HW1 1040   4.678   4.060   0.903
   47SOL    HW2 1041   4.840   4.039   0.910
   48SOL     OW 1042   6.308   3.322   6.163
   48SOL    HW1 1043   6.303   3.416   6.196
   48SOL    HW2 1044   6.282   3.259   6.236
   49SOL     OW 1045   5.488   3.389   1.230
   49SOL    HW1 1046   5.560   3.452   1.260
   49SOL    HW2 1047   5.442   3.426   1.150
   50SOL     OW 1048   5.444   0.837   5.266
   50SOL    HW1 1049   5.447   0.936   5.258
   50SOL    HW2 1050   5.449   0.796   5.175
   51SOL     OW 1051   2.106   6.616   3.320
   51SOL    HW1 1052   2.167   6.555   3.270
   51SOL    HW2 1053   2.015   6.575   3.324
   52SOL     OW 1054   6.333   3.221   2.602
   52SOL    HW1 1055   6.368   3.237   2.510
   52SOL    HW2 1056   6.246   3.172   2.597
   53SOL     OW 1057   4.774   6.465   3.802
   53SOL    HW1 1058   4.734   6.392   3.858
   53SOL    HW2 1059   4.766   6.552   3.851
   54SOL     OW 1060   4.557   4.862   1.099
   54SOL    HW1 1061   4.599   4.861   1.008
   54SOL    HW2 1062   4.506   4.948   1.111
   55SOL     OW 1063   1.962   2.790   6.122
   55SOL    HW1 1064   1.983   2.864   6.186
   55SOL    HW2 1065   1.960   2.826   6.029
   56SOL     OW 1066   0.080   1.097   0.973
   56SOL    HW1 1067   0.005   1.033   0.964
   56SOL    HW2 1068   0.139   1.092   0.891
   57SOL     OW 1069   4.832   0.660   1.209
   57SOL    HW1 1070   4.898   0.727   1.242
   57SOL    HW2 1071   4.873   0.607   1.134
   58SOL     OW 1072   0.132   6.383   5.926
   58SOL    HW1 1073   0.146   6.324   5.847
   58SOL    HW2 1074   0.220   6.405   5.967
   59SOL     OW 1075   1.022   2.436   5.582
   59SOL    HW1 1076   1.093   2.371   5.606
   59SOL    HW2 1077   0.978   2.470   5.666
   60SOL     OW 1078   5.340   2.760   4.614
   60SOL    HW1 1079   5.244   2.788   4.618
   60SOL    HW2 1080   5.392   2.807   4.686
   61SOL     OW 1081   6.608   2.089   4.718
   61SOL    HW1 1082   6.676   2.147   4.762
   61SOL    HW2 1083   6.604   2.111   4.620
   62SOL     OW 1084   1.198   1.287   1.690
   62SOL    HW1 1085   1.286   1.246   1.713
   62SOL    HW2 1086   1.177   1.361   1.755
   63SOL     OW 1087   5.451   1.321   3.415
   63SOL    HW1 1088   5.439   1.244   3.478
   63SOL    HW2 1089   5.431   1.406   3.462
   64SOL     OW 1090   0.605   3.132   6.193
   64SOL    HW1 1091   0.598   3.201   6.266
   64SOL    HW2 1092   0.680   3.157   6.132
   65SOL     OW 1093   0.766   4.690   6.524
   65SOL    HW1 1094   0.829   4.620   6.558
   65SOL    HW2 1095   0.703   4.648   6.459
   66SOL     OW 1096   4.226   1.067   5.120
   66SOL    HW1 1097   4.300   1.112   5.170
   66SOL    HW2 1098   4.221   0.971   5.146
   67SOL     OW 1099   6.684   3.088   5.437
   67SOL    HW1 1100   6.698   3.186   5.447
   67SOL    HW2 1101   6.751   3.039   5.492
   68SOL     OW 1102   6.158   1.100   6.939
   68SOL    HW1 1103   6.167   1.028   7.008
   68SOL    HW2 1104   6.213   1.076   6.859
   69SOL     OW 1105   0.618   3.597   6.378
   69SOL    HW1 1106   0.554   3.606   6.455
   69SOL    HW2 1107   0.697   3.656   6.394
   70SOL     OW 1108   5.690   4.393   5.138
   70SOL    HW1 1109   5.646   4.479   5.164
   70SOL    HW2 1110   5.647   4.358   5.054
   71SOL     OW 1111   3.894   1.879   3.808
   71SOL    HW1 1112   3.859   1.858   3.717
   71SOL    HW2 1113   3.976   1.824   3.825
   72SOL     OW 1114   1.375   0.351   4.095
   72SOL    HW1 1115   1.456   0.352   4.037
   72SOL    HW2 1116   1.348   0.257   4.114
   73SOL     OW 1117   3.918   0.551   1.282
   73SOL    HW1 1118   3.933   0.536   1.379
   73SOL    HW2 1119   3.908   0.649   1.264
   74SOL     OW 1120   3.917   0.690   0.064
   74SOL    HW1 1121   3.873   0.637   7.014
   74SOL    HW2 1122   3.952   0.776   0.027
   75SOL     OW 1123   4.612   0.998   1.031
   75SOL    HW1 1124   4.587   0.947   1.113
   75SOL    HW2 1125   4.582   0.948   0.949
   76SOL     OW 1126   2.857   3.324   1.507
   76SOL    HW1 1127   2.884   3.314   1.603
   76SOL    HW2 1128   2.924   3.382   1.460
   77SOL     OW 1129   0.574   0.335   3.676
   77SOL    HW1 1130   0.562   0.328   3.775
   77SOL    HW2 1131   0.593   0.244   3.639
   78SOL     OW 1132   5.546   1.658   0.009
   78SOL    HW1 1133   5.529   1.581   0.070
   78SOL    HW2 1134   5.555   1.624   6.937
   79SOL     OW 1135   3.039   5.864   1.392
   79SOL    HW1 1136   2.971   5.793   1.373
   79SOL    HW2 1137   3.092   5.838   1.472
   80SOL     OW 1138   4.442   1.219   4.069
   80SOL    HW1 1139   4.515   1.284   4.090
   80SOL    HW2 1140   4.427   1.217   3.970
   81SOL     OW 1141   2.690   6.952   2.395
   81SOL    HW1 1142   2.695   7.016   2.318
   81SOL    HW2 1143   2.780   6.946   2.439
   82SOL     OW 1144   5.645   5.017   0.599
   82SOL    HW1 1145   5.646   4.940   0.535
   82SOL    HW2 1146   5.563   5.012   0.656
   83SOL     OW 1147   0.463   0.466   0.290
   83SOL    HW1 1148   0.459   0.366   0.284
   83SOL    HW2 1149   0.559   0.494   0.302
   84SOL     OW 1150   6.209   2.954   3.180
   84SOL    HW1 1151   6.143   2.889   3.218
   84SOL    HW2 1152   6.284   2.967   3.245
   85SOL     OW 1153   1.871   1.277   3.785
   85SOL    HW1 1154   1.960   1.236   3.802
   85SOL    HW2 1155   1.864   1.302   3.688
   86SOL     OW 1156   0.921   1.579   6.633
   86SOL    HW1 1157   0.913   1.542   6.541
   86SOL    HW2 1158   0.949   1.676   6.628
   87SOL     OW 1159   5.047   4.421   0.937
   87SOL    HW1 1160   5.123   4.449   0.878
   87SOL    HW2 1161   5.068   4.448   1.031
   88SOL     OW 1162   3.298   2.032   6.272
   88SOL    HW1 1163   3.301   1.936   6.246
   88SOL    HW2 1164   3.362   2.047   6.347
   89SOL     OW 1165   2.525   2.492   6.688
   89SOL    HW1 1166   2.534   2.526   6.782
   89SOL    HW2 1167   2.524   2.392   6.689
   90SOL     OW 1168   4.235   4.985   2.348
   90SOL    HW1 1169   4.225   4.992   2.249
   90SOL    HW2 1170   4.241   5.077   2.388
   91SOL     OW 1171   5.923   3.642   5.784
   91SOL    HW1 1172   5.918   3.741   5.786
   91SOL    HW2 1173   5.836   3.603   5.815
   92SOL     OW 1174   4.566   4.386   0.898
   92SOL    HW1 1175   4.526   4.295   0.906
   92SOL    HW2 1176   4.519   4.447   0.963
   93SOL     OW 1177   3.429   3.553   0.675
   93SOL    HW1 1178   3.462   3.543   0.582
   93SOL    HW2 1179   3.334   3.585   0.673
   94SOL     OW 1180   2.321   5.755   6.293
   94SOL    HW1 1181   2.386   5.712   6.230
   94SOL    HW2 1182   2.270   5.684   6.341
   95SOL     OW 1183   0.753   6.815   2.776
   95SOL    HW1 1184   0.774   6.867   2.859
   95SOL    HW2 1185   0.821   6.742   2.764
   96SOL     OW 1186   3.387   0.159   4.978
   96SOL    HW1 1187   3.292   0.161   5.009
   96SOL    HW2 1188   3.390   0.127   4.883
   97SOL     OW 1189   2.327   3.381   6.325
   97SOL    HW1 1190   2.242   3.348   6.285
   97SOL    HW2 1191   2.398   3.311   6.315
   98SOL     OW 1192   1.231   3.199   0.836
   98SOL    HW1 1193   1.153   3.137   0.826
   98SOL    HW2 1194   1.299   3.180   0.765
   99SOL     OW 1195   3.951   2.818   1.527
   99SOL    HW1 1196   3.923   2.829   1.623
   99SOL    HW2 1197   3.891   2.751   1.483
  100SOL     OW 1198   1.111   6.422   4.575
  100SOL    HW1 1199   1.071   6.433   4.484
  100SOL    HW2 1200   1.206   6.453   4.573
  101SOL     OW 1201   2.101   5.119   2.177
  101SOL    HW1 1202   2.172   5.188   2.161
  101SOL    HW2 1203   2.078   5.074   2.091
  102SOL     OW 1204   3.684   5.647   1.056
  102SOL    HW1 1205   3.731   5.696   1.129
  102SOL    HW2 1206   3.639   5.566   1.094
  103SOL     OW 1207   2.390   1.947   1.874
  103SOL    HW1 1208   2.407   1.875   1.807
  103SOL    HW2 1209   2.432   1.922   1.961
  104SOL     OW 1210   1.454   5.972   2.779
  104SOL    HW1 1211   1.421   6.043   2.841
  104SOL    HW2 1212   1.376   5.926   2.737
  105SOL     OW 1213   6.768   1.237   6.121
  105SOL    HW1 1214   6.851   1.258   6.173
  105SOL    HW2 1215   6.743   1.316   6.065
  106SOL     OW 1216   3.661   6.281   4.086
  106SOL    HW1 1217   3.712   6.351   4.135
  106SOL    HW2 1218   3.657   6.197   4.141
  107SOL     OW 1219   0.981   1.218   0.847
  107SOL    HW1 1220   1.037   1.135   0.844
  107SOL    HW2 1221   1.023   1.284   0.911
  108SOL     OW 1222   3.167   6.913   5.593
  108SOL    HW1 1223   3.221   6.993   5.565
  108SOL    HW2 1224   3.072   6.941   5.607
  109SOL     OW 1225   1.376   0.938   2.418
  109SOL    HW1 1226   1.374   0.922   2.320
  109SOL    HW2 1227   1.335   0.860   2.466
  110SOL     OW 1228   3.067   5.164   4.281
  110SOL    HW1 1229   3.039   5.259   4.268
  110SOL    HW2 1230   2.999   5.103   4.241
  111SOL     OW 1231   1.667   1.358   3.922
  111SOL    HW1 1232   1.750   1.323   3.878
  111SOL    HW2 1233   1.628   1.432   3.866
  112SOL     OW 1234   3.240   5.813   6.604
  112SOL    HW1 1235   3.280   5.762   6.527
  112SOL    HW2 1236   3.199   5.897   6.570
  113SOL     OW 1237   0.471   5.891   2.284
  113SOL    HW1 1238   0.378   5.923   2.303
  113SOL    HW2 1239   0.505   5.839   2.362
  114SOL     OW 1240   0.862   6.776   2.040
  114SOL    HW1 1241   0.928   6.792   2.114
  114SOL    HW2 1242   0.828   6.683   2.045
  115SOL     OW 1243   5.052   1.340   3.047
  115SOL    HW1 1244   5.020   1.352   2.953
  115SOL    HW2 1245   5.003   1.264   3.089
  116SOL     OW 1246   6.048   6.010   1.652
  116SOL    HW1 1247   6.067   5.912   1.655
  116SOL    HW2 1248   6.131   6.060   1.627
  117SOL     OW 1249   1.414   1.383   1.489
  117SOL    HW1 1250   1.443   1.305   1.545
  117SOL    HW2 1251   1.319   1.371   1.461
  118SOL     OW 1252   1.380   0.849   2.129
  118SOL    HW1 1253   1.314   0.889   2.066
  118SOL    HW2 1254   1.473   0.877   2.103
  119SOL     OW 1255   0.483   0.656   0.059
  119SOL    HW1 1256   0.516   0.583   0.119
  119SOL    HW2 1257   0.555   0.683   7.018
  120SOL     OW 1258   5.533   0.777   6.114
  120SOL    HW1 1259   5.436   0.763   6.135
  120SOL    HW2 1260   5.548   0.759   6.016
  121SOL     OW 1261   1.928   3.064   6.812
  121SOL    HW1 1262   1.974   3.076   6.900
  121SOL    HW2 1263   1.880   3.149   6.789
  122SOL     OW 1264   1.403   3.708   6.468
  122SOL    HW1 1265   1.440   3.623   6.431
  122SOL    HW2 1266   1.451   3.732   6.552
  123SOL     OW 1267   0.902   1.307   2.643
  123SOL    HW1 1268   0.835   1.237   2.667
  123SOL    HW2 1269   0.967   1.269   2.577
  124SOL     OW 1270   4.108   2.490   1.071
  124SOL    HW1 1271   4.175   2.459   1.139
  124SOL    HW2 1272   4.063   2.410   1.030
  125SOL     OW 1273   3.674   2.163   0.238
  125SOL    HW1 1274   3.628   2.184   0.151
  125SOL    HW2 1275   3.605   2.153   0.310
  126SOL     OW 1276   2.895   4.218   1.241
  126SOL    HW1 1277   2.853   4.133   1.273
  126SOL    HW2 1278   2.877   4.290   1.307
  127SOL     OW 1279   1.072   4.692   6.833
  127SOL    HW1 1280   1.123   4.712   6.750
  127SOL    HW2 1281   1.067   4.774   6.890
  128SOL     OW 1282   4.792   2.819   1.584
  128SOL    HW1 1283   4.873   2.835   1.527
  128SOL    HW2 1284   4.744   2.738   1.552
  129SOL     OW 1285   3.495   3.630   6.231
  129SOL    HW1 1286   3.500   3.668   6.324
  129SOL    HW2 1287   3.540   3.692   6.167
  130SOL     OW 1288   1.559   1.711   4.492
  130SOL    HW1 1289   1.576   1.794   4.544
  130SOL    HW2 1290   1.533   1.735   4.398
  131SOL     OW 1291   4.481   0.234   3.365
  131SOL    HW1 1292   4.517   0.283   3.285
  131SOL    HW2 1293   4.388   0.266   3.384
  132SOL     OW 1294   2.910   2.945   1.740
  132SOL    HW1 1295   2.911   2.846   1.753
  132SOL    HW2 1296   2.917   2.965   1.642
  133SOL     OW 1297   4.875   0.762   4.138
  133SOL    HW1 1298   4.814   0.821   4.085
  133SOL    HW2 1299   4.970   0.784   4.115
  134SOL     OW 1300   6.527   1.263   2.420
  134SOL    HW1 1301   6.537   1.164   2.408
  134SOL    HW2 1302   6.569   1.291   2.506
  135SOL     OW 1303   5.349   4.062   3.684
  135SOL    HW1 1304   5.328   4.124   3.760
  135SOL    HW2 1305   5.409   3.988   3.717
  136SOL     OW 1306   1.791   5.407   5.053
  136SOL    HW1 1307   1.795   5.394   5.152
  136SOL    HW2 1308   1.749   5.496   5.033
  137SOL     OW 1309   5.321   1.767   2.938
  137SOL    HW1 1310   5.290   1.691   2.996
  137SOL    HW2 1311   5.389   1.821   2.987
  138SOL     OW 1312   1.302   3.747   2.953
  138SOL    HW1 1313   1.326   3.699   2.869
  138SOL    HW2 1314   1.385   3.765   3.006
  139SOL     OW 1315   1.423   0.454   5.442
  139SOL    HW1 1316   1.508   0.433   5.394
  139SOL    HW2 1317   1.351   0.392   5.411
  140SOL     OW 1318   1.399   6.763   3.916
  140SOL    HW1 1319   1.312   6.724   3.884
  140SOL    HW2 1320   1.399   6.765   4.016
  141SOL     OW 1321   0.288   2.669   5.065
  141SOL    HW1 1322   0.257   2.605   4.996
  141SOL    HW2 1323   0.348   2.737   5.022
  142SOL     OW 1324   1.488   4.675   1.215
  142SOL    HW1 1325   1.503   4.732   1.296
  142SOL    HW2 1326   1.455   4.731   1.139
  143SOL     OW 1327   6.094   4.033   0.487
  143SOL    HW1 1328   6.049   3.956   0.532
  143SOL    HW2 1329   6.042   4.060   0.406
  144SOL     OW 1330   1.224   4.820   5.625
  144SOL    HW1 1331   1.231   4.731   5.578
  144SOL    HW2 1332   1.141   4.822   5.680
  145SOL     OW 1333   1.183   5.115   1.365
  145SOL    HW1 1334   1.126   5.189   1.330
  145SOL    HW2 1335   1.277   5.127   1.333
  146SOL     OW 1336   4.863   0.444   5.748
  146SOL    HW1 1337   4.808   0.507   5.694
  146SOL    HW2 1338   4.846   0.350   5.718
  147SOL     OW 1339   5.522   2.391   6.056
  147SOL    HW1 1340   5.513   2.480   6.101
  147SOL    HW2 1341   5.545   2.405   5.959
  148SOL     OW 1342   6.684   5.409   0.506
  148SOL    HW1 1343   6.713   5.328   0.558
  148SOL    HW2 1344   6.761   5.442   0.451
  149SOL     OW 1345   3.669   1.923   3.953
  149SOL    HW1 1346   3.756   1.905   3.909
  149SOL    HW2 1347   3.683   1.930   4.052
  150SOL     OW 1348   5.937   6.857   0.323
  150SOL    HW1 1349   5.936   6.758   0.326
  150SOL    HW2 1350   5.898   6.894   0.408
  151SOL     OW 1351   3.166   1.439   1.963
  151SOL    HW1 1352   3.170   1.422   1.865
  151SOL    HW2 1353   3.121   1.527   1.980
  152SOL     OW 1354   0.111   1.015   1.647
  152SOL    HW1 1355   0.143   1.107   1.621
  152SOL    HW2 1356   0.025   1.023   1.698
  153SOL     OW 1357   2.843   0.435   3.708
  153SOL    HW1 1358   2.868   0.339   3.721
  153SOL    HW2 1359   2.902   0.493   3.764
  154SOL     OW 1360   0.969   3.438   1.424
  154SOL    HW1 1361   1.068   3.442   1.428
  154SOL    HW2 1362   0.932   3.530   1.411
  155SOL     OW 1363   0.893   1.809   5.320
  155SOL    HW1 1364   0.863   1.805   5.415
  155SOL    HW2 1365   0.842   1.880   5.271
  156SOL     OW 1366   0.153   0.812   1.076
  156SOL    HW1 1367   0.220   0.752   1.031
  156SOL    HW2 1368   0.192   0.904   1.085
  157SOL     OW 1369   5.507   3.139   1.574
  157SOL    HW1 1370   5.607   3.143   1.587
  157SOL    HW2 1371   5.486   3.139   1.477
  158SOL     OW 1372   1.805   3.240   1.779
  158SOL    HW1 1373   1.852   3.215   1.695
  158SOL    HW2 1374   1.869   3.285   1.841
  159SOL     OW 1375   4.577   5.001   2.549
  159SOL    HW1 1376   4.504   5.024   2.484
  159SOL    HW2 1377   4.664   5.038   2.515
  160SOL     OW 1378   5.637   6.465   0.788
  160SOL    HW1 1379   5.643   6.509   0.698
  160SOL    HW2 1380   5.592   6.528   0.852
  161SOL     OW 1381   1.373   6.229   3.380
  161SOL    HW1 1382   1.322   6.166   3.322
  161SOL    HW2 1383   1.468   6.232   3.349
  162SOL     OW 1384   3.917   6.429   0.275
  162SOL    HW1 1385   3.913   6.497   0.348
  162SOL    HW2 1386   3.856   6.353   0.299
  163SOL     OW 1387   6.360   5.506   2.044
  163SOL    HW1 1388   6.376   5.593   2.091
  163SOL    HW2 1389   6.345   5.523   1.946
  164SOL     OW 1390   0.488   4.402   2.731
  164SOL    HW1 1391   0.408   4.349   2.761
  164SOL    HW2 1392   0.571   4.348   2.746
  165SOL     OW 1393   4.510   3.674   1.451
  165SOL    HW1 1394   4.526   3.748   1.517
  165SOL    HW2 1395   4.541   3.587   1.489
  166SOL     OW 1396   1.630   3.472   2.226
  166SOL    HW1 1397   1.716   3.492   2.179
  166SOL    HW2 1398   1.624   3.374   2.245
  167SOL     OW 1399   5.073   2.946   6.762
  167SOL    HW1 1400   4.991   2.889   6.765
  167SOL    HW2 1401   5.054   3.029   6.710
  168SOL     OW 1402   3.490   3.021   1.055
  168SOL    HW1 1403   3.423   3.022   1.129
  168SOL    HW2 1404   3.477   2.938   1.000
  169SOL     OW 1405   5.964   1.815   1.507
  169SOL    HW1 1406   5.967   1.884   1.435
  169SOL    HW2 1407   6.052   1.810   1.553
  170SOL     OW 1408   0.307   6.726   2.487
  170SOL    HW1 1409   0.290   6.791   2.561
  170SOL    HW2 1410   0.268   6.637   2.511
  171SOL     OW 1411   2.270   4.051   6.766
  171SOL    HW1 1412   2.270   4.151   6.761
  171SOL    HW2 1413   2.333   4.014   6.697
  172SOL     OW 1414   6.417   1.086   2.724
  172SOL    HW1 1415   6.461   1.168   2.761
  172SOL    HW2 1416   6.486   1.027   2.681
  173SOL     OW 1417   6.550   1.241   3.961
  173SOL    HW1 1418   6.491   1.301   3.906
  173SOL    HW2 1419   6.639   1.285   3.974
  174SOL     OW 1420   3.747   5.513   3.374
  174SOL    HW1 1421   3.658   5.556   3.389
  174SOL    HW2 1422   3.819   5.581   3.388
  175SOL     OW 1423   2.894   0.256   1.579
  175SOL    HW1 1424   2.897   0.275   1.677
  175SOL    HW2 1425   2.973   0.201   1.552
  176SOL     OW 1426   6.733   4.561   1.079
  176SOL    HW1 1427   6.780   4.493   1.136
  176SOL    HW2 1428   6.792   4.585   1.002
  177SOL     OW 1429   5.849   3.294   3.542
  177SOL    HW1 1430   5.873   3.328   3.451
  177SOL    HW2 1431   5.770   3.233   3.535
  178SOL     OW 1432   3.177   4.360   6.001
  178SOL    HW1 1433   3.185   4.271   5.956
  178SOL    HW2 1434   3.259   4.378   6.055
  179SOL     OW 1435   4.269   1.325   6.017
  179SOL    HW1 1436   4.247   1.250   5.954
  179SOL    HW2 1437   4.258   1.412   5.969
  180SOL     OW 1438   2.041   6.889   0.293
  180SOL    HW1 1439   2.086   6.901   0.204
  180SOL    HW2 1440   2.094   6.937   0.363
  181SOL     OW 1441   3.520   3.509   5.545
  181SOL    HW1 1442   3.453   3.444   5.509
  181SOL    HW2 1443   3.541   3.487   5.640
  182SOL     OW 1444   3.646   1.857   5.371
  182SOL    HW1 1445   3.618   1.897   5.283
  182SOL    HW2 1446   3.586   1.891   5.443
  183SOL     OW 1447   3.731   1.834   3.286
  183SOL    HW1 1448   3.638   1.866   3.302
  183SOL    HW2 1449   3.767   1.876   3.202
  184SOL     OW 1450   0.918   6.721   3.989
  184SOL    HW1 1451   0.883   6.630   4.012
  184SOL    HW2 1452   1.009   6.713   3.948
  185SOL     OW 1453   0.475   0.606   5.734
  185SOL    HW1 1454   0.554   0.666   5.722
  185SOL    HW2 1455   0.415   0.612   5.654
  186SOL     OW 1456   6.145   0.697   4.049
  186SOL    HW1 1457   6.094   0.696   3.962
  186SOL    HW2 1458   6.152   0.603   4.083
  187SOL     OW 1459   5.170   6.431   2.090
  187SOL    HW1 1460   5.183   6.526   2.118
  187SOL    HW2 1461   5.136   6.428   1.996
  188SOL     OW 1462   1.342   3.340   3.138
  188SOL    HW1 1463   1.367   3.358   3.043
  188SOL    HW2 1464   1.339   3.241   3.153
  189SOL     OW 1465   2.577   5.423   0.709
  189SOL    HW1 1466   2.526   5.358   0.765
  189SOL    HW2 1467   2.515   5.472   0.648
  190SOL     OW 1468   5.431   3.397   5.538
  190SOL    HW1 1469   5.454   3.301   5.552
  190SOL    HW2 1470   5.334   3.411   5.558
  191SOL     OW 1471   5.957   0.303   6.421
  191SOL    HW1 1472   6.019   0.228   6.399
  191SOL    HW2 1473   5.868   0.287   6.379
  192SOL     OW 1474   1.007   4.646   2.467
  192SOL    HW1 1475   0.944   4.633   2.391
  192SOL    HW2 1476   1.093   4.598   2.448
  193SOL     OW 1477   4.476   3.743   5.323
  193SOL    HW1 1478   4.388   3.767   5.282
  193SOL    HW2 1479   4.529   3.687   5.259
  194SOL     OW 1480   3.903   0.616   2.793
  194SOL    HW1 1481   3.991   0.574   2.771
  194SOL    HW2 1482   3.910   0.715   2.785
  195SOL     OW 1483   1.566   0.231   4.349
  195SOL    HW1 1484   1.612   0.316   4.323
  195SOL    HW2 1485   1.467   0.248   4.356
  196SOL     OW 1486   3.276   0.671   0.579
  196SOL    HW1 1487   3.237   0.620   0.503
  196SOL    HW2 1488   3.227   0.648   0.663
  197SOL     OW 1489   2.444   0.498   1.591
  197SOL    HW1 1490   2.428   0.400   1.582
  197SOL    HW2 1491   2.422   0.543   1.504
  198SOL     OW 1492   5.159   0.220   1.787
  198SOL    HW1 1493   5.158   0.126   1.752
  198SOL    HW2 1494   5.079   0.269   1.753
  199SOL     OW 1495   6.546   1.473   3.263
  199SOL    HW1 1496   6.456   1.454   3.301
  199SOL    HW2 1497   6.556   1.571   3.246
  200SOL     OW 1498   1.070   4.212   1.798
  200SOL    HW1 1499   1.081   4.280   1.871
  200SOL    HW2 1500   0.998   4.148   1.823
  201SOL     OW 1501   6.943   6.652   6.270
  201SOL    HW1 1502   6.858   6.667   6.320
  201SOL    HW2 1503   7.016   6.628   6.334
  202SOL     OW 1504   4.786   0.165   6.016
  202SOL    HW1 1505   4.835   0.211   6.090
  202SOL    HW2 1506   4.811   0.206   5.928
  203SOL     OW 1507   4.486   2.380   4.427
  203SOL    HW1 1508   4.454   2.293   4.464
  203SOL    HW2 1509   4.520   2.437   4.501
  204SOL     OW 1510   0.435   1.021   6.532
  204SOL    HW1 1511   0.529   1.027   6.499
  204SOL    HW2 1512   0.377   0.981   6.462
  205SOL     OW 1513   0.718   0.948   3.239
  205SOL    HW1 1514   0.708   1.047   3.245
  205SOL    HW2 1515   0.813   0.925   3.219
  206SOL     OW 1516   0.237   4.982   1.808
  206SOL    HW1 1517   0.204   5.074   1.830
  206SOL    HW2 1518   0.165   4.916   1.828
  207SOL     OW 1519   5.173   1.289   3.734
  207SOL    HW1 1520   5.215   1.200   3.755
  207SOL    HW2 1521   5.142   1.288   3.638
  208SOL     OW 1522   5.370   2.676   5.189
  208SOL    HW1 1523   5.326   2.593   5.222
  208SOL    HW2 1524   5.407   2.660   5.098
  209SOL     OW 1525   0.223   4.378   4.617
  209SOL    HW1 1526   0.257   4.308   4.554
  209SOL    HW2 1527   0.204   4.336   4.706
  210SOL     OW 1528   4.286   1.744   0.687
  210SOL    HW1 1529   4.338   1.669   0.729
  210SOL    HW2 1530   4.196   1.751   0.731
  211SOL     OW 1531   2.570   6.025   3.536
  211SOL    HW1 1532   2.477   6.020   3.498
  211SOL    HW2 1533   2.610   5.933   3.536
  212SOL     OW 1534   1.559   4.338   1.598
  212SOL    HW1 1535   1.463   4.317   1.614
  212SOL    HW2 1536   1.583   4.318   1.504
  213SOL     OW 1537   2.840   0.577   6.518
  213SOL    HW1 1538   2.789   0.522   6.584
  213SOL    HW2 1539   2.938   0.571   6.538
  214SOL     OW 1540   4.869   5.286   1.363
  214SOL    HW1 1541   4.936   5.334   1.306
  214SOL    HW2 1542   4.806   5.353   1.402
  215SOL     OW 1543   2.162   3.872   0.617
  215SOL    HW1 1544   2.115   3.939   0.560
  215SOL    HW2 1545   2.105   3.849   0.696
  216SOL     OW 1546   2.349   5.952   4.191
  216SOL    HW1 1547   2.360   5.957   4.291
  216SOL    HW2 1548   2.299   5.869   4.167
  217SOL     OW 1549   1.891   2.452   3.917
  217SOL    HW1 1550   1.949   2.479   3.994
  217SOL    HW2 1551   1.870   2.531   3.861
  218SOL     OW 1552   1.084   3.069   4.255
  218SOL    HW1 1553   1.009   3.124   4.292
  218SOL    HW2 1554   1.046   2.992   4.204
  219SOL     OW 1555   4.325   6.482   5.901
  219SOL    HW1 1556   4.424   6.486   5.915
  219SOL    HW2 1557   4.305   6.455   5.807
  220SOL     OW 1558   4.090   0.021   0.749
  220SOL    HW1 1559   4.063   6.954   0.786
  220SOL    HW2 1560   4.176   0.049   0.792
  221SOL     OW 1561   6.367   2.914   1.845
  221SOL    HW1 1562   6.414   2.997   1.816
  221SOL    HW2 1563   6.359   2.851   1.767
  222SOL     OW 1564   2.667   4.748   5.822
  222SOL    HW1 1565   2.579   4.795   5.820
  222SOL    HW2 1566   2.660   4.667   5.881
  223SOL     OW 1567   5.606   2.733   0.998
  223SOL    HW1 1568   5.559   2.676   1.066
  223SOL    HW2 1569   5.671   2.677   0.947
  224SOL     OW 1570   2.141   2.340   4.868
  224SOL    HW1 1571   2.229   2.293   4.863
  224SOL    HW2 1572   2.118   2.376   4.778
  225SOL     OW 1573   4.853   2.582   6.288
  225SOL    HW1 1574   4.950   2.559   6.298
  225SOL    HW2 1575   4.797   2.510   6.330
  226SOL     OW 1576   1.073   0.666   6.212
  226SOL    HW1 1577   1.059   0.749   6.158
  226SOL    HW2 1578   1.171   0.645   6.215
  227SOL     OW 1579   1.406   3.582   3.276
  227SOL    HW1 1580   1.367   3.499   3.236
  227SOL    HW2 1581   1.337   3.655   3.275
  228SOL     OW 1582   3.028   6.108   3.390
  228SOL    HW1 1583   3.002   6.033   3.451
  228SOL    HW2 1584   2.983   6.095   3.301
  229SOL     OW 1585   4.967   6.027   6.919
  229SOL    HW1 1586   5.010   6.094   6.980
  229SOL    HW2 1587   4.987   6.050   6.824
  230SOL     OW 1588   3.082   4.844   3.320
  230SOL    HW1 1589   2.996   4.807   3.355
  230SOL    HW2 1590   3.129   4.774   3.267
  231SOL     OW 1591   5.929   1.765   6.684
  231SOL    HW1 1592   5.921   1.774   6.585
  231SOL    HW2 1593   6.004   1.824   6.716
  232SOL     OW 1594   1.000   3.935   6.157
  232SOL    HW1 1595   0.905   3.911   6.139
  232SOL    HW2 1596   1.059   3.890   6.091
  233SOL     OW 1597   2.202   2.366   3.990
  233SOL    HW1 1598   2.244   2.414   3.913
  233SOL    HW2 1599   2.153   2.432   4.048
  234SOL     OW 1600   4.106   6.615   4.877
  234SOL    HW1 1601   4.085   6.517   4.868
  234SOL    HW2 1602   4.022   6.668   4.863
  235SOL     OW 1603   3.517   2.974   1.677
  235SOL    HW1 1604   3.432   3.026   1.668
  235SOL    HW2 1605   3.508   2.909   1.753
  236SOL     OW 1606   5.060   3.113   0.027
  236SOL    HW1 1607   5.074   3.195   6.994
  236SOL    HW2 1608   5.030   3.038   6.990
  237SOL     OW 1609   6.046   5.015   2.014
  237SOL    HW1 1610   6.050   5.109   2.048
  237SOL    HW2 1611   6.134   4.971   2.028
  238SOL     OW 1612   5.170   2.571   6.929
  238SOL    HW1 1613   5.233   2.495   6.913
  238SOL    HW2 1614   5.100   2.571   6.857
  239SOL     OW 1615   0.230   5.459   5.421
  239SOL    HW1 1616   0.150   5.401   5.435
  239SOL    HW2 1617   0.283   5.462   5.506
  240SOL     OW 1618   0.463   2.730   3.781
  240SOL    HW1 1619   0.476   2.703   3.876
  240SOL    HW2 1620   0.547   2.710   3.729
  241SOL     OW 1621   1.681   0.279   5.033
  241SOL    HW1 1622   1.775   0.270   5.001
  241SOL    HW2 1623   1.619   0.233   4.970
  242SOL     OW 1624   2.919   3.224   5.592
  242SOL    HW1 1625   2.819   3.221   5.582
  242SOL    HW2 1626   2.946   3.314   5.627
  243SOL     OW 1627   4.322   0.231   5.742
  243SOL    HW1 1628   4.336   0.330   5.748
  243SOL    HW2 1629   4.395   0.184   5.791
  244SOL     OW 1630   5.786   2.252   4.685
  244SOL    HW1 1631   5.725   2.173   4.673
  244SOL    HW2 1632   5.768   2.318   4.612
  245SOL     OW 1633   6.517   3.527   4.733
  245SOL    HW1 1634   6.510   3.627   4.741
  245SOL    HW2 1635   6.483   3.499   4.644
  246SOL     OW 1636   4.744   2.370   3.165
  246SOL    HW1 1637   4.746   2.272   3.143
  246SOL    HW2 1638   4.684   2.418   3.101
  247SOL     OW 1639   3.285   1.827   1.760
  247SOL    HW1 1640   3.290   1.791   1.667
  247SOL    HW2 1641   3.230   1.912   1.761
  248SOL     OW 1642   3.451   2.120   2.537
  248SOL    HW1 1643   3.404   2.136   2.450
  248SOL    HW2 1644   3.491   2.029   2.538
  249SOL     OW 1645   4.063   0.172   5.680
  249SOL    HW1 1646   4.066   0.155   5.582
  249SOL    HW2 1647   4.154   0.198   5.712
  250SOL     OW 1648   5.144   2.659   0.791
  250SOL    HW1 1649   5.077   2.613   0.850
  250SOL    HW2 1650   5.212   2.705   0.848
  251SOL     OW 1651   4.785   3.693   5.510
  251SOL    HW1 1652   4.717   3.622   5.489
  251SOL    HW2 1653   4.814   3.737   5.425
  252SOL     OW 1654   6.613   6.969   6.639
  252SOL    HW1 1655   6.657   6.939   6.723
  252SOL    HW2 1656   6.677   0.002   6.585
  253SOL     OW 1657   2.481   4.331   7.015
  253SOL    HW1 1658   2.387   4.303   0.015
  253SOL    HW2 1659   2.523   4.373   0.074
  254SOL     OW 1660   5.029   3.124   3.136
  254SOL    HW1 1661   5.041   3.129   3.037
  254SOL    HW2 1662   4.947   3.071   3.157
  255SOL     OW 1663   2.152   3.313   4.761
  255SOL    HW1 1664   2.056   3.330   4.740
  255SOL    HW2 1665   2.166   3.318   4.860
  256SOL     OW 1666   6.447   4.145   6.310
  256SOL    HW1 1667   6.517   4.120   6.377
  256SOL    HW2 1668   6.370   4.081   6.315
  257SOL     OW 1669   4.723   6.910   4.151
  257SOL    HW1 1670   4.782   6.991   4.159
  257SOL    HW2 1671   4.643   6.931   4.095
  258SOL     OW 1672   0.496   4.952   4.952
  258SOL    HW1 1673   0.499   5.033   5.010
  258SOL    HW2 1674   0.454   4.975   4.864
  259SOL     OW 1675   1.626   2.149   2.214
  259SOL    HW1 1676   1.652   2.069   2.268
  259SOL    HW2 1677   1.568   2.209   2.269
  260SOL     OW 1678   4.776   1.171   0.775
  260SOL    HW1 1679   4.785   1.140   0.870
  260SOL    HW2 1680   4.791   1.093   0.714
  261SOL     OW 1681   6.563   3.580   0.111
  261SOL    HW1 1682   6.494   3.558   0.042
  261SOL    HW2 1683   6.561   3.679   0.129
  262SOL     OW 1684   6.747   4.299   0.347
  262SOL    HW1 1685   6.796   4.232   0.292
  262SOL    HW2 1686   6.807   4.330   0.421
  263SOL     OW 1687   0.660   1.066   3.918
  263SOL    HW1 1688   0.659   1.002   3.994
  263SOL    HW2 1689   0.572   1.062   3.870
  264SOL     OW 1690   4.593   3.162   5.778
  264SOL    HW1 1691   4.497   3.189   5.768
  264SOL    HW2 1692   4.605   3.111   5.863
  265SOL     OW 1693   4.609   5.640   3.092
  265SOL    HW1 1694   4.638   5.570   3.026
  265SOL    HW2 1695   4.605   5.600   3.183
  266SOL     OW 1696   3.809   3.232   5.689
  266SOL    HW1 1697   3.721   3.279   5.680
  266SOL    HW2 1698   3.833   3.190   5.601
  267SOL     OW 1699   6.515   2.408   6.176
  267SOL    HW1 1700   6.570   2.388   6.095
  267SOL    HW2 1701   6.452   2.333   6.193
  268SOL     OW 1702   4.062   0.126   5.397
  268SOL    HW1 1703   4.126   0.170   5.333
  268SOL    HW2 1704   4.102   0.041   5.431
  269SOL     OW 1705   1.597   3.065   1.087
  269SOL    HW1 1706   1.502   3.062   1.118
  269SOL    HW2 1707   1.619   3.159   1.060
  270SOL     OW 1708   0.339   0.298   0.637
  270SOL    HW1 1709   0.333   0.384   0.687
  270SOL    HW2 1710   0.346   0.222   0.702
  271SOL     OW 1711   2.544   1.633   0.601
  271SOL    HW1 1712   2.453   1.593   0.619
  271SOL    HW2 1713   2.535   1.707   0.535
  272SOL     OW 1714   3.039   4.842   4.128
  272SOL    HW1 1715   2.941   4.821   4.134
  272SOL    HW2 1716   3.079   4.838   4.219
  273SOL     OW 1717   2.189   4.718   4.734
  273SOL    HW1 1718   2.106   4.773   4.745
  273SOL    HW2 1719   2.268   4.770   4.763
  274SOL     OW 1720   5.038   2.288   3.737
  274SOL    HW1 1721   4.939   2.278   3.749
  274SOL    HW2 1722   5.083   2.202   3.762
  275SOL     OW 1723   6.366   4.942   5.851
  275SOL    HW1 1724   6.292   4.877   5.866
  275SOL    HW2 1725   6.361   5.014   5.920
  276SOL     OW 1726   0.060   5.189   2.424
  276SOL    HW1 1727   0.092   5.265   2.368
  276SOL    HW2 1728   0.052   5.218   2.519
  277SOL     OW 1729   2.042   4.007   0.434
  277SOL    HW1 1730   1.955   3.994   0.481
  277SOL    HW2 1731   2.033   3.974   0.340
  278SOL     OW 1732   0.154   5.307   1.586
  278SOL    HW1 1733   0.128   5.336   1.494
  278SOL    HW2 1734   0.102   5.360   1.653
  279SOL     OW 1735   6.382   3.021   4.386
  279SOL    HW1 1736   6.449   3.053   4.454
  279SOL    HW2 1737   6.429   2.965   4.318
  280SOL     OW 1738   2.244   6.806   2.970
  280SOL    HW1 1739   2.159   6.755   2.958
  280SOL    HW2 1740   2.317   6.743   2.999
  281SOL     OW 1741   3.226   4.855   2.159
  281SOL    HW1 1742   3.281   4.775   2.134
  281SOL    HW2 1743   3.201   4.849   2.256
  282SOL     OW 1744   3.508   1.112   5.399
  282SOL    HW1 1745   3.502   1.092   5.301
  282SOL    HW2 1746   3.605   1.121   5.425
  283SOL     OW 1747   6.923   1.218   5.602
  283SOL    HW1 1748   6.919   1.140   5.540
  283SOL    HW2 1749   6.838   1.270   5.596
  284SOL     OW 1750   0.816   4.390   4.517
  284SOL    HW1 1751   0.739   4.442   4.479
  284SOL    HW2 1752   0.828   4.305   4.466
  285SOL     OW 1753   5.592   5.185   6.060
  285SOL    HW1 1754   5.690   5.188   6.043
  285SOL    HW2 1755   5.543   5.187   5.972
  286SOL     OW 1756   3.451   5.428   5.095
  286SOL    HW1 1757   3.433   5.478   5.180
  286SOL    HW2 1758   3.407   5.338   5.100
  287SOL     OW 1759   0.760   4.610   7.004
  287SOL    HW1 1760   0.741   4.512   6.996
  287SOL    HW2 1761   0.815   4.640   6.927
  288SOL     OW 1762   4.111   2.204   6.352
  288SOL    HW1 1763   4.173   2.133   6.320
  288SOL    HW2 1764   4.031   2.162   6.395
  289SOL     OW 1765   6.965   5.301   5.289
  289SOL    HW1 1766   6.935   5.342   5.375
  289SOL    HW2 1767   6.966   5.201   5.299
  290SOL     OW 1768   5.131   1.611   4.004
  290SOL    HW1 1769   5.097   1.702   3.979
  290SOL    HW2 1770   5.161   1.611   4.099
  291SOL     OW 1771   2.760   1.743   4.715
  291SOL    HW1 1772   2.732   1.753   4.620
  291SOL    HW2 1773   2.713   1.812   4.771
  292SOL     OW 1774   2.231   1.755   2.601
  292SOL    HW1 1775   2.200   1.834   2.548
  292SOL    HW2 1776   2.286   1.695   2.543
  293SOL     OW 1777   4.698   4.901   1.727
  293SOL    HW1 1778   4.697   4.989   1.679
  293SOL    HW2 1779   4.714   4.828   1.661
  294SOL     OW 1780   6.499   5.589   6.585
  294SOL    HW1 1781   6.441   5.655   6.632
  294SOL    HW2 1782   6.499   5.608   6.486
  295SOL     OW 1783   3.127   1.407   4.307
  295SOL    HW1 1784   3.087   1.420   4.216
  295SOL    HW2 1785   3.071   1.345   4.360
  296SOL     OW 1786   6.028   1.997   2.410
  296SOL    HW1 1787   6.011   2.075   2.470
  296SOL    HW2 1788   6.045   2.029   2.317
  297SOL     OW 1789   3.035   4.925   2.998
  297SOL    HW1 1790   3.027   4.963   2.906
  297SOL    HW2 1791   2.944   4.916   3.039
  298SOL     OW 1792   3.323   6.078   0.712
  298SOL    HW1 1793   3.247   6.027   0.751
  298SOL    HW2 1794   3.364   6.135   0.782
  299SOL     OW 1795   3.819   3.580   5.896
  299SOL    HW1 1796   3.833   3.599   5.799
  299SOL    HW2 1797   3.791   3.664   5.944
  300SOL     OW 1798   5.611   0.663   2.127
  300SOL    HW1 1799   5.557   0.582   2.147
  300SOL    HW2 1800   5.570   0.713   2.051
  301SOL     OW 1801   5.654   3.315   0.973
  301SOL    HW1 1802   5.723   3.319   1.045
  301SOL    HW2 1803   5.676   3.383   0.902
  302SOL     OW 1804   0.395   0.849   3.655
  302SOL    HW1 1805   0.403   0.939   3.699
  302SOL    HW2 1806   0.453   0.847   3.573
  303SOL     OW 1807   6.556   0.016   2.043
  303SOL    HW1 1808   6.536   7.017   1.947
  303SOL    HW2 1809   6.537   6.957   2.099
  304SOL     OW 1810   1.857   6.789   5.612
  304SOL    HW1 1811   1.893   6.769   5.521
  304SOL    HW2 1812   1.924   6.763   5.682
  305SOL     OW 1813   1.221   3.343   6.981
  305SOL    HW1 1814   1.241   3.284   6.903
  305SOL    HW2 1815   1.232   3.292   0.044
  306SOL     OW 1816   1.807   6.855   3.655
  306SOL    HW1 1817   1.888   6.911   3.633
  306SOL    HW2 1818   1.759   6.832   3.570
  307SOL     OW 1819   4.972   5.860   0.180
  307SOL    HW1 1820   5.016   5.947   0.203
  307SOL    HW2 1821   5.033   5.806   0.121
  308SOL     OW 1822   6.415   3.504   4.477
  308SOL    HW1 1823   6.323   3.480   4.506
  308SOL    HW2 1824   6.415   3.597   4.440
  309SOL     OW 1825   2.763   6.274   6.953
  309SOL    HW1 1826   2.758   6.214   6.873
  309SOL    HW2 1827   2.708   6.356   6.936
  310SOL     OW 1828   5.819   6.257   5.251
  310SOL    HW1 1829   5.769   6.178   5.286
  310SOL    HW2 1830   5.754   6.332   5.234
  311SOL     OW 1831   4.545   4.929   2.824
  311SOL    HW1 1832   4.461   4.980   2.842
  311SOL    HW2 1833   4.573   4.942   2.729
  312SOL     OW 1834   4.106   1.091   4.766
  312SOL    HW1 1835   4.196   1.131   4.782
  312SOL    HW2 1836   4.115   1.010   4.709
  313SOL     OW 1837   2.955   3.857   2.291
  313SOL    HW1 1838   2.913   3.792   2.229
  313SOL    HW2 1839   2.904   3.943   2.290
  314SOL     OW 1840   2.964   5.486   6.931
  314SOL    HW1 1841   3.042   5.426   6.944
  314SOL    HW2 1842   2.986   5.557   6.864
  315SOL     OW 1843   1.284   2.853   3.924
  315SOL    HW1 1844   1.336   2.785   3.975
  315SOL    HW2 1845   1.346   2.924   3.891
  316SOL     OW 1846   3.019   1.645   4.012
  316SOL    HW1 1847   3.091   1.712   4.031
  316SOL    HW2 1848   2.945   1.656   4.078
  317SOL     OW 1849   0.020   1.365   0.965
  317SOL    HW1 1850   0.029   1.265   0.973
  317SOL    HW2 1851   6.948   1.387   0.938
  318SOL     OW 1852   1.009   5.813   6.745
  318SOL    HW1 1853   0.969   5.812   6.653
  318SOL    HW2 1854   0.982   5.897   6.792
  319SOL     OW 1855   6.526   1.206   3.135
  319SOL    HW1 1856   6.489   1.158   3.214
  319SOL    HW2 1857   6.460   1.275   3.104
  320SOL     OW 1858   6.521   2.343   1.493
  320SOL    HW1 1859   6.482   2.270   1.548
  320SOL    HW2 1860   6.455   2.373   1.425
  321SOL     OW 1861   3.948   2.035   0.069
  321SOL    HW1 1862   4.043   2.006   0.057
  321SOL    HW2 1863   3.946   2.134   0.088
  322SOL     OW 1864   3.901   3.039   3.960
  322SOL    HW1 1865   3.805   3.020   3.939
  322SOL    HW2 1866   3.957   3.014   3.880
  323SOL     OW 1867   1.065   2.856   6.434
  323SOL    HW1 1868   1.088   2.933   6.375
  323SOL    HW2 1869   1.148   2.802   6.453
  324SOL     OW 1870   2.739   1.568   4.942
  324SOL    HW1 1871   2.836   1.559   4.965
  324SOL    HW2 1872   2.729   1.628   4.863
  325SOL     OW 1873   0.888   2.949   2.036
  325SOL    HW1 1874   0.971   2.988   2.076
  325SOL    HW2 1875   0.831   3.023   1.999
  326SOL     OW 1876   1.237   4.695   6.607
  326SOL    HW1 1877   1.186   4.667   6.526
  326SOL    HW2 1878   1.325   4.647   6.609
  327SOL     OW 1879   1.605   4.645   3.410
  327SOL    HW1 1880   1.530   4.702   3.378
  327SOL    HW2 1881   1.692   4.687   3.384
  328SOL     OW 1882   1.601   5.646   1.883
  328SOL    HW1 1883   1.592   5.618   1.978
  328SOL    HW2 1884   1.576   5.570   1.823
  329SOL     OW 1885   3.844   3.626   4.671
  329SOL    HW1 1886   3.826   3.570   4.751
  329SOL    HW2 1887   3.783   3.705   4.671
  330SOL     OW 1888   3.904   6.824   1.692
  330SOL    HW1 1889   3.854   6.847   1.775
  330SOL    HW2 1890   4.001   6.844   1.705
  331SOL     OW 1891   3.618   5.101   0.168
  331SOL    HW1 1892   3.526   5.079   0.135
  331SOL    HW2 1893   3.648   5.030   0.231
  332SOL     OW 1894   4.311   1.829   5.059
  332SOL    HW1 1895   4.244   1.773   5.011
  332SOL    HW2 1896   4.346   1.779   5.138
  333SOL     OW 1897   2.827   0.410   6.002
  333SOL    HW1 1898   2.853   0.447   5.913
  333SOL    HW2 1899   2.906   0.365   6.043
  334SOL     OW 1900   3.131   0.470   1.589
  334SOL    HW1 1901   3.203   0.423   1.640
  334SOL    HW2 1902   3.050   0.412   1.584
  335SOL     OW 1903   3.826   6.968   5.435
  335SOL    HW1 1904   3.882   0.023   5.406
  335SOL    HW2 1905   3.868   6.923   5.514
  336SOL     OW 1906   1.710   0.465   3.418
  336SOL    HW1 1907   1.783   0.519   3.376
  336SOL    HW2 1908   1.647   0.526   3.466
  337SOL     OW 1909   0.628   2.718   0.119
  337SOL    HW1 1910   0.557   2.689   0.055
  337SOL    HW2 1911   0.710   2.663   0.106
  338SOL     OW 1912   2.671   2.328   1.548
  338SOL    HW1 1913   2.721   2.398   1.497
  338SOL    HW2 1914   2.707   2.237   1.525
  339SOL     OW 1915   3.025   6.272   3.636
  339SOL    HW1 1916   3.042   6.201   3.568
  339SOL    HW2 1917   2.929   6.298   3.634
  340SOL     OW 1918   4.694   4.573   5.478
  340SOL    HW1 1919   4.628   4.538   5.411
  340SOL    HW2 1920   4.681   4.672   5.488
  341SOL     OW 1921   6.444   0.675   4.744
  341SOL    HW1 1922   6.399   0.751   4.790
  341SOL    HW2 1923   6.524   0.708   4.694
  342SOL     OW 1924   6.138   3.595   0.164
  342SOL    HW1 1925   6.097   3.527   0.104
  342SOL    HW2 1926   6.159   3.678   0.112
  343SOL     OW 1927   2.296   5.739   0.501
  343SOL    HW1 1928   2.286   5.816   0.437
  343SOL    HW2 1929   2.229   5.749   0.575
  344SOL     OW 1930   1.221   4.228   2.334
  344SOL    HW1 1931   1.133   4.217   2.287
  344SOL    HW2 1932   1.256   4.320   2.319
  345SOL     OW 1933   4.742   1.264   3.486
  345SOL    HW1 1934   4.796   1.229   3.410
  345SOL    HW2 1935   4.649   1.227   3.480
  346SOL     OW 1936   2.283   0.729   3.061
  346SOL    HW1 1937   2.280   0.741   3.161
  346SOL    HW2 1938   2.199   0.764   3.020
  347SOL     OW 1939   2.847   5.399   6.334
  347SOL    HW1 1940   2.908   5.340   6.280
  347SOL    HW2 1941   2.887   5.414   6.424
  348SOL     OW 1942   5.259   3.889   2.167
  348SOL    HW1 1943   5.265   3.963   2.233
  348SOL    HW2 1944   5.283   3.802   2.211
  349SOL     OW 1945   7.006   5.394   1.023
  349SOL    HW1 1946   6.935   5.324   1.017
  349SOL    HW2 1947   0.067   5.356   1.061
  350SOL     OW 1948   3.515   3.537   1.092
  350SOL    HW1 1949   3.427   3.571   1.058
  350SOL    HW2 1950   3.499   3.468   1.163
  351SOL     OW 1951   1.893   2.870   0.907
  351SOL    HW1 1952   1.870   2.917   0.992
  351SOL    HW2 1953   1.888   2.771   0.921
  352SOL     OW 1954   2.634   0.896   4.480
  352SOL    HW1 1955   2.679   0.972   4.433
  352SOL    HW2 1956   2.546   0.878   4.436
  353SOL     OW 1957   2.403   0.110   0.702
  353SOL    HW1 1958   2.413   0.145   0.795
  353SOL    HW2 1959   2.331   0.162   0.655
  354SOL     OW 1960   3.754   2.490   0.800
  354SOL    HW1 1961   3.845   2.449   0.812
  354SOL    HW2 1962   3.718   2.463   0.710
  355SOL     OW 1963   0.941   3.750   2.621
  355SOL    HW1 1964   0.983   3.828   2.668
  355SOL    HW2 1965   0.982   3.665   2.654
  356SOL     OW 1966   2.998   0.227   5.824
  356SOL    HW1 1967   2.982   0.319   5.789
  356SOL    HW2 1968   3.030   0.233   5.919
  357SOL     OW 1969   0.159   6.827   5.573
  357SOL    HW1 1970   0.232   6.863   5.514
  357SOL    HW2 1971   0.199   6.771   5.645
  358SOL     OW 1972   4.301   0.337   0.725
  358SOL    HW1 1973   4.215   0.382   0.701
  358SOL    HW2 1974   4.336   0.376   0.810
  359SOL     OW 1975   1.652   2.640   2.205
  359SOL    HW1 1976   1.750   2.629   2.219
  359SOL    HW2 1977   1.612   2.552   2.179
  360SOL     OW 1978   0.831   4.893   6.749
  360SOL    HW1 1979   0.930   4.894   6.736
  360SOL    HW2 1980   0.792   4.814   6.702
  361SOL     OW 1981   5.690   5.670   2.890
  361SOL    HW1 1982   5.640   5.660   2.975
  361SOL    HW2 1983   5.683   5.586   2.836
  362SOL     OW 1984   3.725   3.831   1.719
  362SOL    HW1 1985   3.792   3.901   1.744
  362SOL    HW2 1986   3.697   3.781   1.802
  363SOL     OW 1987   5.353   4.852   3.640
  363SOL    HW1 1988   5.282   4.784   3.662
  363SOL    HW2 1989   5.440   4.821   3.677
  364SOL     OW 1990   6.149   5.214   6.223
  364SOL    HW1 1991   6.054   5.191   6.244
  364SOL    HW2 1992   6.195   5.245   6.307
  365SOL     OW 1993   5.804   6.030   2.204
  365SOL    HW1 1994   5.804   6.128   2.183
  365SOL    HW2 1995   5.709   5.997   2.202
  366SOL     OW 1996   6.324   0.596   6.093
  366SOL    HW1 1997   6.257   0.637   6.031
  366SOL    HW2 1998   6.301   0.620   6.187
  367SOL     OW 1999   4.890   2.794   0.906
  367SOL    HW1 2000   4.896   2.728   0.982
  367SOL    HW2 2001   4.967   2.857   0.911
  368SOL     OW 2002   0.119   3.789   4.766
  368SOL    HW1 2003   0.217   3.780   4.783
  368SOL    HW2 2004   0.068   3.741   4.838
  369SOL     OW 2005   6.469   5.548   1.743
  369SOL    HW1 2006   6.429   5.458   1.759
  369SOL    HW2 2007   6.454   5.574   1.647
  370SOL     OW 2008   2.617   1.097   5.886
  370SOL    HW1 2009   2.592   1.163   5.956
  370SOL    HW2 2010   2.714   1.106   5.864
  371SOL     OW 2011   2.344   3.692   6.336
  371SOL    HW1 2012   2.377   3.631   6.263
  371SOL    HW2 2013   2.303   3.637   6.409
  372SOL     OW 2014   1.420   6.287   6.356
  372SOL    HW1 2015   1.391   6.207   6.303
  372SOL    HW2 2016   1.507   6.320   6.320
  373SOL     OW 2017   6.772   6.861   4.537
  373SOL    HW1 2018   6.703   6.789   4.545
  373SOL    HW2 2019   6.851   6.826   4.488
  374SOL     OW 2020   2.593   1.834   2.969
  374SOL    HW1 2021   2.652   1.756   2.989
  374SOL    HW2 2022   2.555   1.825   2.877
  375SOL     OW 2023   1.064   4.480   3.175
  375SOL    HW1 2024   0.984   4.438   3.133
  375SOL    HW2 2025   1.049   4.579   3.183
  376SOL     OW 2026   2.455   1.487   4.904
  376SOL    HW1 2027   2.542   1.501   4.950
  376SOL    HW2 2028   2.470   1.437   4.818
  377SOL     OW 2029   1.090   2.124   1.289
  377SOL    HW1 2030   1.100   2.128   1.190
  377SOL    HW2 2031   1.100   2.030   1.320
  378SOL     OW 2032   3.531   2.080   5.793
  378SOL    HW1 2033   3.444   2.101   5.836
  378SOL    HW2 2034   3.595   2.156   5.807
  379SOL     OW 2035   6.163   4.084   0.888
  379SOL    HW1 2036   6.186   4.111   0.795
  379SOL    HW2 2037   6.188   3.988   0.902
  380SOL     OW 2038   2.682   1.162   1.343
  380SOL    HW1 2039   2.654   1.222   1.268
  380SOL    HW2 2040   2.734   1.085   1.306
  381SOL     OW 2041   1.735   4.048   2.712
  381SOL    HW1 2042   1.808   4.027   2.778
  381SOL    HW2 2043   1.660   3.982   2.723
  382SOL     OW 2044   5.620   6.628   6.287
  382SOL    HW1 2045   5.695   6.668   6.234
  382SOL    HW2 2046   5.640   6.531   6.303
  383SOL     OW 2047   4.735   3.395   5.974
  383SOL    HW1 2048   4.676   3.319   5.949
  383SOL    HW2 2049   4.693   3.481   5.946
  384SOL     OW 2050   6.888   5.594   4.489
  384SOL    HW1 2051   6.801   5.616   4.446
  384SOL    HW2 2052   6.921   5.674   4.539
  385SOL     OW 2053   4.083   5.855   5.342
  385SOL    HW1 2054   4.129   5.907   5.270
  385SOL    HW2 2055   4.012   5.797   5.302
  386SOL     OW 2056   2.584   6.174   5.724
  386SOL    HW1 2057   2.499   6.184   5.673
  386SOL    HW2 2058   2.618   6.080   5.713
  387SOL     OW 2059   0.905   6.564   3.467
  387SOL    HW1 2060   0.807   6.547   3.467
  387SOL    HW2 2061   0.929   6.623   3.390
  388SOL     OW 2062   1.481   1.792   4.244
  388SOL    HW1 2063   1.448   1.883   4.270
  388SOL    HW2 2064   1.539   1.801   4.163
  389SOL     OW 2065   4.256   4.575   0.927
  389SOL    HW1 2066   4.179   4.616   0.977
  389SOL    HW2 2067   4.221   4.523   0.850
  390SOL     OW 2068   3.035   1.497   0.262
  390SOL    HW1 2069   3.030   1.429   0.189
  390SOL    HW2 2070   3.070   1.583   0.225
  391SOL     OW 2071   2.120   3.577   5.442
  391SOL    HW1 2072   2.179   3.657   5.441
  391SOL    HW2 2073   2.101   3.549   5.348
  392SOL     OW 2074   1.910   4.357   1.493
  392SOL    HW1 2075   1.901   4.360   1.593
  392SOL    HW2 2076   1.876   4.442   1.454
  393SOL     OW 2077   1.473   4.556   6.619
  393SOL    HW1 2078   1.478   4.537   6.717
  393SOL    HW2 2079   1.560   4.532   6.575
  394SOL     OW 2080   6.984   2.799   0.422
  394SOL    HW1 2081   0.054   2.763   0.408
  394SOL    HW2 2082   6.988   2.874   0.489
  395SOL     OW 2083   4.608   4.803   3.183
  395SOL    HW1 2084   4.634   4.849   3.098
  395SOL    HW2 2085   4.582   4.709   3.162
  396SOL     OW 2086   3.033   3.134   2.265
  396SOL    HW1 2087   3.112   3.078   2.287
  396SOL    HW2 2088   3.007   3.119   2.169
  397SOL     OW 2089   5.884   1.254   6.075
  397SOL    HW1 2090   5.841   1.210   5.996
  397SOL    HW2 2091   5.827   1.238   6.156
  398SOL     OW 2092   0.996   0.090   3.874
  398SOL    HW1 2093   0.903   0.127   3.877
  398SOL    HW2 2094   1.021   0.054   3.964
  399SOL     OW 2095   5.060   6.956   4.076
  399SOL    HW1 2096   4.999   0.006   4.108
  399SOL    HW2 2097   5.122   6.929   4.150
  400SOL     OW 2098   6.452   6.799   5.693
  400SOL    HW1 2099   6.384   6.729   5.674
  400SOL    HW2 2100   6.499   6.777   5.779
  401SOL     OW 2101   5.158   0.346   6.585
  401SOL    HW1 2102   5.233   0.403   6.620
  401SOL    HW2 2103   5.144   0.269   6.646
  402SOL     OW 2104   6.568   0.838   3.533
  402SOL    HW1 2105   6.629   0.759   3.539
  402SOL    HW2 2106   6.620   0.919   3.507
  403SOL     OW 2107   3.948   1.039   5.117
  403SOL    HW1 2108   4.044   1.047   5.090
  403SOL    HW2 2109   3.893   1.009   5.038
  404SOL     OW 2110   1.421   4.449   3.905
  404SOL    HW1 2111   1.498   4.393   3.938
  404SOL    HW2 2112   1.436   4.473   3.809
  405SOL     OW 2113   2.194   3.180   3.307
  405SOL    HW1 2114   2.254   3.252   3.273
  405SOL    HW2 2115   2.245   3.095   3.317
  406SOL     OW 2116   0.326   4.154   4.486
  406SOL    HW1 2117   0.389   4.100   4.541
  406SOL    HW2 2118   0.336   4.129   4.390
  407SOL     OW 2119   1.371   2.105   5.489
  407SOL    HW1 2120   1.307   2.070   5.421
  407SOL    HW2 2121   1.447   2.152   5.443
  408SOL     OW 2122   3.115   2.203   3.146
  408SOL    HW1 2123   3.063   2.257   3.213
  408SOL    HW2 2124   3.063   2.197   3.061
  409SOL     OW 2125   6.513   3.134   1.731
  409SOL    HW1 2126   6.508   3.181   1.643
  409SOL    HW2 2127   6.488   3.197   1.804
  410SOL     OW 2128   0.856   1.841   1.189
  410SOL    HW1 2129   0.872   1.743   1.177
  410SOL    HW2 2130   0.786   1.871   1.125
  411SOL     OW 2131   6.664   0.997   1.690
  411SOL    HW1 2132   6.620   0.908   1.681
  411SOL    HW2 2133   6.721   1.014   1.610
  412SOL     OW 2134   3.515   5.294   2.208
  412SOL    HW1 2135   3.528   5.195   2.211
  412SOL    HW2 2136   3.426   5.314   2.167
  413SOL     OW 2137   5.765   4.205   1.723
  413SOL    HW1 2138   5.810   4.164   1.802
  413SOL    HW2 2139   5.666   4.206   1.738
  414SOL     OW 2140   3.632   5.866   3.503
  414SOL    HW1 2141   3.628   5.880   3.404
  414SOL    HW2 2142   3.579   5.785   3.528
  415SOL     OW 2143   0.124   0.574   0.261
  415SOL    HW1 2144   0.135   0.666   0.298
  415SOL    HW2 2145   0.204   0.519   0.286
  416SOL     OW 2146   5.117   5.459   5.095
  416SOL    HW1 2147   5.118   5.447   4.996
  416SOL    HW2 2148   5.210   5.455   5.130
  417SOL     OW 2149   2.159   6.920   5.545
  417SOL    HW1 2150   2.170   6.895   5.449
  417SOL    HW2 2151   2.109   6.848   5.593
  418SOL     OW 2152   3.380   6.516   6.801
  418SOL    HW1 2153   3.293   6.474   6.825
  418SOL    HW2 2154   3.440   6.517   6.881
  419SOL     OW 2155   0.903   6.602   2.743
  419SOL    HW1 2156   0.925   6.579   2.838
  419SOL    HW2 2157   0.967   6.556   2.681
  420SOL     OW 2158   6.042   1.365   6.347
  420SOL    HW1 2159   6.030   1.312   6.431
  420SOL    HW2 2160   6.042   1.303   6.269
  421SOL     OW 2161   5.656   3.909   4.465
  421SOL    HW1 2162   5.601   3.832   4.499
  421SOL    HW2 2163   5.752   3.882   4.459
  422SOL     OW 2164   5.002   3.245   0.893
  422SOL    HW1 2165   4.942   3.260   0.814
  422SOL    HW2 2166   4.963   3.289   0.974
  423SOL     OW 2167   1.600   2.350   6.943
  423SOL    HW1 2168   1.614   2.420   6.873
  423SOL    HW2 2169   1.610   2.259   6.903
  424SOL     OW 2170   1.916   4.874   2.230
  424SOL    HW1 2171   1.972   4.957   2.232
  424SOL    HW2 2172   1.962   4.802   2.281
  425SOL     OW 2173   4.980   1.824   4.202
  425SOL    HW1 2174   5.005   1.868   4.116
  425SOL    HW2 2175   4.905   1.873   4.245
  426SOL     OW 2176   2.664   2.038   4.409
  426SOL    HW1 2177   2.737   2.092   4.451
  426SOL    HW2 2178   2.672   1.943   4.438
  427SOL     OW 2179   6.526   6.957   3.840
  427SOL    HW1 2180   6.451   6.896   3.865
  427SOL    HW2 2181   6.545   7.019   3.916
  428SOL     OW 2182   4.031   0.331   3.668
  428SOL    HW1 2183   3.974   0.403   3.707
  428SOL    HW2 2184   4.038   0.255   3.733
  429SOL     OW 2185   0.102   4.833   3.671
  429SOL    HW1 2186   0.131   4.738   3.683
  429SOL    HW2 2187   0.129   4.887   3.751
  430SOL     OW 2188   1.351   6.545   4.586
  430SOL    HW1 2189   1.439   6.578   4.553
  430SOL    HW2 2190   1.355   6.531   4.685
  431SOL     OW 2191   2.821   0.635   0.879
  431SOL    HW1 2192   2.821   0.599   0.786
  431SOL    HW2 2193   2.773   0.572   0.940
  432SOL     OW 2194   6.677   2.356   1.262
  432SOL    HW1 2195   6.610   2.317   1.199
  432SOL    HW2 2196   6.644   2.349   1.356
  433SOL     OW 2197   2.065   6.370   5.537
  433SOL    HW1 2198   2.095   6.433   5.465
  433SOL    HW2 2199   2.145   6.324   5.576
  434SOL     OW 2200   4.552   6.094   3.594
  434SOL    HW1 2201   4.484   6.130   3.657
  434SOL    HW2 2202   4.563   6.156   3.516
  435SOL     OW 2203   3.804   1.868   5.643
  435SOL    HW1 2204   3.725   1.887   5.583
  435SOL    HW2 2205   3.866   1.805   5.597
  436SOL     OW 2206   2.743   5.749   1.851
  436SOL    HW1 2207   2.821   5.786   1.902
  436SOL    HW2 2208   2.696   5.822   1.803
  437SOL     OW 2209   0.581   1.301   6.248
  437SOL    HW1 2210   0.627   1.390   6.247
  437SOL    HW2 2211   0.621   1.244   6.320
  438SOL     OW 2212   1.344   3.846   4.129
  438SOL    HW1 2213   1.337   3.926   4.070
  438SOL    HW2 2214   1.301   3.866   4.217
  439SOL     OW 2215   5.723   6.301   2.508
  439SOL    HW1 2216   5.690   6.329   2.418
  439SOL    HW2 2217   5.819   6.328   2.518
  440SOL     OW 2218   2.731   1.846   5.731
  440SOL    HW1 2219   2.728   1.783   5.809
  440SOL    HW2 2220   2.816   1.897   5.733
  441SOL     OW 2221   6.720   3.295   3.555
  441SOL    HW1 2222   6.669   3.221   3.600
  441SOL    HW2 2223   6.818   3.272   3.555
  442SOL     OW 2224   4.808   5.881   5.496
  442SOL    HW1 2225   4.847   5.861   5.406
  442SOL    HW2 2226   4.795   5.796   5.546
  443SOL     OW 2227   5.899   3.794   4.454
  443SOL    HW1 2228   5.918   3.749   4.541
  443SOL    HW2 2229   5.984   3.804   4.402
  444SOL     OW 2230   4.559   0.102   5.764
  444SOL    HW1 2231   4.617   0.182   5.779
  444SOL    HW2 2232   4.598   0.023   5.812
  445SOL     OW 2233   2.280   6.220   2.973
  445SOL    HW1 2234   2.325   6.308   2.985
  445SOL    HW2 2235   2.281   6.195   2.876
  446SOL     OW 2236   4.552   5.690   2.123
  446SOL    HW1 2237   4.505   5.715   2.208
  446SOL    HW2 2238   4.632   5.750   2.112
  447SOL     OW 2239   6.039   4.039   5.301
  447SOL    HW1 2240   5.974   4.114   5.288
  447SOL    HW2 2241   6.092   4.026   5.217
  448SOL     OW 2242   2.646   0.898   2.945
  448SOL    HW1 2243   2.667   0.802   2.926
  448SOL    HW2 2244   2.570   0.928   2.887
  449SOL     OW 2245   2.844   1.304   4.142
  449SOL    HW1 2246   2.774   1.329   4.074
  449SOL    HW2 2247   2.934   1.324   4.105
  450SOL     OW 2248   2.014   4.720   3.438
  450SOL    HW1 2249   1.964   4.709   3.352
  450SOL    HW2 2250   1.997   4.641   3.497
  451SOL     OW 2251   2.034   2.129   4.472
  451SOL    HW1 2252   2.083   2.211   4.500
  451SOL    HW2 2253   1.981   2.148   4.390
  452SOL     OW 2254   4.590   6.514   1.603
  452SOL    HW1 2255   4.537   6.439   1.564
  452SOL    HW2 2256   4.610   6.582   1.533
  453SOL     OW 2257   3.694   6.849   6.626
  453SOL    HW1 2258   3.753   6.844   6.546
  453SOL    HW2 2259   3.633   6.770   6.628
  454SOL     OW 2260   0.099   3.344   6.780
  454SOL    HW1 2261   0.137   3.252   6.780
  454SOL    HW2 2262   0.051   3.361   6.866
  455SOL     OW 2263   5.246   2.244   5.141
  455SOL    HW1 2264   5.232   2.145   5.136
  455SOL    HW2 2265   5.342   2.263   5.165
  456SOL     OW 2266   0.878   0.520   4.738
  456SOL    HW1 2267   0.818   0.479   4.807
  456SOL    HW2 2268   0.963   0.468   4.733
  457SOL     OW 2269   2.262   4.341   4.206
  457SOL    HW1 2270   2.230   4.248   4.183
  457SOL    HW2 2271   2.202   4.408   4.162
  458SOL     OW 2272   3.179   0.191   2.961
  458SOL    HW1 2273   3.091   0.171   2.916
  458SOL    HW2 2274   3.184   0.289   2.982
  459SOL     OW 2275   1.390   0.303   5.677
  459SOL    HW1 2276   1.413   0.362   5.601
  459SOL    HW2 2277   1.297   0.324   5.709
  460SOL     OW 2278   1.646   0.461   4.816
  460SOL    HW1 2279   1.621   0.431   4.908
  460SOL    HW2 2280   1.642   0.383   4.753
  461SOL     OW 2281   6.272   4.489   6.156
  461SOL    HW1 2282   6.362   4.514   6.120
  461SOL    HW2 2283   6.282   4.456   6.250
  462SOL     OW 2284   3.983   3.610   5.643
  462SOL    HW1 2285   3.920   3.604   5.566
  462SOL    HW2 2286   4.021   3.519   5.662
  463SOL     OW 2287   0.007   0.288   3.710
  463SOL    HW1 2288   6.992   0.287   3.803
  463SOL    HW2 2289   6.956   0.311   3.646
  464SOL     OW 2290   2.330   0.775   5.423
  464SOL    HW1 2291   2.352   0.794   5.519
  464SOL    HW2 2292   2.311   0.678   5.412
  465SOL     OW 2293   0.415   2.416   0.042
  465SOL    HW1 2294   0.359   2.476   7.007
  465SOL    HW2 2295   0.493   2.383   7.011
  466SOL     OW 2296   2.828   6.519   3.953
  466SOL    HW1 2297   2.797   6.549   3.863
  466SOL    HW2 2298   2.889   6.440   3.943
  467SOL     OW 2299   1.787   1.135   2.281
  467SOL    HW1 2300   1.697   1.104   2.253
  467SOL    HW2 2301   1.822   1.074   2.353
  468SOL     OW 2302   4.079   5.531   4.993
  468SOL    HW1 2303   3.995   5.573   4.960
  468SOL    HW2 2304   4.060   5.477   5.074
  469SOL     OW 2305   3.032   3.674   6.085
  469SOL    HW1 2306   3.090   3.689   6.165
  469SOL    HW2 2307   2.940   3.650   6.114
  470SOL     OW 2308   3.887   6.158   1.490
  470SOL    HW1 2309   3.837   6.078   1.522
  470SOL    HW2 2310   3.952   6.187   1.560
  471SOL     OW 2311   2.678   2.369   4.061
  471SOL    HW1 2312   2.705   2.401   4.151
  471SOL    HW2 2313   2.629   2.441   4.012
  472SOL     OW 2314   5.883   4.266   0.178
  472SOL    HW1 2315   5.797   4.297   0.137
  472SOL    HW2 2316   5.893   4.307   0.268
  473SOL     OW 2317   1.126   1.610   1.856
  473SOL    HW1 2318   1.208   1.575   1.900
  473SOL    HW2 2319   1.088   1.684   1.912
  474SOL     OW 2320   5.600   5.568   4.994
  474SOL    HW1 2321   5.589   5.546   5.091
  474SOL    HW2 2322   5.680   5.626   4.981
  475SOL     OW 2323   6.233   2.892   0.779
  475SOL    HW1 2324   6.191   2.940   0.702
  475SOL    HW2 2325   6.184   2.806   0.795
  476SOL     OW 2326   0.067   3.511   1.814
  476SOL    HW1 2327   0.107   3.574   1.881
  476SOL    HW2 2328   0.132   3.437   1.795
  477SOL     OW 2329   2.766   5.822   3.561
  477SOL    HW1 2330   2.755   5.773   3.647
  477SOL    HW2 2331   2.851   5.874   3.563
  478SOL     OW 2332   3.978   6.259   3.421
  478SOL    HW1 2333   3.940   6.171   3.393
  478SOL    HW2 2334   3.943   6.331   3.360
  479SOL     OW 2335   3.858   3.086   4.823
  479SOL    HW1 2336   3.939   3.137   4.793
  479SOL    HW2 2337   3.787   3.092   4.753
  480SOL     OW 2338   3.086   0.557   1.185
  480SOL    HW1 2339   3.130   0.646   1.170
  480SOL    HW2 2340   3.006   0.570   1.243
  481SOL     OW 2341   0.586   6.599   1.720
  481SOL    HW1 2342   0.623   6.650   1.643
  481SOL    HW2 2343   0.595   6.501   1.703
  482SOL     OW 2344   4.565   5.251   2.338
  482SOL    HW1 2345   4.652   5.202   2.337
  482SOL    HW2 2346   4.574   5.333   2.395
  483SOL     OW 2347   6.900   2.463   2.819
  483SOL    HW1 2348   6.845   2.380   2.830
  483SOL    HW2 2349   6.954   2.457   2.736
  484SOL     OW 2350   1.507   4.328   4.684
  484SOL    HW1 2351   1.509   4.229   4.671
  484SOL    HW2 2352   1.598   4.359   4.713
  485SOL     OW 2353   4.788   5.090   2.361
  485SOL    HW1 2354   4.866   5.096   2.300
  485SOL    HW2 2355   4.730   5.013   2.335
  486SOL     OW 2356   5.933   1.516   6.792
  486SOL    HW1 2357   5.938   1.611   6.760
  486SOL    HW2 2358   5.998   1.503   6.867
  487SOL     OW 2359   0.947   0.664   3.216
  487SOL    HW1 2360   1.042   0.642   3.196
  487SOL    HW2 2361   0.887   0.602   3.165
  488SOL     OW 2362   0.750   6.533   2.043
  488SOL    HW1 2363   0.684   6.595   2.087
  488SOL    HW2 2364   0.725   6.438   2.062
  489SOL     OW 2365   6.035   6.028   5.430
  489SOL    HW1 2366   6.008   6.124   5.418
  489SOL    HW2 2367   6.062   5.989   5.342
  490SOL     OW 2368   1.612   6.105   3.645
  490SOL    HW1 2369   1.579   6.177   3.584
  490SOL    HW2 2370   1.672   6.043   3.594
  491SOL     OW 2371   1.116   3.224   1.191
  491SOL    HW1 2372   1.200   3.259   1.151
  491SOL    HW2 2373   1.131   3.203   1.288
  492SOL     OW 2374   1.380   0.928   5.822
  492SOL    HW1 2375   1.397   0.924   5.921
  492SOL    HW2 2376   1.464   0.901   5.773
  493SOL     OW 2377   2.697   0.085   5.496
  493SOL    HW1 2378   2.751   0.118   5.418
  493SOL    HW2 2379   2.607   0.055   5.464
  494SOL     OW 2380   1.610   0.566   6.296
  494SOL    HW1 2381   1.596   0.541   6.392
  494SOL    HW2 2382   1.650   0.489   6.246
  495SOL     OW 2383   3.396   6.177   3.892
  495SOL    HW1 2384   3.451   6.239   3.836
  495SOL    HW2 2385   3.345   6.115   3.832
  496SOL     OW 2386   6.616   2.640   2.038
  496SOL    HW1 2387   6.584   2.551   2.069
  496SOL    HW2 2388   6.714   2.650   2.059
  497SOL     OW 2389   3.370   1.413   4.684
  497SOL    HW1 2390   3.413   1.411   4.594
  497SOL    HW2 2391   3.280   1.369   4.678
  498SOL     OW 2392   0.780   4.615   2.317
  498SOL    HW1 2393   0.728   4.583   2.237
  498SOL    HW2 2394   0.736   4.582   2.400
  499SOL     OW 2395   1.670   5.385   4.802
  499SOL    HW1 2396   1.702   5.374   4.897
  499SOL    HW2 2397   1.718   5.461   4.759
  500SOL     OW 2398   5.631   2.721   0.000
  500SOL    HW1 2399   5.715   2.692   6.976
  500SOL    HW2 2400   5.634   2.819   0.016
  501SOL     OW 2401   4.296   6.866   0.966
  501SOL    HW1 2402   4.364   6.809   0.921
  501SOL    HW2 2403   4.318   6.963   0.952
  502SOL     OW 2404   0.938   4.634   6.050
  502SOL    HW1 2405   0.858   4.581   6.021
  502SOL    HW2 2406   0.919   4.675   6.140
  503SOL     OW 2407   1.843   4.975   5.965
  503SOL    HW1 2408   1.816   4.981   5.869
  503SOL    HW2 2409   1.877   5.064   5.995
  504SOL     OW 2410   1.229   5.479   2.055
  504SOL    HW1 2411   1.317   5.496   2.100
  504SOL    HW2 2412   1.156   5.523   2.108
  505SOL     OW 2413   3.820   6.565   4.660
  505SOL    HW1 2414   3.817   6.641   4.726
  505SOL    HW2 2415   3.896   6.580   4.596
  506SOL     OW 2416   3.038   6.297   2.294
  506SOL    HW1 2417   3.102   6.331   2.224
  506SOL    HW2 2418   3.034   6.361   2.370
  507SOL     OW 2419   3.585   6.424   2.674
  507SOL    HW1 2420   3.668   6.479   2.684
  507SOL    HW2 2421   3.534   6.455   2.594
  508SOL     OW 2422   0.208   2.833   2.335
  508SOL    HW1 2423   0.245   2.906   2.392
  508SOL    HW2 2424   0.109   2.841   2.328
  509SOL     OW 2425   3.763   1.241   0.837
  509SOL    HW1 2426   3.693   1.272   0.902
  509SOL    HW2 2427   3.742   1.148   0.808
  510SOL     OW 2428   6.924   4.154   6.227
  510SOL    HW1 2429   6.936   4.122   6.321
  510SOL    HW2 2430   6.958   4.083   6.164
  511SOL     OW 2431   1.132   2.498   6.657
  511SOL    HW1 2432   1.097   2.406   6.673
  511SOL    HW2 2433   1.055   2.562   6.653
  512SOL     OW 2434   6.390   2.397   6.834
  512SOL    HW1 2435   6.422   2.490   6.818
  512SOL    HW2 2436   6.377   2.383   6.932
  513SOL     OW 2437   4.974   6.647   3.403
  513SOL    HW1 2438   5.036   6.725   3.415
  513SOL    HW2 2439   4.964   6.626   3.306
  514SOL     OW 2440   6.769   0.913   4.359
  514SOL    HW1 2441   6.708   0.886   4.285
  514SOL    HW2 2442   6.742   1.002   4.395
  515SOL     OW 2443   1.781   0.608   0.579
  515SOL    HW1 2444   1.718   0.545   0.625
  515SOL    HW2 2445   1.821   0.670   0.647
  516SOL     OW 2446   2.688   5.011   2.125
  516SOL    HW1 2447   2.736   4.924   2.136
  516SOL    HW2 2448   2.748   5.086   2.153
  517SOL     OW 2449   3.303   4.686   1.694
  517SOL    HW1 2450   3.390   4.674   1.742
  517SOL    HW2 2451   3.227   4.682   1.760
  518SOL     OW 2452   2.533   2.178   3.384
  518SOL    HW1 2453   2.564   2.267   3.349
  518SOL    HW2 2454   2.442   2.159   3.349
  519SOL     OW 2455   0.236   6.555   3.369
  519SOL    HW1 2456   0.200   6.577   3.460
  519SOL    HW2 2457   0.171   6.587   3.300
  520SOL     OW 2458   6.555   3.513   6.762
  520SOL    HW1 2459   6.471   3.507   6.817
  520SOL    HW2 2460   6.535   3.487   6.668
  521SOL     OW 2461   5.653   5.498   5.239
  521SOL    HW1 2462   5.713   5.432   5.195
  521SOL    HW2 2463   5.672   5.502   5.337
  522SOL     OW 2464   4.139   3.602   2.993
  522SOL    HW1 2465   4.208   3.670   3.017
  522SOL    HW2 2466   4.068   3.599   3.063
  523SOL     OW 2467   6.992   5.969   1.376
  523SOL    HW1 2468   6.920   5.916   1.331
  523SOL    HW2 2469   0.059   5.929   1.355
  524SOL     OW 2470   1.635   2.666   2.699
  524SOL    HW1 2471   1.735   2.663   2.694
  524SOL    HW2 2472   1.596   2.626   2.616
  525SOL     OW 2473   1.866   4.014   5.656
  525SOL    HW1 2474   1.879   4.020   5.558
  525SOL    HW2 2475   1.946   3.972   5.699
  526SOL     OW 2476   3.094   6.543   3.648
  526SOL    HW1 2477   3.192   6.549   3.669
  526SOL    HW2 2478   3.066   6.448   3.646
  527SOL     OW 2479   0.033   2.354   0.799
  527SOL    HW1 2480   0.038   2.453   0.790
  527SOL    HW2 2481   0.095   2.312   0.733
  528SOL     OW 2482   1.714   2.685   4.020
  528SOL    HW1 2483   1.753   2.594   4.006
  528SOL    HW2 2484   1.778   2.741   4.072
  529SOL     OW 2485   1.573   6.598   5.137
  529SOL    HW1 2486   1.604   6.609   5.043
  529SOL    HW2 2487   1.603   6.508   5.171
  530SOL     OW 2488   4.093   3.637   2.735
  530SOL    HW1 2489   4.065   3.733   2.732
  530SOL    HW2 2490   4.110   3.610   2.830
  531SOL     OW 2491   1.320   1.187   2.683
  531SOL    HW1 2492   1.225   1.199   2.653
  531SOL    HW2 2493   1.354   1.272   2.723
  532SOL     OW 2494   1.533   3.234   0.274
  532SOL    HW1 2495   1.603   3.204   0.338
  532SOL    HW2 2496   1.555   3.325   0.239
  533SOL     OW 2497   4.467   6.956   3.571
  533SOL    HW1 2498   4.386   7.009   3.598
  533SOL    HW2 2499   4.507   6.996   3.489
  534SOL     OW 2500   5.568   5.838   2.696
  534SOL    HW1 2501   5.609   5.777   2.764
  534SOL    HW2 2502   5.470   5.846   2.715
  535SOL     OW 2503   0.021   3.994   2.741
  535SOL    HW1 2504   6.990   4.044   2.672
  535SOL    HW2 2505   6.994   3.910   2.766
  536SOL     OW 2506   6.324   4.447   2.479
  536SOL    HW1 2507   6.290   4.354   2.471
  536SOL    HW2 2508   6.339   4.485   2.388
  537SOL     OW 2509   3.280   0.094   4.673
  537SOL    HW1 2510   3.204   0.047   4.719
  537SOL    HW2 2511   3.252   0.120   4.581
  538SOL     OW 2512   0.279   4.547   4.151
  538SOL    HW1 2513   0.371   4.555   4.113
  538SOL    HW2 2514   0.285   4.543   4.251
  539SOL     OW 2515   2.283   4.880   1.946
  539SOL    HW1 2516   2.326   4.917   1.864
  539SOL    HW2 2517   2.184   4.883   1.935
  540SOL     OW 2518   1.424   1.408   2.748
  540SOL    HW1 2519   1.468   1.420   2.837
  540SOL    HW2 2520   1.389   1.496   2.717
  541SOL     OW 2521   5.177   5.754   3.598
  541SOL    HW1 2522   5.189   5.702   3.513
  541SOL    HW2 2523   5.082   5.785   3.604
  542SOL     OW 2524   4.596   6.546   0.044
  542SOL    HW1 2525   4.580   6.639   0.079
  542SOL    HW2 2526   4.546   6.534   6.980
  543SOL     OW 2527   6.316   3.714   3.893
  543SOL    HW1 2528   6.222   3.679   3.899
  543SOL    HW2 2529   6.376   3.658   3.950
  544SOL     OW 2530   1.017   4.879   7.006
  544SOL    HW1 2531   0.956   4.848   0.056
  544SOL    HW2 2532   0.993   4.972   6.979
  545SOL     OW 2533   3.645   0.916   1.405
  545SOL    HW1 2534   3.600   1.004   1.395
  545SOL    HW2 2535   3.579   0.842   1.390
  546SOL     OW 2536   1.220   3.844   1.443
  546SOL    HW1 2537   1.265   3.920   1.395
  546SOL    HW2 2538   1.122   3.849   1.428
  547SOL     OW 2539   3.297   2.563   0.970
  547SOL    HW1 2540   3.278   2.578   1.067
  547SOL    HW2 2541   3.307   2.465   0.953
  548SOL     OW 2542   3.137   3.374   1.428
  548SOL    HW1 2543   3.177   3.368   1.520
  548SOL    HW2 2544   3.136   3.283   1.386
  549SOL     OW 2545   5.473   2.576   1.644
  549SOL    HW1 2546   5.522   2.657   1.676
  549SOL    HW2 2547   5.531   2.496   1.654
  550SOL     OW 2548   1.137   5.535   3.412
  550SOL    HW1 2549   1.102   5.603   3.348
  550SOL    HW2 2550   1.130   5.569   3.505
  551SOL     OW 2551   0.265   6.977   1.671
  551SOL    HW1 2552   0.293   7.011   1.761
  551SOL    HW2 2553   0.345   6.972   1.611
  552SOL     OW 2554   5.885   4.079   6.866
  552SOL    HW1 2555   5.793   4.059   6.831
  552SOL    HW2 2556   5.899   4.178   6.867
  553SOL     OW 2557   2.532   6.588   4.378
  553SOL    HW1 2558   2.533   6.534   4.294
  553SOL    HW2 2559   2.626   6.610   4.404
  554SOL     OW 2560   5.834   0.072   0.257
  554SOL    HW1 2561   5.768   0.086   0.331
  554SOL    HW2 2562   5.882   7.007   0.271
  555SOL     OW 2563   3.245   5.282   4.791
  555SOL    HW1 2564   3.212   5.334   4.871
  555SOL    HW2 2565   3.291   5.199   4.822
  556SOL     OW 2566   5.040   1.889   3.913
  556SOL    HW1 2567   5.076   1.886   3.820
  556SOL    HW2 2568   5.087   1.961   3.964
  557SOL     OW 2569   6.592   5.684   0.238
  557SOL    HW1 2570   6.618   5.672   0.143
  557SOL    HW2 2571   6.653   5.750   0.281
  558SOL     OW 2572   3.546   3.198   3.560
  558SOL    HW1 2573   3.609   3.228   3.632
  558SOL    HW2 2574   3.538   3.099   3.562
  559SOL     OW 2575   6.989   5.477   6.055
  559SOL    HW1 2576   6.967   5.469   5.957
  559SOL    HW2 2577   0.017   5.562   6.071
  560SOL     OW 2578   6.500   3.485   4.014
  560SOL    HW1 2579   6.559   3.431   3.955
  560SOL    HW2 2580   6.420   3.430   4.040
  561SOL     OW 2581   0.301   1.865   0.725
  561SOL    HW1 2582   0.356   1.797   0.677
  561SOL    HW2 2583   0.327   1.957   0.695
  562SOL     OW 2584   4.383   0.250   6.046
  562SOL    HW1 2585   4.395   0.336   5.996
  562SOL    HW2 2586   4.308   0.260   6.111
  563SOL     OW 2587   2.922   0.742   3.572
  563SOL    HW1 2588   2.832   0.751   3.614
  563SOL    HW2 2589   2.978   0.822   3.594
  564SOL     OW 2590   0.925   3.251   6.921
  564SOL    HW1 2591   0.890   3.338   6.956
  564SOL    HW2 2592   1.024   3.260   6.906
  565SOL     OW 2593   3.296   3.846   4.548
  565SOL    HW1 2594   3.267   3.797   4.466
  565SOL    HW2 2595   3.216   3.890   4.590
  566SOL     OW 2596   0.797   3.784   3.163
  566SOL    HW1 2597   0.869   3.742   3.220
  566SOL    HW2 2598   0.751   3.856   3.215
  567SOL     OW 2599   2.940   2.974   1.472
  567SOL    HW1 2600   2.940   2.911   1.394
  567SOL    HW2 2601   2.920   3.067   1.440
  568SOL     OW 2602   4.734   7.016   6.978
  568SOL    HW1 2603   4.782   6.929   6.975
  568SOL    HW2 2604   4.644   7.003   7.020
  569SOL     OW 2605   1.276   3.176   0.197
  569SOL    HW1 2606   1.368   3.203   0.227
  569SOL    HW2 2607   1.233   3.122   0.269
  570SOL     OW 2608   3.832   0.276   6.309
  570SOL    HW1 2609   3.931   0.282   6.306
  570SOL    HW2 2610   3.795   0.355   6.358
  571SOL     OW 2611   3.311   4.894   3.079
  571SOL    HW1 2612   3.336   4.893   2.982
  571SOL    HW2 2613   3.219   4.932   3.090
  572SOL     OW 2614   2.652   4.781   5.513
  572SOL    HW1 2615   2.682   4.876   5.523
  572SOL    HW2 2616   2.581   4.761   5.581
  573SOL     OW 2617   5.654   0.778   5.535
  573SOL    HW1 2618   5.601   0.736   5.461
  573SOL    HW2 2619   5.743   0.734   5.541
  574SOL     OW 2620   3.440   1.428   4.423
  574SOL    HW1 2621   3.351   1.433   4.378
  574SOL    HW2 2622   3.482   1.340   4.405
  575SOL     OW 2623   5.098   3.477   1.464
  575SOL    HW1 2624   5.192   3.452   1.484
  575SOL    HW2 2625   5.039   3.397   1.474
  576SOL     OW 2626   1.353   2.714   3.074
  576SOL    HW1 2627   1.413   2.726   3.153
  576SOL    HW2 2628   1.394   2.755   2.993
  577SOL     OW 2629   1.555   1.306   2.530
  577SOL    HW1 2630   1.503   1.354   2.601
  577SOL    HW2 2631   1.633   1.260   2.572
  578SOL     OW 2632   6.608   5.106   4.833
  578SOL    HW1 2633   6.579   5.023   4.784
  578SOL    HW2 2634   6.694   5.138   4.793
  579SOL     OW 2635   1.979   3.457   4.142
  579SOL    HW1 2636   2.043   3.496   4.076
  579SOL    HW2 2637   1.889   3.497   4.129
  580SOL     OW 2638   4.670   5.130   5.119
  580SOL    HW1 2639   4.701   5.126   5.024
  580SOL    HW2 2640   4.708   5.210   5.164
  581SOL     OW 2641   1.778   2.371   1.847
  581SOL    HW1 2642   1.750   2.307   1.775
  581SOL    HW2 2643   1.779   2.463   1.810
  582SOL     OW 2644   5.009   6.060   2.774
  582SOL    HW1 2645   5.013   6.104   2.864
  582SOL    HW2 2646   5.056   6.118   2.707
  583SOL     OW 2647   2.736   6.514   4.803
  583SOL    HW1 2648   2.768   6.527   4.709
  583SOL    HW2 2649   2.794   6.566   4.865
  584SOL     OW 2650   2.789   5.872   6.842
  584SOL    HW1 2651   2.780   5.946   6.776
  584SOL    HW2 2652   2.708   5.812   6.836
  585SOL     OW 2653   4.500   1.654   6.488
  585SOL    HW1 2654   4.414   1.704   6.498
  585SOL    HW2 2655   4.547   1.651   6.576
  586SOL     OW 2656   3.141   0.412   6.335
  586SOL    HW1 2657   3.224   0.357   6.332
  586SOL    HW2 2658   3.105   0.413   6.428
  587SOL     OW 2659   4.767   2.355   4.270
  587SOL    HW1 2660   4.704   2.280   4.248
  587SOL    HW2 2661   4.817   2.382   4.187
  588SOL     OW 2662   2.556   5.302   1.474
  588SOL    HW1 2663   2.564   5.257   1.563
  588SOL    HW2 2664   2.475   5.361   1.474
  589SOL     OW 2665   3.648   4.951   1.465
  589SOL    HW1 2666   3.578   5.020   1.447
  589SOL    HW2 2667   3.660   4.940   1.563
  590SOL     OW 2668   5.298   2.775   2.119
  590SOL    HW1 2669   5.216   2.749   2.067
  590SOL    HW2 2670   5.271   2.825   2.201
  591SOL     OW 2671   3.484   5.609   3.381
  591SOL    HW1 2672   3.447   5.655   3.300
  591SOL    HW2 2673   3.442   5.519   3.392
  592SOL     OW 2674   4.198   1.267   1.133
  592SOL    HW1 2675   4.216   1.173   1.104
  592SOL    HW2 2676   4.137   1.267   1.212
  593SOL     OW 2677   4.328   2.345   4.188
  593SOL    HW1 2678   4.372   2.341   4.277
  593SOL    HW2 2679   4.235   2.380   4.198
  594SOL     OW 2680   5.890   0.923   0.584
  594SOL    HW1 2681   5.796   0.889   0.588
  594SOL    HW2 2682   5.909   0.975   0.667
  595SOL     OW 2683   5.546   0.541   3.489
  595SOL    HW1 2684   5.524   0.639   3.498
  595SOL    HW2 2685   5.645   0.529   3.487
  596SOL     OW 2686   0.644   5.410   3.699
  596SOL    HW1 2687   0.647   5.358   3.614
  596SOL    HW2 2688   0.550   5.438   3.717
  597SOL     OW 2689   2.163   0.126   0.259
  597SOL    HW1 2690   2.228   0.201   0.270
  597SOL    HW2 2691   2.138   0.117   0.163
  598SOL     OW 2692   3.585   3.712   4.907
  598SOL    HW1 2693   3.574   3.616   4.930
  598SOL    HW2 2694   3.631   3.760   4.982
  599SOL     OW 2695   2.711   6.306   2.615
  599SOL    HW1 2696   2.660   6.297   2.530
  599SOL    HW2 2697   2.655   6.354   2.683
  600SOL     OW 2698   6.150   1.920   6.758
  600SOL    HW1 2699   6.152   1.985   6.834
  600SOL    HW2 2700   6.223   1.942   6.693
  601SOL     OW 2701   1.129   0.930   4.058
  601SOL    HW1 2702   1.105   0.946   3.962
  601SOL    HW2 2703   1.223   0.961   4.074
  602SOL     OW 2704   1.152   0.916   6.306
  602SOL    HW1 2705   1.085   0.958   6.367
  602SOL    HW2 2706   1.244   0.940   6.336
  603SOL     OW 2707   3.060   2.817   5.410
  603SOL    HW1 2708   3.127   2.763   5.461
  603SOL    HW2 2709   2.968   2.791   5.438
  604SOL     OW 2710   1.131   1.836   1.301
  604SOL    HW1 2711   1.070   1.786   1.240
  604SOL    HW2 2712   1.132   1.793   1.391
  605SOL     OW 2713   6.501   5.408   0.054
  605SOL    HW1 2714   6.466   5.485   0.002
  605SOL    HW2 2715   6.598   5.423   0.074
  606SOL     OW 2716   4.999   6.227   5.967
  606SOL    HW1 2717   5.013   6.238   6.066
  606SOL    HW2 2718   5.085   6.204   5.923
  607SOL     OW 2719   6.051   5.073   5.059
  607SOL    HW1 2720   5.986   5.098   5.131
  607SOL    HW2 2721   6.129   5.136   5.062
  608SOL     OW 2722   3.891   6.046   6.550
  608SOL    HW1 2723   3.908   5.988   6.470
  608SOL    HW2 2724   3.976   6.058   6.601
  609SOL     OW 2725   3.988   3.058   2.625
  609SOL    HW1 2726   3.998   3.135   2.687
  609SOL    HW2 2727   3.968   2.975   2.678
  610SOL     OW 2728   6.057   3.755   1.332
  610SOL    HW1 2729   6.052   3.851   1.301
  610SOL    HW2 2730   5.986   3.702   1.285
  611SOL     OW 2731   4.456   7.014   1.573
  611SOL    HW1 2732   4.438   6.930   1.623
  611SOL    HW2 2733   4.469   0.068   1.637
  612SOL     OW 2734   3.809   5.997   4.311
  612SOL    HW1 2735   3.878   5.988   4.384
  612SOL    HW2 2736   3.854   6.018   4.225
  613SOL     OW 2737   4.797   5.365   5.176
  613SOL    HW1 2738   4.828   5.427   5.104
  613SOL    HW2 2739   4.865   5.363   5.249
  614SOL     OW 2740   4.768   5.338   6.585
  614SOL    HW1 2741   4.854   5.388   6.582
  614SOL    HW2 2742   4.714   5.371   6.662
  615SOL     OW 2743   6.984   2.358   2.037
  615SOL    HW1 2744   6.954   2.263   2.051
  615SOL    HW2 2745   0.008   2.391   2.120
  616SOL     OW 2746   0.496   3.180   3.144
  616SOL    HW1 2747   0.532   3.088   3.159
  616SOL    HW2 2748   0.451   3.212   3.228
  617SOL     OW 2749   0.495   4.365   6.044
  617SOL    HW1 2750   0.460   4.395   6.133
  617SOL    HW2 2751   0.424   4.315   5.995
  618SOL     OW 2752   6.801   2.437   0.725
  618SOL    HW1 2753   6.884   2.406   0.771
  618SOL    HW2 2754   6.826   2.489   0.643
  619SOL     OW 2755   4.058   1.346   0.046
  619SOL    HW1 2756   3.995   1.418   0.072
  619SOL    HW2 2757   4.019   1.293   6.992
  620SOL     OW 2758   4.173   2.370   1.678
  620SOL    HW1 2759   4.216   2.280   1.670
  620SOL    HW2 2760   4.086   2.361   1.728
  621SOL     OW 2761   2.455   6.513   6.638
  621SOL    HW1 2762   2.402   6.580   6.690
  621SOL    HW2 2763   2.394   6.445   6.598
  622SOL     OW 2764   0.824   0.670   6.377
  622SOL    HW1 2765   0.750   0.719   6.330
  622SOL    HW2 2766   0.910   0.684   6.328
  623SOL     OW 2767   0.706   5.252   5.515
  623SOL    HW1 2768   0.631   5.202   5.472
  623SOL    HW2 2769   0.723   5.337   5.465
  624SOL     OW 2770   0.347   2.564   0.817
  624SOL    HW1 2771   0.361   2.495   0.889
  624SOL    HW2 2772   0.257   2.606   0.828
  625SOL     OW 2773   2.154   1.188   1.642
  625SOL    HW1 2774   2.222   1.122   1.675
  625SOL    HW2 2775   2.078   1.138   1.599
  626SOL     OW 2776   2.217   6.030   3.176
  626SOL    HW1 2777   2.264   6.107   3.133
  626SOL    HW2 2778   2.265   6.003   3.259
  627SOL     OW 2779   5.250   6.499   0.404
  627SOL    HW1 2780   5.244   6.459   0.495
  627SOL    HW2 2781   5.195   6.445   0.340
  628SOL     OW 2782   6.477   5.599   6.309
  628SOL    HW1 2783   6.484   5.513   6.258
  628SOL    HW2 2784   6.419   5.663   6.260
  629SOL     OW 2785   6.766   6.523   0.273
  629SOL    HW1 2786   6.819   6.480   0.200
  629SOL    HW2 2787   6.710   6.454   0.319
  630SOL     OW 2788   6.577   1.950   2.686
  630SOL    HW1 2789   6.493   1.950   2.632
  630SOL    HW2 2790   6.571   2.020   2.758
  631SOL     OW 2791   3.182   6.418   5.314
  631SOL    HW1 2792   3.260   6.472   5.282
  631SOL    HW2 2793   3.148   6.458   5.399
  632SOL     OW 2794   2.343   1.045   0.746
  632SOL    HW1 2795   2.411   1.064   0.675
  632SOL    HW2 2796   2.266   1.108   0.737
  633SOL     OW 2797   4.952   4.432   0.012
  633SOL    HW1 2798   4.877   4.420   6.969
  633SOL    HW2 2799   4.916   4.459   0.101
  634SOL     OW 2800   4.574   4.432   1.699
  634SOL    HW1 2801   4.528   4.408   1.785
  634SOL    HW2 2802   4.564   4.356   1.634
  635SOL     OW 2803   4.693   4.897   0.726
  635SOL    HW1 2804   4.698   4.975   0.788
  635SOL    HW2 2805   4.620   4.835   0.756
  636SOL     OW 2806   4.349   5.668   6.348
  636SOL    HW1 2807   4.449   5.665   6.358
  636SOL    HW2 2808   4.323   5.756   6.308
  637SOL     OW 2809   6.615   3.972   2.607
  637SOL    HW1 2810   6.550   3.920   2.552
  637SOL    HW2 2811   6.573   3.995   2.695
  638SOL     OW 2812   5.772   2.271   2.776
  638SOL    HW1 2813   5.704   2.323   2.723
  638SOL    HW2 2814   5.813   2.331   2.845
  639SOL     OW 2815   5.343   4.243   2.570
  639SOL    HW1 2816   5.278   4.309   2.532
  639SOL    HW2 2817   5.331   4.238   2.669
  640SOL     OW 2818   0.431   5.101   4.087
  640SOL    HW1 2819   0.493   5.034   4.046
  640SOL    HW2 2820   0.460   5.193   4.061
  641SOL     OW 2821   6.989   6.109   4.855
  641SOL    HW1 2822   6.928   6.082   4.780
  641SOL    HW2 2823   6.934   6.133   4.935
  642SOL     OW 2824   0.215   3.429   4.768
  642SOL    HW1 2825   0.174   3.356   4.823
  642SOL    HW2 2826   0.148   3.461   4.701
  643SOL     OW 2827   4.548   5.376   4.985
  643SOL    HW1 2828   4.535   5.278   4.967
  643SOL    HW2 2829   4.631   5.389   5.040
  644SOL     OW 2830   0.949   6.074   4.410
  644SOL    HW1 2831   0.946   6.042   4.505
  644SOL    HW2 2832   1.044   6.094   4.385
  645SOL     OW 2833   4.944   1.485   4.770
  645SOL    HW1 2834   4.974   1.492   4.865
  645SOL    HW2 2835   4.938   1.389   4.744
  646SOL     OW 2836   3.090   1.350   3.997
  646SOL    HW1 2837   3.156   1.295   3.946
  646SOL    HW2 2838   3.094   1.445   3.966
  647SOL     OW 2839   5.203   1.740   4.883
  647SOL    HW1 2840   5.126   1.711   4.941
  647SOL    HW2 2841   5.263   1.662   4.868
  648SOL     OW 2842   6.730   4.041   3.931
  648SOL    HW1 2843   6.775   4.131   3.928
  648SOL    HW2 2844   6.637   4.052   3.967
  649SOL     OW 2845   3.622   3.807   0.584
  649SOL    HW1 2846   3.666   3.738   0.641
  649SOL    HW2 2847   3.616   3.893   0.635
  650SOL     OW 2848   6.246   4.517   0.868
  650SOL    HW1 2849   6.174   4.511   0.937
  650SOL    HW2 2850   6.306   4.595   0.889
  651SOL     OW 2851   6.696   6.700   6.419
  651SOL    HW1 2852   6.746   6.749   6.491
  651SOL    HW2 2853   6.645   6.624   6.460
  652SOL     OW 2854   5.476   6.355   3.769
  652SOL    HW1 2855   5.395   6.413   3.779
  652SOL    HW2 2856   5.452   6.274   3.715
  653SOL     OW 2857   2.852   6.272   4.570
  653SOL    HW1 2858   2.938   6.312   4.600
  653SOL    HW2 2859   2.870   6.187   4.520
  654SOL     OW 2860   0.064   4.005   5.671
  654SOL    HW1 2861   0.003   3.926   5.664
  654SOL    HW2 2862   0.046   4.053   5.757
  655SOL     OW 2863   0.900   6.369   1.905
  655SOL    HW1 2864   0.829   6.360   1.835
  655SOL    HW2 2865   0.866   6.427   1.979
  656SOL     OW 2866   1.905   6.292   1.794
  656SOL    HW1 2867   1.815   6.292   1.837
  656SOL    HW2 2868   1.969   6.239   1.850
  657SOL     OW 2869   1.444   2.263   1.792
  657SOL    HW1 2870   1.427   2.180   1.846
  657SOL    HW2 2871   1.456   2.238   1.696
  658SOL     OW 2872   2.823   3.305   6.139
  658SOL    HW1 2873   2.912   3.324   6.098
  658SOL    HW2 2874   2.801   3.376   6.206
  659SOL     OW 2875   2.282   5.721   5.892
  659SOL    HW1 2876   2.295   5.820   5.901
  659SOL    HW2 2877   2.343   5.686   5.822
  660SOL     OW 2878   4.896   4.694   2.371
  660SOL    HW1 2879   4.916   4.598   2.389
  660SOL    HW2 2880   4.831   4.729   2.439
  661SOL     OW 2881   3.945   5.715   3.345
  661SOL    HW1 2882   3.936   5.811   3.371
  661SOL    HW2 2883   4.041   5.695   3.325
  662SOL     OW 2884   3.870   0.625   5.704
  662SOL    HW1 2885   3.849   0.543   5.757
  662SOL    HW2 2886   3.965   0.652   5.721
  663SOL     OW 2887   2.441   4.244   6.407
  663SOL    HW1 2888   2.513   4.187   6.366
  663SOL    HW2 2889   2.478   4.334   6.430
  664SOL     OW 2890   6.864   5.420   6.300
  664SOL    HW1 2891   6.874   5.443   6.203
  664SOL    HW2 2892   6.800   5.483   6.343
  665SOL     OW 2893   5.220   5.696   2.126
  665SOL    HW1 2894   5.278   5.681   2.045
  665SOL    HW2 2895   5.131   5.730   2.098
  666SOL     OW 2896   5.421   2.228   2.317
  666SOL    HW1 2897   5.422   2.227   2.417
  666SOL    HW2 2898   5.486   2.159   2.283
  667SOL     OW 2899   1.250   5.094   3.345
  667SOL    HW1 2900   1.247   5.127   3.251
  667SOL    HW2 2901   1.175   5.135   3.397
  668SOL     OW 2902   5.174   6.619   5.743
  668SOL    HW1 2903   5.179   6.694   5.808
  668SOL    HW2 2904   5.252   6.558   5.756
  669SOL     OW 2905   4.169   0.572   2.753
  669SOL    HW1 2906   4.123   0.526   2.677
  669SOL    HW2 2907   4.235   0.638   2.717
  670SOL     OW 2908   3.254   2.656   1.563
  670SOL    HW1 2909   3.231   2.719   1.637
  670SOL    HW2 2910   3.291   2.571   1.602
  671SOL     OW 2911   1.770   6.620   0.308
  671SOL    HW1 2912   1.748   6.530   0.272
  671SOL    HW2 2913   1.851   6.656   0.261
  672SOL     OW 2914   0.415   5.251   2.257
  672SOL    HW1 2915   0.443   5.251   2.161
  672SOL    HW2 2916   0.438   5.163   2.299
  673SOL     OW 2917   6.923   6.809   1.427
  673SOL    HW1 2918   6.935   6.820   1.525
  673SOL    HW2 2919   6.870   6.886   1.391
  674SOL     OW 2920   1.314   1.305   5.123
  674SOL    HW1 2921   1.244   1.371   5.096
  674SOL    HW2 2922   1.368   1.342   5.198
  675SOL     OW 2923   0.840   0.698   2.853
  675SOL    HW1 2924   0.792   0.674   2.768
  675SOL    HW2 2925   0.848   0.797   2.860
  676SOL     OW 2926   3.064   6.011   2.230
  676SOL    HW1 2927   3.057   5.946   2.306
  676SOL    HW2 2928   3.018   6.096   2.256
  677SOL     OW 2929   5.480   1.940   0.633
  677SOL    HW1 2930   5.470   2.012   0.701
  677SOL    HW2 2931   5.432   1.966   0.549
  678SOL     OW 2932   2.106   0.248   5.392
  678SOL    HW1 2933   2.053   0.223   5.473
  678SOL    HW2 2934   2.072   0.335   5.355
  679SOL     OW 2935   4.680   2.293   3.422
  679SOL    HW1 2936   4.716   2.324   3.334
  679SOL    HW2 2937   4.654   2.197   3.416
  680SOL     OW 2938   5.689   5.426   5.508
  680SOL    HW1 2939   5.728   5.518   5.498
  680SOL    HW2 2940   5.618   5.428   5.578
  681SOL     OW 2941   5.011   4.626   1.631
  681SOL    HW1 2942   4.979   4.653   1.540
  681SOL    HW2 2943   5.078   4.692   1.664
  682SOL     OW 2944   6.855   1.286   1.222
  682SOL    HW1 2945   6.878   1.379   1.194
  682SOL    HW2 2946   6.939   1.232   1.230
  683SOL     OW 2947   4.816   3.583   0.660
  683SOL    HW1 2948   4.764   3.532   0.592
  683SOL    HW2 2949   4.904   3.538   0.677
  684SOL     OW 2950   6.546   1.271   0.135
  684SOL    HW1 2951   6.506   1.243   0.047
  684SOL    HW2 2952   6.646   1.270   0.128
  685SOL     OW 2953   4.017   1.586   3.628
  685SOL    HW1 2954   3.976   1.607   3.539
  685SOL    HW2 2955   4.092   1.649   3.646
  686SOL     OW 2956   5.021   2.969   3.760
  686SOL    HW1 2957   5.044   2.876   3.730
  686SOL    HW2 2958   5.043   3.033   3.687
  687SOL     OW 2959   0.514   2.247   4.415
  687SOL    HW1 2960   0.544   2.152   4.406
  687SOL    HW2 2961   0.415   2.251   4.417
  688SOL     OW 2962   0.307   1.663   0.051
  688SOL    HW1 2963   0.394   1.614   0.051
  688SOL    HW2 2964   0.243   1.616   0.112
  689SOL     OW 2965   0.536   5.090   6.273
  689SOL    HW1 2966   0.447   5.118   6.309
  689SOL    HW2 2967   0.580   5.029   6.339
  690SOL     OW 2968   0.491   4.039   2.802
  690SOL    HW1 2969   0.434   4.113   2.837
  690SOL    HW2 2970   0.445   3.995   2.724
  691SOL     OW 2971   2.589   0.366   0.603
  691SOL    HW1 2972   2.569   0.270   0.581
  691SOL    HW2 2973   2.581   0.421   0.520
  692SOL     OW 2974   3.625   0.696   3.760
  692SOL    HW1 2975   3.605   0.792   3.743
  692SOL    HW2 2976   3.604   0.674   3.856
  693SOL     OW 2977   5.584   0.565   3.815
  693SOL    HW1 2978   5.657   0.611   3.764
  693SOL    HW2 2979   5.511   0.538   3.753
  694SOL     OW 2980   4.457   6.518   3.838
  694SOL    HW1 2981   4.435   6.511   3.936
  694SOL    HW2 2982   4.549   6.554   3.827
  695SOL     OW 2983   4.628   6.774   4.395
  695SOL    HW1 2984   4.626   6.802   4.299
  695SOL    HW2 2985   4.636   6.675   4.400
  696SOL     OW 2986   4.762   5.094   2.999
  696SOL    HW1 2987   4.737   5.029   2.926
  696SOL    HW2 2988   4.856   5.076   3.028
  697SOL     OW 2989   1.540   3.786   3.735
  697SOL    HW1 2990   1.477   3.743   3.670
  697SOL    HW2 2991   1.627   3.804   3.689
  698SOL     OW 2992   4.564   6.962   0.765
  698SOL    HW1 2993   4.540   0.008   0.835
  698SOL    HW2 2994   4.568   6.871   0.807
  699SOL     OW 2995   2.258   3.544   6.561
  699SOL    HW1 2996   2.279   3.458   6.516
  699SOL    HW2 2997   2.164   3.571   6.540
  700SOL     OW 2998   2.891   0.736   2.291
  700SOL    HW1 2999   2.840   0.780   2.217
  700SOL    HW2 3000   2.977   0.700   2.256
  701SOL     OW 3001   6.608   3.790   6.373
  701SOL    HW1 3002   6.699   3.753   6.392
  701SOL    HW2 3003   6.572   3.749   6.289
  702SOL     OW 3004   1.451   6.014   4.907
  702SOL    HW1 3005   1.437   5.923   4.947
  702SOL    HW2 3006   1.494   6.005   4.817
  703SOL     OW 3007   3.581   3.261   6.710
  703SOL    HW1 3008   3.595   3.302   6.621
  703SOL    HW2 3009   3.487   3.277   6.740
  704SOL     OW 3010   1.496   2.810   0.178
  704SOL    HW1 3011   1.431   2.865   0.126
  704SOL    HW2 3012   1.457   2.720   0.196
  705SOL     OW 3013   6.157   5.156   3.085
  705SOL    HW1 3014   6.245   5.140   3.040
  705SOL    HW2 3015   6.128   5.250   3.069
  706SOL     OW 3016   4.432   2.166   5.102
  706SOL    HW1 3017   4.504   2.210   5.049
  706SOL    HW2 3018   4.473   2.113   5.177
  707SOL     OW 3019   4.358   5.082   2.995
  707SOL    HW1 3020   4.263   5.115   2.994
  707SOL    HW2 3021   4.383   5.054   3.087
  708SOL     OW 3022   3.575   0.459   2.032
  708SOL    HW1 3023   3.554   0.364   2.006
  708SOL    HW2 3024   3.575   0.466   2.132
  709SOL     OW 3025   0.478   5.702   0.675
  709SOL    HW1 3026   0.502   5.772   0.608
  709SOL    HW2 3027   0.386   5.720   0.710
  710SOL     OW 3028   3.955   2.649   1.238
  710SOL    HW1 3029   4.029   2.605   1.187
  710SOL    HW2 3030   3.940   2.601   1.324
  711SOL     OW 3031   0.040   3.218   5.687
  711SOL    HW1 3032   6.993   3.256   5.625
  711SOL    HW2 3033   0.043   3.118   5.676
  712SOL     OW 3034   3.919   2.152   1.367
  712SOL    HW1 3035   3.923   2.091   1.446
  712SOL    HW2 3036   3.941   2.246   1.396
  713SOL     OW 3037   4.157   2.526   5.999
  713SOL    HW1 3038   4.095   2.480   6.062
  713SOL    HW2 3039   4.105   2.583   5.935
  714SOL     OW 3040   0.027   4.579   3.418
  714SOL    HW1 3041   0.033   4.664   3.366
  714SOL    HW2 3042   6.998   4.595   3.503
  715SOL     OW 3043   5.098   6.294   7.020
  715SOL    HW1 3044   5.001   6.310   7.004
  715SOL    HW2 3045   5.121   6.315   0.094
  716SOL     OW 3046   0.423   0.872   2.352
  716SOL    HW1 3047   0.482   0.944   2.314
  716SOL    HW2 3048   0.331   0.909   2.366
  717SOL     OW 3049   6.696   4.525   4.027
  717SOL    HW1 3050   6.773   4.463   4.015
  717SOL    HW2 3051   6.688   4.585   3.948
  718SOL     OW 3052   4.260   3.432   5.957
  718SOL    HW1 3053   4.313   3.363   5.906
  718SOL    HW2 3054   4.167   3.399   5.970
  719SOL     OW 3055   6.535   0.508   2.541
  719SOL    HW1 3056   6.449   0.495   2.590
  719SOL    HW2 3057   6.610   0.467   2.593
  720SOL     OW 3058   2.106   0.504   6.169
  720SOL    HW1 3059   2.079   0.471   6.079
  720SOL    HW2 3060   2.051   0.458   6.239
  721SOL     OW 3061   2.738   1.736   2.672
  721SOL    HW1 3062   2.644   1.757   2.699
  721SOL    HW2 3063   2.737   1.670   2.597
  722SOL     OW 3064   2.565   0.574   5.268
  722SOL    HW1 3065   2.541   0.477   5.273
  722SOL    HW2 3066   2.487   0.626   5.234
  723SOL     OW 3067   1.550   4.482   3.623
  723SOL    HW1 3068   1.580   4.543   3.550
  723SOL    HW2 3069   1.452   4.467   3.616
  724SOL     OW 3070   1.271   2.115   4.065
  724SOL    HW1 3071   1.304   2.140   4.155
  724SOL    HW2 3072   1.247   2.197   4.013
  725SOL     OW 3073   2.047   5.399   1.598
  725SOL    HW1 3074   2.091   5.369   1.683
  725SOL    HW2 3075   1.948   5.405   1.612
  726SOL     OW 3076   3.547   4.559   1.228
  726SOL    HW1 3077   3.604   4.613   1.167
  726SOL    HW2 3078   3.484   4.620   1.277
  727SOL     OW 3079   6.439   4.471   5.750
  727SOL    HW1 3080   6.418   4.498   5.844
  727SOL    HW2 3081   6.465   4.375   5.748
  728SOL     OW 3082   6.409   2.883   3.755
  728SOL    HW1 3083   6.388   2.853   3.848
  728SOL    HW2 3084   6.472   2.817   3.713
  729SOL     OW 3085   0.679   1.974   1.386
  729SOL    HW1 3086   0.713   1.965   1.480
  729SOL    HW2 3087   0.740   1.925   1.324
  730SOL     OW 3088   6.050   0.238   4.310
  730SOL    HW1 3089   5.982   0.266   4.243
  730SOL    HW2 3090   6.010   0.172   4.373
  731SOL     OW 3091   4.541   5.008   6.570
  731SOL    HW1 3092   4.505   5.071   6.501
  731SOL    HW2 3093   4.574   5.060   6.649
  732SOL     OW 3094   5.288   2.977   1.377
  732SOL    HW1 3095   5.380   3.001   1.345
  732SOL    HW2 3096   5.295   2.933   1.467
  733SOL     OW 3097   5.334   0.202   4.280
  733SOL    HW1 3098   5.245   0.240   4.254
  733SOL    HW2 3099   5.351   0.220   4.377
  734SOL     OW 3100   6.117   4.521   3.152
  734SOL    HW1 3101   6.125   4.535   3.251
  734SOL    HW2 3102   6.043   4.577   3.116
  735SOL     OW 3103   4.146   1.718   0.283
  735SOL    HW1 3104   4.196   1.631   0.282
  735SOL    HW2 3105   4.058   1.704   0.330
  736SOL     OW 3106   0.124   1.982   3.519
  736SOL    HW1 3107   0.177   2.056   3.480
  736SOL    HW2 3108   0.174   1.896   3.510
  737SOL     OW 3109   5.182   1.888   5.292
  737SOL    HW1 3110   5.212   1.804   5.337
  737SOL    HW2 3111   5.098   1.871   5.242
  738SOL     OW 3112   3.030   3.754   1.209
  738SOL    HW1 3113   3.022   3.775   1.306
  738SOL    HW2 3114   3.010   3.836   1.156
  739SOL     OW 3115   4.907   1.225   4.389
  739SOL    HW1 3116   4.992   1.223   4.441
  739SOL    HW2 3117   4.844   1.291   4.429
  740SOL     OW 3118   6.349   1.425   1.329
  740SOL    HW1 3119   6.356   1.508   1.383
  740SOL    HW2 3120   6.438   1.378   1.328
  741SOL     OW 3121   1.526   0.317   3.280
  741SOL    HW1 3122   1.600   0.353   3.337
  741SOL    HW2 3123   1.507   0.222   3.307
  742SOL     OW 3124   2.628   6.752   1.902
  742SOL    HW1 3125   2.596   6.763   1.996
  742SOL    HW2 3126   2.568   6.802   1.840
  743SOL     OW 3127   1.256   5.262   3.690
  743SOL    HW1 3128   1.205   5.192   3.740
  743SOL    HW2 3129   1.354   5.246   3.701
  744SOL     OW 3130   5.682   0.506   1.450
  744SOL    HW1 3131   5.745   0.542   1.520
  744SOL    HW2 3132   5.604   0.568   1.441
  745SOL     OW 3133   1.484   5.749   4.969
  745SOL    HW1 3134   1.391   5.722   4.992
  745SOL    HW2 3135   1.511   5.706   4.882
  746SOL     OW 3136   6.166   3.872   6.723
  746SOL    HW1 3137   6.200   3.950   6.774
  746SOL    HW2 3138   6.189   3.882   6.627
  747SOL     OW 3139   3.586   6.458   3.905
  747SOL    HW1 3140   3.618   6.546   3.941
  747SOL    HW2 3141   3.614   6.384   3.966
  748SOL     OW 3142   3.993   5.110   2.091
  748SOL    HW1 3143   3.920   5.179   2.091
  748SOL    HW2 3144   4.081   5.156   2.084
  749SOL     OW 3145   5.719   3.600   4.357
  749SOL    HW1 3146   5.773   3.684   4.365
  749SOL    HW2 3147   5.781   3.522   4.353
  750SOL     OW 3148   2.572   1.256   1.610
  750SOL    HW1 3149   2.590   1.189   1.539
  750SOL    HW2 3150   2.476   1.285   1.605
  751SOL     OW 3151   4.337   1.907   6.716
  751SOL    HW1 3152   4.299   1.838   6.654
  751SOL    HW2 3153   4.266   1.975   6.738
  752SOL     OW 3154   3.136   1.511   1.477
  752SOL    HW1 3155   3.044   1.545   1.461
  752SOL    HW2 3156   3.172   1.471   1.392
  753SOL     OW 3157   1.171   3.781   5.896
  753SOL    HW1 3158   1.106   3.750   5.827
  753SOL    HW2 3159   1.248   3.717   5.901
  754SOL     OW 3160   4.739   2.118   5.893
  754SOL    HW1 3161   4.839   2.112   5.899
  754SOL    HW2 3162   4.701   2.135   5.983
  755SOL     OW 3163   1.779   5.036   4.850
  755SOL    HW1 3164   1.813   5.084   4.769
  755SOL    HW2 3165   1.837   4.957   4.870
  756SOL     OW 3166   3.125   6.325   6.606
  756SOL    HW1 3167   3.034   6.344   6.568
  756SOL    HW2 3168   3.131   6.364   6.698
  757SOL     OW 3169   0.365   0.417   4.355
  757SOL    HW1 3170   0.273   0.456   4.366
  757SOL    HW2 3171   0.381   0.350   4.426
  758SOL     OW 3172   3.303   0.564   3.258
  758SOL    HW1 3173   3.362   0.491   3.223
  758SOL    HW2 3174   3.209   0.546   3.231
  759SOL     OW 3175   0.664   2.550   1.880
  759SOL    HW1 3176   0.585   2.515   1.830
  759SOL    HW2 3177   0.668   2.649   1.870
  760SOL     OW 3178   6.383   6.427   3.993
  760SOL    HW1 3179   6.424   6.355   3.937
  760SOL    HW2 3180   6.368   6.508   3.936
  761SOL     OW 3181   5.493   3.779   6.189
  761SOL    HW1 3182   5.479   3.682   6.167
  761SOL    HW2 3183   5.506   3.789   6.288
  762SOL     OW 3184   2.581   6.869   4.981
  762SOL    HW1 3185   2.500   6.928   4.985
  762SOL    HW2 3186   2.582   6.819   4.894
  763SOL     OW 3187   3.971   5.480   6.348
  763SOL    HW1 3188   3.938   5.533   6.270
  763SOL    HW2 3189   3.898   5.421   6.382
  764SOL     OW 3190   5.665   0.667   5.218
  764SOL    HW1 3191   5.593   0.723   5.259
  764SOL    HW2 3192   5.754   0.707   5.238
  765SOL     OW 3193   1.185   6.188   1.339
  765SOL    HW1 3194   1.252   6.142   1.397
  765SOL    HW2 3195   1.148   6.122   1.273
  766SOL     OW 3196   2.638   2.107   6.039
  766SOL    HW1 3197   2.587   2.022   6.052
  766SOL    HW2 3198   2.578   2.184   6.061
  767SOL     OW 3199   6.293   5.885   3.450
  767SOL    HW1 3200   6.299   5.873   3.549
  767SOL    HW2 3201   6.385   5.895   3.412
  768SOL     OW 3202   2.100   5.919   2.641
  768SOL    HW1 3203   2.048   5.836   2.659
  768SOL    HW2 3204   2.098   5.978   2.722
  769SOL     OW 3205   2.309   1.230   5.314
  769SOL    HW1 3206   2.212   1.253   5.318
  769SOL    HW2 3207   2.331   1.165   5.386
  770SOL     OW 3208   1.682   5.052   3.542
  770SOL    HW1 3209   1.622   4.999   3.602
  770SOL    HW2 3210   1.670   5.149   3.560
  771SOL     OW 3211   1.087   5.088   2.557
  771SOL    HW1 3212   1.126   5.040   2.478
  771SOL    HW2 3213   1.017   5.031   2.599
  772SOL     OW 3214   5.427   4.872   6.711
  772SOL    HW1 3215   5.473   4.814   6.644
  772SOL    HW2 3216   5.328   4.865   6.700
  773SOL     OW 3217   6.866   4.291   3.950
  773SOL    HW1 3218   6.954   4.315   3.991
  773SOL    HW2 3219   6.868   4.314   3.852
  774SOL     OW 3220   1.910   1.243   1.077
  774SOL    HW1 3221   1.897   1.244   1.176
  774SOL    HW2 3222   1.829   1.281   1.032
  775SOL     OW 3223   1.982   2.205   4.199
  775SOL    HW1 3224   1.958   2.166   4.110
  775SOL    HW2 3225   2.080   2.222   4.202
  776SOL     OW 3226   0.349   0.447   5.297
  776SOL    HW1 3227   0.334   0.439   5.199
  776SOL    HW2 3228   0.304   0.371   5.344
  777SOL     OW 3229   1.755   4.962   1.343
  777SOL    HW1 3230   1.840   5.013   1.358
  777SOL    HW2 3231   1.777   4.868   1.316
  778SOL     OW 3232   2.734   0.675   1.946
  778SOL    HW1 3233   2.657   0.727   1.984
  778SOL    HW2 3234   2.773   0.726   1.869
  779SOL     OW 3235   6.934   2.877   2.804
  779SOL    HW1 3236   6.927   2.977   2.814
  779SOL    HW2 3237   6.848   2.834   2.830
  780SOL     OW 3238   0.677   2.993   4.348
  780SOL    HW1 3239   0.721   3.058   4.286
  780SOL    HW2 3240   0.600   2.950   4.301
  781SOL     OW 3241   6.156   6.980   0.469
  781SOL    HW1 3242   6.253   6.966   0.489
  781SOL    HW2 3243   6.107   6.893   0.478
  782SOL     OW 3244   1.382   3.610   5.928
  782SOL    HW1 3245   1.421   3.663   6.003
  782SOL    HW2 3246   1.396   3.512   5.945
  783SOL     OW 3247   5.044   4.843   1.898
  783SOL    HW1 3248   5.102   4.901   1.840
  783SOL    HW2 3249   5.098   4.766   1.932
  784SOL     OW 3250   4.727   4.757   0.271
  784SOL    HW1 3251   4.668   4.735   0.192
  784SOL    HW2 3252   4.820   4.772   0.239
  785SOL     OW 3253   0.550   2.022   3.334
  785SOL    HW1 3254   0.463   2.025   3.285
  785SOL    HW2 3255   0.554   1.939   3.389
  786SOL     OW 3256   0.725   6.909   3.253
  786SOL    HW1 3257   0.811   6.955   3.229
  786SOL    HW2 3258   0.648   6.961   3.214
  787SOL     OW 3259   1.306   0.437   0.003
  787SOL    HW1 3260   1.330   0.438   0.100
  787SOL    HW2 3261   1.386   0.411   6.971
  788SOL     OW 3262   3.861   1.507   0.126
  788SOL    HW1 3263   3.887   1.580   0.190
  788SOL    HW2 3264   3.787   1.539   0.068
  789SOL     OW 3265   3.970   4.471   1.655
  789SOL    HW1 3266   3.962   4.479   1.754
  789SOL    HW2 3267   3.976   4.563   1.615
  790SOL     OW 3268   1.847   1.921   2.986
  790SOL    HW1 3269   1.832   1.919   3.085
  790SOL    HW2 3270   1.777   1.866   2.941
  791SOL     OW 3271   1.371   5.801   4.571
  791SOL    HW1 3272   1.351   5.758   4.659
  791SOL    HW2 3273   1.426   5.883   4.585
  792SOL     OW 3274   0.760   0.595   1.742
  792SOL    HW1 3275   0.763   0.551   1.832
  792SOL    HW2 3276   0.830   0.555   1.683
  793SOL     OW 3277   5.373   5.095   4.284
  793SOL    HW1 3278   5.417   5.045   4.359
  793SOL    HW2 3279   5.314   5.166   4.321
  794SOL     OW 3280   2.713   3.833   5.911
  794SOL    HW1 3281   2.751   3.862   5.824
  794SOL    HW2 3282   2.664   3.909   5.954
  795SOL     OW 3283   4.022   6.956   4.632
  795SOL    HW1 3284   4.031   7.009   4.548
  795SOL    HW2 3285   4.085   6.991   4.702
  796SOL     OW 3286   1.272   2.404   5.989
  796SOL    HW1 3287   1.216   2.472   6.036
  796SOL    HW2 3288   1.368   2.433   5.989
  797SOL     OW 3289   5.436   1.463   1.170
  797SOL    HW1 3290   5.430   1.363   1.167
  797SOL    HW2 3291   5.344   1.501   1.176
  798SOL     OW 3292   3.141   6.644   1.776
  798SOL    HW1 3293   3.159   6.561   1.723
  798SOL    HW2 3294   3.185   6.636   1.865
  799SOL     OW 3295   0.217   6.850   6.305
  799SOL    HW1 3296   0.148   6.863   6.376
  799SOL    HW2 3297   0.308   6.869   6.343
  800SOL     OW 3298   5.625   1.400   2.417
  800SOL    HW1 3299   5.659   1.403   2.323
  800SOL    HW2 3300   5.697   1.365   2.478
  801SOL     OW 3301   2.333   4.370   4.769
  801SOL    HW1 3302   2.303   4.437   4.701
  801SOL    HW2 3303   2.331   4.278   4.728
  802SOL     OW 3304   2.857   1.517   0.909
  802SOL    HW1 3305   2.863   1.480   0.816
  802SOL    HW2 3306   2.825   1.612   0.905
  803SOL     OW 3307   1.378   0.273   6.086
  803SOL    HW1 3308   1.448   0.211   6.050
  803SOL    HW2 3309   1.369   0.352   6.025
  804SOL     OW 3310   5.978   6.664   0.625
  804SOL    HW1 3311   5.980   6.571   0.590
  804SOL    HW2 3312   6.038   6.671   0.705
  805SOL     OW 3313   2.738   0.999   3.907
  805SOL    HW1 3314   2.786   1.062   3.846
  805SOL    HW2 3315   2.653   1.042   3.940
  806SOL     OW 3316   5.269   0.849   4.859
  806SOL    HW1 3317   5.171   0.852   4.844
  806SOL    HW2 3318   5.317   0.883   4.778
  807SOL     OW 3319   0.577   0.751   5.348
  807SOL    HW1 3320   0.541   0.781   5.436
  807SOL    HW2 3321   0.587   0.651   5.348
  808SOL     OW 3322   3.801   4.304   6.246
  808SOL    HW1 3323   3.892   4.345   6.247
  808SOL    HW2 3324   3.741   4.359   6.188
  809SOL     OW 3325   0.551   5.261   1.312
  809SOL    HW1 3326   0.585   5.334   1.252
  809SOL    HW2 3327   0.550   5.175   1.261
  810SOL     OW 3328   3.457   4.113   0.800
  810SOL    HW1 3329   3.465   4.030   0.856
  810SOL    HW2 3330   3.370   4.111   0.751
  811SOL     OW 3331   5.343   5.977   5.451
  811SOL    HW1 3332   5.412   5.905   5.453
  811SOL    HW2 3333   5.264   5.949   5.506
  812SOL     OW 3334   6.868   0.596   2.922
  812SOL    HW1 3335   6.967   0.611   2.921
  812SOL    HW2 3336   6.826   0.650   2.850
  813SOL     OW 3337   3.848   6.390   4.323
  813SOL    HW1 3338   3.903   6.334   4.260
  813SOL    HW2 3339   3.864   6.487   4.305
  814SOL     OW 3340   5.993   5.854   2.693
  814SOL    HW1 3341   5.923   5.787   2.666
  814SOL    HW2 3342   5.963   5.946   2.666
  815SOL     OW 3343   6.727   3.647   3.213
  815SOL    HW1 3344   6.703   3.555   3.181
  815SOL    HW2 3345   6.815   3.674   3.174
  816SOL     OW 3346   5.974   5.854   0.395
  816SOL    HW1 3347   5.961   5.951   0.374
  816SOL    HW2 3348   6.070   5.837   0.415
  817SOL     OW 3349   1.267   5.862   1.474
  817SOL    HW1 3350   1.212   5.941   1.499
  817SOL    HW2 3351   1.217   5.778   1.498
  818SOL     OW 3352   6.145   2.588   3.575
  818SOL    HW1 3353   6.083   2.513   3.552
  818SOL    HW2 3354   6.118   2.670   3.526
  819SOL     OW 3355   5.879   2.962   2.020
  819SOL    HW1 3356   5.783   2.969   1.991
  819SOL    HW2 3357   5.921   2.882   1.978
  820SOL     OW 3358   3.240   2.171   4.807
  820SOL    HW1 3359   3.225   2.211   4.898
  820SOL    HW2 3360   3.188   2.086   4.799
  821SOL     OW 3361   6.701   4.056   6.830
  821SOL    HW1 3362   6.650   4.120   6.887
  821SOL    HW2 3363   6.637   3.992   6.786
  822SOL     OW 3364   0.415   3.726   3.774
  822SOL    HW1 3365   0.443   3.733   3.678
  822SOL    HW2 3366   0.344   3.655   3.782
  823SOL     OW 3367   5.971   3.991   6.325
  823SOL    HW1 3368   6.035   4.029   6.258
  823SOL    HW2 3369   5.878   4.018   6.301
  824SOL     OW 3370   4.358   1.042   6.121
  824SOL    HW1 3371   4.401   1.130   6.101
  824SOL    HW2 3372   4.420   0.986   6.177
  825SOL     OW 3373   0.058   5.698   1.035
  825SOL    HW1 3374   0.135   5.681   1.096
  825SOL    HW2 3375   7.012   5.626   1.046
  826SOL     OW 3376   3.924   2.067   5.806
  826SOL    HW1 3377   3.886   1.993   5.750
  826SOL    HW2 3378   3.853   2.135   5.824
  827SOL     OW 3379   2.580   4.308   5.335
  827SOL    HW1 3380   2.592   4.388   5.393
  827SOL    HW2 3381   2.534   4.334   5.250
  828SOL     OW 3382   5.186   6.591   6.610
  828SOL    HW1 3383   5.167   6.662   6.677
  828SOL    HW2 3384   5.264   6.618   6.554
  829SOL     OW 3385   4.142   3.646   2.180
  829SOL    HW1 3386   4.140   3.622   2.278
  829SOL    HW2 3387   4.189   3.734   2.169
  830SOL     OW 3388   5.826   4.710   6.775
  830SOL    HW1 3389   5.837   4.644   6.701
  830SOL    HW2 3390   5.871   4.796   6.750
  831SOL     OW 3391   6.096   6.838   0.022
  831SOL    HW1 3392   6.136   6.917   0.068
  831SOL    HW2 3393   6.141   6.755   0.053
  832SOL     OW 3394   4.329   1.138   2.952
  832SOL    HW1 3395   4.269   1.143   2.872
  832SOL    HW2 3396   4.279   1.098   3.029
  833SOL     OW 3397   1.819   3.544   6.553
  833SOL    HW1 3398   1.865   3.603   6.487
  833SOL    HW2 3399   1.832   3.581   6.645
  834SOL     OW 3400   4.340   3.881   0.985
  834SOL    HW1 3401   4.286   3.800   0.963
  834SOL    HW2 3402   4.302   3.927   1.065
  835SOL     OW 3403   3.190   0.319   5.457
  835SOL    HW1 3404   3.092   0.337   5.462
  835SOL    HW2 3405   3.237   0.371   5.528
  836SOL     OW 3406   3.556   6.966   5.081
  836SOL    HW1 3407   3.603   6.993   5.165
  836SOL    HW2 3408   3.486   0.011   5.058
  837SOL     OW 3409   6.797   6.986   0.932
  837SOL    HW1 3410   6.857   6.914   0.897
  837SOL    HW2 3411   6.846   0.052   0.930
  838SOL     OW 3412   2.246   0.404   4.664
  838SOL    HW1 3413   2.300   0.431   4.584
  838SOL    HW2 3414   2.150   0.390   4.636
  839SOL     OW 3415   1.904   1.578   1.916
  839SOL    HW1 3416   1.961   1.627   1.982
  839SOL    HW2 3417   1.914   1.479   1.930
  840SOL     OW 3418   6.155   5.943   6.887
  840SOL    HW1 3419   6.072   5.982   6.848
  840SOL    HW2 3420   6.132   5.890   6.969
  841SOL     OW 3421   3.072   5.209   6.157
  841SOL    HW1 3422   3.088   5.304   6.130
  841SOL    HW2 3423   3.107   5.148   6.086
  842SOL     OW 3424   3.583   0.290   5.335
  842SOL    HW1 3425   3.527   0.323   5.259
  842SOL    HW2 3426   3.559   0.339   5.419
  843SOL     OW 3427   1.064   1.439   1.324
  843SOL    HW1 3428   1.153   1.481   1.306
  843SOL    HW2 3429   0.994   1.484   1.269
  844SOL     OW 3430   6.410   0.152   0.436
  844SOL    HW1 3431   6.311   0.138   0.424
  844SOL    HW2 3432   6.426   0.231   0.494
  845SOL     OW 3433   4.848   3.857   3.638
  845SOL    HW1 3434   4.942   3.864   3.671
  845SOL    HW2 3435   4.813   3.765   3.656
  846SOL     OW 3436   2.185   1.169   5.749
  846SOL    HW1 3437   2.218   1.116   5.827
  846SOL    HW2 3438   2.085   1.172   5.751
  847SOL     OW 3439   1.713   3.774   1.194
  847SOL    HW1 3440   1.722   3.835   1.116
  847SOL    HW2 3441   1.697   3.827   1.277
  848SOL     OW 3442   6.983   6.883   6.098
  848SOL    HW1 3443   6.912   6.871   6.028
  848SOL    HW2 3444   6.989   6.800   6.154
  849SOL     OW 3445   6.323   3.898   6.172
  849SOL    HW1 3446   6.361   3.924   6.261
  849SOL    HW2 3447   6.236   3.851   6.185
  850SOL     OW 3448   5.158   1.271   4.483
  850SOL    HW1 3449   5.163   1.291   4.581
  850SOL    HW2 3450   5.156   1.357   4.432
  851SOL     OW 3451   0.059   3.021   1.374
  851SOL    HW1 3452   0.057   3.007   1.275
  851SOL    HW2 3453   6.992   3.000   1.413
  852SOL     OW 3454   1.227   3.804   0.311
  852SOL    HW1 3455   1.157   3.841   0.371
  852SOL    HW2 3456   1.191   3.795   0.218
  853SOL     OW 3457   0.780   4.572   1.179
  853SOL    HW1 3458   0.871   4.605   1.153
  853SOL    HW2 3459   0.735   4.531   1.100
  854SOL     OW 3460   5.298   5.143   0.542
  854SOL    HW1 3461   5.309   5.076   0.469
  854SOL    HW2 3462   5.330   5.232   0.511
  855SOL     OW 3463   6.773   0.450   1.588
  855SOL    HW1 3464   6.675   0.447   1.610
  855SOL    HW2 3465   6.794   0.378   1.521
  856SOL     OW 3466   1.208   2.138   6.613
  856SOL    HW1 3467   1.140   2.153   6.685
  856SOL    HW2 3468   1.163   2.145   6.524
  857SOL     OW 3469   6.295   4.897   2.034
  857SOL    HW1 3470   6.331   4.989   2.046
  857SOL    HW2 3471   6.369   4.831   2.042
  858SOL     OW 3472   3.120   4.008   1.383
  858SOL    HW1 3473   3.158   4.057   1.461
  858SOL    HW2 3474   3.175   4.027   1.302
  859SOL     OW 3475   5.916   0.007   5.013
  859SOL    HW1 3476   5.921   6.982   4.925
  859SOL    HW2 3477   6.006   0.002   5.058
  860SOL     OW 3478   6.351   2.368   0.627
  860SOL    HW1 3479   6.351   2.468   0.628
  860SOL    HW2 3480   6.276   2.334   0.684
  861SOL     OW 3481   2.632   5.228   4.264
  861SOL    HW1 3482   2.717   5.195   4.224
  861SOL    HW2 3483   2.642   5.325   4.290
  862SOL     OW 3484   1.143   3.720   3.876
  862SOL    HW1 3485   1.186   3.789   3.818
  862SOL    HW2 3486   1.180   3.728   3.969
  863SOL     OW 3487   5.914   0.948   6.902
  863SOL    HW1 3488   5.876   0.962   6.993
  863SOL    HW2 3489   5.993   1.008   6.888
  864SOL     OW 3490   4.148   5.459   4.067
  864SOL    HW1 3491   4.081   5.502   4.128
  864SOL    HW2 3492   4.101   5.391   4.011
  865SOL     OW 3493   1.508   6.494   6.023
  865SOL    HW1 3494   1.527   6.585   6.061
  865SOL    HW2 3495   1.508   6.426   6.096
  866SOL     OW 3496   2.317   1.245   1.432
  866SOL    HW1 3497   2.280   1.222   1.342
  866SOL    HW2 3498   2.249   1.223   1.502
  867SOL     OW 3499   5.208   3.769   0.374
  867SOL    HW1 3500   5.152   3.688   0.389
  867SOL    HW2 3501   5.304   3.743   0.366
  868SOL     OW 3502   6.400   1.355   0.741
  868SOL    HW1 3503   6.320   1.406   0.710
  868SOL    HW2 3504   6.392   1.336   0.839
  869SOL     OW 3505   0.414   4.322   3.136
  869SOL    HW1 3506   0.405   4.293   3.041
  869SOL    HW2 3507   0.363   4.407   3.150
  870SOL     OW 3508   3.744   3.666   0.134
  870SOL    HW1 3509   3.816   3.717   0.087
  870SOL    HW2 3510   3.754   3.677   0.232
  871SOL     OW 3511   4.738   2.261   2.687
  871SOL    HW1 3512   4.769   2.226   2.775
  871SOL    HW2 3513   4.771   2.202   2.613
  872SOL     OW 3514   5.639   2.961   3.780
  872SOL    HW1 3515   5.563   2.972   3.844
  872SOL    HW2 3516   5.643   2.866   3.749
  873SOL     OW 3517   5.995   6.313   5.440
  873SOL    HW1 3518   5.933   6.299   5.362
  873SOL    HW2 3519   5.996   6.411   5.463
  874SOL     OW 3520   0.380   3.827   6.036
  874SOL    HW1 3521   0.424   3.894   6.095
  874SOL    HW2 3522   0.292   3.862   6.005
  875SOL     OW 3523   5.275   4.585   0.806
  875SOL    HW1 3524   5.218   4.567   0.726
  875SOL    HW2 3525   5.352   4.644   0.780
  876SOL     OW 3526   1.498   4.467   2.502
  876SOL    HW1 3527   1.556   4.525   2.559
  876SOL    HW2 3528   1.435   4.415   2.560
  877SOL     OW 3529   3.703   4.699   5.487
  877SOL    HW1 3530   3.792   4.677   5.448
  877SOL    HW2 3531   3.654   4.614   5.509
  878SOL     OW 3532   3.823   5.981   4.766
  878SOL    HW1 3533   3.823   5.896   4.714
  878SOL    HW2 3534   3.753   6.043   4.729
  879SOL     OW 3535   3.566   1.648   0.959
  879SOL    HW1 3536   3.649   1.634   1.013
  879SOL    HW2 3537   3.520   1.560   0.947
  880SOL     OW 3538   2.903   3.480   4.760
  880SOL    HW1 3539   2.870   3.500   4.668
  880SOL    HW2 3540   2.915   3.566   4.811
  881SOL     OW 3541   5.764   3.381   5.514
  881SOL    HW1 3542   5.854   3.409   5.480
  881SOL    HW2 3543   5.700   3.457   5.508
  882SOL     OW 3544   1.139   2.740   4.497
  882SOL    HW1 3545   1.056   2.785   4.466
  882SOL    HW2 3546   1.180   2.690   4.420
  883SOL     OW 3547   3.881   0.584   0.325
  883SOL    HW1 3548   3.905   0.634   0.241
  883SOL    HW2 3549   3.918   0.632   0.404
  884SOL     OW 3550   6.884   4.397   0.056
  884SOL    HW1 3551   6.812   4.466   0.064
  884SOL    HW2 3552   6.961   4.422   0.114
  885SOL     OW 3553   4.282   6.548   5.127
  885SOL    HW1 3554   4.223   6.480   5.171
  885SOL    HW2 3555   4.229   6.597   5.057
  886SOL     OW 3556   4.549   0.408   0.644
  886SOL    HW1 3557   4.566   0.428   0.741
  886SOL    HW2 3558   4.451   0.400   0.629
  887SOL     OW 3559   3.924   5.614   3.861
  887SOL    HW1 3560   3.844   5.558   3.843
  887SOL    HW2 3561   3.925   5.692   3.799
  888SOL     OW 3562   6.774   6.191   3.129
  888SOL    HW1 3563   6.695   6.199   3.069
  888SOL    HW2 3564   6.850   6.149   3.080
  889SOL     OW 3565   0.025   1.284   6.230
  889SOL    HW1 3566   0.031   1.324   6.322
  889SOL    HW2 3567   0.079   1.339   6.167
  890SOL     OW 3568   2.536   5.244   2.539
  890SOL    HW1 3569   2.559   5.300   2.619
  890SOL    HW2 3570   2.584   5.156   2.545
  891SOL     OW 3571   6.726   3.646   0.356
  891SOL    HW1 3572   6.695   3.695   0.437
  891SOL    HW2 3573   6.649   3.594   0.317
  892SOL     OW 3574   3.306   3.610   5.098
  892SOL    HW1 3575   3.227   3.583   5.152
  892SOL    HW2 3576   3.302   3.566   5.008
  893SOL     OW 3577   1.647   6.703   2.441
  893SOL    HW1 3578   1.627   6.718   2.344
  893SOL    HW2 3579   1.721   6.763   2.470
  894SOL     OW 3580   1.050   2.569   2.857
  894SOL    HW1 3581   1.084   2.495   2.799
  894SOL    HW2 3582   1.095   2.655   2.831
  895SOL     OW 3583   1.293   4.929   3.815
  895SOL    HW1 3584   1.273   4.847   3.869
  895SOL    HW2 3585   1.304   4.904   3.719
  896SOL     OW 3586   6.071   5.498   1.466
  896SOL    HW1 3587   6.019   5.453   1.538
  896SOL    HW2 3588   6.009   5.524   1.392
  897SOL     OW 3589   4.254   0.222   6.478
  897SOL    HW1 3590   4.340   0.196   6.436
  897SOL    HW2 3591   4.181   0.161   6.447
  898SOL     OW 3592   4.030   5.829   2.258
  898SOL    HW1 3593   4.073   5.833   2.168
  898SOL    HW2 3594   4.100   5.839   2.329
  899SOL     OW 3595   0.059   5.682   0.553
  899SOL    HW1 3596   0.036   5.757   0.491
  899SOL    HW2 3597   0.159   5.673   0.559
  900SOL     OW 3598   4.955   6.556   6.463
  900SOL    HW1 3599   4.986   6.571   6.369
  900SOL    HW2 3600   5.030   6.576   6.526
  901SOL     OW 3601   0.954   1.051   4.482
  901SOL    HW1 3602   0.949   1.038   4.382
  901SOL    HW2 3603   1.024   0.989   4.519
  902SOL     OW 3604   1.594   2.641   1.132
  902SOL    HW1 3605   1.692   2.622   1.134
  902SOL    HW2 3606   1.567   2.688   1.217
  903SOL     OW 3607   0.414   3.165   6.893
  903SOL    HW1 3608   0.405   3.230   6.969
  903SOL    HW2 3609   0.489   3.103   6.911
  904SOL     OW 3610   2.173   2.983   2.488
  904SOL    HW1 3611   2.201   3.038   2.409
  904SOL    HW2 3612   2.145   2.892   2.457
  905SOL     OW 3613   5.092   4.488   6.086
  905SOL    HW1 3614   5.013   4.533   6.043
  905SOL    HW2 3615   5.172   4.501   6.028
  906SOL     OW 3616   0.822   2.085   6.319
  906SOL    HW1 3617   0.730   2.090   6.280
  906SOL    HW2 3618   0.854   1.990   6.316
  907SOL     OW 3619   5.252   2.481   1.529
  907SOL    HW1 3620   5.274   2.385   1.517
  907SOL    HW2 3621   5.320   2.525   1.587
  908SOL     OW 3622   2.212   4.833   3.179
  908SOL    HW1 3623   2.145   4.891   3.134
  908SOL    HW2 3624   2.263   4.887   3.246
  909SOL     OW 3625   3.647   6.072   2.240
  909SOL    HW1 3626   3.589   6.055   2.320
  909SOL    HW2 3627   3.647   5.990   2.182
  910SOL     OW 3628   3.254   1.202   0.946
  910SOL    HW1 3629   3.249   1.281   0.886
  910SOL    HW2 3630   3.244   1.118   0.892
  911SOL     OW 3631   0.641   5.924   6.667
  911SOL    HW1 3632   0.677   5.839   6.706
  911SOL    HW2 3633   0.715   5.988   6.651
  912SOL     OW 3634   4.683   0.712   3.542
  912SOL    HW1 3635   4.647   0.691   3.633
  912SOL    HW2 3636   4.763   0.772   3.550
  913SOL     OW 3637   2.491   1.087   4.046
  913SOL    HW1 3638   2.481   1.072   4.144
  913SOL    HW2 3639   2.420   1.037   3.997
  914SOL     OW 3640   2.625   6.313   5.144
  914SOL    HW1 3641   2.665   6.312   5.052
  914SOL    HW2 3642   2.699   6.322   5.211
  915SOL     OW 3643   6.872   3.310   0.843
  915SOL    HW1 3644   6.794   3.258   0.878
  915SOL    HW2 3645   6.852   3.341   0.750
  916SOL     OW 3646   2.093   3.070   2.745
  916SOL    HW1 3647   2.015   3.133   2.740
  916SOL    HW2 3648   2.119   3.041   2.653
  917SOL     OW 3649   6.609   0.426   2.043
  917SOL    HW1 3650   6.627   0.497   2.111
  917SOL    HW2 3651   6.586   0.470   1.956
  918SOL     OW 3652   3.420   0.284   1.192
  918SOL    HW1 3653   3.357   0.295   1.115
  918SOL    HW2 3654   3.409   0.361   1.256
  919SOL     OW 3655   6.550   6.721   3.361
  919SOL    HW1 3656   6.627   6.669   3.397
  919SOL    HW2 3657   6.569   6.819   3.367
  920SOL     OW 3658   2.700   4.770   2.606
  920SOL    HW1 3659   2.659   4.694   2.657
  920SOL    HW2 3660   2.630   4.815   2.550
  921SOL     OW 3661   3.957   5.371   3.188
  921SOL    HW1 3662   3.881   5.360   3.251
  921SOL    HW2 3663   4.039   5.397   3.238
  922SOL     OW 3664   3.013   3.209   4.683
  922SOL    HW1 3665   2.987   3.305   4.693
  922SOL    HW2 3666   3.067   3.180   4.762
  923SOL     OW 3667   2.288   3.904   5.598
  923SOL    HW1 3668   2.377   3.949   5.587
  923SOL    HW2 3669   2.254   3.875   5.508
  924SOL     OW 3670   6.472   3.043   3.358
  924SOL    HW1 3671   6.472   2.944   3.363
  924SOL    HW2 3672   6.440   3.081   3.445
  925SOL     OW 3673   0.045   2.153   6.506
  925SOL    HW1 3674   0.051   2.119   6.600
  925SOL    HW2 3675   7.001   2.228   6.502
  926SOL     OW 3676   6.580   1.255   1.031
  926SOL    HW1 3677   6.517   1.182   1.003
  926SOL    HW2 3678   6.576   1.266   1.130
  927SOL     OW 3679   5.358   4.365   2.936
  927SOL    HW1 3680   5.405   4.301   2.997
  927SOL    HW2 3681   5.356   4.327   2.843
  928SOL     OW 3682   1.489   6.740   0.063
  928SOL    HW1 3683   1.568   6.771   0.117
  928SOL    HW2 3684   1.448   6.661   0.108
  929SOL     OW 3685   0.598   0.138   0.599
  929SOL    HW1 3686   0.614   0.072   0.526
  929SOL    HW2 3687   0.517   0.193   0.578
  930SOL     OW 3688   5.215   5.988   4.520
  930SOL    HW1 3689   5.234   5.891   4.505
  930SOL    HW2 3690   5.194   6.004   4.617
  931SOL     OW 3691   5.824   1.267   4.669
  931SOL    HW1 3692   5.736   1.250   4.714
  931SOL    HW2 3693   5.896   1.270   4.738
  932SOL     OW 3694   2.952   0.142   3.496
  932SOL    HW1 3695   2.928   0.153   3.592
  932SOL    HW2 3696   3.028   0.203   3.473
  933SOL     OW 3697   1.921   5.905   3.700
  933SOL    HW1 3698   1.887   5.999   3.692
  933SOL    HW2 3699   1.982   5.885   3.624
  934SOL     OW 3700   1.630   0.056   0.066
  934SOL    HW1 3701   1.638   6.996   0.123
  934SOL    HW2 3702   1.594   0.131   0.121
  935SOL     OW 3703   5.017   4.467   3.565
  935SOL    HW1 3704   5.071   4.384   3.558
  935SOL    HW2 3705   4.949   4.457   3.638
  936SOL     OW 3706   0.332   0.642   6.145
  936SOL    HW1 3707   0.279   0.721   6.114
  936SOL    HW2 3708   0.324   0.633   6.244
  937SOL     OW 3709   5.121   1.408   5.614
  937SOL    HW1 3710   5.155   1.415   5.707
  937SOL    HW2 3711   5.152   1.322   5.573
  938SOL     OW 3712   6.371   5.118   6.068
  938SOL    HW1 3713   6.406   5.042   6.123
  938SOL    HW2 3714   6.284   5.150   6.106
  939SOL     OW 3715   6.739   6.810   4.914
  939SOL    HW1 3716   6.774   6.793   5.006
  939SOL    HW2 3717   6.815   6.833   4.853
  940SOL     OW 3718   1.410   3.769   1.640
  940SOL    HW1 3719   1.333   3.786   1.580
  940SOL    HW2 3720   1.381   3.709   1.715
  941SOL     OW 3721   5.296   1.111   6.134
  941SOL    HW1 3722   5.308   1.043   6.207
  941SOL    HW2 3723   5.218   1.169   6.156
  942SOL     OW 3724   5.617   6.966   3.022
  942SOL    HW1 3725   5.530   6.948   3.068
  942SOL    HW2 3726   5.671   6.882   3.017
  943SOL     OW 3727   2.124   3.571   3.949
  943SOL    HW1 3728   2.212   3.591   3.908
  943SOL    HW2 3729   2.051   3.615   3.897
  944SOL     OW 3730   0.292   4.551   6.179
  944SOL    HW1 3731   0.215   4.503   6.138
  944SOL    HW2 3732   0.261   4.599   6.261
  945SOL     OW 3733   6.526   3.328   5.982
  945SOL    HW1 3734   6.496   3.349   5.889
  945SOL    HW2 3735   6.446   3.316   6.041
  946SOL     OW 3736   5.032   3.547   5.537
  946SOL    HW1 3737   5.029   3.574   5.440
  946SOL    HW2 3738   4.993   3.455   5.546
  947SOL     OW 3739   3.886   3.014   3.355
  947SOL    HW1 3740   3.942   3.094   3.378
  947SOL    HW2 3741   3.927   2.967   3.277
  948SOL     OW 3742   4.619   0.695   2.948
  948SOL    HW1 3743   4.700   0.715   2.892
  948SOL    HW2 3744   4.607   0.768   3.016
  949SOL     OW 3745   1.173   5.784   0.279
  949SOL    HW1 3746   1.270   5.792   0.256
  949SOL    HW2 3747   1.162   5.724   0.358
  950SOL     OW 3748   4.663   5.451   1.722
  950SOL    HW1 3749   4.651   5.400   1.807
  950SOL    HW2 3750   4.739   5.515   1.733
  951SOL     OW 3751   1.776   0.672   4.018
  951SOL    HW1 3752   1.792   0.585   4.064
  951SOL    HW2 3753   1.813   0.746   4.073
  952SOL     OW 3754   4.529   2.086   3.327
  952SOL    HW1 3755   4.540   1.998   3.374
  952SOL    HW2 3756   4.453   2.136   3.369
  953SOL     OW 3757   5.202   4.916   4.157
  953SOL    HW1 3758   5.242   5.000   4.191
  953SOL    HW2 3759   5.146   4.874   4.229
  954SOL     OW 3760   4.004   5.756   1.141
  954SOL    HW1 3761   3.955   5.835   1.102
  954SOL    HW2 3762   4.020   5.689   1.069
  955SOL     OW 3763   0.427   3.648   1.967
  955SOL    HW1 3764   0.446   3.690   1.878
  955SOL    HW2 3765   0.334   3.673   1.995
  956SOL     OW 3766   6.417   0.249   2.085
  956SOL    HW1 3767   6.464   0.164   2.062
  956SOL    HW2 3768   6.472   0.327   2.057
  957SOL     OW 3769   5.901   3.549   4.107
  957SOL    HW1 3770   5.959   3.568   4.028
  957SOL    HW2 3771   5.862   3.457   4.098
  958SOL     OW 3772   3.849   1.707   1.607
  958SOL    HW1 3773   3.763   1.759   1.606
  958SOL    HW2 3774   3.840   1.628   1.545
  959SOL     OW 3775   3.874   6.011   3.334
  959SOL    HW1 3776   3.893   6.015   3.236
  959SOL    HW2 3777   3.775   6.012   3.349
  960SOL     OW 3778   0.532   6.439   2.385
  960SOL    HW1 3779   0.583   6.446   2.471
  960SOL    HW2 3780   0.592   6.405   2.313
  961SOL     OW 3781   4.295   6.277   3.218
  961SOL    HW1 3782   4.230   6.238   3.152
  961SOL    HW2 3783   4.277   6.240   3.309
  962SOL     OW 3784   0.400   1.699   5.119
  962SOL    HW1 3785   0.328   1.632   5.101
  962SOL    HW2 3786   0.366   1.767   5.183
  963SOL     OW 3787   5.684   1.593   6.299
  963SOL    HW1 3788   5.712   1.518   6.239
  963SOL    HW2 3789   5.692   1.564   6.395
  964SOL     OW 3790   5.600   4.618   6.914
  964SOL    HW1 3791   5.548   4.557   6.854
  964SOL    HW2 3792   5.675   4.659   6.863
  965SOL     OW 3793   5.484   1.974   1.733
  965SOL    HW1 3794   5.556   1.940   1.673
  965SOL    HW2 3795   5.429   2.041   1.684
  966SOL     OW 3796   5.847   2.740   2.647
  966SOL    HW1 3797   5.809   2.647   2.649
  966SOL    HW2 3798   5.796   2.796   2.582
  967SOL     OW 3799   2.869   4.409   1.418
  967SOL    HW1 3800   2.864   4.508   1.422
  967SOL    HW2 3801   2.789   4.370   1.464
  968SOL     OW 3802   3.559   0.176   1.988
  968SOL    HW1 3803   3.565   0.090   2.040
  968SOL    HW2 3804   3.574   0.157   1.891
  969SOL     OW 3805   2.117   5.311   5.598
  969SOL    HW1 3806   2.099   5.374   5.522
  969SOL    HW2 3807   2.214   5.286   5.598
  970SOL     OW 3808   5.936   1.023   6.360
  970SOL    HW1 3809   5.959   0.946   6.419
  970SOL    HW2 3810   5.839   1.016   6.334
  971SOL     OW 3811   0.453   2.591   2.677
  971SOL    HW1 3812   0.550   2.612   2.672
  971SOL    HW2 3813   0.437   2.522   2.747
  972SOL     OW 3814   5.857   2.205   1.454
  972SOL    HW1 3815   5.908   2.289   1.471
  972SOL    HW2 3816   5.765   2.227   1.421
  973SOL     OW 3817   0.102   5.109   6.914
  973SOL    HW1 3818   0.170   5.167   6.867
  973SOL    HW2 3819   0.144   5.022   6.938
  974SOL     OW 3820   5.137   6.347   2.350
  974SOL    HW1 3821   5.227   6.354   2.394
  974SOL    HW2 3822   5.142   6.386   2.258
  975SOL     OW 3823   2.044   0.533   6.548
  975SOL    HW1 3824   1.954   0.490   6.558
  975SOL    HW2 3825   2.103   0.474   6.491
  976SOL     OW 3826   0.272   3.586   2.695
  976SOL    HW1 3827   0.279   3.667   2.637
  976SOL    HW2 3828   0.353   3.579   2.753
  977SOL     OW 3829   0.389   6.556   1.887
  977SOL    HW1 3830   0.425   6.598   1.969
  977SOL    HW2 3831   0.448   6.579   1.809
  978SOL     OW 3832   5.574   3.091   5.494
  978SOL    HW1 3833   5.580   2.991   5.489
  978SOL    HW2 3834   5.560   3.119   5.589
  979SOL     OW 3835   0.360   2.445   0.308
  979SOL    HW1 3836   0.404   2.368   0.354
  979SOL    HW2 3837   0.367   2.433   0.209
  980SOL     OW 3838   4.327   2.404   3.760
  980SOL    HW1 3839   4.380   2.433   3.840
  980SOL    HW2 3840   4.378   2.424   3.677
  981SOL     OW 3841   0.491   1.847   4.753
  981SOL    HW1 3842   0.405   1.886   4.720
  981SOL    HW2 3843   0.499   1.752   4.721
  982SOL     OW 3844   1.571   1.703   5.106
  982SOL    HW1 3845   1.610   1.645   5.177
  982SOL    HW2 3846   1.575   1.656   5.018
  983SOL     OW 3847   5.785   3.215   3.796
  983SOL    HW1 3848   5.851   3.246   3.727
  983SOL    HW2 3849   5.756   3.122   3.774
  984SOL     OW 3850   2.621   2.366   4.886
  984SOL    HW1 3851   2.527   2.336   4.906
  984SOL    HW2 3852   2.660   2.410   4.967
  985SOL     OW 3853   6.297   3.018   5.046
  985SOL    HW1 3854   6.310   3.098   5.105
  985SOL    HW2 3855   6.208   2.977   5.065
  986SOL     OW 3856   4.701   4.566   1.213
  986SOL    HW1 3857   4.656   4.486   1.252
  986SOL    HW2 3858   4.632   4.632   1.183
  987SOL     OW 3859   5.024   6.954   2.660
  987SOL    HW1 3860   5.047   0.024   2.693
  987SOL    HW2 3861   4.951   6.916   2.717
  988SOL     OW 3862   3.674   3.850   2.146
  988SOL    HW1 3863   3.682   3.922   2.214
  988SOL    HW2 3864   3.751   3.787   2.155
  989SOL     OW 3865   6.854   1.632   6.087
  989SOL    HW1 3866   6.950   1.653   6.071
  989SOL    HW2 3867   6.839   1.611   6.184
  990SOL     OW 3868   4.313   1.281   2.449
  990SOL    HW1 3869   4.341   1.191   2.414
  990SOL    HW2 3870   4.215   1.294   2.433
  991SOL     OW 3871   0.791   4.047   4.722
  991SOL    HW1 3872   0.884   4.050   4.757
  991SOL    HW2 3873   0.739   3.977   4.772
  992SOL     OW 3874   0.366   3.527   0.865
  992SOL    HW1 3875   0.438   3.528   0.796
  992SOL    HW2 3876   0.373   3.443   0.920
  993SOL     OW 3877   6.775   5.092   0.423
  993SOL    HW1 3878   6.755   4.994   0.426
  993SOL    HW2 3879   6.868   5.108   0.454
  994SOL     OW 3880   4.258   4.868   1.389
  994SOL    HW1 3881   4.325   4.835   1.455
  994SOL    HW2 3882   4.175   4.813   1.396
  995SOL     OW 3883   4.017   2.764   5.593
  995SOL    HW1 3884   4.044   2.752   5.689
  995SOL    HW2 3885   4.065   2.696   5.537
  996SOL     OW 3886   3.382   5.416   4.492
  996SOL    HW1 3887   3.382   5.348   4.419
  996SOL    HW2 3888   3.437   5.383   4.569
  997SOL     OW 3889   0.885   0.134   3.441
  997SOL    HW1 3890   0.840   0.045   3.449
  997SOL    HW2 3891   0.818   0.206   3.455
  998SOL     OW 3892   5.205   0.570   5.171
  998SOL    HW1 3893   5.116   0.611   5.188
  998SOL    HW2 3894   5.193   0.478   5.134
  999SOL     OW 3895   5.227   4.473   2.549
  999SOL    HW1 3896   5.174   4.529   2.613
  999SOL    HW2 3897   5.317   4.514   2.535
 1000SOL     OW 3898   3.278   1.750   1.502
 1000SOL    HW1 3899   3.276   1.813   1.425
 1000SOL    HW2 3900   3.233   1.665   1.478
 1001SOL     OW 3901   5.240   6.038   1.137
 1001SOL    HW1 3902   5.143   6.059   1.120
 1001SOL    HW2 3903   5.260   6.049   1.234
 1002SOL     OW 3904   5.830   2.146   1.120
 1002SOL    HW1 3905   5.774   2.198   1.184
 1002SOL    HW2 3906   5.834   2.051   1.149
 1003SOL     OW 3907   1.748   6.220   2.657
 1003SOL    HW1 3908   1.741   6.300   2.597
 1003SOL    HW2 3909   1.661   6.207   2.704
 1004SOL     OW 3910   0.446   0.547   1.875
 1004SOL    HW1 3911   0.419   0.643   1.881
 1004SOL    HW2 3912   0.416   0.497   1.956
 1005SOL     OW 3913   2.074   2.551   4.137
 1005SOL    HW1 3914   2.017   2.562   4.218
 1005SOL    HW2 3915   2.152   2.613   4.142
 1006SOL     OW 3916   1.477   4.614   0.459
 1006SOL    HW1 3917   1.474   4.639   0.556
 1006SOL    HW2 3918   1.524   4.686   0.408
 1007SOL     OW 3919   4.405   0.385   5.081
 1007SOL    HW1 3920   4.447   0.358   4.995
 1007SOL    HW2 3921   4.348   0.466   5.067
 1008SOL     OW 3922   0.859   3.209   6.025
 1008SOL    HW1 3923   0.924   3.235   5.955
 1008SOL    HW2 3924   0.867   3.271   6.103
 1009SOL     OW 3925   0.384   4.879   5.176
 1009SOL    HW1 3926   0.400   4.783   5.198
 1009SOL    HW2 3927   0.399   4.894   5.079
 1010SOL     OW 3928   3.365   1.934   6.983
 1010SOL    HW1 3929   3.372   2.031   7.009
 1010SOL    HW2 3930   3.444   1.885   7.019
 1011SOL     OW 3931   1.630   5.423   2.493
 1011SOL    HW1 3932   1.724   5.430   2.462
 1011SOL    HW2 3933   1.568   5.431   2.415
 1012SOL     OW 3934   7.003   6.746   2.537
 1012SOL    HW1 3935   0.038   6.804   2.595
 1012SOL    HW2 3936   7.008   6.778   2.443
 1013SOL     OW 3937   1.316   1.653   6.655
 1013SOL    HW1 3938   1.324   1.565   6.702
 1013SOL    HW2 3939   1.266   1.718   6.712
 1014SOL     OW 3940   6.726   4.464   5.813
 1014SOL    HW1 3941   6.686   4.555   5.804
 1014SOL    HW2 3942   6.693   4.406   5.739
 1015SOL     OW 3943   2.638   6.504   6.071
 1015SOL    HW1 3944   2.581   6.437   6.024
 1015SOL    HW2 3945   2.670   6.573   6.005
 1016SOL     OW 3946   4.182   3.874   7.005
 1016SOL    HW1 3947   4.214   3.845   6.916
 1016SOL    HW2 3948   4.085   3.851   7.015
 1017SOL     OW 3949   4.372   2.747   1.400
 1017SOL    HW1 3950   4.466   2.743   1.434
 1017SOL    HW2 3951   4.309   2.751   1.478
 1018SOL     OW 3952   0.516   4.568   4.013
 1018SOL    HW1 3953   0.572   4.512   3.952
 1018SOL    HW2 3954   0.456   4.626   3.958
 1019SOL     OW 3955   0.052   6.440   0.867
 1019SOL    HW1 3956   0.123   6.410   0.931
 1019SOL    HW2 3957   0.006   6.361   0.828
 1020SOL     OW 3958   6.304   1.227   0.969
 1020SOL    HW1 3959   6.220   1.173   0.958
 1020SOL    HW2 3960   6.282   1.313   1.014
 1021SOL     OW 3961   5.823   0.121   1.667
 1021SOL    HW1 3962   5.798   0.204   1.716
 1021SOL    HW2 3963   5.798   0.130   1.570
 1022SOL     OW 3964   3.033   4.296   5.352
 1022SOL    HW1 3965   2.952   4.238   5.360
 1022SOL    HW2 3966   3.011   4.377   5.299
 1023SOL     OW 3967   0.377   0.681   2.905
 1023SOL    HW1 3968   0.403   0.613   2.973
 1023SOL    HW2 3969   0.423   0.768   2.924
 1024SOL     OW 3970   0.467   2.875   4.228
 1024SOL    HW1 3971   0.472   2.779   4.255
 1024SOL    HW2 3972   0.371   2.903   4.222
 1025SOL     OW 3973   3.924   3.750   1.552
 1025SOL    HW1 3974   3.833   3.766   1.592
 1025SOL    HW2 3975   3.989   3.732   1.626
 1026SOL     OW 3976   2.612   2.772   1.742
 1026SOL    HW1 3977   2.640   2.677   1.756
 1026SOL    HW2 3978   2.682   2.819   1.687
 1027SOL     OW 3979   3.527   6.657   2.136
 1027SOL    HW1 3980   3.502   6.622   2.226
 1027SOL    HW2 3981   3.598   6.598   2.097
 1028SOL     OW 3982   2.270   0.062   2.107
 1028SOL    HW1 3983   2.201   0.119   2.152
 1028SOL    HW2 3984   2.353   0.061   2.163
 1029SOL     OW 3985   1.358   0.608   6.179
 1029SOL    HW1 3986   1.447   0.612   6.223
 1029SOL    HW2 3987   1.369   0.590   6.081
 1030SOL     OW 3988   3.391   3.024   2.085
 1030SOL    HW1 3989   3.481   3.063   2.103
 1030SOL    HW2 3990   3.398   2.953   2.015
 1031SOL     OW 3991   4.268   3.938   1.238
 1031SOL    HW1 3992   4.354   3.988   1.245
 1031SOL    HW2 3993   4.242   3.905   1.329
 1032SOL     OW 3994   2.247   1.897   6.191
 1032SOL    HW1 3995   2.192   1.859   6.116
 1032SOL    HW2 3996   2.211   1.865   6.278
 1033SOL     OW 3997   1.348   6.129   1.722
 1033SOL    HW1 3998   1.445   6.120   1.701
 1033SOL    HW2 3999   1.323   6.226   1.723
 1034SOL     OW 4000   0.248   5.251   4.298
 1034SOL    HW1 4001   0.274   5.200   4.216
 1034SOL    HW2 4002   0.303   5.334   4.304
 1035SOL     OW 4003   0.349   1.291   5.002
 1035SOL    HW1 4004   0.297   1.221   4.955
 1035SOL    HW2 4005   0.447   1.270   4.997
 1036SOL     OW 4006   3.925   0.501   1.823
 1036SOL    HW1 4007   3.957   0.497   1.918
 1036SOL    HW2 4008   3.902   0.409   1.792
 1037SOL     OW 4009   1.509   1.285   2.259
 1037SOL    HW1 4010   1.414   1.256   2.252
 1037SOL    HW2 4011   1.529   1.308   2.355
 1038SOL     OW 4012   1.727   1.079   5.607
 1038SOL    HW1 4013   1.775   1.103   5.691
 1038SOL    HW2 4014   1.781   1.107   5.528
 1039SOL     OW 4015   3.512   3.411   4.642
 1039SOL    HW1 4016   3.502   3.378   4.736
 1039SOL    HW2 4017   3.501   3.510   4.640
 1040SOL     OW 4018   5.264   1.451   2.547
 1040SOL    HW1 4019   5.179   1.484   2.507
 1040SOL    HW2 4020   5.322   1.414   2.475
 1041SOL     OW 4021   0.116   6.663   3.591
 1041SOL    HW1 4022   0.192   6.726   3.604
 1041SOL    HW2 4023   0.077   6.638   3.680
 1042SOL     OW 4024   4.176   5.599   2.490
 1042SOL    HW1 4025   4.181   5.696   2.515
 1042SOL    HW2 4026   4.082   5.575   2.466
 1043SOL     OW 4027   2.913   2.238   4.050
 1043SOL    HW1 4028   2.833   2.296   4.062
 1043SOL    HW2 4029   2.941   2.238   3.954
 1044SOL     OW 4030   6.020   5.229   2.603
 1044SOL    HW1 4031   6.032   5.130   2.616
 1044SOL    HW2 4032   5.968   5.266   2.679
 1045SOL     OW 4033   3.860   0.250   2.703
 1045SOL    HW1 4034   3.897   0.315   2.636
 1045SOL    HW2 4035   3.879   0.283   2.795
 1046SOL     OW 4036   1.489   0.718   0.540
 1046SOL    HW1 4037   1.586   0.693   0.548
 1046SOL    HW2 4038   1.477   0.778   0.461
 1047SOL     OW 4039   1.995   0.465   4.206
 1047SOL    HW1 4040   1.917   0.488   4.264
 1047SOL    HW2 4041   1.972   0.386   4.148
 1048SOL     OW 4042   4.219   6.086   3.015
 1048SOL    HW1 4043   4.308   6.091   2.972
 1048SOL    HW2 4044   4.193   5.990   3.026
 1049SOL     OW 4045   6.672   6.494   4.032
 1049SOL    HW1 4046   6.577   6.469   4.050
 1049SOL    HW2 4047   6.680   6.531   3.939
 1050SOL     OW 4048   3.333   4.974   1.233
 1050SOL    HW1 4049   3.236   4.991   1.249
 1050SOL    HW2 4050   3.380   5.060   1.216
 1051SOL     OW 4051   0.688   5.366   0.488
 1051SOL    HW1 4052   0.600   5.406   0.514
 1051SOL    HW2 4053   0.672   5.276   0.448
 1052SOL     OW 4054   4.260   0.601   4.986
 1052SOL    HW1 4055   4.279   0.631   4.893
 1052SOL    HW2 4056   4.165   0.623   5.009
 1053SOL     OW 4057   5.886   4.908   2.994
 1053SOL    HW1 4058   5.976   4.884   2.955
 1053SOL    HW2 4059   5.899   4.946   3.085
 1054SOL     OW 4060   3.164   3.543   0.597
 1054SOL    HW1 4061   3.118   3.491   0.670
 1054SOL    HW2 4062   3.207   3.479   0.534
 1055SOL     OW 4063   3.867   6.353   5.063
 1055SOL    HW1 4064   3.812   6.434   5.047
 1055SOL    HW2 4065   3.809   6.271   5.057
 1056SOL     OW 4066   2.481   3.830   0.169
 1056SOL    HW1 4067   2.441   3.739   0.173
 1056SOL    HW2 4068   2.416   3.894   0.128
 1057SOL     OW 4069   3.188   3.621   1.531
 1057SOL    HW1 4070   3.155   3.538   1.487
 1057SOL    HW2 4071   3.253   3.667   1.471
 1058SOL     OW 4072   4.988   2.283   3.467
 1058SOL    HW1 4073   4.889   2.292   3.473
 1058SOL    HW2 4074   5.025   2.259   3.556
 1059SOL     OW 4075   3.150   0.708   2.229
 1059SOL    HW1 4076   3.183   0.750   2.145
 1059SOL    HW2 4077   3.218   0.642   2.262
 1060SOL     OW 4078   7.006   4.898   4.233
 1060SOL    HW1 4079   0.013   4.982   4.280
 1060SOL    HW2 4080   6.914   4.911   4.195
 1061SOL     OW 4081   6.860   3.114   0.301
 1061SOL    HW1 4082   6.789   3.098   0.370
 1061SOL    HW2 4083   6.889   3.209   0.306
 1062SOL     OW 4084   5.340   4.871   5.936
 1062SOL    HW1 4085   5.336   4.875   6.035
 1062SOL    HW2 4086   5.252   4.839   5.900
 1063SOL     OW 4087   1.092   5.601   0.984
 1063SOL    HW1 4088   1.041   5.687   0.976
 1063SOL    HW2 4089   1.175   5.617   1.037
 1064SOL     OW 4090   1.936   4.504   2.756
 1064SOL    HW1 4091   2.017   4.498   2.699
 1064SOL    HW2 4092   1.929   4.596   2.795
 1065SOL     OW 4093   4.201   0.840   3.968
 1065SOL    HW1 4094   4.181   0.819   4.064
 1065SOL    HW2 4095   4.116   0.842   3.916
 1066SOL     OW 4096   5.345   6.585   2.659
 1066SOL    HW1 4097   5.300   6.674   2.649
 1066SOL    HW2 4098   5.443   6.599   2.673
 1067SOL     OW 4099   0.937   3.096   0.660
 1067SOL    HW1 4100   0.862   3.046   0.616
 1067SOL    HW2 4101   0.988   3.034   0.720
 1068SOL     OW 4102   6.336   4.631   2.268
 1068SOL    HW1 4103   6.299   4.712   2.314
 1068SOL    HW2 4104   6.401   4.660   2.197
 1069SOL     OW 4105   4.848   5.614   0.780
 1069SOL    HW1 4106   4.788   5.659   0.845
 1069SOL    HW2 4107   4.825   5.644   0.687
 1070SOL     OW 4108   0.075   0.760   1.470
 1070SOL    HW1 4109   0.160   0.776   1.420
 1070SOL    HW2 4110   0.046   0.846   1.513
 1071SOL     OW 4111   1.405   0.961   4.138
 1071SOL    HW1 4112   1.460   0.994   4.214
 1071SOL    HW2 4113   1.394   1.034   4.070
 1072SOL     OW 4114   1.620   0.941   1.086
 1072SOL    HW1 4115   1.667   1.028   1.068
 1072SOL    HW2 4116   1.600   0.895   1.000
 1073SOL     OW 4117   4.757   0.339   2.992
 1073SOL    HW1 4118   4.688   0.327   3.063
 1073SOL    HW2 4119   4.820   0.261   2.992
 1074SOL     OW 4120   2.084   5.279   1.857
 1074SOL    HW1 4121   2.157   5.343   1.879
 1074SOL    HW2 4122   2.013   5.285   1.927
 1075SOL     OW 4123   5.325   0.442   3.632
 1075SOL    HW1 4124   5.327   0.343   3.626
 1075SOL    HW2 4125   5.410   0.479   3.593
 1076SOL     OW 4126   0.645   2.719   5.355
 1076SOL    HW1 4127   0.568   2.778   5.380
 1076SOL    HW2 4128   0.729   2.773   5.349
 1077SOL     OW 4129   5.820   0.360   0.880
 1077SOL    HW1 4130   5.871   0.287   0.836
 1077SOL    HW2 4131   5.733   0.324   0.915
 1078SOL     OW 4132   0.623   0.453   2.239
 1078SOL    HW1 4133   0.551   0.522   2.239
 1078SOL    HW2 4134   0.668   0.452   2.149
 1079SOL     OW 4135   1.627   6.744   2.130
 1079SOL    HW1 4136   1.673   6.692   2.058
 1079SOL    HW2 4137   1.673   6.832   2.143
 1080SOL     OW 4138   1.689   5.536   3.148
 1080SOL    HW1 4139   1.634   5.533   3.064
 1080SOL    HW2 4140   1.641   5.590   3.217
 1081SOL     OW 4141   6.653   4.769   5.933
 1081SOL    HW1 4142   6.723   4.840   5.927
 1081SOL    HW2 4143   6.572   4.797   5.880
 1082SOL     OW 4144   5.233   1.987   5.040
 1082SOL    HW1 4145   5.231   1.945   5.131
 1082SOL    HW2 4146   5.221   1.917   4.970
 1083SOL     OW 4147   4.829   4.251   0.442
 1083SOL    HW1 4148   4.822   4.323   0.372
 1083SOL    HW2 4149   4.923   4.217   0.446
 1084SOL     OW 4150   5.776   5.937   6.591
 1084SOL    HW1 4151   5.753   5.946   6.494
 1084SOL    HW2 4152   5.767   6.026   6.635
 1085SOL     OW 4153   1.912   3.690   4.841
 1085SOL    HW1 4154   1.992   3.659   4.790
 1085SOL    HW2 4155   1.859   3.610   4.871
 1086SOL     OW 4156   0.588   5.140   0.402
 1086SOL    HW1 4157   0.598   5.092   0.489
 1086SOL    HW2 4158   0.592   5.074   0.327
 1087SOL     OW 4159   6.176   2.118   5.266
 1087SOL    HW1 4160   6.172   2.020   5.245
 1087SOL    HW2 4161   6.187   2.169   5.180
 1088SOL     OW 4162   0.725   3.880   2.914
 1088SOL    HW1 4163   0.636   3.922   2.896
 1088SOL    HW2 4164   0.724   3.840   3.006
 1089SOL     OW 4165   0.662   6.187   4.948
 1089SOL    HW1 4166   0.677   6.093   4.979
 1089SOL    HW2 4167   0.749   6.236   4.945
 1090SOL     OW 4168   2.786   2.233   3.075
 1090SOL    HW1 4169   2.806   2.242   2.977
 1090SOL    HW2 4170   2.778   2.136   3.098
 1091SOL     OW 4171   2.855   2.196   4.547
 1091SOL    HW1 4172   2.950   2.193   4.517
 1091SOL    HW2 4173   2.851   2.213   4.646
 1092SOL     OW 4174   0.955   4.098   1.202
 1092SOL    HW1 4175   0.856   4.092   1.185
 1092SOL    HW2 4176   0.970   4.139   1.292
 1093SOL     OW 4177   2.082   0.721   2.130
 1093SOL    HW1 4178   2.051   0.708   2.224
 1093SOL    HW2 4179   2.083   0.633   2.083
 1094SOL     OW 4180   0.819   6.846   2.455
 1094SOL    HW1 4181   0.741   6.809   2.404
 1094SOL    HW2 4182   0.824   6.804   2.545
 1095SOL     OW 4183   1.188   3.089   6.260
 1095SOL    HW1 4184   1.226   3.009   6.213
 1095SOL    HW2 4185   1.177   3.163   6.195
 1096SOL     OW 4186   3.564   4.312   1.753
 1096SOL    HW1 4187   3.546   4.408   1.774
 1096SOL    HW2 4188   3.519   4.254   1.821
 1097SOL     OW 4189   2.425   4.448   3.884
 1097SOL    HW1 4190   2.360   4.387   3.838
 1097SOL    HW2 4191   2.405   4.543   3.858
 1098SOL     OW 4192   4.549   3.727   6.713
 1098SOL    HW1 4193   4.574   3.642   6.760
 1098SOL    HW2 4194   4.455   3.752   6.739
 1099SOL     OW 4195   3.491   0.939   6.217
 1099SOL    HW1 4196   3.513   1.004   6.144
 1099SOL    HW2 4197   3.392   0.926   6.221
 1100SOL     OW 4198   4.247   1.489   4.392
 1100SOL    HW1 4199   4.178   1.496   4.464
 1100SOL    HW2 4200   4.280   1.395   4.386
 1101SOL     OW 4201   5.681   3.265   5.929
 1101SOL    HW1 4202   5.703   3.362   5.926
 1101SOL    HW2 4203   5.587   3.254   5.963
 1102SOL     OW 4204   0.813   0.169   4.715
 1102SOL    HW1 4205   0.804   0.069   4.712
 1102SOL    HW2 4206   0.906   0.195   4.688
 1103SOL     OW 4207   4.189   1.974   0.152
 1103SOL    HW1 4208   4.175   1.882   0.189
 1103SOL    HW2 4209   4.167   2.042   0.222
 1104SOL     OW 4210   1.883   3.136   5.506
 1104SOL    HW1 4211   1.983   3.134   5.495
 1104SOL    HW2 4212   1.840   3.091   5.428
 1105SOL     OW 4213   5.936   3.763   4.927
 1105SOL    HW1 4214   5.877   3.836   4.895
 1105SOL    HW2 4215   5.899   3.726   5.013
 1106SOL     OW 4216   0.066   2.655   1.098
 1106SOL    HW1 4217   0.020   2.689   1.180
 1106SOL    HW2 4218   0.158   2.694   1.092
 1107SOL     OW 4219   0.852   0.724   0.081
 1107SOL    HW1 4220   0.809   0.727   7.012
 1107SOL    HW2 4221   0.814   0.796   0.138
 1108SOL     OW 4222   3.255   6.841   5.338
 1108SOL    HW1 4223   3.214   6.847   5.429
 1108SOL    HW2 4224   3.321   6.916   5.327
 1109SOL     OW 4225   5.143   1.349   4.025
 1109SOL    HW1 4226   5.140   1.449   4.020
 1109SOL    HW2 4227   5.140   1.312   3.932
 1110SOL     OW 4228   3.776   2.032   3.071
 1110SOL    HW1 4229   3.677   2.026   3.083
 1110SOL    HW2 4230   3.805   1.966   3.001
 1111SOL     OW 4231   4.493   5.434   6.152
 1111SOL    HW1 4232   4.502   5.343   6.113
 1111SOL    HW2 4233   4.396   5.452   6.172
 1112SOL     OW 4234   5.761   0.850   2.639
 1112SOL    HW1 4235   5.676   0.798   2.632
 1112SOL    HW2 4236   5.835   0.799   2.595
 1113SOL     OW 4237   5.868   4.482   1.693
 1113SOL    HW1 4238   5.825   4.539   1.623
 1113SOL    HW2 4239   5.832   4.389   1.688
 1114SOL     OW 4240   3.316   1.775   6.193
 1114SOL    HW1 4241   3.269   1.779   6.105
 1114SOL    HW2 4242   3.331   1.679   6.219
 1115SOL     OW 4243   3.954   3.139   5.949
 1115SOL    HW1 4244   3.902   3.146   5.864
 1115SOL    HW2 4245   3.975   3.230   5.983
 1116SOL     OW 4246   4.965   6.488   5.837
 1116SOL    HW1 4247   5.037   6.536   5.787
 1116SOL    HW2 4248   5.003   6.407   5.881
 1117SOL     OW 4249   1.946   2.625   2.221
 1117SOL    HW1 4250   1.985   2.645   2.311
 1117SOL    HW2 4251   1.993   2.546   2.181
 1118SOL     OW 4252   3.311   4.568   0.579
 1118SOL    HW1 4253   3.247   4.615   0.519
 1118SOL    HW2 4254   3.333   4.479   0.541
 1119SOL     OW 4255   4.230   4.863   2.061
 1119SOL    HW1 4256   4.239   4.835   1.966
 1119SOL    HW2 4257   4.168   4.801   2.109
 1120SOL     OW 4258   6.053   6.415   0.478
 1120SOL    HW1 4259   6.132   6.419   0.417
 1120SOL    HW2 4260   5.980   6.364   0.434
 1121SOL     OW 4261   6.019   4.183   4.612
 1121SOL    HW1 4262   6.057   4.265   4.570
 1121SOL    HW2 4263   5.926   4.201   4.642
 1122SOL     OW 4264   4.915   2.298   1.485
 1122SOL    HW1 4265   4.902   2.380   1.430
 1122SOL    HW2 4266   4.827   2.255   1.503
 1123SOL     OW 4267   5.469   1.963   3.095
 1123SOL    HW1 4268   5.419   1.973   3.181
 1123SOL    HW2 4269   5.534   2.038   3.085
 1124SOL     OW 4270   0.007   3.835   5.376
 1124SOL    HW1 4271   6.965   3.907   5.347
 1124SOL    HW2 4272   0.057   3.865   5.456
 1125SOL     OW 4273   2.525   2.557   3.726
 1125SOL    HW1 4274   2.440   2.509   3.746
 1125SOL    HW2 4275   2.602   2.505   3.764
 1126SOL     OW 4276   5.177   5.308   0.187
 1126SOL    HW1 4277   5.210   5.215   0.200
 1126SOL    HW2 4278   5.086   5.317   0.228
 1127SOL     OW 4279   5.335   5.331   4.413
 1127SOL    HW1 4280   5.410   5.375   4.462
 1127SOL    HW2 4281   5.295   5.396   4.348
 1128SOL     OW 4282   6.238   1.149   4.868
 1128SOL    HW1 4283   6.184   1.233   4.869
 1128SOL    HW2 4284   6.316   1.160   4.806
 1129SOL     OW 4285   1.400   0.249   1.043
 1129SOL    HW1 4286   1.352   0.221   0.960
 1129SOL    HW2 4287   1.422   0.168   1.098
 1130SOL     OW 4288   2.790   5.097   0.604
 1130SOL    HW1 4289   2.818   5.005   0.633
 1130SOL    HW2 4290   2.738   5.090   0.519
 1131SOL     OW 4291   1.382   5.898   5.823
 1131SOL    HW1 4292   1.335   5.933   5.743
 1131SOL    HW2 4293   1.425   5.973   5.873
 1132SOL     OW 4294   5.253   0.411   2.707
 1132SOL    HW1 4295   5.274   0.376   2.798
 1132SOL    HW2 4296   5.323   0.478   2.680
 1133SOL     OW 4297   0.520   1.182   0.522
 1133SOL    HW1 4298   0.443   1.118   0.518
 1133SOL    HW2 4299   0.564   1.176   0.612
 1134SOL     OW 4300   5.143   0.171   2.713
 1134SOL    HW1 4301   5.174   0.266   2.710
 1134SOL    HW2 4302   5.170   0.130   2.800
 1135SOL     OW 4303   2.588   6.950   3.474
 1135SOL    HW1 4304   2.553   6.859   3.497
 1135SOL    HW2 4305   2.552   7.017   3.539
 1136SOL     OW 4306   4.502   4.726   3.440
 1136SOL    HW1 4307   4.538   4.701   3.530
 1136SOL    HW2 4308   4.567   4.700   3.369
 1137SOL     OW 4309   1.198   6.423   0.055
 1137SOL    HW1 4310   1.199   6.491   7.004
 1137SOL    HW2 4311   1.272   6.441   0.119
 1138SOL     OW 4312   0.296   0.937   6.070
 1138SOL    HW1 4313   0.282   0.914   6.166
 1138SOL    HW2 4314   0.365   1.010   6.063
 1139SOL     OW 4315   3.092   4.942   2.720
 1139SOL    HW1 4316   3.135   4.870   2.776
 1139SOL    HW2 4317   3.161   5.009   2.693
 1140SOL     OW 4318   3.003   1.183   2.489
 1140SOL    HW1 4319   3.006   1.089   2.522
 1140SOL    HW2 4320   2.983   1.183   2.391
 1141SOL     OW 4321   0.782   6.292   6.902
 1141SOL    HW1 4322   0.853   6.327   6.963
 1141SOL    HW2 4323   0.775   6.192   6.912
 1142SOL     OW 4324   3.232   0.223   4.317
 1142SOL    HW1 4325   3.306   0.156   4.323
 1142SOL    HW2 4326   3.269   0.315   4.330
 1143SOL     OW 4327   2.150   2.891   3.237
 1143SOL    HW1 4328   2.103   2.974   3.206
 1143SOL    HW2 4329   2.188   2.906   3.328
 1144SOL     OW 4330   6.147   4.287   4.192
 1144SOL    HW1 4331   6.112   4.326   4.278
 1144SOL    HW2 4332   6.193   4.201   4.211
 1145SOL     OW 4333   6.247   3.934   1.820
 1145SOL    HW1 4334   6.302   3.884   1.752
 1145SOL    HW2 4335   6.285   3.919   1.911
 1146SOL     OW 4336   6.780   0.860   2.786
 1146SOL    HW1 4337   6.715   0.921   2.742
 1146SOL    HW2 4338   6.854   0.913   2.826
 1147SOL     OW 4339   2.680   5.733   1.524
 1147SOL    HW1 4340   2.648   5.828   1.532
 1147SOL    HW2 4341   2.637   5.677   1.595
 1148SOL     OW 4342   4.349   6.047   0.211
 1148SOL    HW1 4343   4.412   6.120   0.186
 1148SOL    HW2 4344   4.388   5.994   0.286
 1149SOL     OW 4345   6.044   3.303   2.624
 1149SOL    HW1 4346   6.126   3.352   2.596
 1149SOL    HW2 4347   5.980   3.298   2.547
 1150SOL     OW 4348   0.856   3.774   0.359
 1150SOL    HW1 4349   0.817   3.760   0.268
 1150SOL    HW2 4350   0.904   3.692   0.389
 1151SOL     OW 4351   5.309   4.528   6.483
 1151SOL    HW1 4352   5.305   4.493   6.577
 1151SOL    HW2 4353   5.280   4.457   6.420
 1152SOL     OW 4354   5.005   5.070   0.035
 1152SOL    HW1 4355   4.933   5.029   7.000
 1152SOL    HW2 4356   4.972   5.076   0.129
 1153SOL     OW 4357   0.840   0.034   1.694
 1153SOL    HW1 4358   0.842   0.053   1.595
 1153SOL    HW2 4359   0.795   6.968   1.709
 1154SOL     OW 4360   6.877   4.382   1.797
 1154SOL    HW1 4361   6.846   4.362   1.704
 1154SOL    HW2 4362   6.868   4.300   1.853
 1155SOL     OW 4363   2.329   4.541   6.068
 1155SOL    HW1 4364   2.422   4.563   6.039
 1155SOL    HW2 4365   2.311   4.444   6.053
 1156SOL     OW 4366   4.518   1.949   4.917
 1156SOL    HW1 4367   4.506   1.916   4.823
 1156SOL    HW2 4368   4.439   1.922   4.972
 1157SOL     OW 4369   5.521   1.243   6.062
 1157SOL    HW1 4370   5.579   1.245   6.143
 1157SOL    HW2 4371   5.437   1.192   6.082
 1158SOL     OW 4372   6.907   5.051   5.416
 1158SOL    HW1 4373   6.985   5.005   5.373
 1158SOL    HW2 4374   6.831   4.986   5.425
 1159SOL     OW 4375   6.605   6.995   3.448
 1159SOL    HW1 4376   6.679   6.973   3.512
 1159SOL    HW2 4377   6.531   0.018   3.497
 1160SOL     OW 4378   5.357   4.484   1.027
 1160SOL    HW1 4379   5.369   4.385   1.037
 1160SOL    HW2 4380   5.323   4.504   0.935
 1161SOL     OW 4381   6.167   5.825   5.831
 1161SOL    HW1 4382   6.181   5.737   5.876
 1161SOL    HW2 4383   6.254   5.876   5.831
 1162SOL     OW 4384   2.990   3.052   6.944
 1162SOL    HW1 4385   3.000   3.068   0.020
 1162SOL    HW2 4386   2.927   3.119   6.906
 1163SOL     OW 4387   6.720   3.893   1.863
 1163SOL    HW1 4388   6.738   3.984   1.899
 1163SOL    HW2 4389   6.692   3.833   1.938
 1164SOL     OW 4390   5.512   2.707   3.912
 1164SOL    HW1 4391   5.501   2.759   3.997
 1164SOL    HW2 4392   5.609   2.693   3.893
 1165SOL     OW 4393   3.796   5.221   3.782
 1165SOL    HW1 4394   3.730   5.146   3.785
 1165SOL    HW2 4395   3.848   5.216   3.696
 1166SOL     OW 4396   3.664   6.706   6.924
 1166SOL    HW1 4397   3.700   6.646   6.995
 1166SOL    HW2 4398   3.692   6.672   6.835
 1167SOL     OW 4399   4.311   6.614   0.282
 1167SOL    HW1 4400   4.286   6.654   0.194
 1167SOL    HW2 4401   4.265   6.526   0.293
 1168SOL     OW 4402   5.682   2.509   2.609
 1168SOL    HW1 4403   5.614   2.524   2.681
 1168SOL    HW2 4404   5.640   2.523   2.520
 1169SOL     OW 4405   4.559   2.659   5.873
 1169SOL    HW1 4406   4.641   2.662   5.816
 1169SOL    HW2 4407   4.586   2.661   5.969
 1170SOL     OW 4408   5.187   0.059   2.956
 1170SOL    HW1 4409   5.231   6.993   2.979
 1170SOL    HW2 4410   5.235   0.133   3.003
 1171SOL     OW 4411   2.261   6.326   6.916
 1171SOL    HW1 4412   2.300   6.321   6.824
 1171SOL    HW2 4413   2.316   6.388   6.972
 1172SOL     OW 4414   3.547   4.011   1.671
 1172SOL    HW1 4415   3.616   3.946   1.701
 1172SOL    HW2 4416   3.500   3.975   1.590
 1173SOL     OW 4417   3.350   1.301   0.578
 1173SOL    HW1 4418   3.351   1.370   0.505
 1173SOL    HW2 4419   3.342   1.346   0.667
 1174SOL     OW 4420   2.398   4.982   1.721
 1174SOL    HW1 4421   2.424   4.901   1.669
 1174SOL    HW2 4422   2.480   5.019   1.766
 1175SOL     OW 4423   4.308   4.721   6.375
 1175SOL    HW1 4424   4.365   4.791   6.333
 1175SOL    HW2 4425   4.299   4.739   6.473
 1176SOL     OW 4426   5.823   3.690   6.354
 1176SOL    HW1 4427   5.837   3.749   6.434
 1176SOL    HW2 4428   5.814   3.747   6.273
 1177SOL     OW 4429   0.004   3.509   4.585
 1177SOL    HW1 4430   6.937   3.494   4.541
 1177SOL    HW2 4431   0.039   3.599   4.559
 1178SOL     OW 4432   3.961   3.917   0.732
 1178SOL    HW1 4433   3.934   3.860   0.655
 1178SOL    HW2 4434   4.061   3.921   0.738
 1179SOL     OW 4435   2.086   6.426   1.083
 1179SOL    HW1 4436   2.011   6.469   1.033
 1179SOL    HW2 4437   2.157   6.399   1.018
 1180SOL     OW 4438   2.505   5.933   4.475
 1180SOL    HW1 4439   2.440   5.858   4.488
 1180SOL    HW2 4440   2.598   5.900   4.492
 1181SOL     OW 4441   6.946   4.411   5.468
 1181SOL    HW1 4442   6.906   4.319   5.477
 1181SOL    HW2 4443   7.015   4.424   5.539
 1182SOL     OW 4444   4.202   5.166   3.658
 1182SOL    HW1 4445   4.244   5.242   3.610
 1182SOL    HW2 4446   4.150   5.110   3.594
 1183SOL     OW 4447   3.035   4.325   1.657
 1183SOL    HW1 4448   2.979   4.387   1.712
 1183SOL    HW2 4449   2.995   4.315   1.566
 1184SOL     OW 4450   0.220   1.472   5.475
 1184SOL    HW1 4451   0.186   1.441   5.386
 1184SOL    HW2 4452   0.320   1.480   5.472
 1185SOL     OW 4453   1.067   0.743   0.430
 1185SOL    HW1 4454   0.975   0.713   0.457
 1185SOL    HW2 4455   1.106   0.677   0.365
 1186SOL     OW 4456   4.707   6.318   5.067
 1186SOL    HW1 4457   4.710   6.246   5.136
 1186SOL    HW2 4458   4.755   6.399   5.100
 1187SOL     OW 4459   5.067   0.296   4.965
 1187SOL    HW1 4460   5.106   0.369   4.911
 1187SOL    HW2 4461   5.015   0.234   4.906
 1188SOL     OW 4462   2.682   5.179   6.258
 1188SOL    HW1 4463   2.742   5.255   6.281
 1188SOL    HW2 4464   2.628   5.154   6.338
 1189SOL     OW 4465   6.284   1.974   1.777
 1189SOL    HW1 4466   6.356   2.042   1.765
 1189SOL    HW2 4467   6.195   2.020   1.782
 1190SOL     OW 4468   3.080   5.682   2.825
 1190SOL    HW1 4469   3.000   5.705   2.880
 1190SOL    HW2 4470   3.146   5.757   2.831
 1191SOL     OW 4471   4.262   5.416   4.535
 1191SOL    HW1 4472   4.198   5.349   4.497
 1191SOL    HW2 4473   4.356   5.389   4.513
 1192SOL     OW 4474   5.273   5.344   3.289
 1192SOL    HW1 4475   5.211   5.271   3.316
 1192SOL    HW2 4476   5.361   5.305   3.261
 1193SOL     OW 4477   0.294   2.345   5.824
 1193SOL    HW1 4478   0.331   2.387   5.742
 1193SOL    HW2 4479   0.196   2.363   5.830
 1194SOL     OW 4480   6.314   1.162   1.456
 1194SOL    HW1 4481   6.409   1.164   1.487
 1194SOL    HW2 4482   6.289   1.253   1.423
 1195SOL     OW 4483   6.854   3.577   0.110
 1195SOL    HW1 4484   6.949   3.548   0.120
 1195SOL    HW2 4485   6.817   3.602   0.200
 1196SOL     OW 4486   6.766   4.853   3.357
 1196SOL    HW1 4487   6.700   4.780   3.343
 1196SOL    HW2 4488   6.718   4.938   3.379
 1197SOL     OW 4489   4.577   6.507   4.741
 1197SOL    HW1 4490   4.531   6.513   4.830
 1197SOL    HW2 4491   4.590   6.410   4.718
 1198SOL     OW 4492   2.017   3.630   2.391
 1198SOL    HW1 4493   2.056   3.545   2.425
 1198SOL    HW2 4494   1.919   3.634   2.414
 1199SOL     OW 4495   3.510   3.800   2.521
 1199SOL    HW1 4496   3.459   3.768   2.601
 1199SOL    HW2 4497   3.492   3.740   2.443
 1200SOL     OW 4498   3.141   4.056   5.080
 1200SOL    HW1 4499   3.051   4.023   5.110
 1200SOL    HW2 4500   3.170   4.131   5.139
 1201SOL     OW 4501   0.824   1.268   3.852
 1201SOL    HW1 4502   0.773   1.187   3.880
 1201SOL    HW2 4503   0.783   1.349   3.892
 1202SOL     OW 4504   6.954   5.578   5.453
 1202SOL    HW1 4505   7.019   5.512   5.492
 1202SOL    HW2 4506   6.931   5.646   5.522
 1203SOL     OW 4507   0.338   5.201   0.638
 1203SOL    HW1 4508   0.384   5.161   0.718
 1203SOL    HW2 4509   0.380   5.290   0.618
 1204SOL     OW 4510   4.761   1.519   1.128
 1204SOL    HW1 4511   4.791   1.573   1.207
 1204SOL    HW2 4512   4.661   1.521   1.122
 1205SOL     OW 4513   3.963   3.444   0.495
 1205SOL    HW1 4514   3.914   3.406   0.574
 1205SOL    HW2 4515   4.059   3.419   0.501
 1206SOL     OW 4516   2.785   2.728   5.455
 1206SOL    HW1 4517   2.732   2.666   5.514
 1206SOL    HW2 4518   2.722   2.779   5.396
 1207SOL     OW 4519   1.009   0.086   1.048
 1207SOL    HW1 4520   1.040   0.158   1.111
 1207SOL    HW2 4521   1.085   0.061   0.988
 1208SOL     OW 4522   3.512   3.709   1.601
 1208SOL    HW1 4523   3.602   3.747   1.622
 1208SOL    HW2 4524   3.511   3.611   1.625
 1209SOL     OW 4525   4.691   0.290   3.817
 1209SOL    HW1 4526   4.660   0.273   3.724
 1209SOL    HW2 4527   4.621   0.341   3.867
 1210SOL     OW 4528   4.125   6.751   3.705
 1210SOL    HW1 4529   4.216   6.709   3.705
 1210SOL    HW2 4530   4.129   6.840   3.659
 1211SOL     OW 4531   1.389   3.053   3.079
 1211SOL    HW1 4532   1.404   3.052   2.980
 1211SOL    HW2 4533   1.319   2.986   3.102
 1212SOL     OW 4534   6.737   0.341   6.284
 1212SOL    HW1 4535   6.654   0.363   6.233
 1212SOL    HW2 4536   6.741   0.397   6.367
 1213SOL     OW 4537   6.262   2.886   1.409
 1213SOL    HW1 4538   6.248   2.814   1.476
 1213SOL    HW2 4539   6.302   2.847   1.326
 1214SOL     OW 4540   1.045   3.543   6.975
 1214SOL    HW1 4541   0.953   3.511   6.999
 1214SOL    HW2 4542   1.108   3.466   6.974
 1215SOL     OW 4543   0.343   4.717   3.351
 1215SOL    HW1 4544   0.255   4.744   3.310
 1215SOL    HW2 4545   0.347   4.618   3.357
 1216SOL     OW 4546   5.310   0.601   0.632
 1216SOL    HW1 4547   5.274   0.676   0.688
 1216SOL    HW2 4548   5.394   0.566   0.673
 1217SOL     OW 4549   2.795   4.257   1.001
 1217SOL    HW1 4550   2.819   4.238   1.096
 1217SOL    HW2 4551   2.867   4.311   0.958
 1218SOL     OW 4552   1.353   3.025   4.976
 1218SOL    HW1 4553   1.397   3.018   4.887
 1218SOL    HW2 4554   1.410   3.080   5.037
 1219SOL     OW 4555   5.674   6.195   1.834
 1219SOL    HW1 4556   5.686   6.235   1.925
 1219SOL    HW2 4557   5.742   6.123   1.820
 1220SOL     OW 4558   1.028   4.562   2.764
 1220SOL    HW1 4559   1.029   4.531   2.669
 1220SOL    HW2 4560   0.943   4.610   2.783
 1221SOL     OW 4561   4.082   4.302   6.215
 1221SOL    HW1 4562   4.094   4.276   6.119
 1221SOL    HW2 4563   4.093   4.221   6.273
 1222SOL     OW 4564   6.597   1.269   6.598
 1222SOL    HW1 4565   6.516   1.225   6.560
 1222SOL    HW2 4566   6.678   1.215   6.575
 1223SOL     OW 4567   3.946   1.662   0.456
 1223SOL    HW1 4568   3.948   1.736   0.523
 1223SOL    HW2 4569   4.004   1.587   0.487
 1224SOL     OW 4570   3.822   5.921   0.391
 1224SOL    HW1 4571   3.881   5.986   0.438
 1224SOL    HW2 4572   3.779   5.861   0.459
 1225SOL     OW 4573   3.295   3.209   6.753
 1225SOL    HW1 4574   3.239   3.189   6.673
 1225SOL    HW2 4575   3.321   3.124   6.799
 1226SOL     OW 4576   2.681   6.816   1.429
 1226SOL    HW1 4577   2.773   6.855   1.427
 1226SOL    HW2 4578   2.688   6.716   1.424
 1227SOL     OW 4579   5.451   4.626   6.199
 1227SOL    HW1 4580   5.437   4.724   6.214
 1227SOL    HW2 4581   5.407   4.598   6.114
 1228SOL     OW 4582   2.875   2.043   6.189
 1228SOL    HW1 4583   2.931   1.992   6.123
 1228SOL    HW2 4584   2.799   2.087   6.141
 1229SOL     OW 4585   3.139   5.479   6.060
 1229SOL    HW1 4586   3.173   5.569   6.090
 1229SOL    HW2 4587   3.217   5.420   6.037
 1230SOL     OW 4588   4.840   6.877   2.234
 1230SOL    HW1 4589   4.895   6.912   2.309
 1230SOL    HW2 4590   4.898   6.864   2.153
 1231SOL     OW 4591   1.988   2.110   4.972
 1231SOL    HW1 4592   2.010   2.089   5.068
 1231SOL    HW2 4593   2.060   2.170   4.934
 1232SOL     OW 4594   0.445   2.260   5.491
 1232SOL    HW1 4595   0.501   2.343   5.496
 1232SOL    HW2 4596   0.407   2.239   5.581
 1233SOL     OW 4597   0.882   4.868   5.125
 1233SOL    HW1 4598   0.949   4.877   5.198
 1233SOL    HW2 4599   0.912   4.922   5.046
 1234SOL     OW 4600   6.295   2.827   5.775
 1234SOL    HW1 4601   6.234   2.760   5.734
 1234SOL    HW2 4602   6.272   2.918   5.740
 1235SOL     OW 4603   6.114   5.421   2.984
 1235SOL    HW1 4604   6.127   5.498   3.046
 1235SOL    HW2 4605   6.051   5.447   2.911
 1236SOL     OW 4606   4.830   1.028   6.738
 1236SOL    HW1 4607   4.856   1.073   6.823
 1236SOL    HW2 4608   4.785   1.094   6.678
 1237SOL     OW 4609   2.401   4.563   6.337
 1237SOL    HW1 4610   2.363   4.553   6.245
 1237SOL    HW2 4611   2.501   4.567   6.332
 1238SOL     OW 4612   1.169   1.015   0.851
 1238SOL    HW1 4613   1.195   0.989   0.758
 1238SOL    HW2 4614   1.252   1.034   0.904
 1239SOL     OW 4615   6.800   6.277   6.473
 1239SOL    HW1 4616   6.828   6.208   6.540
 1239SOL    HW2 4617   6.701   6.274   6.461
 1240SOL     OW 4618   5.371   6.339   1.084
 1240SOL    HW1 4619   5.411   6.248   1.088
 1240SOL    HW2 4620   5.286   6.335   1.031
 1241SOL     OW 4621   5.420   3.096   3.961
 1241SOL    HW1 4622   5.448   3.107   4.056
 1241SOL    HW2 4623   5.325   3.067   3.958
 1242SOL     OW 4624   0.750   3.821   1.697
 1242SOL    HW1 4625   0.738   3.799   1.600
 1242SOL    HW2 4626   0.835   3.780   1.730
 1243SOL     OW 4627   0.130   6.934   5.168
 1243SOL    HW1 4628   0.223   6.934   5.206
 1243SOL    HW2 4629   0.128   6.988   5.084
 1244SOL     OW 4630   5.918   6.858   4.799
 1244SOL    HW1 4631   5.819   6.844   4.808
 1244SOL    HW2 4632   5.954   6.792   4.733
 1245SOL     OW 4633   5.554   4.645   0.787
 1245SOL    HW1 4634   5.633   4.674   0.842
 1245SOL    HW2 4635   5.566   4.550   0.760
 1246SOL     OW 4636   2.730   0.412   1.006
 1246SOL    HW1 4637   2.784   0.389   1.087
 1246SOL    HW2 4638   2.648   0.354   1.004
 1247SOL     OW 4639   0.953   6.522   6.173
 1247SOL    HW1 4640   1.029   6.581   6.202
 1247SOL    HW2 4641   0.951   6.518   6.074
 1248SOL     OW 4642   1.961   0.248   4.948
 1248SOL    HW1 4643   2.002   0.173   4.897
 1248SOL    HW2 4644   2.024   0.326   4.950
 1249SOL     OW 4645   6.291   2.010   2.518
 1249SOL    HW1 4646   6.268   2.074   2.592
 1249SOL    HW2 4647   6.210   1.993   2.462
 1250SOL     OW 4648   5.846   5.161   4.041
 1250SOL    HW1 4649   5.860   5.260   4.032
 1250SOL    HW2 4650   5.934   5.115   4.048
 1251SOL     OW 4651   2.614   0.565   3.617
 1251SOL    HW1 4652   2.694   0.507   3.635
 1251SOL    HW2 4653   2.631   0.657   3.651
 1252SOL     OW 4654   4.631   3.332   6.261
 1252SOL    HW1 4655   4.629   3.269   6.339
 1252SOL    HW2 4656   4.724   3.336   6.224
 1253SOL     OW 4657   2.905   6.099   2.589
 1253SOL    HW1 4658   2.834   6.169   2.584
 1253SOL    HW2 4659   2.871   6.022   2.643
 1254SOL     OW 4660   1.163   2.957   2.368
 1254SOL    HW1 4661   1.134   2.861   2.370
 1254SOL    HW2 4662   1.083   3.016   2.378
 1255SOL     OW 4663   5.973   1.504   5.462
 1255SOL    HW1 4664   5.939   1.464   5.547
 1255SOL    HW2 4665   5.895   1.528   5.404
 1256SOL     OW 4666   0.074   6.657   3.159
 1256SOL    HW1 4667   0.080   6.726   3.087
 1256SOL    HW2 4668   7.018   6.677   3.218
 1257SOL     OW 4669   6.735   6.542   5.325
 1257SOL    HW1 4670   6.736   6.579   5.418
 1257SOL    HW2 4671   6.670   6.466   5.321
 1258SOL     OW 4672   1.919   5.252   2.599
 1258SOL    HW1 4673   1.839   5.203   2.564
 1258SOL    HW2 4674   1.992   5.186   2.619
 1259SOL     OW 4675   4.204   0.503   4.124
 1259SOL    HW1 4676   4.161   0.592   4.139
 1259SOL    HW2 4677   4.152   0.432   4.172
 1260SOL     OW 4678   1.888   1.595   0.612
 1260SOL    HW1 4679   1.905   1.649   0.694
 1260SOL    HW2 4680   1.946   1.626   0.538
 1261SOL     OW 4681   6.727   5.815   6.642
 1261SOL    HW1 4682   6.799   5.749   6.662
 1261SOL    HW2 4683   6.756   5.874   6.566
 1262SOL     OW 4684   5.588   4.589   1.125
 1262SOL    HW1 4685   5.492   4.575   1.100
 1262SOL    HW2 4686   5.594   4.663   1.192
 1263SOL     OW 4687   0.155   2.610   1.938
 1263SOL    HW1 4688   0.137   2.556   2.021
 1263SOL    HW2 4689   0.068   2.630   1.892
 1264SOL     OW 4690   6.677   4.818   0.762
 1264SOL    HW1 4691   6.697   4.916   0.760
 1264SOL    HW2 4692   6.579   4.804   0.745
 1265SOL     OW 4693   5.802   5.360   4.718
 1265SOL    HW1 4694   5.828   5.321   4.630
 1265SOL    HW2 4695   5.872   5.424   4.748
 1266SOL     OW 4696   0.602   1.704   4.250
 1266SOL    HW1 4697   0.674   1.671   4.189
 1266SOL    HW2 4698   0.527   1.638   4.253
 1267SOL     OW 4699   4.759   0.254   1.456
 1267SOL    HW1 4700   4.718   0.179   1.404
 1267SOL    HW2 4701   4.736   0.341   1.412
 1268SOL     OW 4702   2.477   2.502   0.696
 1268SOL    HW1 4703   2.438   2.425   0.646
 1268SOL    HW2 4704   2.512   2.470   0.784
 1269SOL     OW 4705   5.799   4.306   4.741
 1269SOL    HW1 4706   5.806   4.261   4.830
 1269SOL    HW2 4707   5.703   4.310   4.713
 1270SOL     OW 4708   1.543   3.285   3.709
 1270SOL    HW1 4709   1.508   3.369   3.750
 1270SOL    HW2 4710   1.474   3.248   3.646
 1271SOL     OW 4711   2.444   2.126   3.071
 1271SOL    HW1 4712   2.392   2.183   3.136
 1271SOL    HW2 4713   2.541   2.127   3.096
 1272SOL     OW 4714   5.934   4.022   0.094
 1272SOL    HW1 4715   5.923   4.115   0.129
 1272SOL    HW2 4716   5.928   4.022   7.017
 1273SOL     OW 4717   0.597   2.995   6.992
 1273SOL    HW1 4718   0.631   2.902   7.008
 1273SOL    HW2 4719   0.568   3.035   0.057
 1274SOL     OW 4720   0.036   4.701   1.626
 1274SOL    HW1 4721   0.054   4.676   1.721
 1274SOL    HW2 4722   0.044   4.620   1.568
 1275SOL     OW 4723   3.839   1.267   4.287
 1275SOL    HW1 4724   3.890   1.194   4.331
 1275SOL    HW2 4725   3.902   1.333   4.246
 1276SOL     OW 4726   6.599   5.145   5.359
 1276SOL    HW1 4727   6.627   5.074   5.424
 1276SOL    HW2 4728   6.502   5.166   5.371
 1277SOL     OW 4729   1.568   5.534   5.896
 1277SOL    HW1 4730   1.618   5.450   5.879
 1277SOL    HW2 4731   1.625   5.613   5.873
 1278SOL     OW 4732   1.084   6.668   5.319
 1278SOL    HW1 4733   1.160   6.604   5.309
 1278SOL    HW2 4734   0.998   6.618   5.317
 1279SOL     OW 4735   2.366   4.552   0.278
 1279SOL    HW1 4736   2.450   4.516   0.240
 1279SOL    HW2 4737   2.361   4.651   0.260
 1280SOL     OW 4738   4.351   6.125   4.268
 1280SOL    HW1 4739   4.440   6.152   4.303
 1280SOL    HW2 4740   4.286   6.118   4.344
 1281SOL     OW 4741   2.302   6.487   3.166
 1281SOL    HW1 4742   2.339   6.423   3.233
 1281SOL    HW2 4743   2.375   6.541   3.126
 1282SOL     OW 4744   6.636   2.476   0.423
 1282SOL    HW1 4745   6.659   2.379   0.427
 1282SOL    HW2 4746   6.599   2.505   0.511
 1283SOL     OW 4747   6.266   3.866   5.703
 1283SOL    HW1 4748   6.181   3.903   5.665
 1283SOL    HW2 4749   6.268   3.767   5.688
 1284SOL     OW 4750   4.662   1.571   1.818
 1284SOL    HW1 4751   4.669   1.565   1.718
 1284SOL    HW2 4752   4.754   1.568   1.858
 1285SOL     OW 4753   4.307   1.967   5.922
 1285SOL    HW1 4754   4.214   1.999   5.939
 1285SOL    HW2 4755   4.370   2.045   5.928
 1286SOL     OW 4756   4.295   3.907   1.523
 1286SOL    HW1 4757   4.307   3.808   1.536
 1286SOL    HW2 4758   4.259   3.948   1.607
 1287SOL     OW 4759   5.613   4.934   5.027
 1287SOL    HW1 4760   5.608   5.030   5.056
 1287SOL    HW2 4761   5.628   4.876   5.107
 1288SOL     OW 4762   3.844   3.371   6.688
 1288SOL    HW1 4763   3.755   3.337   6.720
 1288SOL    HW2 4764   3.909   3.369   6.764
 1289SOL     OW 4765   6.860   6.564   0.747
 1289SOL    HW1 4766   6.768   6.524   0.738
 1289SOL    HW2 4767   6.920   6.498   0.793
 1290SOL     OW 4768   0.944   6.460   0.120
 1290SOL    HW1 4769   0.923   6.452   0.217
 1290SOL    HW2 4770   1.038   6.429   0.104
 1291SOL     OW 4771   0.677   4.350   3.850
 1291SOL    HW1 4772   0.637   4.280   3.910
 1291SOL    HW2 4773   0.751   4.397   3.899
 1292SOL     OW 4774   0.152   6.198   2.262
 1292SOL    HW1 4775   0.195   6.285   2.287
 1292SOL    HW2 4776   0.088   6.214   2.186
 1293SOL     OW 4777   1.783   2.512   0.352
 1293SOL    HW1 4778   1.717   2.533   0.280
 1293SOL    HW2 4779   1.773   2.417   0.381
 1294SOL     OW 4780   0.763   3.454   6.153
 1294SOL    HW1 4781   0.704   3.425   6.078
 1294SOL    HW2 4782   0.708   3.498   6.224
 1295SOL     OW 4783   0.489   3.571   1.481
 1295SOL    HW1 4784   0.540   3.509   1.421
 1295SOL    HW2 4785   0.391   3.560   1.464
 1296SOL     OW 4786   3.421   6.566   5.284
 1296SOL    HW1 4787   3.468   6.482   5.310
 1296SOL    HW2 4788   3.479   6.645   5.305
 1297SOL     OW 4789   0.027   0.097   1.576
 1297SOL    HW1 4790   0.055   0.185   1.615
 1297SOL    HW2 4791   0.109   0.044   1.552
 1298SOL     OW 4792   5.399   5.868   3.723
 1298SOL    HW1 4793   5.445   5.817   3.651
 1298SOL    HW2 4794   5.300   5.862   3.709
 1299SOL     OW 4795   2.163   2.938   3.513
 1299SOL    HW1 4796   2.144   3.020   3.568
 1299SOL    HW2 4797   2.254   2.903   3.537
 1300SOL     OW 4798   1.439   3.120   0.675
 1300SOL    HW1 4799   1.502   3.122   0.598
 1300SOL    HW2 4800   1.442   3.031   0.720
 1301SOL     OW 4801   0.286   6.377   1.012
 1301SOL    HW1 4802   0.386   6.378   1.007
 1301SOL    HW2 4803   0.256   6.297   1.062
 1302SOL     OW 4804   4.595   6.766   5.530
 1302SOL    HW1 4805   4.658   6.717   5.590
 1302SOL    HW2 4806   4.523   6.703   5.500
 1303SOL     OW 4807   3.713   2.047   1.777
 1303SOL    HW1 4808   3.796   2.090   1.740
 1303SOL    HW2 4809   3.660   2.116   1.826
 1304SOL     OW 4810   1.572   0.485   0.122
 1304SOL    HW1 4811   1.601   0.493   0.217
 1304SOL    HW2 4812   1.552   0.576   0.086
 1305SOL     OW 4813   5.525   3.446   0.562
 1305SOL    HW1 4814   5.479   3.381   0.501
 1305SOL    HW2 4815   5.617   3.414   0.582
 1306SOL     OW 4816   1.100   5.276   3.991
 1306SOL    HW1 4817   1.044   5.358   3.995
 1306SOL    HW2 4818   1.069   5.217   3.917
 1307SOL     OW 4819   1.752   4.499   3.823
 1307SOL    HW1 4820   1.742   4.594   3.853
 1307SOL    HW2 4821   1.674   4.474   3.766
 1308SOL     OW 4822   6.682   0.161   5.616
 1308SOL    HW1 4823   6.674   0.090   5.546
 1308SOL    HW2 4824   6.708   0.247   5.572
 1309SOL     OW 4825   5.771   4.854   5.243
 1309SOL    HW1 4826   5.812   4.940   5.273
 1309SOL    HW2 4827   5.843   4.789   5.220
 1310SOL     OW 4828   6.314   4.001   3.833
 1310SOL    HW1 4829   6.328   3.904   3.815
 1310SOL    HW2 4830   6.346   4.022   3.925
 1311SOL     OW 4831   6.892   5.473   5.774
 1311SOL    HW1 4832   6.857   5.390   5.730
 1311SOL    HW2 4833   6.883   5.550   5.710
 1312SOL     OW 4834   1.178   6.672   6.240
 1312SOL    HW1 4835   1.266   6.718   6.245
 1312SOL    HW2 4836   1.105   6.735   6.266
 1313SOL     OW 4837   0.666   4.837   2.655
 1313SOL    HW1 4838   0.711   4.780   2.724
 1313SOL    HW2 4839   0.596   4.782   2.609
 1314SOL     OW 4840   4.161   1.675   4.844
 1314SOL    HW1 4841   4.164   1.582   4.808
 1314SOL    HW2 4842   4.087   1.725   4.801
 1315SOL     OW 4843   0.313   1.956   2.753
 1315SOL    HW1 4844   0.257   2.021   2.804
 1315SOL    HW2 4845   0.407   1.989   2.749
 1316SOL     OW 4846   2.774   6.865   6.105
 1316SOL    HW1 4847   2.799   6.796   6.037
 1316SOL    HW2 4848   2.684   6.902   6.082
 1317SOL     OW 4849   2.164   4.267   5.764
 1317SOL    HW1 4850   2.084   4.300   5.814
 1317SOL    HW2 4851   2.146   4.272   5.666
 1318SOL     OW 4852   0.910   2.655   0.935
 1318SOL    HW1 4853   0.901   2.565   0.977
 1318SOL    HW2 4854   0.893   2.726   1.003
 1319SOL     OW 4855   6.779   5.865   0.347
 1319SOL    HW1 4856   6.849   5.811   0.396
 1319SOL    HW2 4857   6.818   5.954   0.322
 1320SOL     OW 4858   3.662   4.770   6.771
 1320SOL    HW1 4859   3.751   4.805   6.800
 1320SOL    HW2 4860   3.673   4.680   6.729
 1321SOL     OW 4861   5.725   2.354   6.618
 1321SOL    HW1 4862   5.645   2.366   6.559
 1321SOL    HW2 4863   5.695   2.329   6.710
 1322SOL     OW 4864   4.151   1.729   3.831
 1322SOL    HW1 4865   4.149   1.630   3.845
 1322SOL    HW2 4866   4.213   1.771   3.898
 1323SOL     OW 4867   4.049   0.166   6.168
 1323SOL    HW1 4868   4.060   0.087   6.228
 1323SOL    HW2 4869   4.021   0.135   6.077
 1324SOL     OW 4870   0.691   3.733   0.120
 1324SOL    HW1 4871   0.730   3.654   0.073
 1324SOL    HW2 4872   0.676   3.807   0.054
 1325SOL     OW 4873   2.651   6.373   4.194
 1325SOL    HW1 4874   2.592   6.297   4.166
 1325SOL    HW2 4875   2.659   6.439   4.120
 1326SOL     OW 4876   4.898   3.319   5.526
 1326SOL    HW1 4877   4.870   3.297   5.620
 1326SOL    HW2 4878   4.820   3.309   5.465
 1327SOL     OW 4879   1.202   6.413   0.993
 1327SOL    HW1 4880   1.129   6.413   1.062
 1327SOL    HW2 4881   1.281   6.363   1.027
 1328SOL     OW 4882   2.605   3.439   1.317
 1328SOL    HW1 4883   2.645   3.348   1.328
 1328SOL    HW2 4884   2.676   3.508   1.332
 1329SOL     OW 4885   0.672   2.204   2.028
 1329SOL    HW1 4886   0.651   2.139   2.101
 1329SOL    HW2 4887   0.607   2.191   1.953
 1330SOL     OW 4888   0.910   1.224   2.190
 1330SOL    HW1 4889   0.982   1.210   2.122
 1330SOL    HW2 4890   0.822   1.198   2.150
 1331SOL     OW 4891   4.869   3.253   2.654
 1331SOL    HW1 4892   4.868   3.348   2.621
 1331SOL    HW2 4893   4.824   3.194   2.586
 1332SOL     OW 4894   2.830   6.978   6.658
 1332SOL    HW1 4895   2.795   6.902   6.603
 1332SOL    HW2 4896   2.930   6.972   6.664
 1333SOL     OW 4897   3.385   3.610   3.911
 1333SOL    HW1 4898   3.422   3.517   3.916
 1333SOL    HW2 4899   3.422   3.665   3.986
 1334SOL     OW 4900   5.946   1.542   3.979
 1334SOL    HW1 4901   5.989   1.579   3.896
 1334SOL    HW2 4902   5.994   1.458   4.006
 1335SOL     OW 4903   2.133   1.925   2.166
 1335SOL    HW1 4904   2.162   2.002   2.109
 1335SOL    HW2 4905   2.197   1.913   2.241
 1336SOL     OW 4906   2.453   2.272   5.204
 1336SOL    HW1 4907   2.547   2.292   5.231
 1336SOL    HW2 4908   2.393   2.346   5.234
 1337SOL     OW 4909   1.521   1.167   3.301
 1337SOL    HW1 4910   1.562   1.098   3.361
 1337SOL    HW2 4911   1.544   1.145   3.206
 1338SOL     OW 4912   6.355   2.112   4.856
 1338SOL    HW1 4913   6.306   2.188   4.899
 1338SOL    HW2 4914   6.447   2.142   4.832
 1339SOL     OW 4915   6.133   2.134   6.508
 1339SOL    HW1 4916   6.102   2.147   6.414
 1339SOL    HW2 4917   6.054   2.130   6.569
 1340SOL     OW 4918   6.180   2.190   2.981
 1340SOL    HW1 4919   6.174   2.283   2.945
 1340SOL    HW2 4920   6.201   2.194   3.078
 1341SOL     OW 4921   4.980   6.775   6.753
 1341SOL    HW1 4922   4.934   6.765   6.842
 1341SOL    HW2 4923   4.917   6.819   6.689
 1342SOL     OW 4924   2.883   5.542   5.972
 1342SOL    HW1 4925   2.953   5.485   6.016
 1342SOL    HW2 4926   2.911   5.638   5.977
 1343SOL     OW 4927   5.365   5.770   2.338
 1343SOL    HW1 4928   5.311   5.740   2.260
 1343SOL    HW2 4929   5.412   5.691   2.378
 1344SOL     OW 4930   0.813   6.224   4.645
 1344SOL    HW1 4931   0.779   6.249   4.735
 1344SOL    HW2 4932   0.912   6.209   4.650
 1345SOL     OW 4933   0.692   6.162   3.284
 1345SOL    HW1 4934   0.714   6.086   3.346
 1345SOL    HW2 4935   0.773   6.186   3.231
 1346SOL     OW 4936   1.185   5.528   4.591
 1346SOL    HW1 4937   1.221   5.435   4.599
 1346SOL    HW2 4938   1.156   5.545   4.497
 1347SOL     OW 4939   6.965   6.433   6.100
 1347SOL    HW1 4940   0.011   6.416   6.027
 1347SOL    HW2 4941   6.986   6.520   6.144
 1348SOL     OW 4942   5.966   6.421   4.016
 1348SOL    HW1 4943   5.880   6.471   4.024
 1348SOL    HW2 4944   5.960   6.336   4.069
 1349SOL     OW 4945   4.850   2.928   5.511
 1349SOL    HW1 4946   4.853   2.992   5.588
 1349SOL    HW2 4947   4.942   2.890   5.496
 1350SOL     OW 4948   5.603   4.786   5.945
 1350SOL    HW1 4949   5.517   4.824   5.912
 1350SOL    HW2 4950   5.588   4.741   6.033
 1351SOL     OW 4951   5.690   1.752   3.085
 1351SOL    HW1 4952   5.642   1.669   3.116
 1351SOL    HW2 4953   5.628   1.830   3.089
 1352SOL     OW 4954   6.820   5.875   3.356
 1352SOL    HW1 4955   6.797   5.877   3.454
 1352SOL    HW2 4956   6.835   5.780   3.328
 1353SOL     OW 4957   0.478   2.841   0.338
 1353SOL    HW1 4958   0.540   2.794   0.275
 1353SOL    HW2 4959   0.516   2.931   0.360
 1354SOL     OW 4960   1.058   4.162   1.448
 1354SOL    HW1 4961   1.142   4.180   1.500
 1354SOL    HW2 4962   1.042   4.064   1.443
 1355SOL     OW 4963   5.548   2.443   4.225
 1355SOL    HW1 4964   5.527   2.376   4.297
 1355SOL    HW2 4965   5.534   2.535   4.260
 1356SOL     OW 4966   3.652   3.400   2.425
 1356SOL    HW1 4967   3.680   3.344   2.502
 1356SOL    HW2 4968   3.676   3.354   2.339
 1357SOL     OW 4969   0.458   3.997   6.237
 1357SOL    HW1 4970   0.431   3.981   6.333
 1357SOL    HW2 4971   0.540   4.054   6.235
 1358SOL     OW 4972   4.119   6.640   6.008
 1358SOL    HW1 4973   4.195   6.589   5.967
 1358SOL    HW2 4974   4.154   6.699   6.081
 1359SOL     OW 4975   6.063   4.947   2.555
 1359SOL    HW1 4976   6.108   4.862   2.583
 1359SOL    HW2 4977   5.976   4.956   2.604
 1360SOL     OW 4978   2.702   3.435   0.333
 1360SOL    HW1 4979   2.663   3.372   0.400
 1360SOL    HW2 4980   2.761   3.500   0.379
 1361SOL     OW 4981   6.104   4.489   5.934
 1361SOL    HW1 4982   6.170   4.495   6.009
 1361SOL    HW2 4983   6.013   4.510   5.968
 1362SOL     OW 4984   3.257   4.124   4.109
 1362SOL    HW1 4985   3.265   4.143   4.011
 1362SOL    HW2 4986   3.336   4.162   4.157
 1363SOL     OW 4987   6.653   4.949   2.910
 1363SOL    HW1 4988   6.652   4.854   2.879
 1363SOL    HW2 4989   6.694   4.954   3.001
 1364SOL     OW 4990   6.253   4.233   1.081
 1364SOL    HW1 4991   6.216   4.173   1.010
 1364SOL    HW2 4992   6.200   4.318   1.083
 1365SOL     OW 4993   0.752   4.447   5.914
 1365SOL    HW1 4994   0.778   4.425   5.820
 1365SOL    HW2 4995   0.665   4.402   5.936
 1366SOL     OW 4996   1.445   4.907   6.857
 1366SOL    HW1 4997   1.476   4.882   6.765
 1366SOL    HW2 4998   1.362   4.963   6.849
 1367SOL     OW 4999   1.431   0.069   3.323
 1367SOL    HW1 5000   1.415   0.065   3.422
 1367SOL    HW2 5001   1.489   7.015   3.296
 1368SOL     OW 5002   6.061   0.300   3.478
 1368SOL    HW1 5003   6.124   0.269   3.407
 1368SOL    HW2 5004   6.013   0.221   3.517
 1369SOL     OW 5005   2.599   6.950   1.671
 1369SOL    HW1 5006   2.637   6.935   1.580
 1369SOL    HW2 5007   2.614   0.023   1.698
 1370SOL     OW 5008   3.939   0.470   0.997
 1370SOL    HW1 5009   3.952   0.467   1.097
 1370SOL    HW2 5010   3.845   0.446   0.975
 1371SOL     OW 5011   6.138   2.076   4.159
 1371SOL    HW1 5012   6.198   2.104   4.233
 1371SOL    HW2 5013   6.057   2.031   4.196
 1372SOL     OW 5014   1.511   3.118   6.992
 1372SOL    HW1 5015   1.507   3.138   0.069
 1372SOL    HW2 5016   1.443   3.049   6.969
 1373SOL     OW 5017   5.602   3.525   0.196
 1373SOL    HW1 5018   5.563   3.555   0.109
 1373SOL    HW2 5019   5.572   3.432   0.216
 1374SOL     OW 5020   4.546   2.483   0.162
 1374SOL    HW1 5021   4.468   2.529   0.205
 1374SOL    HW2 5022   4.572   2.403   0.215
 1375SOL     OW 5023   0.243   3.968   6.582
 1375SOL    HW1 5024   0.217   3.919   6.498
 1375SOL    HW2 5025   0.239   3.906   6.660
 1376SOL     OW 5026   4.831   3.886   4.149
 1376SOL    HW1 5027   4.862   3.826   4.223
 1376SOL    HW2 5028   4.800   3.829   4.073
 1377SOL     OW 5029   6.949   3.656   5.860
 1377SOL    HW1 5030   6.876   3.596   5.828
 1377SOL    HW2 5031   6.929   3.686   5.953
 1378SOL     OW 5032   6.401   0.909   4.548
 1378SOL    HW1 5033   6.497   0.891   4.569
 1378SOL    HW2 5034   6.367   0.838   4.486
 1379SOL     OW 5035   3.349   0.159   2.395
 1379SOL    HW1 5036   3.321   0.200   2.482
 1379SOL    HW2 5037   3.399   0.075   2.413
 1380SOL     OW 5038   0.263   0.178   2.692
 1380SOL    HW1 5039   0.259   0.277   2.678
 1380SOL    HW2 5040   0.172   0.144   2.714
 1381SOL     OW 5041   5.619   2.290   6.876
 1381SOL    HW1 5042   5.706   2.294   6.924
 1381SOL    HW2 5043   5.564   2.371   6.898
 1382SOL     OW 5044   4.538   4.524   0.615
 1382SOL    HW1 5045   4.598   4.530   0.535
 1382SOL    HW2 5046   4.589   4.484   0.691
 1383SOL     OW 5047   0.684   0.017   0.853
 1383SOL    HW1 5048   0.624   0.071   0.795
 1383SOL    HW2 5049   0.769   7.018   0.803
 1384SOL     OW 5050   3.929   0.645   2.393
 1384SOL    HW1 5051   3.916   0.721   2.457
 1384SOL    HW2 5052   3.937   0.680   2.300
 1385SOL     OW 5053   1.159   3.113   2.630
 1385SOL    HW1 5054   1.059   3.122   2.638
 1385SOL    HW2 5055   1.186   3.127   2.535
 1386SOL     OW 5056   2.141   1.009   4.664
 1386SOL    HW1 5057   2.133   0.911   4.649
 1386SOL    HW2 5058   2.226   1.029   4.714
 1387SOL     OW 5059   3.926   6.102   3.083
 1387SOL    HW1 5060   4.023   6.108   3.061
 1387SOL    HW2 5061   3.879   6.186   3.055
 1388SOL     OW 5062   0.219   6.275   3.422
 1388SOL    HW1 5063   0.216   6.368   3.458
 1388SOL    HW2 5064   0.236   6.278   3.324
 1389SOL     OW 5065   0.467   1.354   3.863
 1389SOL    HW1 5066   0.557   1.368   3.905
 1389SOL    HW2 5067   0.477   1.356   3.763
 1390SOL     OW 5068   4.603   2.147   6.123
 1390SOL    HW1 5069   4.645   2.141   6.214
 1390SOL    HW2 5070   4.505   2.165   6.133
 1391SOL     OW 5071   6.359   0.566   5.464
 1391SOL    HW1 5072   6.451   0.568   5.503
 1391SOL    HW2 5073   6.312   0.651   5.488
 1392SOL     OW 5074   5.506   5.567   6.135
 1392SOL    HW1 5075   5.579   5.507   6.166
 1392SOL    HW2 5076   5.531   5.609   6.047
 1393SOL     OW 5077   5.540   3.188   6.560
 1393SOL    HW1 5078   5.486   3.103   6.555
 1393SOL    HW2 5079   5.620   3.179   6.501
 1394SOL     OW 5080   3.830   6.717   3.621
 1394SOL    HW1 5081   3.923   6.721   3.657
 1394SOL    HW2 5082   3.780   6.642   3.666
 1395SOL     OW 5083   1.480   3.951   3.439
 1395SOL    HW1 5084   1.471   4.032   3.496
 1395SOL    HW2 5085   1.399   3.893   3.451
 1396SOL     OW 5086   1.443   6.726   3.618
 1396SOL    HW1 5087   1.427   6.711   3.716
 1396SOL    HW2 5088   1.417   6.820   3.594
 1397SOL     OW 5089   0.683   6.462   4.540
 1397SOL    HW1 5090   0.583   6.458   4.534
 1397SOL    HW2 5091   0.720   6.369   4.537
 1398SOL     OW 5092   0.954   2.007   6.950
 1398SOL    HW1 5093   0.911   2.058   0.002
 1398SOL    HW2 5094   0.892   1.936   6.917
 1399SOL     OW 5095   4.526   0.315   0.313
 1399SOL    HW1 5096   4.517   0.244   0.383
 1399SOL    HW2 5097   4.622   0.327   0.290
 1400SOL     OW 5098   6.273   1.142   4.161
 1400SOL    HW1 5099   6.303   1.050   4.134
 1400SOL    HW2 5100   6.296   1.157   4.258
 1401SOL     OW 5101   5.977   6.868   4.458
 1401SOL    HW1 5102   6.027   6.868   4.372
 1401SOL    HW2 5103   6.002   6.786   4.510
 1402SOL     OW 5104   5.496   4.235   0.125
 1402SOL    HW1 5105   5.545   4.178   0.190
 1402SOL    HW2 5106   5.440   4.177   0.065
 1403SOL     OW 5107   2.457   2.232   0.990
 1403SOL    HW1 5108   2.428   2.325   0.967
 1403SOL    HW2 5109   2.510   2.234   1.075
 1404SOL     OW 5110   4.943   0.012   0.183
 1404SOL    HW1 5111   4.946   0.001   0.083
 1404SOL    HW2 5112   5.012   0.078   0.211
 1405SOL     OW 5113   2.337   3.611   0.154
 1405SOL    HW1 5114   2.347   3.512   0.137
 1405SOL    HW2 5115   2.331   3.628   0.252
 1406SOL     OW 5116   2.463   5.294   0.994
 1406SOL    HW1 5117   2.412   5.266   1.075
 1406SOL    HW2 5118   2.467   5.217   0.930
 1407SOL     OW 5119   1.786   3.772   3.617
 1407SOL    HW1 5120   1.816   3.856   3.571
 1407SOL    HW2 5121   1.808   3.693   3.559
 1408SOL     OW 5122   5.359   6.619   0.037
 1408SOL    HW1 5123   5.262   6.620   0.013
 1408SOL    HW2 5124   5.409   6.680   6.997
 1409SOL     OW 5125   6.930   1.210   5.168
 1409SOL    HW1 5126   6.964   1.121   5.198
 1409SOL    HW2 5127   6.954   1.223   5.071
 1410SOL     OW 5128   3.334   3.952   0.051
 1410SOL    HW1 5129   3.406   3.896   0.092
 1410SOL    HW2 5130   3.263   3.893   0.013
 1411SOL     OW 5131   3.587   6.091   6.212
 1411SOL    HW1 5132   3.542   6.177   6.235
 1411SOL    HW2 5133   3.677   6.110   6.172
 1412SOL     OW 5134   0.975   4.640   1.990
 1412SOL    HW1 5135   0.936   4.720   1.946
 1412SOL    HW2 5136   0.903   4.589   2.037
 1413SOL     OW 5137   1.837   1.780   4.554
 1413SOL    HW1 5138   1.819   1.864   4.605
 1413SOL    HW2 5139   1.757   1.720   4.558
 1414SOL     OW 5140   1.343   2.474   1.898
 1414SOL    HW1 5141   1.370   2.398   1.839
 1414SOL    HW2 5142   1.424   2.508   1.946
 1415SOL     OW 5143   2.928   1.954   4.086
 1415SOL    HW1 5144   2.890   1.941   3.994
 1415SOL    HW2 5145   2.932   2.052   4.107
 1416SOL     OW 5146   4.067   0.118   4.382
 1416SOL    HW1 5147   4.064   0.210   4.422
 1416SOL    HW2 5148   4.161   0.083   4.387
 1417SOL     OW 5149   3.384   3.016   6.158
 1417SOL    HW1 5150   3.466   3.071   6.142
 1417SOL    HW2 5151   3.311   3.074   6.192
 1418SOL     OW 5152   2.923   3.343   0.210
 1418SOL    HW1 5153   2.974   3.396   0.141
 1418SOL    HW2 5154   2.856   3.403   0.254
 1419SOL     OW 5155   1.947   5.535   4.434
 1419SOL    HW1 5156   2.018   5.468   4.412
 1419SOL    HW2 5157   1.986   5.627   4.434
 1420SOL     OW 5158   3.972   5.322   2.356
 1420SOL    HW1 5159   3.917   5.399   2.389
 1420SOL    HW2 5160   3.925   5.237   2.377
 1421SOL     OW 5161   1.529   4.727   4.401
 1421SOL    HW1 5162   1.544   4.807   4.342
 1421SOL    HW2 5163   1.573   4.743   4.489
 1422SOL     OW 5164   2.944   4.571   5.452
 1422SOL    HW1 5165   2.958   4.670   5.458
 1422SOL    HW2 5166   2.944   4.543   5.356
 1423SOL     OW 5167   4.067   1.936   4.745
 1423SOL    HW1 5168   4.126   1.976   4.815
 1423SOL    HW2 5169   3.990   1.998   4.727
 1424SOL     OW 5170   6.193   3.347   0.346
 1424SOL    HW1 5171   6.131   3.379   0.418
 1424SOL    HW2 5172   6.229   3.425   0.295
 1425SOL     OW 5173   2.400   6.074   4.737
 1425SOL    HW1 5174   2.434   6.156   4.690
 1425SOL    HW2 5175   2.449   5.994   4.702
 1426SOL     OW 5176   1.869   2.112   6.252
 1426SOL    HW1 5177   1.851   2.210   6.253
 1426SOL    HW2 5178   1.895   2.082   6.344
 1427SOL     OW 5179   0.171   0.702   3.703
 1427SOL    HW1 5180   0.210   0.625   3.754
 1427SOL    HW2 5181   0.245   0.753   3.658
 1428SOL     OW 5182   6.997   2.387   1.769
 1428SOL    HW1 5183   7.003   2.366   1.866
 1428SOL    HW2 5184   6.904   2.416   1.746
 1429SOL     OW 5185   5.456   2.073   6.969
 1429SOL    HW1 5186   5.515   2.153   6.969
 1429SOL    HW2 5187   5.360   2.101   6.964
 1430SOL     OW 5188   2.017   3.979   4.514
 1430SOL    HW1 5189   2.090   3.977   4.446
 1430SOL    HW2 5190   1.936   4.023   4.475
 1431SOL     OW 5191   2.214   2.330   6.670
 1431SOL    HW1 5192   2.187   2.388   6.593
 1431SOL    HW2 5193   2.173   2.366   6.754
 1432SOL     OW 5194   2.220   0.763   1.576
 1432SOL    HW1 5195   2.122   0.746   1.562
 1432SOL    HW2 5196   2.248   0.724   1.664
 1433SOL     OW 5197   3.383   6.584   3.752
 1433SOL    HW1 5198   3.301   6.614   3.800
 1433SOL    HW2 5199   3.444   6.537   3.816
 1434SOL     OW 5200   6.773   1.624   6.355
 1434SOL    HW1 5201   6.810   1.716   6.364
 1434SOL    HW2 5202   6.717   1.601   6.434
 1435SOL     OW 5203   6.866   0.897   4.041
 1435SOL    HW1 5204   6.926   0.948   4.103
 1435SOL    HW2 5205   6.915   0.880   3.955
 1436SOL     OW 5206   6.039   3.333   0.729
 1436SOL    HW1 5207   6.052   3.409   0.793
 1436SOL    HW2 5208   6.013   3.369   0.639
 1437SOL     OW 5209   3.280   0.901   5.407
 1437SOL    HW1 5210   3.372   0.919   5.442
 1437SOL    HW2 5211   3.246   0.982   5.359
 1438SOL     OW 5212   3.136   0.912   1.619
 1438SOL    HW1 5213   3.177   0.829   1.579
 1438SOL    HW2 5214   3.196   0.948   1.690
 1439SOL     OW 5215   0.575   5.023   0.769
 1439SOL    HW1 5216   0.630   5.106   0.773
 1439SOL    HW2 5217   0.616   4.952   0.826
 1440SOL     OW 5218   3.764   3.474   4.965
 1440SOL    HW1 5219   3.838   3.524   5.011
 1440SOL    HW2 5220   3.690   3.458   5.029
 1441SOL     OW 5221   6.490   3.390   3.706
 1441SOL    HW1 5222   6.571   3.425   3.661
 1441SOL    HW2 5223   6.476   3.294   3.681
 1442SOL     OW 5224   6.467   4.714   0.342
 1442SOL    HW1 5225   6.517   4.647   0.287
 1442SOL    HW2 5226   6.531   4.773   0.390
 1443SOL     OW 5227   1.407   2.039   4.326
 1443SOL    HW1 5228   1.446   2.086   4.405
 1443SOL    HW2 5229   1.318   2.000   4.351
 1444SOL     OW 5230   4.439   6.026   1.337
 1444SOL    HW1 5231   4.500   5.995   1.410
 1444SOL    HW2 5232   4.459   5.977   1.253
 1445SOL     OW 5233   0.814   2.687   2.414
 1445SOL    HW1 5234   0.823   2.590   2.394
 1445SOL    HW2 5235   0.718   2.714   2.409
 1446SOL     OW 5236   5.337   3.005   6.607
 1446SOL    HW1 5237   5.398   2.982   6.682
 1446SOL    HW2 5238   5.248   2.962   6.622
 1447SOL     OW 5239   6.750   0.030   4.757
 1447SOL    HW1 5240   6.656   0.005   4.780
 1447SOL    HW2 5241   6.785   6.988   4.688
 1448SOL     OW 5242   5.664   2.006   0.238
 1448SOL    HW1 5243   5.681   1.971   0.146
 1448SOL    HW2 5244   5.567   1.997   0.260
 1449SOL     OW 5245   6.421   6.843   6.912
 1449SOL    HW1 5246   6.404   6.779   6.838
 1449SOL    HW2 5247   6.449   6.931   6.874
 1450SOL     OW 5248   0.360   2.621   2.406
 1450SOL    HW1 5249   0.385   2.645   2.500
 1450SOL    HW2 5250   0.290   2.684   2.373
 1451SOL     OW 5251   3.348   0.746   2.787
 1451SOL    HW1 5252   3.440   0.778   2.810
 1451SOL    HW2 5253   3.311   0.802   2.713
 1452SOL     OW 5254   5.269   2.140   4.543
 1452SOL    HW1 5255   5.269   2.044   4.570
 1452SOL    HW2 5256   5.194   2.188   4.588
 1453SOL     OW 5257   6.132   3.716   5.255
 1453SOL    HW1 5258   6.146   3.808   5.217
 1453SOL    HW2 5259   6.037   3.688   5.242
 1454SOL     OW 5260   6.281   2.766   2.070
 1454SOL    HW1 5261   6.232   2.834   2.125
 1454SOL    HW2 5262   6.326   2.812   1.994
 1455SOL     OW 5263   1.701   0.245   1.781
 1455SOL    HW1 5264   1.721   0.190   1.700
 1455SOL    HW2 5265   1.654   0.329   1.754
 1456SOL     OW 5266   6.599   6.826   5.460
 1456SOL    HW1 5267   6.551   6.848   5.545
 1456SOL    HW2 5268   6.535   6.795   5.391
 1457SOL     OW 5269   1.358   0.240   1.738
 1457SOL    HW1 5270   1.364   0.224   1.640
 1457SOL    HW2 5271   1.438   0.199   1.783
 1458SOL     OW 5272   4.928   6.410   4.182
 1458SOL    HW1 5273   5.015   6.390   4.137
 1458SOL    HW2 5274   4.887   6.491   4.141
 1459SOL     OW 5275   3.015   4.073   6.412
 1459SOL    HW1 5276   3.110   4.100   6.423
 1459SOL    HW2 5277   2.956   4.153   6.421
 1460SOL     OW 5278   0.180   5.334   5.978
 1460SOL    HW1 5279   0.175   5.237   6.001
 1460SOL    HW2 5280   0.099   5.381   6.012
 1461SOL     OW 5281   0.100   4.781   3.235
 1461SOL    HW1 5282   0.114   4.879   3.253
 1461SOL    HW2 5283   0.044   4.770   3.153
 1462SOL     OW 5284   6.583   1.070   6.214
 1462SOL    HW1 5285   6.525   1.144   6.247
 1462SOL    HW2 5286   6.670   1.108   6.181
 1463SOL     OW 5287   0.171   5.785   6.459
 1463SOL    HW1 5288   0.153   5.883   6.472
 1463SOL    HW2 5289   0.124   5.732   6.529
 1464SOL     OW 5290   6.533   6.519   0.843
 1464SOL    HW1 5291   6.514   6.478   0.932
 1464SOL    HW2 5292   6.545   6.618   0.854
 1465SOL     OW 5293   1.524   1.706   2.594
 1465SOL    HW1 5294   1.426   1.691   2.585
 1465SOL    HW2 5295   1.570   1.674   2.512
 1466SOL     OW 5296   1.134   0.141   2.862
 1466SOL    HW1 5297   1.140   0.043   2.846
 1466SOL    HW2 5298   1.223   0.176   2.892
 1467SOL     OW 5299   2.379   0.501   2.027
 1467SOL    HW1 5300   2.457   0.491   1.965
 1467SOL    HW2 5301   2.400   0.571   2.095
 1468SOL     OW 5302   5.307   5.945   2.744
 1468SOL    HW1 5303   5.281   6.019   2.681
 1468SOL    HW2 5304   5.277   5.968   2.836
 1469SOL     OW 5305   0.891   0.293   2.848
 1469SOL    HW1 5306   0.986   0.260   2.847
 1469SOL    HW2 5307   0.855   0.290   2.755
 1470SOL     OW 5308   1.631   0.777   2.491
 1470SOL    HW1 5309   1.650   0.705   2.557
 1470SOL    HW2 5310   1.539   0.813   2.506
 1471SOL     OW 5311   0.696   0.810   0.355
 1471SOL    HW1 5312   0.598   0.820   0.368
 1471SOL    HW2 5313   0.741   0.898   0.370
 1472SOL     OW 5314   4.440   5.730   4.580
 1472SOL    HW1 5315   4.354   5.756   4.625
 1472SOL    HW2 5316   4.449   5.631   4.580
 1473SOL     OW 5317   5.665   6.454   3.986
 1473SOL    HW1 5318   5.640   6.509   3.906
 1473SOL    HW2 5319   5.671   6.358   3.959
 1474SOL     OW 5320   6.695   6.037   4.112
 1474SOL    HW1 5321   6.779   6.074   4.074
 1474SOL    HW2 5322   6.650   6.107   4.168
 1475SOL     OW 5323   6.896   0.344   1.323
 1475SOL    HW1 5324   6.980   0.336   1.376
 1475SOL    HW2 5325   6.919   0.356   1.227
 1476SOL     OW 5326   1.206   1.165   1.197
 1476SOL    HW1 5327   1.176   1.080   1.240
 1476SOL    HW2 5328   1.163   1.242   1.243
 1477SOL     OW 5329   2.479   0.419   6.735
 1477SOL    HW1 5330   2.411   0.481   6.694
 1477SOL    HW2 5331   2.538   0.382   6.664
 1478SOL     OW 5332   5.362   4.282   0.616
 1478SOL    HW1 5333   5.431   4.296   0.545
 1478SOL    HW2 5334   5.376   4.192   0.658
 1479SOL     OW 5335   1.493   3.816   6.699
 1479SOL    HW1 5336   1.569   3.834   6.762
 1479SOL    HW2 5337   1.407   3.847   6.741
 1480SOL     OW 5338   2.448   0.206   0.116
 1480SOL    HW1 5339   2.388   0.281   0.142
 1480SOL    HW2 5340   2.535   0.215   0.164
 1481SOL     OW 5341   6.519   1.611   4.768
 1481SOL    HW1 5342   6.427   1.637   4.739
 1481SOL    HW2 5343   6.586   1.673   4.727
 1482SOL     OW 5344   5.395   1.989   1.048
 1482SOL    HW1 5345   5.324   1.919   1.043
 1482SOL    HW2 5346   5.402   2.035   0.960
 1483SOL     OW 5347   6.943   2.795   6.096
 1483SOL    HW1 5348   6.962   2.721   6.031
 1483SOL    HW2 5349   0.007   2.829   6.133
 1484SOL     OW 5350   6.184   4.398   3.950
 1484SOL    HW1 5351   6.165   4.494   3.974
 1484SOL    HW2 5352   6.161   4.339   4.028
 1485SOL     OW 5353   4.392   1.911   2.899
 1485SOL    HW1 5354   4.492   1.906   2.907
 1485SOL    HW2 5355   4.366   1.998   2.858
 1486SOL     OW 5356   4.813   2.773   2.898
 1486SOL    HW1 5357   4.800   2.713   2.819
 1486SOL    HW2 5358   4.733   2.833   2.908
 1487SOL     OW 5359   6.354   2.953   6.932
 1487SOL    HW1 5360   6.362   2.941   6.833
 1487SOL    HW2 5361   6.413   3.028   6.961
 1488SOL     OW 5362   6.169   1.927   3.055
 1488SOL    HW1 5363   6.107   1.922   3.134
 1488SOL    HW2 5364   6.167   2.019   3.017
 1489SOL     OW 5365   3.909   5.058   4.284
 1489SOL    HW1 5366   3.809   5.059   4.274
 1489SOL    HW2 5367   3.951   5.041   4.195
 1490SOL     OW 5368   1.538   2.701   1.401
 1490SOL    HW1 5369   1.629   2.675   1.433
 1490SOL    HW2 5370   1.486   2.739   1.478
 1491SOL     OW 5371   6.632   3.551   3.438
 1491SOL    HW1 5372   6.673   3.463   3.462
 1491SOL    HW2 5373   6.699   3.605   3.386
 1492SOL     OW 5374   6.178   1.739   1.653
 1492SOL    HW1 5375   6.150   1.679   1.727
 1492SOL    HW2 5376   6.216   1.823   1.691
 1493SOL     OW 5377   5.108   0.537   4.834
 1493SOL    HW1 5378   5.180   0.606   4.844
 1493SOL    HW2 5379   5.025   0.580   4.797
 1494SOL     OW 5380   4.340   2.199   6.086
 1494SOL    HW1 5381   4.244   2.190   6.063
 1494SOL    HW2 5382   4.377   2.283   6.045
 1495SOL     OW 5383   0.569   2.945   3.973
 1495SOL    HW1 5384   0.556   2.898   4.060
 1495SOL    HW2 5385   0.651   2.909   3.927
 1496SOL     OW 5386   1.293   0.725   2.537
 1496SOL    HW1 5387   1.307   0.664   2.459
 1496SOL    HW2 5388   1.208   0.700   2.584
 1497SOL     OW 5389   0.699   3.909   2.627
 1497SOL    HW1 5390   0.763   3.834   2.608
 1497SOL    HW2 5391   0.656   3.894   2.717
 1498SOL     OW 5392   1.606   4.609   6.171
 1498SOL    HW1 5393   1.535   4.588   6.239
 1498SOL    HW2 5394   1.604   4.707   6.151
 1499SOL     OW 5395   1.063   3.445   5.650
 1499SOL    HW1 5396   1.025   3.477   5.737
 1499SOL    HW2 5397   1.119   3.517   5.609
 1500SOL     OW 5398   5.503   6.459   6.736
 1500SOL    HW1 5399   5.407   6.435   6.717
 1500SOL    HW2 5400   5.507   6.554   6.767
 1501SOL     OW 5401   4.114   1.293   6.526
 1501SOL    HW1 5402   4.020   1.269   6.503
 1501SOL    HW2 5403   4.147   1.365   6.464
 1502SOL     OW 5404   5.686   6.816   1.446
 1502SOL    HW1 5405   5.777   6.828   1.408
 1502SOL    HW2 5406   5.693   6.783   1.541
 1503SOL     OW 5407   2.888   1.644   1.705
 1503SOL    HW1 5408   2.797   1.679   1.686
 1503SOL    HW2 5409   2.939   1.710   1.760
 1504SOL     OW 5410   1.810   0.755   5.135
 1504SOL    HW1 5411   1.742   0.828   5.125
 1504SOL    HW2 5412   1.856   0.764   5.223
 1505SOL     OW 5413   5.870   0.930   6.642
 1505SOL    HW1 5414   5.795   0.995   6.629
 1505SOL    HW2 5415   5.882   0.912   6.740
 1506SOL     OW 5416   1.971   5.686   2.028
 1506SOL    HW1 5417   1.944   5.751   2.099
 1506SOL    HW2 5418   1.972   5.732   1.939
 1507SOL     OW 5419   1.449   1.902   5.650
 1507SOL    HW1 5420   1.419   1.809   5.628
 1507SOL    HW2 5421   1.399   1.968   5.594
 1508SOL     OW 5422   5.680   0.826   0.719
 1508SOL    HW1 5423   5.660   0.900   0.782
 1508SOL    HW2 5424   5.600   0.810   0.661
 1509SOL     OW 5425   3.888   2.020   6.313
 1509SOL    HW1 5426   3.897   1.977   6.402
 1509SOL    HW2 5427   3.837   2.106   6.322
 1510SOL     OW 5428   5.657   2.059   4.020
 1510SOL    HW1 5429   5.686   1.988   4.084
 1510SOL    HW2 5430   5.710   2.052   3.936
 1511SOL     OW 5431   2.471   2.797   0.729
 1511SOL    HW1 5432   2.483   2.701   0.703
 1511SOL    HW2 5433   2.373   2.820   0.728
 1512SOL     OW 5434   0.042   6.830   1.759
 1512SOL    HW1 5435   7.005   6.889   1.814
 1512SOL    HW2 5436   0.119   6.883   1.724
 1513SOL     OW 5437   4.450   0.145   4.126
 1513SOL    HW1 5438   4.513   0.181   4.195
 1513SOL    HW2 5439   4.409   0.220   4.075
 1514SOL     OW 5440   5.470   2.626   4.940
 1514SOL    HW1 5441   5.489   2.563   4.865
 1514SOL    HW2 5442   5.463   2.719   4.903
 1515SOL     OW 5443   6.481   3.424   5.464
 1515SOL    HW1 5444   6.436   3.474   5.390
 1515SOL    HW2 5445   6.476   3.326   5.446
 1516SOL     OW 5446   0.703   0.198   1.070
 1516SOL    HW1 5447   0.703   0.121   1.006
 1516SOL    HW2 5448   0.789   0.248   1.062
 1517SOL     OW 5449   4.581   5.844   3.551
 1517SOL    HW1 5450   4.539   5.833   3.461
 1517SOL    HW2 5451   4.583   5.941   3.575
 1518SOL     OW 5452   0.374   3.391   0.118
 1518SOL    HW1 5453   0.449   3.423   0.177
 1518SOL    HW2 5454   0.290   3.384   0.172
 1519SOL     OW 5455   0.225   4.621   1.837
 1519SOL    HW1 5456   0.174   4.544   1.876
 1519SOL    HW2 5457   0.315   4.626   1.879
 1520SOL     OW 5458   1.350   3.183   2.432
 1520SOL    HW1 5459   1.368   3.230   2.346
 1520SOL    HW2 5460   1.374   3.243   2.508
 1521SOL     OW 5461   2.124   3.674   6.960
 1521SOL    HW1 5462   2.070   3.591   6.943
 1521SOL    HW2 5463   2.180   3.660   0.020
 1522SOL     OW 5464   6.587   1.563   5.480
 1522SOL    HW1 5465   6.555   1.609   5.563
 1522SOL    HW2 5466   6.652   1.622   5.433
 1523SOL     OW 5467   4.821   3.995   6.918
 1523SOL    HW1 5468   4.881   4.072   6.941
 1523SOL    HW2 5469   4.831   3.973   6.821
 1524SOL     OW 5470   1.147   1.750   1.579
 1524SOL    HW1 5471   1.142   1.668   1.636
 1524SOL    HW2 5472   1.165   1.829   1.637
 1525SOL     OW 5473   5.466   2.474   6.609
 1525SOL    HW1 5474   5.472   2.566   6.570
 1525SOL    HW2 5475   5.379   2.433   6.585
 1526SOL     OW 5476   1.477   1.800   0.302
 1526SOL    HW1 5477   1.424   1.875   0.342
 1526SOL    HW2 5478   1.530   1.754   0.373
 1527SOL     OW 5479   3.739   0.846   5.614
 1527SOL    HW1 5480   3.794   0.764   5.628
 1527SOL    HW2 5481   3.770   0.894   5.532
 1528SOL     OW 5482   5.240   6.409   2.800
 1528SOL    HW1 5483   5.269   6.480   2.736
 1528SOL    HW2 5484   5.305   6.406   2.877
 1529SOL     OW 5485   3.541   1.517   0.216
 1529SOL    HW1 5486   3.589   1.466   0.145
 1529SOL    HW2 5487   3.475   1.579   0.174
 1530SOL     OW 5488   2.919   0.664   1.584
 1530SOL    HW1 5489   2.945   0.749   1.631
 1530SOL    HW2 5490   2.992   0.596   1.596
 1531SOL     OW 5491   5.732   1.142   5.093
 1531SOL    HW1 5492   5.798   1.079   5.052
 1531SOL    HW2 5493   5.773   1.184   5.174
 1532SOL     OW 5494   2.638   2.563   5.633
 1532SOL    HW1 5495   2.642   2.566   5.733
 1532SOL    HW2 5496   2.583   2.484   5.605
 1533SOL     OW 5497   0.140   3.417   6.150
 1533SOL    HW1 5498   0.233   3.399   6.119
 1533SOL    HW2 5499   0.075   3.386   6.080
 1534SOL     OW 5500   1.837   5.188   6.900
 1534SOL    HW1 5501   1.901   5.209   6.826
 1534SOL    HW2 5502   1.873   5.222   6.987
 1535SOL     OW 5503   5.565   6.161   3.940
 1535SOL    HW1 5504   5.525   6.235   3.886
 1535SOL    HW2 5505   5.664   6.156   3.922
 1536SOL     OW 5506   3.943   4.807   5.187
 1536SOL    HW1 5507   3.937   4.722   5.240
 1536SOL    HW2 5508   3.984   4.787   5.098
 1537SOL     OW 5509   4.168   5.791   2.988
 1537SOL    HW1 5510   4.223   5.719   2.946
 1537SOL    HW2 5511   4.071   5.776   2.968
 1538SOL     OW 5512   3.149   5.301   5.383
 1538SOL    HW1 5513   3.149   5.394   5.345
 1538SOL    HW2 5514   3.228   5.251   5.346
 1539SOL     OW 5515   3.863   4.281   1.350
 1539SOL    HW1 5516   3.771   4.267   1.387
 1539SOL    HW2 5517   3.858   4.298   1.252
 1540SOL     OW 5518   0.822   0.238   5.485
 1540SOL    HW1 5519   0.796   0.141   5.491
 1540SOL    HW2 5520   0.758   0.293   5.539
 1541SOL     OW 5521   3.190   2.981   1.617
 1541SOL    HW1 5522   3.193   2.929   1.702
 1541SOL    HW2 5523   3.100   2.971   1.574
 1542SOL     OW 5524   6.931   5.615   1.427
 1542SOL    HW1 5525   6.879   5.672   1.363
 1542SOL    HW2 5526   6.963   5.672   1.503
 1543SOL     OW 5527   3.037   3.111   3.939
 1543SOL    HW1 5528   3.133   3.080   3.938
 1543SOL    HW2 5529   2.998   3.093   4.029
 1544SOL     OW 5530   3.142   3.713   2.451
 1544SOL    HW1 5531   3.139   3.622   2.410
 1544SOL    HW2 5532   3.072   3.771   2.408
 1545SOL     OW 5533   5.407   0.655   5.003
 1545SOL    HW1 5534   5.353   0.730   4.964
 1545SOL    HW2 5535   5.358   0.618   5.082
 1546SOL     OW 5536   5.203   6.774   5.975
 1546SOL    HW1 5537   5.269   6.754   6.047
 1546SOL    HW2 5538   5.132   6.834   6.011
 1547SOL     OW 5539   2.255   4.157   2.844
 1547SOL    HW1 5540   2.345   4.200   2.847
 1547SOL    HW2 5541   2.185   4.222   2.872
 1548SOL     OW 5542   4.712   3.909   5.686
 1548SOL    HW1 5543   4.714   3.841   5.613
 1548SOL    HW2 5544   4.625   3.904   5.734
 1549SOL     OW 5545   5.596   0.969   2.114
 1549SOL    HW1 5546   5.605   1.067   2.132
 1549SOL    HW2 5547   5.662   0.919   2.170
 1550SOL     OW 5548   3.130   6.531   5.564
 1550SOL    HW1 5549   3.093   6.601   5.502
 1550SOL    HW2 5550   3.160   6.574   5.649
 1551SOL     OW 5551   1.904   3.238   0.885
 1551SOL    HW1 5552   1.978   3.283   0.934
 1551SOL    HW2 5553   1.818   3.253   0.934
 1552SOL     OW 5554   0.433   0.134   1.337
 1552SOL    HW1 5555   0.423   0.158   1.240
 1552SOL    HW2 5556   0.386   0.203   1.393
 1553SOL     OW 5557   6.397   2.156   6.177
 1553SOL    HW1 5558   6.408   2.088   6.105
 1553SOL    HW2 5559   6.347   2.116   6.253
 1554SOL     OW 5560   3.766   2.066   2.362
 1554SOL    HW1 5561   3.729   2.051   2.454
 1554SOL    HW2 5562   3.695   2.045   2.294
 1555SOL     OW 5563   4.396   2.436   5.913
 1555SOL    HW1 5564   4.465   2.504   5.889
 1555SOL    HW2 5565   4.308   2.481   5.930
 1556SOL     OW 5566   3.715   1.118   0.057
 1556SOL    HW1 5567   3.741   1.021   0.062
 1556SOL    HW2 5568   3.783   1.173   0.106
 1557SOL     OW 5569   2.901   1.772   0.546
 1557SOL    HW1 5570   2.958   1.692   0.529
 1557SOL    HW2 5571   2.906   1.796   0.643
 1558SOL     OW 5572   5.925   1.794   4.519
 1558SOL    HW1 5573   5.950   1.699   4.502
 1558SOL    HW2 5574   5.825   1.802   4.519
 1559SOL     OW 5575   0.574   3.116   0.954
 1559SOL    HW1 5576   0.666   3.127   0.993
 1559SOL    HW2 5577   0.559   3.020   0.931
 1560SOL     OW 5578   2.702   1.098   6.835
 1560SOL    HW1 5579   2.607   1.101   6.804
 1560SOL    HW2 5580   2.706   1.118   6.933
 1561SOL     OW 5581   4.895   5.426   3.381
 1561SOL    HW1 5582   4.967   5.389   3.322
 1561SOL    HW2 5583   4.904   5.525   3.385
 1562SOL     OW 5584   3.890   6.528   1.623
 1562SOL    HW1 5585   3.968   6.499   1.567
 1562SOL    HW2 5586   3.903   6.624   1.650
 1563SOL     OW 5587   2.171   1.824   5.908
 1563SOL    HW1 5588   2.256   1.819   5.855
 1563SOL    HW2 5589   2.119   1.904   5.878
 1564SOL     OW 5590   1.410   2.327   2.609
 1564SOL    HW1 5591   1.457   2.303   2.693
 1564SOL    HW2 5592   1.460   2.400   2.562
 1565SOL     OW 5593   3.827   4.923   4.499
 1565SOL    HW1 5594   3.810   4.828   4.473
 1565SOL    HW2 5595   3.872   4.971   4.423
 1566SOL     OW 5596   6.294   5.477   4.789
 1566SOL    HW1 5597   6.231   5.401   4.769
 1566SOL    HW2 5598   6.334   5.510   4.704
 1567SOL     OW 5599   6.335   5.622   0.308
 1567SOL    HW1 5600   6.292   5.712   0.311
 1567SOL    HW2 5601   6.434   5.633   0.298
 1568SOL     OW 5602   2.296   6.509   2.744
 1568SOL    HW1 5603   2.229   6.504   2.818
 1568SOL    HW2 5604   2.263   6.572   2.673
 1569SOL     OW 5605   3.771   6.574   2.997
 1569SOL    HW1 5606   3.868   6.593   3.016
 1569SOL    HW2 5607   3.739   6.635   2.924
 1570SOL     OW 5608   1.576   6.623   6.798
 1570SOL    HW1 5609   1.522   6.651   6.878
 1570SOL    HW2 5610   1.664   6.670   6.799
 1571SOL     OW 5611   0.130   2.301   3.439
 1571SOL    HW1 5612   0.212   2.275   3.489
 1571SOL    HW2 5613   0.155   2.357   3.360
 1572SOL     OW 5614   1.954   5.418   2.135
 1572SOL    HW1 5615   1.954   5.510   2.095
 1572SOL    HW2 5616   2.043   5.401   2.179
 1573SOL     OW 5617   5.626   5.104   2.232
 1573SOL    HW1 5618   5.576   5.068   2.311
 1573SOL    HW2 5619   5.706   5.048   2.216
 1574SOL     OW 5620   6.669   2.686   3.351
 1574SOL    HW1 5621   6.754   2.688   3.403
 1574SOL    HW2 5622   6.683   2.727   3.261
 1575SOL     OW 5623   2.945   1.090   1.941
 1575SOL    HW1 5624   3.024   1.124   1.993
 1575SOL    HW2 5625   2.878   1.163   1.931
 1576SOL     OW 5626   0.808   6.872   3.519
 1576SOL    HW1 5627   0.773   6.841   3.430
 1576SOL    HW2 5628   0.733   6.877   3.585
 1577SOL     OW 5629   2.008   0.846   5.653
 1577SOL    HW1 5630   2.105   0.824   5.665
 1577SOL    HW2 5631   1.958   0.763   5.629
 1578SOL     OW 5632   5.023   1.238   5.967
 1578SOL    HW1 5633   5.024   1.326   6.013
 1578SOL    HW2 5634   4.930   1.201   5.968
 1579SOL     OW 5635   0.161   1.794   1.866
 1579SOL    HW1 5636   0.099   1.869   1.887
 1579SOL    HW2 5637   0.149   1.722   1.935
 1580SOL     OW 5638   3.648   4.112   3.484
 1580SOL    HW1 5639   3.563   4.085   3.439
 1580SOL    HW2 5640   3.726   4.082   3.430
 1581SOL     OW 5641   6.657   4.293   5.590
 1581SOL    HW1 5642   6.577   4.242   5.622
 1581SOL    HW2 5643   6.726   4.229   5.558
 1582SOL     OW 5644   3.116   6.334   4.607
 1582SOL    HW1 5645   3.107   6.425   4.566
 1582SOL    HW2 5646   3.207   6.297   4.586
 1583SOL     OW 5647   1.058   5.738   3.949
 1583SOL    HW1 5648   0.983   5.750   3.884
 1583SOL    HW2 5649   1.028   5.768   4.039
 1584SOL     OW 5650   0.707   5.249   6.117
 1584SOL    HW1 5651   0.690   5.194   6.035
 1584SOL    HW2 5652   0.653   5.214   6.193
 1585SOL     OW 5653   4.212   2.016   2.539
 1585SOL    HW1 5654   4.208   1.944   2.608
 1585SOL    HW2 5655   4.134   2.077   2.550
 1586SOL     OW 5656   3.293   5.165   2.725
 1586SOL    HW1 5657   3.313   5.229   2.651
 1586SOL    HW2 5658   3.268   5.215   2.808
 1587SOL     OW 5659   2.328   5.428   4.924
 1587SOL    HW1 5660   2.275   5.466   4.848
 1587SOL    HW2 5661   2.269   5.417   5.004
 1588SOL     OW 5662   4.802   0.883   1.984
 1588SOL    HW1 5663   4.760   0.930   2.062
 1588SOL    HW2 5664   4.855   0.947   1.930
 1589SOL     OW 5665   0.340   3.264   2.326
 1589SOL    HW1 5666   0.289   3.349   2.310
 1589SOL    HW2 5667   0.330   3.238   2.422
 1590SOL     OW 5668   5.241   0.971   3.653
 1590SOL    HW1 5669   5.193   0.980   3.566
 1590SOL    HW2 5670   5.178   0.935   3.722
 1591SOL     OW 5671   6.711   6.141   0.966
 1591SOL    HW1 5672   6.775   6.103   0.899
 1591SOL    HW2 5673   6.755   6.218   1.013
 1592SOL     OW 5674   2.336   3.677   6.766
 1592SOL    HW1 5675   2.304   3.628   6.685
 1592SOL    HW2 5676   2.266   3.673   6.838
 1593SOL     OW 5677   0.696   6.766   5.901
 1593SOL    HW1 5678   0.694   6.773   6.001
 1593SOL    HW2 5679   0.618   6.711   5.871
 1594SOL     OW 5680   0.316   6.070   2.010
 1594SOL    HW1 5681   0.293   6.167   2.015
 1594SOL    HW2 5682   0.401   6.053   2.061
 1595SOL     OW 5683   1.022   4.702   0.989
 1595SOL    HW1 5684   1.005   4.785   1.041
 1595SOL    HW2 5685   1.110   4.663   1.017
 1596SOL     OW 5686   6.742   3.157   2.967
 1596SOL    HW1 5687   6.660   3.152   3.024
 1596SOL    HW2 5688   6.821   3.124   3.020
 1597SOL     OW 5689   1.254   6.005   0.903
 1597SOL    HW1 5690   1.206   6.005   0.991
 1597SOL    HW2 5691   1.204   6.060   0.837
 1598SOL     OW 5692   1.201   4.592   6.031
 1598SOL    HW1 5693   1.237   4.662   6.092
 1598SOL    HW2 5694   1.103   4.604   6.020
 1599SOL     OW 5695   5.385   5.024   5.380
 1599SOL    HW1 5696   5.383   5.104   5.320
 1599SOL    HW2 5697   5.436   5.047   5.464
 1600SOL     OW 5698   2.842   1.651   3.058
 1600SOL    HW1 5699   2.874   1.674   2.966
 1600SOL    HW2 5700   2.813   1.556   3.060
 1601SOL     OW 5701   6.937   0.100   4.310
 1601SOL    HW1 5702   7.002   0.149   4.252
 1601SOL    HW2 5703   6.951   0.125   4.406
 1602SOL     OW 5704   4.290   4.635   3.713
 1602SOL    HW1 5705   4.203   4.633   3.664
 1602SOL    HW2 5706   4.279   4.685   3.799
 1603SOL     OW 5707   3.065   5.113   3.203
 1603SOL    HW1 5708   3.046   5.049   3.128
 1603SOL    HW2 5709   3.117   5.067   3.274
 1604SOL     OW 5710   4.274   4.582   1.548
 1604SOL    HW1 5711   4.307   4.489   1.557
 1604SOL    HW2 5712   4.214   4.589   1.468
 1605SOL     OW 5713   6.722   5.544   1.860
 1605SOL    HW1 5714   6.634   5.542   1.813
 1605SOL    HW2 5715   6.739   5.636   1.895
 1606SOL     OW 5716   3.789   5.848   5.569
 1606SOL    HW1 5717   3.840   5.923   5.611
 1606SOL    HW2 5718   3.819   5.761   5.609
 1607SOL     OW 5719   4.297   0.193   0.484
 1607SOL    HW1 5720   4.292   0.218   0.581
 1607SOL    HW2 5721   4.237   0.251   0.431
 1608SOL     OW 5722   6.553   0.786   2.571
 1608SOL    HW1 5723   6.647   0.790   2.536
 1608SOL    HW2 5724   6.522   0.691   2.575
 1609SOL     OW 5725   3.617   6.702   0.316
 1609SOL    HW1 5726   3.620   6.628   0.384
 1609SOL    HW2 5727   3.557   6.676   0.241
 1610SOL     OW 5728   5.147   5.917   0.544
 1610SOL    HW1 5729   5.182   5.944   0.633
 1610SOL    HW2 5730   5.202   5.840   0.509
 1611SOL     OW 5731   2.527   3.571   0.559
 1611SOL    HW1 5732   2.478   3.597   0.642
 1611SOL    HW2 5733   2.611   3.522   0.584
 1612SOL     OW 5734   3.774   7.018   1.209
 1612SOL    HW1 5735   3.826   0.033   1.131
 1612SOL    HW2 5736   3.811   0.034   1.294
 1613SOL     OW 5737   1.682   5.910   1.792
 1613SOL    HW1 5738   1.639   5.821   1.777
 1613SOL    HW2 5739   1.649   5.949   1.879
 1614SOL     OW 5740   6.065   1.709   6.020
 1614SOL    HW1 5741   6.057   1.803   5.988
 1614SOL    HW2 5742   6.106   1.707   6.111
 1615SOL     OW 5743   5.864   6.025   0.156
 1615SOL    HW1 5744   5.861   5.986   0.063
 1615SOL    HW2 5745   5.909   6.114   0.153
 1616SOL     OW 5746   3.978   0.672   4.444
 1616SOL    HW1 5747   4.020   0.653   4.533
 1616SOL    HW2 5748   3.889   0.627   4.439
 1617SOL     OW 5749   5.509   6.205   3.196
 1617SOL    HW1 5750   5.561   6.270   3.252
 1617SOL    HW2 5751   5.572   6.145   3.146
 1618SOL     OW 5752   1.870   6.584   3.089
 1618SOL    HW1 5753   1.808   6.663   3.095
 1618SOL    HW2 5754   1.871   6.537   3.177
 1619SOL     OW 5755   0.267   4.811   0.294
 1619SOL    HW1 5756   0.200   4.886   0.297
 1619SOL    HW2 5757   0.265   4.760   0.380
 1620SOL     OW 5758   3.393   4.719   1.384
 1620SOL    HW1 5759   3.360   4.791   1.324
 1620SOL    HW2 5760   3.350   4.728   1.474
 1621SOL     OW 5761   6.155   0.447   1.137
 1621SOL    HW1 5762   6.210   0.379   1.087
 1621SOL    HW2 5763   6.063   0.411   1.151
 1622SOL     OW 5764   0.821   3.585   5.488
 1622SOL    HW1 5765   0.752   3.624   5.427
 1622SOL    HW2 5766   0.910   3.586   5.443
 1623SOL     OW 5767   0.578   2.530   4.884
 1623SOL    HW1 5768   0.675   2.549   4.871
 1623SOL    HW2 5769   0.565   2.432   4.902
 1624SOL     OW 5770   4.300   1.050   5.533
 1624SOL    HW1 5771   4.229   1.120   5.531
 1624SOL    HW2 5772   4.306   1.010   5.624
 1625SOL     OW 5773   1.564   4.835   6.582
 1625SOL    HW1 5774   1.533   4.741   6.589
 1625SOL    HW2 5775   1.662   4.840   6.603
 1626SOL     OW 5776   3.255   1.003   0.753
 1626SOL    HW1 5777   3.218   0.911   0.769
 1626SOL    HW2 5778   3.216   1.040   0.669
 1627SOL     OW 5779   5.375   2.727   3.694
 1627SOL    HW1 5780   5.430   2.739   3.777
 1627SOL    HW2 5781   5.278   2.722   3.718
 1628SOL     OW 5782   4.300   5.709   0.406
 1628SOL    HW1 5783   4.270   5.664   0.323
 1628SOL    HW2 5784   4.233   5.693   0.479
 1629SOL     OW 5785   2.127   1.179   3.862
 1629SOL    HW1 5786   2.207   1.119   3.863
 1629SOL    HW2 5787   2.146   1.261   3.916
 1630SOL     OW 5788   0.460   4.792   5.547
 1630SOL    HW1 5789   0.526   4.851   5.501
 1630SOL    HW2 5790   0.370   4.806   5.507
 1631SOL     OW 5791   0.691   3.374   0.218
 1631SOL    HW1 5792   0.782   3.334   0.235
 1631SOL    HW2 5793   0.673   3.446   0.284
 1632SOL     OW 5794   4.733   2.808   2.455
 1632SOL    HW1 5795   4.793   2.729   2.441
 1632SOL    HW2 5796   4.654   2.780   2.510
 1633SOL     OW 5797   4.896   3.784   4.549
 1633SOL    HW1 5798   4.898   3.753   4.454
 1633SOL    HW2 5799   4.954   3.724   4.604
 1634SOL     OW 5800   4.645   6.195   4.369
 1634SOL    HW1 5801   4.591   6.133   4.426
 1634SOL    HW2 5802   4.738   6.202   4.405
 1635SOL     OW 5803   0.374   5.090   0.028
 1635SOL    HW1 5804   0.370   5.176   0.079
 1635SOL    HW2 5805   0.467   5.076   7.016
 1636SOL     OW 5806   2.878   5.021   1.665
 1636SOL    HW1 5807   2.858   5.040   1.569
 1636SOL    HW2 5808   2.842   4.931   1.690
 1637SOL     OW 5809   7.020   6.998   3.859
 1637SOL    HW1 5810   0.096   7.015   3.842
 1637SOL    HW2 5811   6.966   0.031   3.796
 1638SOL     OW 5812   1.079   3.464   2.388
 1638SOL    HW1 5813   1.034   3.471   2.299
 1638SOL    HW2 5814   1.046   3.383   2.436
 1639SOL     OW 5815   5.398   5.160   1.468
 1639SOL    HW1 5816   5.299   5.160   1.483
 1639SOL    HW2 5817   5.445   5.179   1.555
 1640SOL     OW 5818   6.008   0.703   0.295
 1640SOL    HW1 5819   6.013   0.801   0.276
 1640SOL    HW2 5820   5.998   0.653   0.210
 1641SOL     OW 5821   6.030   1.680   3.742
 1641SOL    HW1 5822   6.084   1.726   3.813
 1641SOL    HW2 5823   5.979   1.748   3.690
 1642SOL     OW 5824   6.308   3.280   0.089
 1642SOL    HW1 5825   6.255   3.270   0.173
 1642SOL    HW2 5826   6.396   3.233   0.100
 1643SOL     OW 5827   2.865   4.738   3.444
 1643SOL    HW1 5828   2.792   4.671   3.455
 1643SOL    HW2 5829   2.865   4.801   3.522
 1644SOL     OW 5830   5.882   3.700   7.014
 1644SOL    HW1 5831   5.979   3.712   0.012
 1644SOL    HW2 5832   5.829   3.769   0.041
 1645SOL     OW 5833   2.759   5.644   6.303
 1645SOL    HW1 5834   2.765   5.545   6.299
 1645SOL    HW2 5835   2.724   5.672   6.393
 1646SOL     OW 5836   2.939   6.856   0.751
 1646SOL    HW1 5837   2.902   6.764   0.741
 1646SOL    HW2 5838   2.864   6.921   0.763
 1647SOL     OW 5839   5.944   2.309   4.208
 1647SOL    HW1 5840   6.032   2.264   4.226
 1647SOL    HW2 5841   5.870   2.255   4.249
 1648SOL     OW 5842   5.113   5.705   0.007
 1648SOL    HW1 5843   5.140   5.610   0.022
 1648SOL    HW2 5844   5.092   5.719   6.932
 1649SOL     OW 5845   3.651   1.447   4.122
 1649SOL    HW1 5846   3.726   1.419   4.182
 1649SOL    HW2 5847   3.649   1.547   4.116
 1650SOL     OW 5848   0.455   5.638   4.945
 1650SOL    HW1 5849   0.404   5.719   4.975
 1650SOL    HW2 5850   0.396   5.580   4.889
 1651SOL     OW 5851   0.460   2.185   1.846
 1651SOL    HW1 5852   0.364   2.166   1.827
 1651SOL    HW2 5853   0.487   2.271   1.802
 1652SOL     OW 5854   1.698   3.052   2.651
 1652SOL    HW1 5855   1.613   3.000   2.664
 1652SOL    HW2 5856   1.708   3.119   2.725
 1653SOL     OW 5857   0.983   6.391   0.394
 1653SOL    HW1 5858   1.059   6.330   0.371
 1653SOL    HW2 5859   0.910   6.339   0.437
 1654SOL     OW 5860   6.781   3.319   1.567
 1654SOL    HW1 5861   6.690   3.320   1.525
 1654SOL    HW2 5862   6.850   3.320   1.495
 1655SOL     OW 5863   6.963   1.970   4.579
 1655SOL    HW1 5864   7.016   2.047   4.616
 1655SOL    HW2 5865   0.002   1.905   4.536
 1656SOL     OW 5866   1.863   5.215   2.865
 1656SOL    HW1 5867   1.885   5.231   2.769
 1656SOL    HW2 5868   1.766   5.193   2.874
 1657SOL     OW 5869   5.817   0.662   4.103
 1657SOL    HW1 5870   5.908   0.699   4.123
 1657SOL    HW2 5871   5.748   0.712   4.156
 1658SOL     OW 5872   5.828   1.160   1.027
 1658SOL    HW1 5873   5.753   1.105   0.991
 1658SOL    HW2 5874   5.852   1.231   0.961
 1659SOL     OW 5875   3.283   0.464   0.152
 1659SOL    HW1 5876   3.251   0.384   0.102
 1659SOL    HW2 5877   3.218   0.487   0.224
 1660SOL     OW 5878   1.830   6.068   2.157
 1660SOL    HW1 5879   1.829   5.979   2.202
 1660SOL    HW2 5880   1.908   6.072   2.094
 1661SOL     OW 5881   1.821   6.515   1.527
 1661SOL    HW1 5882   1.852   6.446   1.462
 1661SOL    HW2 5883   1.780   6.592   1.478
 1662SOL     OW 5884   0.045   1.157   4.463
 1662SOL    HW1 5885   0.092   1.216   4.529
 1662SOL    HW2 5886   0.041   1.064   4.498
 1663SOL     OW 5887   4.374   5.278   3.441
 1663SOL    HW1 5888   4.417   5.210   3.381
 1663SOL    HW2 5889   4.445   5.336   3.481
 1664SOL     OW 5890   2.133   6.114   4.714
 1664SOL    HW1 5891   2.100   6.020   4.727
 1664SOL    HW2 5892   2.231   6.113   4.699
 1665SOL     OW 5893   6.390   3.522   2.375
 1665SOL    HW1 5894   6.327   3.540   2.451
 1665SOL    HW2 5895   6.484   3.539   2.405
 1666SOL     OW 5896   5.581   1.049   6.899
 1666SOL    HW1 5897   5.496   0.998   6.909
 1666SOL    HW2 5898   5.650   1.012   6.961
 1667SOL     OW 5899   0.001   6.238   1.341
 1667SOL    HW1 5900   6.986   6.149   1.368
 1667SOL    HW2 5901   0.024   6.291   1.423
 1668SOL     OW 5902   4.801   5.371   3.864
 1668SOL    HW1 5903   4.781   5.338   3.772
 1668SOL    HW2 5904   4.867   5.446   3.860
 1669SOL     OW 5905   6.996   4.104   5.907
 1669SOL    HW1 5906   6.976   4.201   5.896
 1669SOL    HW2 5907   6.910   4.052   5.908
 1670SOL     OW 5908   6.555   4.316   5.318
 1670SOL    HW1 5909   6.627   4.344   5.254
 1670SOL    HW2 5910   6.589   4.322   5.411
 1671SOL     OW 5911   5.584   1.714   3.611
 1671SOL    HW1 5912   5.576   1.767   3.696
 1671SOL    HW2 5913   5.534   1.629   3.619
 1672SOL     OW 5914   2.398   3.595   0.825
 1672SOL    HW1 5915   2.399   3.657   0.904
 1672SOL    HW2 5916   2.414   3.502   0.856
 1673SOL     OW 5917   1.256   1.959   4.762
 1673SOL    HW1 5918   1.328   2.027   4.771
 1673SOL    HW2 5919   1.296   1.868   4.755
 1674SOL     OW 5920   0.720   3.185   2.302
 1674SOL    HW1 5921   0.659   3.114   2.265
 1674SOL    HW2 5922   0.667   3.268   2.320
 1675SOL     OW 5923   4.535   0.319   0.013
 1675SOL    HW1 5924   4.629   0.303   7.005
 1675SOL    HW2 5925   4.522   0.279   0.103
 1676SOL     OW 5926   2.226   2.437   1.921
 1676SOL    HW1 5927   2.210   2.410   1.826
 1676SOL    HW2 5928   2.324   2.441   1.939
 1677SOL     OW 5929   3.670   3.858   3.895
 1677SOL    HW1 5930   3.600   3.871   3.966
 1677SOL    HW2 5931   3.758   3.891   3.928
 1678SOL     OW 5932   6.831   4.704   2.448
 1678SOL    HW1 5933   6.881   4.729   2.365
 1678SOL    HW2 5934   6.734   4.720   2.434
 1679SOL     OW 5935   2.035   1.218   4.830
 1679SOL    HW1 5936   1.943   1.195   4.861
 1679SOL    HW2 5937   2.061   1.156   4.755
 1680SOL     OW 5938   0.503   3.806   5.423
 1680SOL    HW1 5939   0.477   3.853   5.507
 1680SOL    HW2 5940   0.550   3.870   5.362
 1681SOL     OW 5941   0.294   5.188   6.428
 1681SOL    HW1 5942   0.215   5.132   6.456
 1681SOL    HW2 5943   0.262   5.269   6.379
 1682SOL     OW 5944   0.910   0.407   5.816
 1682SOL    HW1 5945   0.867   0.358   5.892
 1682SOL    HW2 5946   0.994   0.361   5.788
 1683SOL     OW 5947   5.616   5.404   2.803
 1683SOL    HW1 5948   5.633   5.331   2.737
 1683SOL    HW2 5949   5.520   5.432   2.799
 1684SOL     OW 5950   0.606   6.035   2.101
 1684SOL    HW1 5951   0.553   5.983   2.168
 1684SOL    HW2 5952   0.703   6.029   2.124
 1685SOL     OW 5953   1.754   1.364   5.503
 1685SOL    HW1 5954   1.816   1.401   5.572
 1685SOL    HW2 5955   1.668   1.337   5.546
 1686SOL     OW 5956   2.213   6.320   4.015
 1686SOL    HW1 5957   2.159   6.236   4.027
 1686SOL    HW2 5958   2.156   6.400   4.035
 1687SOL     OW 5959   1.571   2.777   1.928
 1687SOL    HW1 5960   1.637   2.776   2.004
 1687SOL    HW2 5961   1.482   2.806   1.962
 1688SOL     OW 5962   2.241   1.747   3.848
 1688SOL    HW1 5963   2.143   1.734   3.863
 1688SOL    HW2 5964   2.292   1.709   3.925
 1689SOL     OW 5965   6.466   0.765   2.940
 1689SOL    HW1 5966   6.494   0.789   2.847
 1689SOL    HW2 5967   6.366   0.763   2.946
 1690SOL     OW 5968   1.490   2.549   4.764
 1690SOL    HW1 5969   1.554   2.477   4.792
 1690SOL    HW2 5970   1.505   2.572   4.668
 1691SOL     OW 5971   5.604   2.937   4.254
 1691SOL    HW1 5972   5.597   3.033   4.228
 1691SOL    HW2 5973   5.618   2.930   4.352
 1692SOL     OW 5974   4.204   6.151   1.306
 1692SOL    HW1 5975   4.296   6.112   1.305
 1692SOL    HW2 5976   4.194   6.213   1.228
 1693SOL     OW 5977   6.848   2.260   3.386
 1693SOL    HW1 5978   6.787   2.304   3.453
 1693SOL    HW2 5979   6.943   2.280   3.411
 1694SOL     OW 5980   6.203   2.012   3.470
 1694SOL    HW1 5981   6.168   1.927   3.430
 1694SOL    HW2 5982   6.301   2.001   3.489
 1695SOL     OW 5983   3.959   0.850   6.390
 1695SOL    HW1 5984   3.892   0.924   6.380
 1695SOL    HW2 5985   3.944   0.802   6.476
 1696SOL     OW 5986   3.676   5.954   1.281
 1696SOL    HW1 5987   3.637   6.006   1.358
 1696SOL    HW2 5988   3.704   5.864   1.313
 1697SOL     OW 5989   6.691   1.551   0.377
 1697SOL    HW1 5990   6.703   1.462   0.422
 1697SOL    HW2 5991   6.701   1.624   0.445
 1698SOL     OW 5992   3.862   0.143   0.956
 1698SOL    HW1 5993   3.794   0.213   0.934
 1698SOL    HW2 5994   3.931   0.140   0.883
 1699SOL     OW 5995   2.060   1.649   6.654
 1699SOL    HW1 5996   2.043   1.681   6.748
 1699SOL    HW2 5997   2.147   1.685   6.623
 1700SOL     OW 5998   6.353   4.287   3.775
 1700SOL    HW1 5999   6.361   4.189   3.793
 1700SOL    HW2 6000   6.290   4.327   3.842
 1701SOL     OW 6001   5.503   5.398   5.697
 1701SOL    HW1 6002   5.470   5.309   5.727
 1701SOL    HW2 6003   5.427   5.451   5.658
 1702SOL     OW 6004   6.344   1.690   0.807
 1702SOL    HW1 6005   6.275   1.668   0.876
 1702SOL    HW2 6006   6.312   1.663   0.717
 1703SOL     OW 6007   3.523   1.743   0.064
 1703SOL    HW1 6008   3.599   1.776   0.120
 1703SOL    HW2 6009   3.558   1.708   6.999
 1704SOL     OW 6010   1.052   2.545   0.281
 1704SOL    HW1 6011   1.040   2.622   0.344
 1704SOL    HW2 6012   1.000   2.467   0.314
 1705SOL     OW 6013   3.362   2.177   1.813
 1705SOL    HW1 6014   3.280   2.165   1.870
 1705SOL    HW2 6015   3.441   2.191   1.873
 1706SOL     OW 6016   5.052   1.384   1.767
 1706SOL    HW1 6017   5.138   1.356   1.809
 1706SOL    HW2 6018   4.975   1.353   1.823
 1707SOL     OW 6019   4.342   2.165   2.847
 1707SOL    HW1 6020   4.246   2.192   2.859
 1707SOL    HW2 6021   4.375   2.199   2.759
 1708SOL     OW 6022   4.893   6.042   1.644
 1708SOL    HW1 6023   4.960   6.105   1.606
 1708SOL    HW2 6024   4.937   5.954   1.664
 1709SOL     OW 6025   3.559   6.793   2.898
 1709SOL    HW1 6026   3.512   6.874   2.934
 1709SOL    HW2 6027   3.505   6.711   2.919
 1710SOL     OW 6028   4.064   4.951   3.246
 1710SOL    HW1 6029   4.105   4.860   3.243
 1710SOL    HW2 6030   4.078   4.997   3.159
 1711SOL     OW 6031   1.809   5.592   4.688
 1711SOL    HW1 6032   1.802   5.642   4.602
 1711SOL    HW2 6033   1.903   5.561   4.700
 1712SOL     OW 6034   6.903   1.931   4.935
 1712SOL    HW1 6035   6.840   1.884   4.874
 1712SOL    HW2 6036   6.983   1.873   4.950
 1713SOL     OW 6037   4.909   2.148   2.267
 1713SOL    HW1 6038   5.006   2.146   2.244
 1713SOL    HW2 6039   4.864   2.068   2.227
 1714SOL     OW 6040   3.974   1.652   5.829
 1714SOL    HW1 6041   4.048   1.591   5.856
 1714SOL    HW2 6042   3.937   1.697   5.911
 1715SOL     OW 6043   2.284   5.985   3.438
 1715SOL    HW1 6044   2.238   5.898   3.454
 1715SOL    HW2 6045   2.259   6.050   3.511
 1716SOL     OW 6046   4.079   6.865   4.168
 1716SOL    HW1 6047   4.045   6.958   4.154
 1716SOL    HW2 6048   4.134   6.862   4.252
 1717SOL     OW 6049   3.493   6.184   5.050
 1717SOL    HW1 6050   3.577   6.137   5.077
 1717SOL    HW2 6051   3.488   6.189   4.951
 1718SOL     OW 6052   3.138   1.645   2.271
 1718SOL    HW1 6053   3.122   1.691   2.358
 1718SOL    HW2 6054   3.229   1.670   2.236
 1719SOL     OW 6055   2.027   3.037   0.763
 1719SOL    HW1 6056   1.980   3.119   0.797
 1719SOL    HW2 6057   1.993   2.957   0.812
 1720SOL     OW 6058   6.987   3.032   6.389
 1720SOL    HW1 6059   6.988   3.115   6.445
 1720SOL    HW2 6060   0.045   2.976   6.411
 1721SOL     OW 6061   1.987   6.645   1.256
 1721SOL    HW1 6062   2.047   6.664   1.334
 1721SOL    HW2 6063   2.042   6.616   1.178
 1722SOL     OW 6064   3.599   1.731   3.698
 1722SOL    HW1 6065   3.557   1.788   3.769
 1722SOL    HW2 6066   3.575   1.768   3.608
 1723SOL     OW 6067   5.473   2.509   6.870
 1723SOL    HW1 6068   5.478   2.508   6.771
 1723SOL    HW2 6069   5.494   2.600   6.904
 1724SOL     OW 6070   0.579   2.818   2.394
 1724SOL    HW1 6071   0.532   2.729   2.394
 1724SOL    HW2 6072   0.550   2.871   2.315
 1725SOL     OW 6073   1.616   4.872   6.100
 1725SOL    HW1 6074   1.595   4.931   6.178
 1725SOL    HW2 6075   1.702   4.900   6.059
 1726SOL     OW 6076   5.468   4.083   4.312
 1726SOL    HW1 6077   5.429   4.174   4.321
 1726SOL    HW2 6078   5.550   4.075   4.369
 1727SOL     OW 6079   4.116   3.492   3.721
 1727SOL    HW1 6080   4.106   3.511   3.819
 1727SOL    HW2 6081   4.033   3.520   3.673
 1728SOL     OW 6082   5.924   5.112   5.278
 1728SOL    HW1 6083   5.957   5.136   5.369
 1728SOL    HW2 6084   5.846   5.169   5.255
 1729SOL     OW 6085   2.167   3.843   3.331
 1729SOL    HW1 6086   2.175   3.933   3.288
 1729SOL    HW2 6087   2.186   3.772   3.264
 1730SOL     OW 6088   2.550   0.287   5.279
 1730SOL    HW1 6089   2.492   0.293   5.198
 1730SOL    HW2 6090   2.494   0.295   5.361
 1731SOL     OW 6091   0.245   4.382   3.391
 1731SOL    HW1 6092   0.159   4.428   3.414
 1731SOL    HW2 6093   0.228   4.314   3.320
 1732SOL     OW 6094   2.188   4.782   6.106
 1732SOL    HW1 6095   2.233   4.695   6.124
 1732SOL    HW2 6096   2.154   4.785   6.013
 1733SOL     OW 6097   1.615   3.994   1.389
 1733SOL    HW1 6098   1.524   3.985   1.349
 1733SOL    HW2 6099   1.625   3.929   1.465
 1734SOL     OW 6100   4.989   2.832   1.387
 1734SOL    HW1 6101   4.946   2.881   1.312
 1734SOL    HW2 6102   5.086   2.818   1.367
 1735SOL     OW 6103   4.621   5.603   6.439
 1735SOL    HW1 6104   4.655   5.526   6.385
 1735SOL    HW2 6105   4.694   5.669   6.454
 1736SOL     OW 6106   3.705   3.742   1.276
 1736SOL    HW1 6107   3.781   3.677   1.281
 1736SOL    HW2 6108   3.622   3.698   1.311
 1737SOL     OW 6109   4.982   6.981   4.651
 1737SOL    HW1 6110   4.884   6.966   4.643
 1737SOL    HW2 6111   5.012   6.959   4.744
 1738SOL     OW 6112   2.619   2.367   4.616
 1738SOL    HW1 6113   2.667   2.282   4.594
 1738SOL    HW2 6114   2.623   2.384   4.714
 1739SOL     OW 6115   6.638   1.355   4.352
 1739SOL    HW1 6116   6.551   1.378   4.394
 1739SOL    HW2 6117   6.634   1.263   4.313
 1740SOL     OW 6118   0.230   2.540   5.294
 1740SOL    HW1 6119   0.303   2.483   5.255
 1740SOL    HW2 6120   0.221   2.624   5.240
 1741SOL     OW 6121   2.383   0.721   4.388
 1741SOL    HW1 6122   2.407   0.638   4.439
 1741SOL    HW2 6123   2.290   0.749   4.413
 1742SOL     OW 6124   5.828   0.336   5.091
 1742SOL    HW1 6125   5.731   0.340   5.113
 1742SOL    HW2 6126   5.845   0.389   5.007
 1743SOL     OW 6127   0.626   1.448   2.490
 1743SOL    HW1 6128   0.714   1.450   2.442
 1743SOL    HW2 6129   0.614   1.359   2.534
 1744SOL     OW 6130   6.401   3.453   3.276
 1744SOL    HW1 6131   6.457   3.486   3.352
 1744SOL    HW2 6132   6.324   3.401   3.312
 1745SOL     OW 6133   5.603   6.132   2.679
 1745SOL    HW1 6134   5.552   6.051   2.652
 1745SOL    HW2 6135   5.632   6.182   2.597
 1746SOL     OW 6136   1.723   4.546   4.225
 1746SOL    HW1 6137   1.788   4.622   4.219
 1746SOL    HW2 6138   1.668   4.557   4.308
 1747SOL     OW 6139   4.195   1.170   2.688
 1747SOL    HW1 6140   4.224   1.254   2.643
 1747SOL    HW2 6141   4.099   1.151   2.667
 1748SOL     OW 6142   6.705   1.839   4.746
 1748SOL    HW1 6143   6.651   1.923   4.738
 1748SOL    HW2 6144   6.764   1.830   4.666
 1749SOL     OW 6145   2.089   6.707   5.759
 1749SOL    HW1 6146   2.120   6.784   5.815
 1749SOL    HW2 6147   2.161   6.638   5.753
 1750SOL     OW 6148   5.342   0.001   3.834
 1750SOL    HW1 6149   5.320   6.951   3.900
 1750SOL    HW2 6150   5.368   0.084   3.883
 1751SOL     OW 6151   4.783   1.712   4.735
 1751SOL    HW1 6152   4.854   1.642   4.737
 1751SOL    HW2 6153   4.697   1.671   4.706
 1752SOL     OW 6154   6.071   0.992   2.062
 1752SOL    HW1 6155   5.977   0.965   2.040
 1752SOL    HW2 6156   6.126   0.992   1.978
 1753SOL     OW 6157   6.845   0.703   1.545
 1753SOL    HW1 6158   6.842   0.607   1.574
 1753SOL    HW2 6159   6.937   0.724   1.511
 1754SOL     OW 6160   2.026   4.999   6.703
 1754SOL    HW1 6161   1.985   5.085   6.670
 1754SOL    HW2 6162   2.121   4.993   6.673
 1755SOL     OW 6163   6.947   5.303   6.935
 1755SOL    HW1 6164   7.015   5.229   6.934
 1755SOL    HW2 6165   6.890   5.296   6.854
 1756SOL     OW 6166   4.190   5.548   5.719
 1756SOL    HW1 6167   4.137   5.475   5.675
 1756SOL    HW2 6168   4.228   5.608   5.648
 1757SOL     OW 6169   3.466   5.717   4.788
 1757SOL    HW1 6170   3.526   5.638   4.803
 1757SOL    HW2 6171   3.500   5.770   4.711
 1758SOL     OW 6172   2.059   1.169   4.164
 1758SOL    HW1 6173   2.110   1.171   4.078
 1758SOL    HW2 6174   1.964   1.143   4.146
 1759SOL     OW 6175   2.371   6.488   5.439
 1759SOL    HW1 6176   2.443   6.530   5.384
 1759SOL    HW2 6177   2.372   6.389   5.426
 1760SOL     OW 6178   5.968   0.992   3.681
 1760SOL    HW1 6179   6.026   1.074   3.681
 1760SOL    HW2 6180   5.966   0.953   3.590
 1761SOL     OW 6181   0.694   1.192   2.047
 1761SOL    HW1 6182   0.617   1.158   1.993
 1761SOL    HW2 6183   0.758   1.240   1.988
 1762SOL     OW 6184   0.373   1.385   4.705
 1762SOL    HW1 6185   0.411   1.476   4.690
 1762SOL    HW2 6186   0.417   1.344   4.785
 1763SOL     OW 6187   0.711   4.734   4.265
 1763SOL    HW1 6188   0.739   4.810   4.323
 1763SOL    HW2 6189   0.776   4.723   4.190
 1764SOL     OW 6190   1.753   3.023   1.944
 1764SOL    HW1 6191   1.781   3.104   1.893
 1764SOL    HW2 6192   1.698   2.963   1.885
 1765SOL     OW 6193   3.513   0.664   1.590
 1765SOL    HW1 6194   3.586   0.707   1.644
 1765SOL    HW2 6195   3.465   0.597   1.647
 1766SOL     OW 6196   5.744   4.240   3.885
 1766SOL    HW1 6197   5.668   4.253   3.821
 1766SOL    HW2 6198   5.829   4.270   3.843
 1767SOL     OW 6199   0.824   4.589   3.685
 1767SOL    HW1 6200   0.729   4.612   3.705
 1767SOL    HW2 6201   0.834   4.563   3.589
 1768SOL     OW 6202   3.277   1.145   0.184
 1768SOL    HW1 6203   3.286   1.046   0.176
 1768SOL    HW2 6204   3.348   1.180   0.246
 1769SOL     OW 6205   5.816   1.248   6.879
 1769SOL    HW1 6206   5.858   1.339   6.882
 1769SOL    HW2 6207   5.748   1.246   6.806
 1770SOL     OW 6208   0.097   4.504   4.958
 1770SOL    HW1 6209   0.182   4.465   4.993
 1770SOL    HW2 6210   0.036   4.525   5.034
 1771SOL     OW 6211   1.520   5.453   0.572
 1771SOL    HW1 6212   1.518   5.381   0.641
 1771SOL    HW2 6213   1.426   5.480   0.549
 1772SOL     OW 6214   3.465   5.497   3.658
 1772SOL    HW1 6215   3.449   5.538   3.567
 1772SOL    HW2 6216   3.384   5.446   3.686
 1773SOL     OW 6217   2.120   2.236   6.047
 1773SOL    HW1 6218   2.176   2.214   6.127
 1773SOL    HW2 6219   2.034   2.279   6.077
 1774SOL     OW 6220   5.423   6.815   1.595
 1774SOL    HW1 6221   5.358   6.761   1.648
 1774SOL    HW2 6222   5.493   6.755   1.556
 1775SOL     OW 6223   1.744   5.411   6.131
 1775SOL    HW1 6224   1.771   5.502   6.100
 1775SOL    HW2 6225   1.687   5.368   6.061
 1776SOL     OW 6226   5.143   0.158   6.152
 1776SOL    HW1 6227   5.239   0.167   6.125
 1776SOL    HW2 6228   5.123   0.222   6.226
 1777SOL     OW 6229   3.105   6.971   6.684
 1777SOL    HW1 6230   3.172   7.006   6.618
 1777SOL    HW2 6231   3.154   6.922   6.757
 1778SOL     OW 6232   4.876   2.195   4.478
 1778SOL    HW1 6233   4.826   2.271   4.435
 1778SOL    HW2 6234   4.959   2.230   4.521
 1779SOL     OW 6235   5.327   0.600   5.844
 1779SOL    HW1 6236   5.276   0.637   5.922
 1779SOL    HW2 6237   5.277   0.621   5.759
 1780SOL     OW 6238   1.827   3.314   5.709
 1780SOL    HW1 6239   1.901   3.380   5.714
 1780SOL    HW2 6240   1.837   3.258   5.626
 1781SOL     OW 6241   5.572   6.436   5.215
 1781SOL    HW1 6242   5.519   6.501   5.269
 1781SOL    HW2 6243   5.541   6.343   5.234
 1782SOL     OW 6244   2.460   0.995   2.767
 1782SOL    HW1 6245   2.392   0.927   2.738
 1782SOL    HW2 6246   2.435   1.084   2.730
 1783SOL     OW 6247   3.175   3.590   6.477
 1783SOL    HW1 6248   3.104   3.570   6.544
 1783SOL    HW2 6249   3.257   3.623   6.524
 1784SOL     OW 6250   2.014   1.470   1.310
 1784SOL    HW1 6251   1.947   1.397   1.304
 1784SOL    HW2 6252   2.050   1.474   1.404
 1785SOL     OW 6253   6.129   6.861   4.229
 1785SOL    HW1 6254   6.222   6.892   4.208
 1785SOL    HW2 6255   6.123   6.762   4.217
 1786SOL     OW 6256   2.134   5.044   7.000
 1786SOL    HW1 6257   2.072   5.122   7.009
 1786SOL    HW2 6258   2.111   4.993   6.917
 1787SOL     OW 6259   2.479   1.866   6.048
 1787SOL    HW1 6260   2.395   1.889   6.098
 1787SOL    HW2 6261   2.519   1.784   6.089
 1788SOL     OW 6262   4.685   3.961   6.668
 1788SOL    HW1 6263   4.619   4.035   6.678
 1788SOL    HW2 6264   4.644   3.875   6.698
 1789SOL     OW 6265   5.782   3.146   1.622
 1789SOL    HW1 6266   5.802   3.064   1.676
 1789SOL    HW2 6267   5.829   3.225   1.661
 1790SOL     OW 6268   2.777   1.103   4.313
 1790SOL    HW1 6269   2.801   1.014   4.275
 1790SOL    HW2 6270   2.767   1.169   4.239
 1791SOL     OW 6271   0.005   1.356   3.599
 1791SOL    HW1 6272   6.990   1.383   3.510
 1791SOL    HW2 6273   6.952   1.350   3.666
 1792SOL     OW 6274   0.120   1.285   4.703
 1792SOL    HW1 6275   0.207   1.333   4.712
 1792SOL    HW2 6276   0.050   1.349   4.671
 1793SOL     OW 6277   6.760   1.718   4.451
 1793SOL    HW1 6278   6.833   1.761   4.399
 1793SOL    HW2 6279   6.682   1.700   4.391
 1794SOL     OW 6280   5.376   6.547   5.389
 1794SOL    HW1 6281   5.281   6.521   5.411
 1794SOL    HW2 6282   5.436   6.522   5.465
 1795SOL     OW 6283   6.351   5.156   2.045
 1795SOL    HW1 6284   6.340   5.194   1.954
 1795SOL    HW2 6285   6.436   5.189   2.085
 1796SOL     OW 6286   2.299   1.504   5.980
 1796SOL    HW1 6287   2.356   1.465   6.052
 1796SOL    HW2 6288   2.276   1.598   6.003
 1797SOL     OW 6289   1.099   6.864   5.679
 1797SOL    HW1 6290   1.025   6.905   5.627
 1797SOL    HW2 6291   1.176   6.927   5.684
 1798SOL     OW 6292   3.290   2.981   4.736
 1798SOL    HW1 6293   3.201   2.957   4.775
 1798SOL    HW2 6294   3.356   2.996   4.809
 1799SOL     OW 6295   4.875   2.816   6.429
 1799SOL    HW1 6296   4.873   2.745   6.358
 1799SOL    HW2 6297   4.896   2.775   6.517
 1800SOL     OW 6298   5.008   4.931   3.702
 1800SOL    HW1 6299   5.016   5.031   3.699
 1800SOL    HW2 6300   4.911   4.906   3.712
 1801SOL     OW 6301   0.880   1.607   2.139
 1801SOL    HW1 6302   0.804   1.573   2.084
 1801SOL    HW2 6303   0.934   1.671   2.085
 1802SOL     OW 6304   6.042   5.976   3.387
 1802SOL    HW1 6305   6.050   6.047   3.316
 1802SOL    HW2 6306   6.133   5.944   3.413
 1803SOL     OW 6307   0.394   6.929   2.099
 1803SOL    HW1 6308   0.335   6.964   2.172
 1803SOL    HW2 6309   0.397   6.996   2.024
 1804SOL     OW 6310   4.039   3.288   4.773
 1804SOL    HW1 6311   4.089   3.348   4.711
 1804SOL    HW2 6312   4.057   3.315   4.868
 1805SOL     OW 6313   0.803   5.476   5.857
 1805SOL    HW1 6314   0.703   5.481   5.851
 1805SOL    HW2 6315   0.839   5.432   5.775
 1806SOL     OW 6316   0.713   2.824   1.842
 1806SOL    HW1 6317   0.738   2.859   1.932
 1806SOL    HW2 6318   0.676   2.898   1.787
 1807SOL     OW 6319   5.443   3.010   6.853
 1807SOL    HW1 6320   5.402   2.948   6.920
 1807SOL    HW2 6321   5.542   2.993   6.848
 1808SOL     OW 6322   6.001   3.649   4.669
 1808SOL    HW1 6323   5.945   3.659   4.752
 1808SOL    HW2 6324   6.065   3.725   4.664
 1809SOL     OW 6325   3.259   1.814   5.590
 1809SOL    HW1 6326   3.172   1.848   5.553
 1809SOL    HW2 6327   3.296   1.744   5.529
 1810SOL     OW 6328   1.031   0.807   5.225
 1810SOL    HW1 6329   1.062   0.851   5.140
 1810SOL    HW2 6330   1.106   0.752   5.263
 1811SOL     OW 6331   5.207   4.630   1.980
 1811SOL    HW1 6332   5.192   4.543   2.028
 1811SOL    HW2 6333   5.269   4.615   1.903
 1812SOL     OW 6334   4.005   6.394   6.080
 1812SOL    HW1 6335   4.088   6.350   6.116
 1812SOL    HW2 6336   4.029   6.451   6.002
 1813SOL     OW 6337   5.381   4.903   2.360
 1813SOL    HW1 6338   5.303   4.865   2.409
 1813SOL    HW2 6339   5.417   4.834   2.297
 1814SOL     OW 6340   6.126   0.426   0.739
 1814SOL    HW1 6341   6.188   0.419   0.661
 1814SOL    HW2 6342   6.054   0.493   0.718
 1815SOL     OW 6343   6.334   6.853   2.701
 1815SOL    HW1 6344   6.243   6.841   2.740
 1815SOL    HW2 6345   6.327   6.861   2.601
 1816SOL     OW 6346   3.643   5.118   6.244
 1816SOL    HW1 6347   3.604   5.026   6.240
 1816SOL    HW2 6348   3.684   5.141   6.156
 1817SOL     OW 6349   3.223   1.460   2.915
 1817SOL    HW1 6350   3.267   1.479   3.003
 1817SOL    HW2 6351   3.157   1.532   2.895
 1818SOL     OW 6352   1.670   6.860   0.230
 1818SOL    HW1 6353   1.645   6.899   0.319
 1818SOL    HW2 6354   1.700   6.766   0.242
 1819SOL     OW 6355   1.704   5.035   2.206
 1819SOL    HW1 6356   1.687   5.064   2.111
 1819SOL    HW2 6357   1.773   4.963   2.207
 1820SOL     OW 6358   3.605   0.193   2.803
 1820SOL    HW1 6359   3.622   0.242   2.889
 1820SOL    HW2 6360   3.680   0.212   2.738
 1821SOL     OW 6361   3.198   0.867   1.989
 1821SOL    HW1 6362   3.196   0.952   2.041
 1821SOL    HW2 6363   3.252   0.879   1.906
 1822SOL     OW 6364   1.235   3.417   1.471
 1822SOL    HW1 6365   1.228   3.414   1.571
 1822SOL    HW2 6366   1.224   3.324   1.435
 1823SOL     OW 6367   3.088   6.003   3.033
 1823SOL    HW1 6368   3.047   6.076   2.979
 1823SOL    HW2 6369   3.152   5.952   2.977
 1824SOL     OW 6370   4.013   3.728   0.516
 1824SOL    HW1 6371   4.047   3.635   0.533
 1824SOL    HW2 6372   4.083   3.780   0.467
 1825SOL     OW 6373   0.527   2.935   4.700
 1825SOL    HW1 6374   0.494   3.011   4.644
 1825SOL    HW2 6375   0.623   2.951   4.725
 1826SOL     OW 6376   2.958   1.039   0.867
 1826SOL    HW1 6377   3.034   1.102   0.881
 1826SOL    HW2 6378   2.871   1.088   0.876
 1827SOL     OW 6379   5.350   5.587   1.167
 1827SOL    HW1 6380   5.259   5.629   1.166
 1827SOL    HW2 6381   5.350   5.511   1.232
 1828SOL     OW 6382   1.820   3.292   6.339
 1828SOL    HW1 6383   1.821   3.288   6.239
 1828SOL    HW2 6384   1.782   3.380   6.368
 1829SOL     OW 6385   3.987   6.882   3.908
 1829SOL    HW1 6386   4.033   6.877   3.997
 1829SOL    HW2 6387   4.042   6.835   3.839
 1830SOL     OW 6388   6.020   6.653   5.103
 1830SOL    HW1 6389   5.964   6.638   5.184
 1830SOL    HW2 6390   5.977   6.611   5.024
 1831SOL     OW 6391   5.217   5.970   2.992
 1831SOL    HW1 6392   5.134   6.017   3.023
 1831SOL    HW2 6393   5.231   5.887   3.047
 1832SOL     OW 6394   3.314   2.939   0.214
 1832SOL    HW1 6395   3.245   2.867   0.211
 1832SOL    HW2 6396   3.361   2.944   0.125
 1833SOL     OW 6397   5.214   0.391   1.313
 1833SOL    HW1 6398   5.239   0.466   1.252
 1833SOL    HW2 6399   5.133   0.416   1.366
 1834SOL     OW 6400   2.363   3.536   1.380
 1834SOL    HW1 6401   2.363   3.636   1.384
 1834SOL    HW2 6402   2.456   3.504   1.358
 1835SOL     OW 6403   1.073   4.968   1.575
 1835SOL    HW1 6404   1.011   4.890   1.585
 1835SOL    HW2 6405   1.077   4.996   1.479
 1836SOL     OW 6406   5.552   2.684   2.096
 1836SOL    HW1 6407   5.593   2.700   2.006
 1836SOL    HW2 6408   5.462   2.726   2.099
 1837SOL     OW 6409   1.643   0.234   5.806
 1837SOL    HW1 6410   1.561   0.279   5.772
 1837SOL    HW2 6411   1.631   0.135   5.803
 1838SOL     OW 6412   6.009   0.552   6.241
 1838SOL    HW1 6413   5.925   0.525   6.195
 1838SOL    HW2 6414   6.038   0.479   6.304
 1839SOL     OW 6415   6.197   0.783   6.275
 1839SOL    HW1 6416   6.186   0.875   6.235
 1839SOL    HW2 6417   6.106   0.747   6.298
 1840SOL     OW 6418   4.018   0.436   2.547
 1840SOL    HW1 6419   3.994   0.514   2.490
 1840SOL    HW2 6420   4.040   0.357   2.489
 1841SOL     OW 6421   2.035   0.071   3.098
 1841SOL    HW1 6422   2.028   0.030   3.007
 1841SOL    HW2 6423   1.989   0.012   3.164
 1842SOL     OW 6424   0.837   5.437   0.912
 1842SOL    HW1 6425   0.911   5.505   0.911
 1842SOL    HW2 6426   0.793   5.437   1.002
 1843SOL     OW 6427   5.091   0.336   4.236
 1843SOL    HW1 6428   5.041   0.419   4.261
 1843SOL    HW2 6429   5.103   0.333   4.137
 1844SOL     OW 6430   4.394   1.343   5.536
 1844SOL    HW1 6431   4.463   1.323   5.605
 1844SOL    HW2 6432   4.413   1.292   5.453
 1845SOL     OW 6433   3.118   6.956   3.938
 1845SOL    HW1 6434   3.038   6.982   3.992
 1845SOL    HW2 6435   3.201   6.968   3.994
 1846SOL     OW 6436   5.079   1.291   3.493
 1846SOL    HW1 6437   5.012   1.352   3.450
 1846SOL    HW2 6438   5.117   1.230   3.424
 1847SOL     OW 6439   1.317   0.233   5.343
 1847SOL    HW1 6440   1.277   0.176   5.271
 1847SOL    HW2 6441   1.360   0.174   5.412
 1848SOL     OW 6442   1.604   6.415   4.309
 1848SOL    HW1 6443   1.619   6.442   4.214
 1848SOL    HW2 6444   1.616   6.494   4.369
 1849SOL     OW 6445   4.642   2.615   1.463
 1849SOL    HW1 6446   4.666   2.604   1.366
 1849SOL    HW2 6447   4.570   2.551   1.488
 1850SOL     OW 6448   5.817   1.741   2.854
 1850SOL    HW1 6449   5.785   1.764   2.946
 1850SOL    HW2 6450   5.785   1.810   2.789
 1851SOL     OW 6451   0.777   3.486   6.949
 1851SOL    HW1 6452   0.792   3.501   6.851
 1851SOL    HW2 6453   0.685   3.450   6.963
 1852SOL     OW 6454   0.518   4.902   1.884
 1852SOL    HW1 6455   0.424   4.931   1.863
 1852SOL    HW2 6456   0.559   4.861   1.803
 1853SOL     OW 6457   0.227   2.493   3.265
 1853SOL    HW1 6458   0.163   2.479   3.190
 1853SOL    HW2 6459   0.318   2.512   3.228
 1854SOL     OW 6460   1.280   5.295   3.172
 1854SOL    HW1 6461   1.204   5.358   3.185
 1854SOL    HW2 6462   1.320   5.272   3.260
 1855SOL     OW 6463   5.076   3.213   5.349
 1855SOL    HW1 6464   5.154   3.177   5.401
 1855SOL    HW2 6465   5.008   3.250   5.413
 1856SOL     OW 6466   3.734   3.420   6.144
 1856SOL    HW1 6467   3.810   3.441   6.206
 1856SOL    HW2 6468   3.720   3.498   6.083
 1857SOL     OW 6469   4.586   1.484   0.182
 1857SOL    HW1 6470   4.682   1.511   0.180
 1857SOL    HW2 6471   4.575   1.396   0.137
 1858SOL     OW 6472   5.923   2.846   3.274
 1858SOL    HW1 6473   5.896   2.750   3.287
 1858SOL    HW2 6474   5.845   2.905   3.296
 1859SOL     OW 6475   4.876   1.628   3.483
 1859SOL    HW1 6476   4.942   1.589   3.547
 1859SOL    HW2 6477   4.894   1.595   3.391
 1860SOL     OW 6478   0.597   1.688   5.883
 1860SOL    HW1 6479   0.570   1.593   5.900
 1860SOL    HW2 6480   0.561   1.717   5.794
 1861SOL     OW 6481   4.751   0.543   3.347
 1861SOL    HW1 6482   4.743   0.627   3.402
 1861SOL    HW2 6483   4.666   0.529   3.296
 1862SOL     OW 6484   1.415   6.684   6.559
 1862SOL    HW1 6485   1.487   6.637   6.610
 1862SOL    HW2 6486   1.352   6.616   6.521
 1863SOL     OW 6487   6.632   2.922   1.595
 1863SOL    HW1 6488   6.684   2.857   1.651
 1863SOL    HW2 6489   6.594   2.994   1.653
 1864SOL     OW 6490   3.662   5.794   3.903
 1864SOL    HW1 6491   3.734   5.810   3.835
 1864SOL    HW2 6492   3.677   5.704   3.946
 1865SOL     OW 6493   3.412   1.089   1.422
 1865SOL    HW1 6494   3.381   1.008   1.373
 1865SOL    HW2 6495   3.374   1.171   1.379
 1866SOL     OW 6496   6.386   4.744   3.873
 1866SOL    HW1 6497   6.343   4.762   3.785
 1866SOL    HW2 6498   6.404   4.831   3.919
 1867SOL     OW 6499   2.293   3.352   1.142
 1867SOL    HW1 6500   2.310   3.401   1.228
 1867SOL    HW2 6501   2.198   3.365   1.114
 1868SOL     OW 6502   5.017   3.348   5.827
 1868SOL    HW1 6503   4.952   3.289   5.876
 1868SOL    HW2 6504   4.973   3.435   5.805
 1869SOL     OW 6505   5.919   3.222   4.246
 1869SOL    HW1 6506   5.881   3.201   4.156
 1869SOL    HW2 6507   5.912   3.141   4.305
 1870SOL     OW 6508   1.156   3.236   5.068
 1870SOL    HW1 6509   1.199   3.175   5.001
 1870SOL    HW2 6510   1.083   3.187   5.116
 1871SOL     OW 6511   6.683   6.712   0.416
 1871SOL    HW1 6512   6.623   6.746   0.344
 1871SOL    HW2 6513   6.730   6.630   0.384
 1872SOL     OW 6514   4.115   2.068   0.598
 1872SOL    HW1 6515   4.078   2.116   0.519
 1872SOL    HW2 6516   4.096   1.970   0.589
 1873SOL     OW 6517   6.235   0.877   5.269
 1873SOL    HW1 6518   6.283   0.958   5.236
 1873SOL    HW2 6519   6.246   0.870   5.368
 1874SOL     OW 6520   0.927   0.917   6.756
 1874SOL    HW1 6521   0.926   0.955   6.849
 1874SOL    HW2 6522   0.917   0.817   6.761
 1875SOL     OW 6523   6.397   6.436   0.401
 1875SOL    HW1 6524   6.360   6.483   0.482
 1875SOL    HW2 6525   6.486   6.396   0.424
 1876SOL     OW 6526   4.958   6.578   6.163
 1876SOL    HW1 6527   4.958   6.632   6.078
 1876SOL    HW2 6528   5.036   6.516   6.163
 1877SOL     OW 6529   0.502   1.675   3.183
 1877SOL    HW1 6530   0.526   1.607   3.113
 1877SOL    HW2 6531   0.577   1.740   3.193
 1878SOL     OW 6532   0.046   4.172   3.250
 1878SOL    HW1 6533   0.025   4.139   3.342
 1878SOL    HW2 6534   0.065   4.095   3.190
 1879SOL     OW 6535   2.511   5.443   3.927
 1879SOL    HW1 6536   2.571   5.407   3.998
 1879SOL    HW2 6537   2.560   5.447   3.840
 1880SOL     OW 6538   1.118   2.617   3.201
 1880SOL    HW1 6539   1.190   2.625   3.132
 1880SOL    HW2 6540   1.034   2.585   3.158
 1881SOL     OW 6541   1.025   1.921   3.301
 1881SOL    HW1 6542   0.997   1.871   3.383
 1881SOL    HW2 6543   0.949   1.980   3.270
 1882SOL     OW 6544   0.843   5.351   6.852
 1882SOL    HW1 6545   0.889   5.424   6.802
 1882SOL    HW2 6546   0.800   5.288   6.787
 1883SOL     OW 6547   0.591   3.457   3.404
 1883SOL    HW1 6548   0.513   3.397   3.385
 1883SOL    HW2 6549   0.626   3.494   3.318
 1884SOL     OW 6550   5.632   1.429   1.498
 1884SOL    HW1 6551   5.583   1.515   1.484
 1884SOL    HW2 6552   5.611   1.366   1.423
 1885SOL     OW 6553   0.060   2.030   0.650
 1885SOL    HW1 6554   6.988   2.023   0.684
 1885SOL    HW2 6555   0.123   1.995   0.719
 1886SOL     OW 6556   1.936   2.017   0.617
 1886SOL    HW1 6557   1.847   1.971   0.623
 1886SOL    HW2 6558   1.978   1.996   0.529
 1887SOL     OW 6559   0.668   4.038   5.725
 1887SOL    HW1 6560   0.674   4.106   5.652
 1887SOL    HW2 6561   0.739   4.056   5.793
 1888SOL     OW 6562   2.468   1.561   6.440
 1888SOL    HW1 6563   2.516   1.514   6.514
 1888SOL    HW2 6564   2.493   1.658   6.440
 1889SOL     OW 6565   4.242   3.830   6.313
 1889SOL    HW1 6566   4.265   3.739   6.349
 1889SOL    HW2 6567   4.308   3.897   6.345
 1890SOL     OW 6568   1.438   5.591   6.203
 1890SOL    HW1 6569   1.424   5.690   6.202
 1890SOL    HW2 6570   1.472   5.562   6.113
 1891SOL     OW 6571   5.165   3.070   3.993
 1891SOL    HW1 6572   5.139   3.077   4.089
 1891SOL    HW2 6573   5.095   3.018   3.943
 1892SOL     OW 6574   3.629   6.559   1.340
 1892SOL    HW1 6575   3.597   6.654   1.342
 1892SOL    HW2 6576   3.577   6.508   1.272
 1893SOL     OW 6577   3.730   2.009   4.844
 1893SOL    HW1 6578   3.638   2.047   4.851
 1893SOL    HW2 6579   3.771   2.036   4.756
 1894SOL     OW 6580   4.430   3.187   1.450
 1894SOL    HW1 6581   4.509   3.133   1.478
 1894SOL    HW2 6582   4.397   3.155   1.361
 1895SOL     OW 6583   6.289   0.448   2.620
 1895SOL    HW1 6584   6.281   0.348   2.624
 1895SOL    HW2 6585   6.269   0.479   2.527
 1896SOL     OW 6586   6.957   1.000   2.927
 1896SOL    HW1 6587   0.005   0.967   2.991
 1896SOL    HW2 6588   6.882   1.042   2.977
 1897SOL     OW 6589   6.457   5.165   2.971
 1897SOL    HW1 6590   6.509   5.090   2.929
 1897SOL    HW2 6591   6.440   5.236   2.903
 1898SOL     OW 6592   3.854   6.240   1.835
 1898SOL    HW1 6593   3.790   6.298   1.783
 1898SOL    HW2 6594   3.947   6.273   1.821
 1899SOL     OW 6595   1.427   2.933   2.558
 1899SOL    HW1 6596   1.456   2.973   2.471
 1899SOL    HW2 6597   1.341   2.974   2.587
 1900SOL     OW 6598   1.120   0.236   5.796
 1900SOL    HW1 6599   1.109   0.188   5.709
 1900SOL    HW2 6600   1.077   0.182   5.869
 1901SOL     OW 6601   2.225   1.170   1.187
 1901SOL    HW1 6602   2.285   1.128   1.119
 1901SOL    HW2 6603   2.165   1.236   1.142
 1902SOL     OW 6604   2.031   2.434   5.100
 1902SOL    HW1 6605   2.096   2.384   5.043
 1902SOL    HW2 6606   2.043   2.409   5.195
 1903SOL     OW 6607   6.869   3.620   3.884
 1903SOL    HW1 6608   6.810   3.621   3.966
 1903SOL    HW2 6609   6.890   3.526   3.859
 1904SOL     OW 6610   6.742   0.368   4.161
 1904SOL    HW1 6611   6.690   0.297   4.208
 1904SOL    HW2 6612   6.790   0.424   4.228
 1905SOL     OW 6613   0.550   2.342   4.067
 1905SOL    HW1 6614   0.620   2.272   4.079
 1905SOL    HW2 6615   0.471   2.321   4.124
 1906SOL     OW 6616   2.529   6.862   5.677
 1906SOL    HW1 6617   2.624   6.836   5.659
 1906SOL    HW2 6618   2.492   6.910   5.598
 1907SOL     OW 6619   3.432   6.819   3.484
 1907SOL    HW1 6620   3.506   6.792   3.546
 1907SOL    HW2 6621   3.449   6.912   3.451
 1908SOL     OW 6622   4.556   1.051   4.985
 1908SOL    HW1 6623   4.636   1.100   4.949
 1908SOL    HW2 6624   4.566   0.953   4.969
 1909SOL     OW 6625   1.523   4.442   3.263
 1909SOL    HW1 6626   1.577   4.496   3.327
 1909SOL    HW2 6627   1.433   4.482   3.252
 1910SOL     OW 6628   5.889   2.121   6.652
 1910SOL    HW1 6629   5.857   2.065   6.728
 1910SOL    HW2 6630   5.818   2.186   6.626
 1911SOL     OW 6631   5.719   1.562   5.719
 1911SOL    HW1 6632   5.749   1.657   5.708
 1911SOL    HW2 6633   5.796   1.501   5.708
 1912SOL     OW 6634   4.081   6.464   2.186
 1912SOL    HW1 6635   4.031   6.522   2.121
 1912SOL    HW2 6636   4.081   6.369   2.152
 1913SOL     OW 6637   1.959   6.095   5.203
 1913SOL    HW1 6638   1.980   6.158   5.128
 1913SOL    HW2 6639   1.915   6.145   5.278
 1914SOL     OW 6640   2.806   2.842   7.001
 1914SOL    HW1 6641   2.864   2.886   6.932
 1914SOL    HW2 6642   2.854   2.841   0.067
 1915SOL     OW 6643   3.497   1.392   5.379
 1915SOL    HW1 6644   3.478   1.295   5.395
 1915SOL    HW2 6645   3.577   1.401   5.319
 1916SOL     OW 6646   3.723   5.756   0.611
 1916SOL    HW1 6647   3.630   5.791   0.614
 1916SOL    HW2 6648   3.721   5.656   0.618
 1917SOL     OW 6649   4.074   3.403   4.503
 1917SOL    HW1 6650   4.124   3.349   4.436
 1917SOL    HW2 6651   4.040   3.487   4.461
 1918SOL     OW 6652   6.825   6.645   6.809
 1918SOL    HW1 6653   6.809   6.743   6.803
 1918SOL    HW2 6654   6.771   6.597   6.739
 1919SOL     OW 6655   1.405   6.456   2.433
 1919SOL    HW1 6656   1.386   6.377   2.491
 1919SOL    HW2 6657   1.424   6.426   2.340
 1920SOL     OW 6658   0.519   4.941   3.641
 1920SOL    HW1 6659   0.494   4.966   3.547
 1920SOL    HW2 6660   0.483   5.010   3.704
 1921SOL     OW 6661   0.939   4.248   0.460
 1921SOL    HW1 6662   1.004   4.308   0.506
 1921SOL    HW2 6663   0.937   4.269   0.363
 1922SOL     OW 6664   3.722   4.002   1.430
 1922SOL    HW1 6665   3.783   3.963   1.361
 1922SOL    HW2 6666   3.777   4.049   1.499
 1923SOL     OW 6667   2.932   0.674   0.119
 1923SOL    HW1 6668   2.975   0.665   0.029
 1923SOL    HW2 6669   2.976   0.748   0.170
 1924SOL     OW 6670   5.503   5.538   2.388
 1924SOL    HW1 6671   5.427   5.491   2.433
 1924SOL    HW2 6672   5.535   5.484   2.311
 1925SOL     OW 6673   2.907   3.520   1.879
 1925SOL    HW1 6674   3.006   3.522   1.863
 1925SOL    HW2 6675   2.888   3.560   1.969
 1926SOL     OW 6676   1.073   6.973   4.100
 1926SOL    HW1 6677   1.042   6.887   4.061
 1926SOL    HW2 6678   1.026   6.990   4.187
 1927SOL     OW 6679   3.207   5.206   6.416
 1927SOL    HW1 6680   3.165   5.244   6.335
 1927SOL    HW2 6681   3.199   5.106   6.414
 1928SOL     OW 6682   6.788   3.316   6.058
 1928SOL    HW1 6683   6.787   3.245   6.127
 1928SOL    HW2 6684   6.694   3.341   6.033
 1929SOL     OW 6685   0.617   5.890   1.161
 1929SOL    HW1 6686   0.664   5.953   1.224
 1929SOL    HW2 6687   0.671   5.880   1.078
 1930SOL     OW 6688   3.937   4.356   6.960
 1930SOL    HW1 6689   3.936   4.281   6.895
 1930SOL    HW2 6690   3.961   4.321   0.029
 1931SOL     OW 6691   0.359   3.305   3.875
 1931SOL    HW1 6692   0.425   3.235   3.847
 1931SOL    HW2 6693   0.317   3.279   3.962
 1932SOL     OW 6694   5.056   4.187   2.303
 1932SOL    HW1 6695   5.043   4.152   2.210
 1932SOL    HW2 6696   5.120   4.127   2.352
 1933SOL     OW 6697   3.036   4.443   0.475
 1933SOL    HW1 6698   3.007   4.485   0.561
 1933SOL    HW2 6699   3.082   4.357   0.494
 1934SOL     OW 6700   0.334   0.617   5.517
 1934SOL    HW1 6701   0.251   0.669   5.537
 1934SOL    HW2 6702   0.316   0.550   5.445
 1935SOL     OW 6703   3.515   0.380   5.085
 1935SOL    HW1 6704   3.461   0.301   5.056
 1935SOL    HW2 6705   3.468   0.465   5.059
 1936SOL     OW 6706   6.086   3.904   4.034
 1936SOL    HW1 6707   5.988   3.902   4.015
 1936SOL    HW2 6708   6.136   3.894   3.948
 1937SOL     OW 6709   4.396   6.363   1.103
 1937SOL    HW1 6710   4.450   6.396   1.026
 1937SOL    HW2 6711   4.315   6.421   1.115
 1938SOL     OW 6712   3.999   1.282   2.879
 1938SOL    HW1 6713   4.066   1.318   2.815
 1938SOL    HW2 6714   3.909   1.278   2.836
 1939SOL     OW 6715   0.308   6.442   4.637
 1939SOL    HW1 6716   0.368   6.498   4.695
 1939SOL    HW2 6717   0.261   6.374   4.694
 1940SOL     OW 6718   5.047   4.857   6.111
 1940SOL    HW1 6719   5.098   4.792   6.167
 1940SOL    HW2 6720   5.055   4.949   6.149
 1941SOL     OW 6721   0.305   3.758   3.398
 1941SOL    HW1 6722   0.340   3.679   3.449
 1941SOL    HW2 6723   0.249   3.726   3.321
 1942SOL     OW 6724   6.296   0.605   3.177
 1942SOL    HW1 6725   6.224   0.620   3.245
 1942SOL    HW2 6726   6.276   0.658   3.095
 1943SOL     OW 6727   3.206   6.047   2.594
 1943SOL    HW1 6728   3.246   6.002   2.514
 1943SOL    HW2 6729   3.128   6.102   2.565
 1944SOL     OW 6730   5.208   2.390   6.571
 1944SOL    HW1 6731   5.260   2.322   6.623
 1944SOL    HW2 6732   5.195   2.358   6.477
 1945SOL     OW 6733   3.934   5.868   2.531
 1945SOL    HW1 6734   3.922   5.908   2.622
 1945SOL    HW2 6735   4.031   5.874   2.505
 1946SOL     OW 6736   6.139   0.812   0.780
 1946SOL    HW1 6737   6.046   0.775   0.786
 1946SOL    HW2 6738   6.199   0.761   0.840
 1947SOL     OW 6739   4.866   6.682   4.074
 1947SOL    HW1 6740   4.961   6.708   4.060
 1947SOL    HW2 6741   4.817   6.756   4.120
 1948SOL     OW 6742   6.231   5.878   4.118
 1948SOL    HW1 6743   6.307   5.923   4.070
 1948SOL    HW2 6744   6.253   5.782   4.133
 1949SOL     OW 6745   4.563   4.459   5.742
 1949SOL    HW1 6746   4.588   4.507   5.658
 1949SOL    HW2 6747   4.579   4.361   5.731
 1950SOL     OW 6748   3.388   4.107   1.168
 1950SOL    HW1 6749   3.425   4.183   1.115
 1950SOL    HW2 6750   3.291   4.096   1.146
 1951SOL     OW 6751   6.341   3.845   0.910
 1951SOL    HW1 6752   6.412   3.912   0.933
 1951SOL    HW2 6753   6.383   3.761   0.878
 1952SOL     OW 6754   3.658   2.500   0.285
 1952SOL    HW1 6755   3.651   2.400   0.286
 1952SOL    HW2 6756   3.742   2.526   0.238
 1953SOL     OW 6757   6.582   2.924   0.253
 1953SOL    HW1 6758   6.640   2.842   0.254
 1953SOL    HW2 6759   6.490   2.898   0.222
 1954SOL     OW 6760   5.632   1.013   4.027
 1954SOL    HW1 6761   5.581   1.064   4.096
 1954SOL    HW2 6762   5.609   0.916   4.035
 1955SOL     OW 6763   1.790   1.220   2.647
 1955SOL    HW1 6764   1.869   1.265   2.604
 1955SOL    HW2 6765   1.816   1.187   2.738
 1956SOL     OW 6766   5.857   0.475   2.598
 1956SOL    HW1 6767   5.939   0.418   2.595
 1956SOL    HW2 6768   5.779   0.420   2.626
 1957SOL     OW 6769   6.611   5.477   4.999
 1957SOL    HW1 6770   6.630   5.383   5.027
 1957SOL    HW2 6771   6.550   5.520   5.066
 1958SOL     OW 6772   6.083   2.848   3.508
 1958SOL    HW1 6773   6.021   2.894   3.572
 1958SOL    HW2 6774   6.048   2.859   3.415
 1959SOL     OW 6775   0.413   1.588   6.054
 1959SOL    HW1 6776   0.401   1.566   6.151
 1959SOL    HW2 6777   0.379   1.680   6.037
 1960SOL     OW 6778   6.918   4.063   0.875
 1960SOL    HW1 6779   6.967   3.983   0.910
 1960SOL    HW2 6780   6.839   4.082   0.934
 1961SOL     OW 6781   6.099   4.785   4.388
 1961SOL    HW1 6782   6.021   4.724   4.400
 1961SOL    HW2 6783   6.074   4.877   4.418
 1962SOL     OW 6784   2.670   6.536   3.399
 1962SOL    HW1 6785   2.724   6.535   3.314
 1962SOL    HW2 6786   2.650   6.442   3.427
 1963SOL     OW 6787   0.693   0.872   1.270
 1963SOL    HW1 6788   0.678   0.829   1.359
 1963SOL    HW2 6789   0.699   0.971   1.281
 1964SOL     OW 6790   4.331   3.025   1.687
 1964SOL    HW1 6791   4.411   3.032   1.746
 1964SOL    HW2 6792   4.345   3.078   1.604
 1965SOL     OW 6793   0.889   3.509   3.548
 1965SOL    HW1 6794   0.884   3.493   3.646
 1965SOL    HW2 6795   0.816   3.459   3.502
 1966SOL     OW 6796   6.944   5.806   5.647
 1966SOL    HW1 6797   6.933   5.806   5.746
 1966SOL    HW2 6798   6.871   5.860   5.605
 1967SOL     OW 6799   4.730   2.372   4.869
 1967SOL    HW1 6800   4.637   2.391   4.902
 1967SOL    HW2 6801   4.731   2.284   4.821
 1968SOL     OW 6802   3.361   6.126   0.359
 1968SOL    HW1 6803   3.315   6.171   0.284
 1968SOL    HW2 6804   3.382   6.031   0.333
 1969SOL     OW 6805   0.783   1.907   1.652
 1969SOL    HW1 6806   0.710   1.949   1.706
 1969SOL    HW2 6807   0.794   1.812   1.679
 1970SOL     OW 6808   2.301   0.251   5.957
 1970SOL    HW1 6809   2.260   0.160   5.959
 1970SOL    HW2 6810   2.400   0.244   5.970
 1971SOL     OW 6811   6.740   0.111   6.475
 1971SOL    HW1 6812   6.689   0.174   6.417
 1971SOL    HW2 6813   6.835   0.141   6.482
 1972SOL     OW 6814   5.866   2.412   2.975
 1972SOL    HW1 6815   5.961   2.417   3.003
 1972SOL    HW2 6816   5.825   2.503   2.980
 1973SOL     OW 6817   2.319   3.507   0.417
 1973SOL    HW1 6818   2.413   3.524   0.449
 1973SOL    HW2 6819   2.281   3.429   0.467
 1974SOL     OW 6820   6.214   6.339   4.201
 1974SOL    HW1 6821   6.267   6.348   4.117
 1974SOL    HW2 6822   6.181   6.429   4.229
 1975SOL     OW 6823   2.554   1.526   2.941
 1975SOL    HW1 6824   2.632   1.464   2.935
 1975SOL    HW2 6825   2.504   1.525   2.854
 1976SOL     OW 6826   0.378   5.723   0.039
 1976SOL    HW1 6827   0.381   5.623   0.036
 1976SOL    HW2 6828   0.313   5.757   6.993
 1977SOL     OW 6829   1.147   3.499   3.474
 1977SOL    HW1 6830   1.058   3.515   3.516
 1977SOL    HW2 6831   1.167   3.401   3.474
 1978SOL     OW 6832   0.703   1.244   3.608
 1978SOL    HW1 6833   0.735   1.269   3.699
 1978SOL    HW2 6834   0.761   1.171   3.571
 1979SOL     OW 6835   6.194   4.194   5.486
 1979SOL    HW1 6836   6.272   4.134   5.503
 1979SOL    HW2 6837   6.138   4.155   5.413
 1980SOL     OW 6838   2.790   0.742   6.179
 1980SOL    HW1 6839   2.725   0.771   6.109
 1980SOL    HW2 6840   2.756   0.771   6.269
 1981SOL     OW 6841   6.606   2.391   2.541
 1981SOL    HW1 6842   6.632   2.481   2.506
 1981SOL    HW2 6843   6.510   2.372   2.516
 1982SOL     OW 6844   0.271   4.033   5.203
 1982SOL    HW1 6845   0.310   4.037   5.295
 1982SOL    HW2 6846   0.201   4.104   5.194
 1983SOL     OW 6847   0.715   1.323   2.974
 1983SOL    HW1 6848   0.705   1.242   3.032
 1983SOL    HW2 6849   0.799   1.371   2.998
 1984SOL     OW 6850   5.467   1.289   4.575
 1984SOL    HW1 6851   5.485   1.296   4.477
 1984SOL    HW2 6852   5.445   1.195   4.598
 1985SOL     OW 6853   1.082   6.961   2.423
 1985SOL    HW1 6854   1.000   6.907   2.443
 1985SOL    HW2 6855   1.141   6.964   2.503
 1986SOL     OW 6856   1.428   0.358   6.781
 1986SOL    HW1 6857   1.336   0.388   6.755
 1986SOL    HW2 6858   1.422   0.269   6.826
 1987SOL     OW 6859   1.085   2.937   0.826
 1987SOL    HW1 6860   1.165   2.893   0.785
 1987SOL    HW2 6861   1.081   2.917   0.923
 1988SOL     OW 6862   5.170   5.088   1.082
 1988SOL    HW1 6863   5.143   5.001   1.123
 1988SOL    HW2 6864   5.095   5.124   1.027
 1989SOL     OW 6865   2.032   6.636   4.851
 1989SOL    HW1 6866   2.058   6.728   4.882
 1989SOL    HW2 6867   2.095   6.569   4.890
 1990SOL     OW 6868   3.075   6.449   0.681
 1990SOL    HW1 6869   2.993   6.396   0.701
 1990SOL    HW2 6870   3.145   6.390   0.642
 1991SOL     OW 6871   4.041   5.106   6.306
 1991SOL    HW1 6872   4.137   5.098   6.334
 1991SOL    HW2 6873   4.034   5.166   6.227
 1992SOL     OW 6874   0.513   0.107   6.676
 1992SOL    HW1 6875   0.448   0.175   6.643
 1992SOL    HW2 6876   0.592   0.103   6.615
 1993SOL     OW 6877   3.789   3.631   4.386
 1993SOL    HW1 6878   3.811   3.620   4.483
 1993SOL    HW2 6879   3.762   3.542   4.348
 1994SOL     OW 6880   1.386   2.000   0.464
 1994SOL    HW1 6881   1.346   2.069   0.405
 1994SOL    HW2 6882   1.313   1.952   0.513
 1995SOL     OW 6883   6.270   2.148   2.075
 1995SOL    HW1 6884   6.309   2.067   2.119
 1995SOL    HW2 6885   6.322   2.170   1.993
 1996SOL     OW 6886   2.654   3.944   0.866
 1996SOL    HW1 6887   2.705   3.891   0.798
 1996SOL    HW2 6888   2.567   3.973   0.826
 1997SOL     OW 6889   4.650   0.416   5.207
 1997SOL    HW1 6890   4.690   0.334   5.247
 1997SOL    HW2 6891   4.559   0.396   5.173
 1998SOL     OW 6892   3.238   3.746   6.266
 1998SOL    HW1 6893   3.206   3.699   6.348
 1998SOL    HW2 6894   3.331   3.715   6.245
 1999SOL     OW 6895   3.360   6.556   1.534
 1999SOL    HW1 6896   3.358   6.483   1.602
 1999SOL    HW2 6897   3.406   6.523   1.451
 2000SOL     OW 6898   4.160   2.017   5.217
 2000SOL    HW1 6899   4.216   2.025   5.300
 2000SOL    HW2 6900   4.204   1.953   5.154
 2001SOL     OW 6901   3.424   1.637   1.864
 2001SOL    HW1 6902   3.432   1.559   1.802
 2001SOL    HW2 6903   3.351   1.698   1.831
 2002SOL     OW 6904   1.083   4.956   6.004
 2002SOL    HW1 6905   1.149   5.011   5.954
 2002SOL    HW2 6906   1.019   5.016   6.052
 2003SOL     OW 6907   6.287   6.690   3.442
 2003SOL    HW1 6908   6.385   6.683   3.427
 2003SOL    HW2 6909   6.268   6.766   3.504
 2004SOL     OW 6910   4.272   1.569   5.202
 2004SOL    HW1 6911   4.188   1.532   5.163
 2004SOL    HW2 6912   4.249   1.643   5.266
 2005SOL     OW 6913   0.936   4.517   6.656
 2005SOL    HW1 6914   0.964   4.579   6.730
 2005SOL    HW2 6915   0.960   4.423   6.682
 2006SOL     OW 6916   5.670   4.780   4.269
 2006SOL    HW1 6917   5.666   4.855   4.203
 2006SOL    HW2 6918   5.755   4.786   4.322
 2007SOL     OW 6919   4.102   4.843   0.943
 2007SOL    HW1 6920   4.129   4.876   1.034
 2007SOL    HW2 6921   4.121   4.913   0.875
 2008SOL     OW 6922   1.339   5.637   2.916
 2008SOL    HW1 6923   1.352   5.723   2.867
 2008SOL    HW2 6924   1.284   5.575   2.860
 2009SOL     OW 6925   6.134   0.061   1.528
 2009SOL    HW1 6926   6.157   0.011   1.445
 2009SOL    HW2 6927   6.068   0.133   1.506
 2010SOL     OW 6928   1.786   1.713   1.394
 2010SOL    HW1 6929   1.832   1.676   1.474
 2010SOL    HW2 6930   1.848   1.776   1.347
 2011SOL     OW 6931   6.521   1.271   5.139
 2011SOL    HW1 6932   6.440   1.328   5.128
 2011SOL    HW2 6933   6.584   1.288   5.063
 2012SOL     OW 6934   1.479   2.823   1.666
 2012SOL    HW1 6935   1.533   2.831   1.749
 2012SOL    HW2 6936   1.407   2.892   1.667
 2013SOL     OW 6937   6.041   0.948   3.090
 2013SOL    HW1 6938   6.045   0.939   3.190
 2013SOL    HW2 6939   5.955   0.990   3.063
 2014SOL     OW 6940   2.010   5.328   3.062
 2014SOL    HW1 6941   1.969   5.415   3.090
 2014SOL    HW2 6942   1.978   5.304   2.970
 2015SOL     OW 6943   2.350   2.236   0.638
 2015SOL    HW1 6944   2.259   2.275   0.653
 2015SOL    HW2 6945   2.342   2.152   0.586
 2016SOL     OW 6946   1.131   5.335   5.087
 2016SOL    HW1 6947   1.122   5.236   5.099
 2016SOL    HW2 6948   1.228   5.358   5.075
 2017SOL     OW 6949   2.464   6.832   4.473
 2017SOL    HW1 6950   2.529   6.901   4.441
 2017SOL    HW2 6951   2.489   6.743   4.436
 2018SOL     OW 6952   5.804   0.002   6.314
 2018SOL    HW1 6953   5.844   6.932   6.320
 2018SOL    HW2 6954   5.744   0.007   6.234
 2019SOL     OW 6955   5.013   2.426   2.342
 2019SOL    HW1 6956   5.081   2.412   2.270
 2019SOL    HW2 6957   4.945   2.353   2.338
 2020SOL     OW 6958   0.810   5.454   5.375
 2020SOL    HW1 6959   0.893   5.464   5.430
 2020SOL    HW2 6960   0.788   5.542   5.332
 2021SOL     OW 6961   2.265   5.368   3.098
 2021SOL    HW1 6962   2.324   5.354   3.019
 2021SOL    HW2 6963   2.171   5.342   3.074
 2022SOL     OW 6964   1.777   3.341   3.203
 2022SOL    HW1 6965   1.861   3.325   3.254
 2022SOL    HW2 6966   1.757   3.261   3.146
 2023SOL     OW 6967   6.315   1.206   6.513
 2023SOL    HW1 6968   6.338   1.243   6.423
 2023SOL    HW2 6969   6.218   1.222   6.532
 2024SOL     OW 6970   6.885   6.989   3.104
 2024SOL    HW1 6971   6.907   6.996   3.201
 2024SOL    HW2 6972   6.838   0.049   3.074
 2025SOL     OW 6973   2.365   2.710   2.154
 2025SOL    HW1 6974   2.448   2.662   2.127
 2025SOL    HW2 6975   2.296   2.703   2.082
 2026SOL     OW 6976   1.090   2.602   6.081
 2026SOL    HW1 6977   1.095   2.643   5.990
 2026SOL    HW2 6978   1.133   2.663   6.148
 2027SOL     OW 6979   0.883   1.532   0.600
 2027SOL    HW1 6980   0.836   1.491   0.678
 2027SOL    HW2 6981   0.870   1.475   0.519
 2028SOL     OW 6982   2.857   1.290   6.016
 2028SOL    HW1 6983   2.908   1.225   5.960
 2028SOL    HW2 6984   2.773   1.248   6.049
 2029SOL     OW 6985   6.964   0.858   0.824
 2029SOL    HW1 6986   0.027   0.825   0.865
 2029SOL    HW2 6987   6.886   0.813   0.868
 2030SOL     OW 6988   2.376   0.724   3.383
 2030SOL    HW1 6989   2.470   0.705   3.356
 2030SOL    HW2 6990   2.375   0.799   3.450
 2031SOL     OW 6991   5.764   6.303   2.085
 2031SOL    HW1 6992   5.837   6.358   2.044
 2031SOL    HW2 6993   5.719   6.356   2.157
 2032SOL     OW 6994   4.111   6.796   1.926
 2032SOL    HW1 6995   4.170   6.830   1.999
 2032SOL    HW2 6996   4.023   6.843   1.930
 2033SOL     OW 6997   3.765   3.938   6.678
 2033SOL    HW1 6998   3.731   3.852   6.716
 2033SOL    HW2 6999   3.691   3.987   6.633
 2034SOL     OW 7000   3.271   6.709   4.309
 2034SOL    HW1 7001   3.177   6.712   4.275
 2034SOL    HW2 7002   3.308   6.617   4.300
 2035SOL     OW 7003   0.275   0.425   2.092
 2035SOL    HW1 7004   0.287   0.494   2.163
 2035SOL    HW2 7005   0.221   0.349   2.127
 2036SOL     OW 7006   1.190   5.445   2.813
 2036SOL    HW1 7007   1.218   5.360   2.858
 2036SOL    HW2 7008   1.144   5.424   2.727
 2037SOL     OW 7009   0.682   3.022   5.933
 2037SOL    HW1 7010   0.761   3.079   5.956
 2037SOL    HW2 7011   0.712   2.946   5.875
 2038SOL     OW 7012   1.730   2.056   7.014
 2038SOL    HW1 7013   1.691   2.105   0.070
 2038SOL    HW2 7014   1.830   2.067   7.015
 2039SOL     OW 7015   0.358   5.246   2.852
 2039SOL    HW1 7016   0.329   5.179   2.920
 2039SOL    HW2 7017   0.400   5.199   2.774
 2040SOL     OW 7018   4.081   3.142   5.260
 2040SOL    HW1 7019   4.101   3.050   5.295
 2040SOL    HW2 7020   3.994   3.140   5.211
 2041SOL     OW 7021   6.575   5.713   6.004
 2041SOL    HW1 7022   6.491   5.729   6.056
 2041SOL    HW2 7023   6.597   5.615   6.005
 2042SOL     OW 7024   5.957   4.645   0.028
 2042SOL    HW1 7025   5.875   4.693   7.019
 2042SOL    HW2 7026   6.031   4.661   6.985
 2043SOL     OW 7027   6.507   4.318   2.968
 2043SOL    HW1 7028   6.497   4.376   2.887
 2043SOL    HW2 7029   6.422   4.266   2.982
 2044SOL     OW 7030   5.078   6.999   1.570
 2044SOL    HW1 7031   5.028   6.912   1.571
 2044SOL    HW2 7032   5.060   0.024   1.484
 2045SOL     OW 7033   2.759   4.817   4.139
 2045SOL    HW1 7034   2.741   4.770   4.225
 2045SOL    HW2 7035   2.734   4.758   4.063
 2046SOL     OW 7036   0.249   1.471   3.990
 2046SOL    HW1 7037   0.266   1.554   4.042
 2046SOL    HW2 7038   0.334   1.440   3.947
 2047SOL     OW 7039   5.277   2.337   0.209
 2047SOL    HW1 7040   5.310   2.431   0.203
 2047SOL    HW2 7041   5.352   2.278   0.240
 2048SOL     OW 7042   1.524   5.799   0.453
 2048SOL    HW1 7043   1.620   5.816   0.477
 2048SOL    HW2 7044   1.471   5.783   0.536
 2049SOL     OW 7045   5.023   1.754   6.407
 2049SOL    HW1 7046   4.950   1.786   6.346
 2049SOL    HW2 7047   5.022   1.809   6.490
 2050SOL     OW 7048   0.621   3.121   2.765
 2050SOL    HW1 7049   0.619   3.026   2.797
 2050SOL    HW2 7050   0.563   3.177   2.823
 2051SOL     OW 7051   1.062   6.020   1.103
 2051SOL    HW1 7052   1.029   5.932   1.135
 2051SOL    HW2 7053   0.989   6.089   1.112
 2052SOL     OW 7054   0.776   4.191   0.910
 2052SOL    HW1 7055   0.725   4.162   0.990
 2052SOL    HW2 7056   0.865   4.147   0.909
 2053SOL     OW 7057   5.574   6.836   5.196
 2053SOL    HW1 7058   5.610   6.927   5.174
 2053SOL    HW2 7059   5.474   6.837   5.186
 2054SOL     OW 7060   4.109   3.397   2.060
 2054SOL    HW1 7061   4.127   3.342   2.142
 2054SOL    HW2 7062   4.118   3.494   2.083
 2055SOL     OW 7063   6.218   3.298   3.383
 2055SOL    HW1 7064   6.165   3.251   3.313
 2055SOL    HW2 7065   6.228   3.239   3.463
 2056SOL     OW 7066   2.295   0.217   3.057
 2056SOL    HW1 7067   2.367   0.156   3.089
 2056SOL    HW2 7068   2.206   0.181   3.085
 2057SOL     OW 7069   5.540   3.369   3.732
 2057SOL    HW1 7070   5.619   3.320   3.770
 2057SOL    HW2 7071   5.464   3.304   3.719
 2058SOL     OW 7072   0.775   1.785   3.121
 2058SOL    HW1 7073   0.787   1.885   3.125
 2058SOL    HW2 7074   0.745   1.759   3.030
 2059SOL     OW 7075   2.656   6.079   6.144
 2059SOL    HW1 7076   2.642   6.011   6.216
 2059SOL    HW2 7077   2.747   6.068   6.105
 2060SOL     OW 7078   5.758   4.759   0.911
 2060SOL    HW1 7079   5.814   4.694   0.964
 2060SOL    HW2 7080   5.808   4.786   0.829
 2061SOL     OW 7081   0.485   2.128   2.976
 2061SOL    HW1 7082   0.434   2.070   3.040
 2061SOL    HW2 7083   0.561   2.075   2.937
 2062SOL     OW 7084   6.172   6.934   3.520
 2062SOL    HW1 7085   6.218   6.998   3.583
 2062SOL    HW2 7086   6.084   6.907   3.559
 2063SOL     OW 7087   1.718   6.973   6.403
 2063SOL    HW1 7088   1.770   7.014   6.329
 2063SOL    HW2 7089   1.775   6.966   6.485
 2064SOL     OW 7090   0.769   2.777   5.769
 2064SOL    HW1 7091   0.795   2.680   5.762
 2064SOL    HW2 7092   0.670   2.786   5.762
 2065SOL     OW 7093   6.690   2.635   4.586
 2065SOL    HW1 7094   6.707   2.721   4.634
 2065SOL    HW2 7095   6.755   2.626   4.511
 2066SOL     OW 7096   1.026   5.730   3.276
 2066SOL    HW1 7097   0.944   5.710   3.329
 2066SOL    HW2 7098   1.014   5.698   3.183
 2067SOL     OW 7099   6.829   5.325   0.794
 2067SOL    HW1 7100   6.922   5.336   0.758
 2067SOL    HW2 7101   6.795   5.414   0.823
 2068SOL     OW 7102   1.435   1.438   5.329
 2068SOL    HW1 7103   1.516   1.497   5.338
 2068SOL    HW2 7104   1.380   1.444   5.413
 2069SOL     OW 7105   1.092   3.430   2.980
 2069SOL    HW1 7106   1.029   3.352   2.985
 2069SOL    HW2 7107   1.147   3.434   3.063
 2070SOL     OW 7108   1.404   0.644   1.932
 2070SOL    HW1 7109   1.475   0.576   1.948
 2070SOL    HW2 7110   1.390   0.698   2.016
 2071SOL     OW 7111   5.662   5.955   5.380
 2071SOL    HW1 7112   5.711   5.913   5.303
 2071SOL    HW2 7113   5.609   5.885   5.428
 2072SOL     OW 7114   4.298   0.181   2.861
 2072SOL    HW1 7115   4.198   0.172   2.860
 2072SOL    HW2 7116   4.323   0.275   2.885
 2073SOL     OW 7117   4.011   6.697   4.536
 2073SOL    HW1 7118   4.098   6.659   4.503
 2073SOL    HW2 7119   4.022   6.794   4.556
 2074SOL     OW 7120   1.632   3.072   0.468
 2074SOL    HW1 7121   1.593   2.990   0.427
 2074SOL    HW2 7122   1.731   3.059   0.480
 2075SOL     OW 7123   5.526   3.096   1.295
 2075SOL    HW1 7124   5.531   3.194   1.274
 2075SOL    HW2 7125   5.561   3.044   1.217
 2076SOL     OW 7126   5.399   0.021   6.664
 2076SOL    HW1 7127   5.308   0.027   6.623
 2076SOL    HW2 7128   5.401   6.966   6.728
 2077SOL     OW 7129   5.696   2.838   2.441
 2077SOL    HW1 7130   5.637   2.760   2.419
 2077SOL    HW2 7131   5.644   2.923   2.429
 2078SOL     OW 7132   1.141   5.434   6.198
 2078SOL    HW1 7133   1.141   5.517   6.254
 2078SOL    HW2 7134   1.235   5.406   6.180
 2079SOL     OW 7135   5.228   2.084   3.684
 2079SOL    HW1 7136   5.266   2.109   3.596
 2079SOL    HW2 7137   5.301   2.082   3.753
 2080SOL     OW 7138   1.701   0.815   4.653
 2080SOL    HW1 7139   1.646   0.855   4.727
 2080SOL    HW2 7140   1.654   0.734   4.617
 2081SOL     OW 7141   1.388   5.355   3.966
 2081SOL    HW1 7142   1.441   5.431   4.004
 2081SOL    HW2 7143   1.293   5.363   3.995
 2082SOL     OW 7144   0.199   6.997   3.428
 2082SOL    HW1 7145   0.226   0.009   3.338
 2082SOL    HW2 7146   0.102   6.971   3.427
 2083SOL     OW 7147   6.126   4.787   6.531
 2083SOL    HW1 7148   6.160   4.856   6.595
 2083SOL    HW2 7149   6.196   4.768   6.463
 2084SOL     OW 7150   1.396   3.596   4.049
 2084SOL    HW1 7151   1.396   3.689   4.086
 2084SOL    HW2 7152   1.488   3.573   4.017
 2085SOL     OW 7153   4.462   0.584   6.653
 2085SOL    HW1 7154   4.372   0.547   6.677
 2085SOL    HW2 7155   4.495   0.642   6.728
 2086SOL     OW 7156   4.002   6.786   5.709
 2086SOL    HW1 7157   3.948   6.772   5.792
 2086SOL    HW2 7158   4.099   6.767   5.728
 2087SOL     OW 7159   4.990   0.498   1.419
 2087SOL    HW1 7160   4.992   0.557   1.500
 2087SOL    HW2 7161   4.946   0.546   1.343
 2088SOL     OW 7162   2.773   6.118   0.163
 2088SOL    HW1 7163   2.729   6.030   0.145
 2088SOL    HW2 7164   2.741   6.186   0.097
 2089SOL     OW 7165   5.568   2.274   6.370
 2089SOL    HW1 7166   5.563   2.217   6.452
 2089SOL    HW2 7167   5.571   2.215   6.289
 2090SOL     OW 7168   3.559   3.129   5.836
 2090SOL    HW1 7169   3.618   3.061   5.792
 2090SOL    HW2 7170   3.463   3.109   5.816
 2091SOL     OW 7171   6.922   5.687   0.765
 2091SOL    HW1 7172   6.973   5.697   0.851
 2091SOL    HW2 7173   6.985   5.685   0.688
 2092SOL     OW 7174   5.694   4.393   0.024
 2092SOL    HW1 7175   5.620   4.352   0.077
 2092SOL    HW2 7176   5.657   4.466   6.989
 2093SOL     OW 7177   2.441   2.017   1.396
 2093SOL    HW1 7178   2.519   1.990   1.453
 2093SOL    HW2 7179   2.464   2.099   1.344
 2094SOL     OW 7180   5.683   1.936   1.244
 2094SOL    HW1 7181   5.653   1.890   1.328
 2094SOL    HW2 7182   5.612   1.928   1.174
 2095SOL     OW 7183   5.643   6.939   4.713
 2095SOL    HW1 7184   5.726   6.961   4.661
 2095SOL    HW2 7185   5.615   7.019   4.766
 2096SOL     OW 7186   4.746   4.384   2.517
 2096SOL    HW1 7187   4.762   4.308   2.580
 2096SOL    HW2 7188   4.833   4.410   2.474
 2097SOL     OW 7189   2.763   2.915   6.633
 2097SOL    HW1 7190   2.813   2.839   6.592
 2097SOL    HW2 7191   2.672   2.883   6.661
 2098SOL     OW 7192   4.247   5.975   2.730
 2098SOL    HW1 7193   4.168   5.957   2.789
 2098SOL    HW2 7194   4.328   5.931   2.769
 2099SOL     OW 7195   2.269   3.139   5.989
 2099SOL    HW1 7196   2.328   3.203   5.939
 2099SOL    HW2 7197   2.212   3.089   5.925
 2100SOL     OW 7198   4.312   2.582   6.202
 2100SOL    HW1 7199   4.250   2.559   6.127
 2100SOL    HW2 7200   4.404   2.596   6.166
 2101SOL     OW 7201   1.310   6.188   2.545
 2101SOL    HW1 7202   1.294   6.135   2.462
 2101SOL    HW2 7203   1.233   6.176   2.607
 2102SOL     OW 7204   6.729   4.729   2.102
 2102SOL    HW1 7205   6.715   4.821   2.065
 2102SOL    HW2 7206   6.818   4.724   2.147
 2103SOL     OW 7207   4.107   4.632   5.668
 2103SOL    HW1 7208   4.185   4.580   5.634
 2103SOL    HW2 7209   4.077   4.595   5.756
 2104SOL     OW 7210   2.259   3.731   1.060
 2104SOL    HW1 7211   2.339   3.731   1.120
 2104SOL    HW2 7212   2.198   3.806   1.086
 2105SOL     OW 7213   5.123   5.799   5.515
 2105SOL    HW1 7214   5.031   5.834   5.535
 2105SOL    HW2 7215   5.123   5.753   5.427
 2106SOL     OW 7216   4.520   4.067   1.227
 2106SOL    HW1 7217   4.594   4.003   1.248
 2106SOL    HW2 7218   4.551   4.161   1.241
 2107SOL     OW 7219   4.888   2.219   5.251
 2107SOL    HW1 7220   4.948   2.165   5.311
 2107SOL    HW2 7221   4.943   2.268   5.184
 2108SOL     OW 7222   6.543   6.022   5.132
 2108SOL    HW1 7223   6.539   5.927   5.163
 2108SOL    HW2 7224   6.457   6.068   5.155
 2109SOL     OW 7225   4.313   6.332   2.353
 2109SOL    HW1 7226   4.268   6.327   2.442
 2109SOL    HW2 7227   4.259   6.389   2.291
 2110SOL     OW 7228   2.554   1.815   0.046
 2110SOL    HW1 7229   2.493   1.866   7.008
 2110SOL    HW2 7230   2.515   1.724   0.063
 2111SOL     OW 7231   1.220   2.508   6.923
 2111SOL    HW1 7232   1.189   2.508   6.828
 2111SOL    HW2 7233   1.200   2.419   6.965
 2112SOL     OW 7234   5.220   3.481   0.362
 2112SOL    HW1 7235   5.290   3.415   0.388
 2112SOL    HW2 7236   5.223   3.497   0.263
 2113SOL     OW 7237   1.875   2.135   5.384
 2113SOL    HW1 7238   1.936   2.063   5.352
 2113SOL    HW2 7239   1.924   2.222   5.386
 2114SOL     OW 7240   1.540   2.414   0.186
 2114SOL    HW1 7241   1.473   2.487   0.178
 2114SOL    HW2 7242   1.559   2.375   0.096
 2115SOL     OW 7243   2.043   3.556   2.730
 2115SOL    HW1 7244   2.092   3.495   2.667
 2115SOL    HW2 7245   1.980   3.502   2.785
 2116SOL     OW 7246   0.053   5.054   2.981
 2116SOL    HW1 7247   7.004   5.001   3.027
 2116SOL    HW2 7248   0.074   5.012   2.893
 2117SOL     OW 7249   6.921   5.410   1.685
 2117SOL    HW1 7250   6.883   5.323   1.717
 2117SOL    HW2 7251   6.885   5.484   1.742
 2118SOL     OW 7252   5.923   3.634   1.887
 2118SOL    HW1 7253   5.924   3.656   1.789
 2118SOL    HW2 7254   6.015   3.610   1.917
 2119SOL     OW 7255   1.487   6.133   0.966
 2119SOL    HW1 7256   1.439   6.175   1.044
 2119SOL    HW2 7257   1.431   6.060   0.928
 2120SOL     OW 7258   6.412   5.267   4.130
 2120SOL    HW1 7259   6.424   5.169   4.149
 2120SOL    HW2 7260   6.462   5.291   4.047
 2121SOL     OW 7261   1.365   4.183   5.721
 2121SOL    HW1 7262   1.394   4.153   5.812
 2121SOL    HW2 7263   1.395   4.116   5.653
 2122SOL     OW 7264   5.545   3.789   6.442
 2122SOL    HW1 7265   5.514   3.740   6.523
 2122SOL    HW2 7266   5.643   3.772   6.429
 2123SOL     OW 7267   6.438   6.049   1.974
 2123SOL    HW1 7268   6.525   6.099   1.967
 2123SOL    HW2 7269   6.446   5.962   1.926
 2124SOL     OW 7270   2.811   1.940   1.881
 2124SOL    HW1 7271   2.807   2.037   1.855
 2124SOL    HW2 7272   2.889   1.925   1.941
 2125SOL     OW 7273   1.837   0.472   2.133
 2125SOL    HW1 7274   1.830   0.542   2.204
 2125SOL    HW2 7275   1.926   0.479   2.089
 2126SOL     OW 7276   3.440   1.535   6.406
 2126SOL    HW1 7277   3.385   1.466   6.359
 2126SOL    HW2 7278   3.386   1.574   6.481
 2127SOL     OW 7279   0.416   3.555   4.632
 2127SOL    HW1 7280   0.337   3.513   4.676
 2127SOL    HW2 7281   0.468   3.485   4.583
 2128SOL     OW 7282   6.984   3.268   3.571
 2128SOL    HW1 7283   7.008   3.364   3.556
 2128SOL    HW2 7284   0.044   3.212   3.564
 2129SOL     OW 7285   4.214   3.768   5.227
 2129SOL    HW1 7286   4.188   3.763   5.130
 2129SOL    HW2 7287   4.188   3.682   5.272
 2130SOL     OW 7288   3.325   0.492   2.343
 2130SOL    HW1 7289   3.377   0.480   2.427
 2130SOL    HW2 7290   3.336   0.412   2.285
 2131SOL     OW 7291   5.571   0.633   1.006
 2131SOL    HW1 7292   5.610   0.599   1.091
 2131SOL    HW2 7293   5.607   0.579   0.929
 2132SOL     OW 7294   3.259   0.696   1.496
 2132SOL    HW1 7295   3.214   0.614   1.530
 2132SOL    HW2 7296   3.356   0.694   1.523
 2133SOL     OW 7297   3.198   2.924   0.739
 2133SOL    HW1 7298   3.278   2.884   0.783
 2133SOL    HW2 7299   3.215   2.934   0.641
 2134SOL     OW 7300   0.003   1.660   6.413
 2134SOL    HW1 7301   6.936   1.618   6.393
 2134SOL    HW2 7302   0.023   1.650   6.511
 2135SOL     OW 7303   1.418   3.430   4.434
 2135SOL    HW1 7304   1.349   3.365   4.465
 2135SOL    HW2 7305   1.408   3.516   4.483
 2136SOL     OW 7306   1.790   3.566   3.454
 2136SOL    HW1 7307   1.849   3.490   3.427
 2136SOL    HW2 7308   1.754   3.611   3.372
 2137SOL     OW 7309   2.869   5.260   5.004
 2137SOL    HW1 7310   2.873   5.355   4.974
 2137SOL    HW2 7311   2.783   5.245   5.054
 2138SOL     OW 7312   6.575   0.206   2.791
 2138SOL    HW1 7313   6.659   0.259   2.780
 2138SOL    HW2 7314   6.507   0.260   2.841
 2139SOL     OW 7315   3.836   0.527   3.752
 2139SOL    HW1 7316   3.749   0.577   3.755
 2139SOL    HW2 7317   3.902   0.578   3.698
 2140SOL     OW 7318   3.739   6.475   3.689
 2140SOL    HW1 7319   3.814   6.419   3.723
 2140SOL    HW2 7320   3.664   6.474   3.755
 2141SOL     OW 7321   6.723   3.661   2.313
 2141SOL    HW1 7322   6.705   3.653   2.411
 2141SOL    HW2 7323   6.795   3.597   2.287
 2142SOL     OW 7324   1.903   1.504   2.972
 2142SOL    HW1 7325   1.803   1.513   2.967
 2142SOL    HW2 7326   1.940   1.577   3.030
 2143SOL     OW 7327   3.299   4.409   1.491
 2143SOL    HW1 7328   3.208   4.406   1.534
 2143SOL    HW2 7329   3.350   4.488   1.527
 2144SOL     OW 7330   1.208   5.568   3.681
 2144SOL    HW1 7331   1.220   5.473   3.709
 2144SOL    HW2 7332   1.151   5.615   3.748
 2145SOL     OW 7333   4.632   6.222   3.907
 2145SOL    HW1 7334   4.552   6.251   3.855
 2145SOL    HW2 7335   4.647   6.124   3.895
 2146SOL     OW 7336   2.359   3.980   1.725
 2146SOL    HW1 7337   2.404   4.032   1.653
 2146SOL    HW2 7338   2.286   4.035   1.766
 2147SOL     OW 7339   6.479   1.150   5.705
 2147SOL    HW1 7340   6.493   1.220   5.635
 2147SOL    HW2 7341   6.567   1.110   5.730
 2148SOL     OW 7342   6.193   3.004   5.566
 2148SOL    HW1 7343   6.267   3.071   5.559
 2148SOL    HW2 7344   6.207   2.931   5.500
 2149SOL     OW 7345   3.277   1.784   1.063
 2149SOL    HW1 7346   3.309   1.842   1.137
 2149SOL    HW2 7347   3.349   1.775   0.994
 2150SOL     OW 7348   2.514   2.435   2.014
 2150SOL    HW1 7349   2.563   2.355   2.047
 2150SOL    HW2 7350   2.548   2.460   1.923
 2151SOL     OW 7351   1.065   0.137   5.554
 2151SOL    HW1 7352   1.120   0.086   5.488
 2151SOL    HW2 7353   0.979   0.165   5.511
 2152SOL     OW 7354   2.882   5.866   2.060
 2152SOL    HW1 7355   2.810   5.933   2.048
 2152SOL    HW2 7356   2.949   5.900   2.125
 2153SOL     OW 7357   4.357   1.394   3.010
 2153SOL    HW1 7358   4.328   1.426   3.101
 2153SOL    HW2 7359   4.337   1.296   3.002
 2154SOL     OW 7360   5.052   0.915   5.085
 2154SOL    HW1 7361   4.996   0.970   5.146
 2154SOL    HW2 7362   5.038   0.944   4.991
 2155SOL     OW 7363   2.948   5.780   0.534
 2155SOL    HW1 7364   2.889   5.709   0.571
 2155SOL    HW2 7365   2.963   5.850   0.603
 2156SOL     OW 7366   1.492   1.934   5.240
 2156SOL    HW1 7367   1.522   1.852   5.192
 2156SOL    HW2 7368   1.392   1.936   5.242
 2157SOL     OW 7369   5.990   0.190   2.936
 2157SOL    HW1 7370   6.028   0.280   2.917
 2157SOL    HW2 7371   6.019   0.160   3.027
 2158SOL     OW 7372   3.516   6.224   1.170
 2158SOL    HW1 7373   3.458   6.306   1.169
 2158SOL    HW2 7374   3.513   6.183   1.261
 2159SOL     OW 7375   1.226   6.415   5.289
 2159SOL    HW1 7376   1.217   6.322   5.253
 2159SOL    HW2 7377   1.244   6.411   5.388
 2160SOL     OW 7378   4.331   3.940   0.230
 2160SOL    HW1 7379   4.290   3.926   0.139
 2160SOL    HW2 7380   4.350   4.037   0.243
 2161SOL     OW 7381   5.373   5.071   2.600
 2161SOL    HW1 7382   5.306   5.143   2.579
 2161SOL    HW2 7383   5.390   5.016   2.518
 2162SOL     OW 7384   2.436   0.700   2.216
 2162SOL    HW1 7385   2.370   0.775   2.227
 2162SOL    HW2 7386   2.526   0.731   2.248
 2163SOL     OW 7387   1.365   4.758   5.870
 2163SOL    HW1 7388   1.462   4.737   5.881
 2163SOL    HW2 7389   1.311   4.677   5.893
 2164SOL     OW 7390   1.739   2.611   6.804
 2164SOL    HW1 7391   1.783   2.689   6.759
 2164SOL    HW2 7392   1.640   2.619   6.795
 2165SOL     OW 7393   0.108   2.233   2.681
 2165SOL    HW1 7394   0.035   2.187   2.630
 2165SOL    HW2 7395   0.114   2.194   2.773
 2166SOL     OW 7396   1.237   2.339   5.017
 2166SOL    HW1 7397   1.190   2.361   5.102
 2166SOL    HW2 7398   1.319   2.285   5.037
 2167SOL     OW 7399   1.660   2.185   3.156
 2167SOL    HW1 7400   1.729   2.120   3.189
 2167SOL    HW2 7401   1.574   2.137   3.140
 2168SOL     OW 7402   0.728   2.226   3.616
 2168SOL    HW1 7403   0.817   2.214   3.571
 2168SOL    HW2 7404   0.738   2.207   3.714
 2169SOL     OW 7405   5.255   1.712   6.979
 2169SOL    HW1 7406   5.352   1.707   7.003
 2169SOL    HW2 7407   5.231   1.636   6.919
 2170SOL     OW 7408   6.876   4.143   5.519
 2170SOL    HW1 7409   6.960   4.122   5.570
 2170SOL    HW2 7410   6.868   4.079   5.442
 2171SOL     OW 7411   0.199   5.348   1.193
 2171SOL    HW1 7412   0.125   5.337   1.259
 2171SOL    HW2 7413   0.265   5.273   1.203
 2172SOL     OW 7414   2.003   2.358   6.890
 2172SOL    HW1 7415   1.962   2.379   6.802
 2172SOL    HW2 7416   1.973   2.425   6.958
 2173SOL     OW 7417   3.780   0.981   5.348
 2173SOL    HW1 7418   3.701   0.928   5.317
 2173SOL    HW2 7419   3.835   1.009   5.269
 2174SOL     OW 7420   5.340   5.514   5.251
 2174SOL    HW1 7421   5.345   5.606   5.291
 2174SOL    HW2 7422   5.432   5.484   5.225
 2175SOL     OW 7423   2.198   3.125   4.560
 2175SOL    HW1 7424   2.222   3.217   4.592
 2175SOL    HW2 7425   2.113   3.096   4.603
 2176SOL     OW 7426   6.373   2.097   0.839
 2176SOL    HW1 7427   6.334   2.040   0.767
 2176SOL    HW2 7428   6.449   2.150   0.801
 2177SOL     OW 7429   6.888   1.932   3.593
 2177SOL    HW1 7430   6.986   1.915   3.582
 2177SOL    HW2 7431   6.850   1.867   3.659
 2178SOL     OW 7432   2.180   1.921   1.472
 2178SOL    HW1 7433   2.271   1.956   1.451
 2178SOL    HW2 7434   2.167   1.919   1.572
 2179SOL     OW 7435   1.986   5.267   4.949
 2179SOL    HW1 7436   1.899   5.297   4.989
 2179SOL    HW2 7437   2.058   5.274   5.018
 2180SOL     OW 7438   1.788   2.215   1.608
 2180SOL    HW1 7439   1.771   2.145   1.538
 2180SOL    HW2 7440   1.873   2.263   1.588
 2181SOL     OW 7441   5.118   4.811   4.411
 2181SOL    HW1 7442   5.029   4.777   4.442
 2181SOL    HW2 7443   5.184   4.736   4.411
 2182SOL     OW 7444   1.852   4.022   4.296
 2182SOL    HW1 7445   1.938   4.053   4.254
 2182SOL    HW2 7446   1.851   3.922   4.299
 2183SOL     OW 7447   2.667   4.238   5.751
 2183SOL    HW1 7448   2.752   4.272   5.710
 2183SOL    HW2 7449   2.595   4.237   5.682
 2184SOL     OW 7450   4.007   1.617   6.424
 2184SOL    HW1 7451   4.074   1.550   6.393
 2184SOL    HW2 7452   3.915   1.588   6.399
 2185SOL     OW 7453   0.334   1.047   1.144
 2185SOL    HW1 7454   0.324   1.134   1.191
 2185SOL    HW2 7455   0.418   1.047   1.091
 2186SOL     OW 7456   0.312   6.035   1.713
 2186SOL    HW1 7457   0.322   6.028   1.813
 2186SOL    HW2 7458   0.250   6.110   1.691
 2187SOL     OW 7459   6.504   6.464   3.000
 2187SOL    HW1 7460   6.513   6.553   2.954
 2187SOL    HW2 7461   6.500   6.391   2.931
 2188SOL     OW 7462   0.168   5.950   4.722
 2188SOL    HW1 7463   0.189   5.982   4.630
 2188SOL    HW2 7464   0.099   6.009   4.763
 2189SOL     OW 7465   1.770   6.355   0.599
 2189SOL    HW1 7466   1.851   6.313   0.557
 2189SOL    HW2 7467   1.785   6.453   0.611
 2190SOL     OW 7468   0.185   3.500   2.197
 2190SOL    HW1 7469   0.158   3.537   2.109
 2190SOL    HW2 7470   0.216   3.574   2.257
 2191SOL     OW 7471   3.072   2.170   6.849
 2191SOL    HW1 7472   2.977   2.141   6.843
 2191SOL    HW2 7473   3.127   2.121   6.781
 2192SOL     OW 7474   4.982   1.281   2.470
 2192SOL    HW1 7475   5.079   1.260   2.452
 2192SOL    HW2 7476   4.962   1.374   2.436
 2193SOL     OW 7477   5.315   5.472   0.034
 2193SOL    HW1 7478   5.269   5.409   0.096
 2193SOL    HW2 7479   5.304   5.440   6.962
 2194SOL     OW 7480   2.476   4.231   5.553
 2194SOL    HW1 7481   2.488   4.131   5.553
 2194SOL    HW2 7482   2.503   4.268   5.464
 2195SOL     OW 7483   0.420   0.284   4.590
 2195SOL    HW1 7484   0.345   0.348   4.601
 2195SOL    HW2 7485   0.508   0.331   4.602
 2196SOL     OW 7486   3.101   6.877   5.076
 2196SOL    HW1 7487   3.065   6.970   5.080
 2196SOL    HW2 7488   3.142   6.853   5.164
 2197SOL     OW 7489   3.197   3.730   0.340
 2197SOL    HW1 7490   3.189   3.631   0.327
 2197SOL    HW2 7491   3.254   3.749   0.421
 2198SOL     OW 7492   5.324   0.814   0.398
 2198SOL    HW1 7493   5.402   0.857   0.444
 2198SOL    HW2 7494   5.300   0.729   0.445
 2199SOL     OW 7495   4.527   0.894   3.405
 2199SOL    HW1 7496   4.615   0.861   3.440
 2199SOL    HW2 7497   4.453   0.837   3.441
 2200SOL     OW 7498   2.667   1.778   5.105
 2200SOL    HW1 7499   2.607   1.831   5.044
 2200SOL    HW2 7500   2.675   1.684   5.071
 2201SOL     OW 7501   6.946   2.726   3.126
 2201SOL    HW1 7502   6.923   2.640   3.081
 2201SOL    HW2 7503   0.012   2.759   3.091
 2202SOL     OW 7504   2.559   5.678   2.292
 2202SOL    HW1 7505   2.616   5.644   2.217
 2202SOL    HW2 7506   2.527   5.770   2.270
 2203SOL     OW 7507   1.520   2.326   1.140
 2203SOL    HW1 7508   1.614   2.293   1.145
 2203SOL    HW2 7509   1.506   2.397   1.209
 2204SOL     OW 7510   3.992   1.487   1.864
 2204SOL    HW1 7511   3.896   1.507   1.846
 2204SOL    HW2 7512   4.047   1.568   1.841
 2205SOL     OW 7513   0.698   0.002   6.102
 2205SOL    HW1 7514   0.659   0.067   6.167
 2205SOL    HW2 7515   0.683   6.931   6.135
 2206SOL     OW 7516   3.098   4.890   6.418
 2206SOL    HW1 7517   3.039   4.863   6.342
 2206SOL    HW2 7518   3.194   4.880   6.391
 2207SOL     OW 7519   3.089   4.650   6.592
 2207SOL    HW1 7520   3.094   4.635   6.691
 2207SOL    HW2 7521   3.135   4.736   6.569
 2208SOL     OW 7522   1.540   6.323   3.035
 2208SOL    HW1 7523   1.618   6.271   3.068
 2208SOL    HW2 7524   1.569   6.385   2.962
 2209SOL     OW 7525   1.500   6.232   5.291
 2209SOL    HW1 7526   1.416   6.184   5.267
 2209SOL    HW2 7527   1.487   6.281   5.377
 2210SOL     OW 7528   6.557   4.898   4.632
 2210SOL    HW1 7529   6.646   4.919   4.591
 2210SOL    HW2 7530   6.521   4.813   4.592
 2211SOL     OW 7531   5.901   0.642   0.836
 2211SOL    HW1 7532   5.831   0.663   0.767
 2211SOL    HW2 7533   5.889   0.548   0.868
 2212SOL     OW 7534   2.240   5.873   6.811
 2212SOL    HW1 7535   2.175   5.797   6.814
 2212SOL    HW2 7536   2.194   5.955   6.778
 2213SOL     OW 7537   3.415   2.463   5.714
 2213SOL    HW1 7538   3.370   2.409   5.785
 2213SOL    HW2 7539   3.351   2.530   5.676
 2214SOL     OW 7540   3.847   3.181   5.111
 2214SOL    HW1 7541   3.888   3.157   5.023
 2214SOL    HW2 7542   3.818   3.277   5.109
 2215SOL     OW 7543   6.044   0.998   0.368
 2215SOL    HW1 7544   6.004   0.959   0.451
 2215SOL    HW2 7545   6.128   1.046   0.391
 2216SOL     OW 7546   1.628   0.841   6.211
 2216SOL    HW1 7547   1.650   0.900   6.289
 2216SOL    HW2 7548   1.633   0.745   6.239
 2217SOL     OW 7549   4.145   6.891   1.590
 2217SOL    HW1 7550   4.110   6.871   1.498
 2217SOL    HW2 7551   4.223   6.953   1.583
 2218SOL     OW 7552   6.796   5.933   6.968
 2218SOL    HW1 7553   6.726   6.004   6.983
 2218SOL    HW2 7554   6.754   5.843   6.975
 2219SOL     OW 7555   5.299   1.875   1.469
 2219SOL    HW1 7556   5.247   1.882   1.554
 2219SOL    HW2 7557   5.236   1.874   1.392
 2220SOL     OW 7558   1.795   6.930   5.126
 2220SOL    HW1 7559   1.779   6.948   5.029
 2220SOL    HW2 7560   1.708   6.919   5.174
 2221SOL     OW 7561   6.122   1.035   5.534
 2221SOL    HW1 7562   6.180   1.088   5.472
 2221SOL    HW2 7563   6.033   1.080   5.541
 2222SOL     OW 7564   4.993   0.904   0.144
 2222SOL    HW1 7565   5.008   1.001   0.163
 2222SOL    HW2 7566   4.902   0.877   0.175
 2223SOL     OW 7567   5.763   0.720   4.948
 2223SOL    HW1 7568   5.802   0.633   4.917
 2223SOL    HW2 7569   5.770   0.725   5.048
 2224SOL     OW 7570   0.308   3.499   0.461
 2224SOL    HW1 7571   0.259   3.493   0.548
 2224SOL    HW2 7572   0.245   3.480   0.386
 2225SOL     OW 7573   6.675   6.400   3.510
 2225SOL    HW1 7574   6.615   6.381   3.432
 2225SOL    HW2 7575   6.766   6.365   3.491
 2226SOL     OW 7576   3.676   5.015   0.747
 2226SOL    HW1 7577   3.652   4.929   0.793
 2226SOL    HW2 7578   3.651   5.092   0.804
 2227SOL     OW 7579   5.221   3.542   0.098
 2227SOL    HW1 7580   5.289   3.470   0.091
 2227SOL    HW2 7581   5.259   3.627   0.063
 2228SOL     OW 7582   3.579   4.759   0.951
 2228SOL    HW1 7583   3.509   4.815   0.996
 2228SOL    HW2 7584   3.535   4.682   0.905
 2229SOL     OW 7585   4.813   2.667   4.847
 2229SOL    HW1 7586   4.787   2.578   4.884
 2229SOL    HW2 7587   4.763   2.684   4.762
 2230SOL     OW 7588   5.782   6.327   0.018
 2230SOL    HW1 7589   5.689   6.324   0.054
 2230SOL    HW2 7590   5.781   6.356   6.945
 2231SOL     OW 7591   0.553   0.711   2.174
 2231SOL    HW1 7592   0.533   0.771   2.252
 2231SOL    HW2 7593   0.490   0.732   2.100
 2232SOL     OW 7594   0.778   2.752   5.108
 2232SOL    HW1 7595   0.866   2.705   5.104
 2232SOL    HW2 7596   0.713   2.697   5.160
 2233SOL     OW 7597   1.993   3.957   0.179
 2233SOL    HW1 7598   1.969   3.860   0.187
 2233SOL    HW2 7599   1.951   3.995   0.097
 2234SOL     OW 7600   4.088   1.794   1.679
 2234SOL    HW1 7601   4.111   1.761   1.771
 2234SOL    HW2 7602   3.997   1.761   1.654
 2235SOL     OW 7603   2.844   7.005   1.232
 2235SOL    HW1 7604   2.788   0.033   1.299
 2235SOL    HW2 7605   2.903   6.940   1.280
 2236SOL     OW 7606   1.846   4.440   6.093
 2236SOL    HW1 7607   1.865   4.474   6.001
 2236SOL    HW2 7608   1.783   4.502   6.139
 2237SOL     OW 7609   5.920   4.616   3.740
 2237SOL    HW1 7610   5.842   4.592   3.682
 2237SOL    HW2 7611   5.888   4.642   3.831
 2238SOL     OW 7612   4.709   4.667   1.598
 2238SOL    HW1 7613   4.696   4.578   1.640
 2238SOL    HW2 7614   4.769   4.658   1.518
 2239SOL     OW 7615   4.071   5.282   3.872
 2239SOL    HW1 7616   4.128   5.250   3.796
 2239SOL    HW2 7617   3.975   5.279   3.844
 2240SOL     OW 7618   4.988   5.847   4.026
 2240SOL    HW1 7619   5.022   5.934   3.991
 2240SOL    HW2 7620   4.964   5.787   3.949
 2241SOL     OW 7621   0.403   5.766   3.431
 2241SOL    HW1 7622   0.479   5.767   3.495
 2241SOL    HW2 7623   0.316   5.771   3.481
 2242SOL     OW 7624   5.441   2.877   2.659
 2242SOL    HW1 7625   5.415   2.973   2.643
 2242SOL    HW2 7626   5.361   2.819   2.649
 2243SOL     OW 7627   1.603   6.744   6.107
 2243SOL    HW1 7628   1.562   6.784   6.189
 2243SOL    HW2 7629   1.559   6.782   6.026
 2244SOL     OW 7630   1.668   6.894   1.766
 2244SOL    HW1 7631   1.631   6.967   1.709
 2244SOL    HW2 7632   1.622   6.808   1.745
 2245SOL     OW 7633   0.600   2.576   1.037
 2245SOL    HW1 7634   0.577   2.507   0.968
 2245SOL    HW2 7635   0.683   2.548   1.086
 2246SOL     OW 7636   1.106   2.057   5.048
 2246SOL    HW1 7637   1.042   2.011   4.986
 2246SOL    HW2 7638   1.188   2.085   4.996
 2247SOL     OW 7639   3.547   3.214   4.178
 2247SOL    HW1 7640   3.467   3.166   4.214
 2247SOL    HW2 7641   3.599   3.152   4.119
 2248SOL     OW 7642   5.260   4.104   5.752
 2248SOL    HW1 7643   5.178   4.046   5.756
 2248SOL    HW2 7644   5.329   4.060   5.694
 2249SOL     OW 7645   6.177   6.425   3.144
 2249SOL    HW1 7646   6.214   6.333   3.159
 2249SOL    HW2 7647   6.252   6.487   3.122
 2250SOL     OW 7648   4.312   3.959   6.060
 2250SOL    HW1 7649   4.323   3.928   6.154
 2250SOL    HW2 7650   4.230   3.918   6.021
 2251SOL     OW 7651   5.405   0.507   6.728
 2251SOL    HW1 7652   5.448   0.437   6.784
 2251SOL    HW2 7653   5.328   0.548   6.778
 2252SOL     OW 7654   4.758   2.804   2.189
 2252SOL    HW1 7655   4.743   2.843   2.281
 2252SOL    HW2 7656   4.719   2.865   2.121
 2253SOL     OW 7657   0.940   3.715   6.520
 2253SOL    HW1 7658   1.014   3.713   6.587
 2253SOL    HW2 7659   0.921   3.809   6.493
 2254SOL     OW 7660   3.730   2.811   5.581
 2254SOL    HW1 7661   3.830   2.807   5.589
 2254SOL    HW2 7662   3.705   2.828   5.485
 2255SOL     OW 7663   4.430   2.917   6.105
 2255SOL    HW1 7664   4.368   2.900   6.181
 2255SOL    HW2 7665   4.378   2.936   6.022
 2256SOL     OW 7666   5.407   5.761   1.524
 2256SOL    HW1 7667   5.441   5.773   1.431
 2256SOL    HW2 7668   5.345   5.837   1.546
 2257SOL     OW 7669   0.092   1.836   4.392
 2257SOL    HW1 7670   0.066   1.866   4.300
 2257SOL    HW2 7671   0.073   1.739   4.403
 2258SOL     OW 7672   0.987   5.180   5.761
 2258SOL    HW1 7673   1.039   5.237   5.697
 2258SOL    HW2 7674   0.996   5.217   5.854
 2259SOL     OW 7675   5.427   3.680   6.692
 2259SOL    HW1 7676   5.340   3.683   6.741
 2259SOL    HW2 7677   5.464   3.587   6.696
 2260SOL     OW 7678   6.194   4.188   1.896
 2260SOL    HW1 7679   6.176   4.248   1.819
 2260SOL    HW2 7680   6.235   4.103   1.863
 2261SOL     OW 7681   6.402   5.971   7.016
 2261SOL    HW1 7682   6.312   5.970   6.973
 2261SOL    HW2 7683   6.395   6.014   0.085
 2262SOL     OW 7684   5.838   1.258   3.214
 2262SOL    HW1 7685   5.874   1.249   3.121
 2262SOL    HW2 7686   5.903   1.311   3.269
 2263SOL     OW 7687   3.397   5.508   0.029
 2263SOL    HW1 7688   3.315   5.560   0.006
 2263SOL    HW2 7689   3.371   5.425   0.079
 2264SOL     OW 7690   2.755   4.395   0.429
 2264SOL    HW1 7691   2.853   4.401   0.445
 2264SOL    HW2 7692   2.726   4.299   0.433
 2265SOL     OW 7693   0.506   0.682   4.550
 2265SOL    HW1 7694   0.556   0.601   4.520
 2265SOL    HW2 7695   0.571   0.752   4.580
 2266SOL     OW 7696   4.954   2.057   0.049
 2266SOL    HW1 7697   4.860   2.059   0.014
 2266SOL    HW2 7698   5.010   2.000   7.012
 2267SOL     OW 7699   4.989   2.387   4.977
 2267SOL    HW1 7700   5.023   2.305   4.931
 2267SOL    HW2 7701   4.895   2.405   4.949
 2268SOL     OW 7702   6.357   3.506   6.965
 2268SOL    HW1 7703   6.270   3.550   6.941
 2268SOL    HW2 7704   6.339   3.420   7.013
 2269SOL     OW 7705   6.070   5.508   5.345
 2269SOL    HW1 7706   6.036   5.601   5.337
 2269SOL    HW2 7707   6.099   5.491   5.439
 2270SOL     OW 7708   3.288   2.658   5.991
 2270SOL    HW1 7709   3.327   2.735   5.942
 2270SOL    HW2 7710   3.351   2.628   6.063
 2271SOL     OW 7711   5.717   3.761   0.772
 2271SOL    HW1 7712   5.630   3.755   0.723
 2271SOL    HW2 7713   5.738   3.673   0.814
 2272SOL     OW 7714   5.979   2.540   6.131
 2272SOL    HW1 7715   5.989   2.600   6.051
 2272SOL    HW2 7716   5.890   2.557   6.174
 2273SOL     OW 7717   1.476   0.312   2.143
 2273SOL    HW1 7718   1.526   0.365   2.075
 2273SOL    HW2 7719   1.379   0.335   2.138
 2274SOL     OW 7720   6.884   2.352   6.347
 2274SOL    HW1 7721   6.862   2.450   6.353
 2274SOL    HW2 7722   6.800   2.300   6.337
 2275SOL     OW 7723   6.192   0.440   4.153
 2275SOL    HW1 7724   6.285   0.445   4.118
 2275SOL    HW2 7725   6.150   0.355   4.123
 2276SOL     OW 7726   2.451   5.118   0.756
 2276SOL    HW1 7727   2.498   5.030   0.764
 2276SOL    HW2 7728   2.465   5.155   0.664
 2277SOL     OW 7729   3.910   3.969   4.734
 2277SOL    HW1 7730   3.820   3.956   4.693
 2277SOL    HW2 7731   3.978   3.917   4.682
 2278SOL     OW 7732   6.437   5.004   4.144
 2278SOL    HW1 7733   6.510   4.965   4.088
 2278SOL    HW2 7734   6.406   4.936   4.211
 2279SOL     OW 7735   5.326   6.213   4.740
 2279SOL    HW1 7736   5.418   6.218   4.777
 2279SOL    HW2 7737   5.327   6.237   4.642
 2280SOL     OW 7738   6.560   0.031   4.492
 2280SOL    HW1 7739   6.483   6.990   4.500
 2280SOL    HW2 7740   6.645   7.004   4.511
 2281SOL     OW 7741   3.524   1.406   2.635
 2281SOL    HW1 7742   3.581   1.439   2.560
 2281SOL    HW2 7743   3.428   1.422   2.614
 2282SOL     OW 7744   4.836   0.375   4.573
 2282SOL    HW1 7745   4.932   0.402   4.571
 2282SOL    HW2 7746   4.823   0.291   4.521
 2283SOL     OW 7747   0.335   4.522   1.619
 2283SOL    HW1 7748   0.256   4.510   1.559
 2283SOL    HW2 7749   0.307   4.570   1.702
 2284SOL     OW 7750   1.321   2.547   6.475
 2284SOL    HW1 7751   1.245   2.512   6.529
 2284SOL    HW2 7752   1.364   2.472   6.424
 2285SOL     OW 7753   2.690   2.294   0.337
 2285SOL    HW1 7754   2.760   2.278   0.406
 2285SOL    HW2 7755   2.676   2.392   0.326
 2286SOL     OW 7756   0.098   0.501   4.355
 2286SOL    HW1 7757   7.021   0.514   4.354
 2286SOL    HW2 7758   0.143   0.588   4.378
 2287SOL     OW 7759   1.522   0.964   3.067
 2287SOL    HW1 7760   1.498   0.973   2.970
 2287SOL    HW2 7761   1.505   0.870   3.097
 2288SOL     OW 7762   6.166   5.329   4.554
 2288SOL    HW1 7763   6.166   5.267   4.475
 2288SOL    HW2 7764   6.093   5.396   4.544
 2289SOL     OW 7765   0.879   4.846   1.855
 2289SOL    HW1 7766   0.816   4.906   1.904
 2289SOL    HW2 7767   0.852   4.840   1.759
 2290SOL     OW 7768   1.210   4.743   1.303
 2290SOL    HW1 7769   1.152   4.702   1.374
 2290SOL    HW2 7770   1.279   4.801   1.346
 2291SOL     OW 7771   2.637   2.477   6.405
 2291SOL    HW1 7772   2.631   2.379   6.385
 2291SOL    HW2 7773   2.546   2.518   6.402
 2292SOL     OW 7774   5.858   2.153   5.044
 2292SOL    HW1 7775   5.841   2.187   4.952
 2292SOL    HW2 7776   5.926   2.080   5.041
 2293SOL     OW 7777   5.339   0.063   1.312
 2293SOL    HW1 7778   5.404   0.090   1.384
 2293SOL    HW2 7779   5.336   6.986   1.306
 2294SOL     OW 7780   3.048   1.081   6.466
 2294SOL    HW1 7781   2.998   1.158   6.427
 2294SOL    HW2 7782   2.984   1.018   6.509
 2295SOL     OW 7783   0.361   2.377   2.901
 2295SOL    HW1 7784   0.398   2.284   2.903
 2295SOL    HW2 7785   0.281   2.382   2.961
 2296SOL     OW 7786   3.913   5.494   1.491
 2296SOL    HW1 7787   3.923   5.397   1.515
 2296SOL    HW2 7788   3.888   5.546   1.572
 2297SOL     OW 7789   4.730   5.037   5.698
 2297SOL    HW1 7790   4.822   5.019   5.734
 2297SOL    HW2 7791   4.737   5.099   5.620
 2298SOL     OW 7792   4.248   3.404   1.589
 2298SOL    HW1 7793   4.229   3.313   1.628
 2298SOL    HW2 7794   4.347   3.417   1.583
 2299SOL     OW 7795   4.282   5.420   5.305
 2299SOL    HW1 7796   4.311   5.485   5.234
 2299SOL    HW2 7797   4.279   5.328   5.267
 2300SOL     OW 7798   2.498   6.219   1.651
 2300SOL    HW1 7799   2.439   6.184   1.724
 2300SOL    HW2 7800   2.443   6.269   1.585
 2301SOL     OW 7801   3.416   2.925   2.792
 2301SOL    HW1 7802   3.375   3.013   2.765
 2301SOL    HW2 7803   3.389   2.903   2.885
 2302SOL     OW 7804   3.740   0.302   0.567
 2302SOL    HW1 7805   3.817   0.305   0.503
 2302SOL    HW2 7806   3.683   0.383   0.554
 2303SOL     OW 7807   2.627   3.283   6.446
 2303SOL    HW1 7808   2.616   3.365   6.503
 2303SOL    HW2 7809   2.538   3.242   6.428
 2304SOL     OW 7810   4.715   6.706   3.331
 2304SOL    HW1 7811   4.661   6.764   3.391
 2304SOL    HW2 7812   4.811   6.708   3.360
 2305SOL     OW 7813   2.325   6.760   2.550
 2305SOL    HW1 7814   2.249   6.702   2.520
 2305SOL    HW2 7815   2.293   6.824   2.619
 2306SOL     OW 7816   2.871   5.156   2.280
 2306SOL    HW1 7817   2.928   5.081   2.315
 2306SOL    HW2 7818   2.899   5.242   2.324
 2307SOL     OW 7819   6.772   4.017   3.039
 2307SOL    HW1 7820   6.782   4.111   3.009
 2307SOL    HW2 7821   6.822   4.003   3.125
 2308SOL     OW 7822   1.380   5.419   1.345
 2308SOL    HW1 7823   1.393   5.326   1.309
 2308SOL    HW2 7824   1.324   5.414   1.427
 2309SOL     OW 7825   1.777   0.735   6.722
 2309SOL    HW1 7826   1.774   0.636   6.731
 2309SOL    HW2 7827   1.698   0.775   6.770
 2310SOL     OW 7828   5.225   6.394   0.644
 2310SOL    HW1 7829   5.137   6.379   0.689
 2310SOL    HW2 7830   5.285   6.316   0.662
 2311SOL     OW 7831   1.771   6.780   1.173
 2311SOL    HW1 7832   1.730   6.852   1.229
 2311SOL    HW2 7833   1.855   6.748   1.216
 2312SOL     OW 7834   4.036   6.445   2.781
 2312SOL    HW1 7835   4.120   6.500   2.782
 2312SOL    HW2 7836   4.037   6.385   2.701
 2313SOL     OW 7837   5.942   6.165   1.257
 2313SOL    HW1 7838   5.890   6.217   1.189
 2313SOL    HW2 7839   5.981   6.084   1.213
 2314SOL     OW 7840   5.960   0.004   4.014
 2314SOL    HW1 7841   5.868   0.002   4.053
 2314SOL    HW2 7842   6.027   0.001   4.087
 2315SOL     OW 7843   4.897   3.587   6.431
 2315SOL    HW1 7844   4.834   3.664   6.422
 2315SOL    HW2 7845   4.846   3.503   6.445
 2316SOL     OW 7846   3.588   1.212   3.964
 2316SOL    HW1 7847   3.619   1.288   4.021
 2316SOL    HW2 7848   3.611   1.126   4.010
 2317SOL     OW 7849   0.422   6.104   3.540
 2317SOL    HW1 7850   0.429   6.054   3.453
 2317SOL    HW2 7851   0.350   6.172   3.534
 2318SOL     OW 7852   1.979   2.854   4.366
 2318SOL    HW1 7853   1.976   2.850   4.466
 2318SOL    HW2 7854   2.022   2.940   4.337
 2319SOL     OW 7855   2.034   4.447   4.094
 2319SOL    HW1 7856   1.953   4.421   4.147
 2319SOL    HW2 7857   2.005   4.478   4.004
 2320SOL     OW 7858   0.937   2.343   4.714
 2320SOL    HW1 7859   1.012   2.322   4.651
 2320SOL    HW2 7860   0.936   2.442   4.732
 2321SOL     OW 7861   2.266   0.418   0.129
 2321SOL    HW1 7862   2.330   0.479   0.082
 2321SOL    HW2 7863   2.173   0.444   0.106
 2322SOL     OW 7864   2.451   1.543   3.881
 2322SOL    HW1 7865   2.520   1.561   3.951
 2322SOL    HW2 7866   2.485   1.576   3.792
 2323SOL     OW 7867   2.646   5.097   1.817
 2323SOL    HW1 7868   2.643   5.083   1.916
 2323SOL    HW2 7869   2.736   5.072   1.782
 2324SOL     OW 7870   6.338   6.791   1.358
 2324SOL    HW1 7871   6.338   6.793   1.258
 2324SOL    HW2 7872   6.324   6.697   1.389
 2325SOL     OW 7873   1.652   5.191   1.508
 2325SOL    HW1 7874   1.748   5.194   1.479
 2325SOL    HW2 7875   1.612   5.103   1.483
 2326SOL     OW 7876   2.652   5.379   5.795
 2326SOL    HW1 7877   2.702   5.459   5.828
 2326SOL    HW2 7878   2.559   5.406   5.770
 2327SOL     OW 7879   6.794   2.174   4.031
 2327SOL    HW1 7880   6.813   2.161   4.128
 2327SOL    HW2 7881   6.875   2.150   3.977
 2328SOL     OW 7882   3.026   2.200   2.532
 2328SOL    HW1 7883   3.031   2.211   2.433
 2328SOL    HW2 7884   2.938   2.160   2.556
 2329SOL     OW 7885   1.460   3.833   5.342
 2329SOL    HW1 7886   1.484   3.885   5.425
 2329SOL    HW2 7887   1.424   3.896   5.273
 2330SOL     OW 7888   0.659   4.120   1.612
 2330SOL    HW1 7889   0.719   4.090   1.685
 2330SOL    HW2 7890   0.586   4.177   1.650
 2331SOL     OW 7891   5.474   4.896   0.815
 2331SOL    HW1 7892   5.379   4.892   0.782
 2331SOL    HW2 7893   5.505   4.804   0.836
 2332SOL     OW 7894   4.697   1.910   5.101
 2332SOL    HW1 7895   4.687   1.973   5.178
 2332SOL    HW2 7896   4.625   1.927   5.035
 2333SOL     OW 7897   0.770   4.961   2.905
 2333SOL    HW1 7898   0.737   5.032   2.968
 2333SOL    HW2 7899   0.707   4.953   2.828
 2334SOL     OW 7900   2.403   6.974   6.897
 2334SOL    HW1 7901   2.441   7.004   6.984
 2334SOL    HW2 7902   2.439   0.009   6.823
 2335SOL     OW 7903   5.765   0.901   3.028
 2335SOL    HW1 7904   5.739   0.895   3.125
 2335SOL    HW2 7905   5.762   0.811   2.987
 2336SOL     OW 7906   4.480   2.404   4.964
 2336SOL    HW1 7907   4.396   2.362   4.930
 2336SOL    HW2 7908   4.465   2.440   5.055
 2337SOL     OW 7909   4.541   0.863   3.146
 2337SOL    HW1 7910   4.552   0.887   3.242
 2337SOL    HW2 7911   4.480   0.928   3.101
 2338SOL     OW 7912   1.406   1.792   6.231
 2338SOL    HW1 7913   1.477   1.795   6.161
 2338SOL    HW2 7914   1.448   1.786   6.321
 2339SOL     OW 7915   3.891   4.074   5.014
 2339SOL    HW1 7916   3.910   4.056   4.917
 2339SOL    HW2 7917   3.847   3.994   5.055
 2340SOL     OW 7918   5.494   4.354   0.397
 2340SOL    HW1 7919   5.528   4.302   0.318
 2340SOL    HW2 7920   5.486   4.451   0.372
 2341SOL     OW 7921   5.052   4.428   1.361
 2341SOL    HW1 7922   4.976   4.376   1.401
 2341SOL    HW2 7923   5.118   4.365   1.321
 2342SOL     OW 7924   0.477   6.771   5.300
 2342SOL    HW1 7925   0.492   6.732   5.209
 2342SOL    HW2 7926   0.562   6.763   5.353
 2343SOL     OW 7927   2.527   6.012   2.762
 2343SOL    HW1 7928   2.499   6.034   2.668
 2343SOL    HW2 7929   2.446   5.987   2.815
 2344SOL     OW 7930   1.684   0.571   1.159
 2344SOL    HW1 7931   1.693   0.661   1.201
 2344SOL    HW2 7932   1.666   0.503   1.230
 2345SOL     OW 7933   3.496   5.541   5.391
 2345SOL    HW1 7934   3.459   5.598   5.464
 2345SOL    HW2 7935   3.510   5.448   5.426
 2346SOL     OW 7936   5.129   2.613   4.990
 2346SOL    HW1 7937   5.192   2.622   5.067
 2346SOL    HW2 7938   5.086   2.523   4.993
 2347SOL     OW 7939   2.545   3.341   1.697
 2347SOL    HW1 7940   2.499   3.295   1.622
 2347SOL    HW2 7941   2.477   3.387   1.755
 2348SOL     OW 7942   3.639   6.240   3.247
 2348SOL    HW1 7943   3.577   6.308   3.208
 2348SOL    HW2 7944   3.732   6.275   3.246
 2349SOL     OW 7945   0.740   4.910   6.052
 2349SOL    HW1 7946   0.809   4.875   5.988
 2349SOL    HW2 7947   0.661   4.849   6.053
 2350SOL     OW 7948   5.012   6.950   6.076
 2350SOL    HW1 7949   5.043   0.010   6.124
 2350SOL    HW2 7950   4.943   6.976   6.008
 2351SOL     OW 7951   3.640   5.356   2.566
 2351SOL    HW1 7952   3.623   5.332   2.661
 2351SOL    HW2 7953   3.555   5.384   2.523
 2352SOL     OW 7954   1.243   3.961   1.973
 2352SOL    HW1 7955   1.308   4.016   1.922
 2352SOL    HW2 7956   1.290   3.883   2.015
 2353SOL     OW 7957   3.121   4.756   5.279
 2353SOL    HW1 7958   3.052   4.820   5.245
 2353SOL    HW2 7959   3.094   4.663   5.256
 2354SOL     OW 7960   2.765   1.867   6.377
 2354SOL    HW1 7961   2.666   1.883   6.373
 2354SOL    HW2 7962   2.811   1.924   6.308
 2355SOL     OW 7963   1.023   5.537   6.732
 2355SOL    HW1 7964   1.002   5.632   6.755
 2355SOL    HW2 7965   1.118   5.531   6.701
 2356SOL     OW 7966   2.298   4.240   0.722
 2356SOL    HW1 7967   2.354   4.157   0.719
 2356SOL    HW2 7968   2.323   4.300   0.646
 2357SOL     OW 7969   4.501   5.113   4.092
 2357SOL    HW1 7970   4.492   5.026   4.139
 2357SOL    HW2 7971   4.412   5.158   4.088
 2358SOL     OW 7972   2.753   5.034   5.577
 2358SOL    HW1 7973   2.805   5.091   5.512
 2358SOL    HW2 7974   2.815   4.998   5.646
 2359SOL     OW 7975   6.847   0.941   5.971
 2359SOL    HW1 7976   6.929   0.991   5.942
 2359SOL    HW2 7977   6.772   1.005   5.985
 2360SOL     OW 7978   5.432   5.868   5.916
 2360SOL    HW1 7979   5.413   5.789   5.858
 2360SOL    HW2 7980   5.524   5.859   5.955
 2361SOL     OW 7981   2.670   0.836   4.978
 2361SOL    HW1 7982   2.646   0.912   4.917
 2361SOL    HW2 7983   2.590   0.812   5.034
 2362SOL     OW 7984   2.849   0.616   4.953
 2362SOL    HW1 7985   2.945   0.642   4.960
 2362SOL    HW2 7986   2.792   0.681   5.003
 2363SOL     OW 7987   4.273   2.603   5.512
 2363SOL    HW1 7988   4.198   2.579   5.450
 2363SOL    HW2 7989   4.323   2.520   5.537
 2364SOL     OW 7990   0.785   2.458   3.285
 2364SOL    HW1 7991   0.805   2.361   3.298
 2364SOL    HW2 7992   0.827   2.489   3.199
 2365SOL     OW 7993   6.082   2.258   5.976
 2365SOL    HW1 7994   5.983   2.273   5.980
 2365SOL    HW2 7995   6.129   2.345   5.989
 2366SOL     OW 7996   1.620   4.257   6.085
 2366SOL    HW1 7997   1.699   4.313   6.063
 2366SOL    HW2 7998   1.558   4.306   6.146
 2367SOL     OW 7999   3.727   3.685   6.778
 2367SOL    HW1 8000   3.796   3.613   6.779
 2367SOL    HW2 8001   3.657   3.664   6.710
 2368SOL     OW 8002   5.063   6.892   3.290
 2368SOL    HW1 8003   5.162   6.876   3.285
 2368SOL    HW2 8004   5.045   6.989   3.302
 2369SOL     OW 8005   2.088   2.643   5.470
 2369SOL    HW1 8006   2.031   2.650   5.389
 2369SOL    HW2 8007   2.080   2.727   5.525
 2370SOL     OW 8008   4.763   4.266   6.804
 2370SOL    HW1 8009   4.849   4.296   6.762
 2370SOL    HW2 8010   4.692   4.258   6.733
 2371SOL     OW 8011   0.675   6.051   1.375
 2371SOL    HW1 8012   0.612   6.103   1.433
 2371SOL    HW2 8013   0.752   6.021   1.430
 2372SOL     OW 8014   0.463   2.084   1.262
 2372SOL    HW1 8015   0.442   2.181   1.270
 2372SOL    HW2 8016   0.550   2.065   1.308
 2373SOL     OW 8017   7.013   0.069   0.081
 2373SOL    HW1 8018   6.928   0.051   0.132
 2373SOL    HW2 8019   0.020   0.163   0.097
 2374SOL     OW 8020   6.415   0.465   3.847
 2374SOL    HW1 8021   6.432   0.461   3.946
 2374SOL    HW2 8022   6.487   0.416   3.799
 2375SOL     OW 8023   1.850   6.402   4.546
 2375SOL    HW1 8024   1.940   6.445   4.551
 2375SOL    HW2 8025   1.853   6.313   4.592
 2376SOL     OW 8026   5.677   2.135   4.328
 2376SOL    HW1 8027   5.600   2.173   4.380
 2376SOL    HW2 8028   5.653   2.131   4.231
 2377SOL     OW 8029   3.409   4.120   2.803
 2377SOL    HW1 8030   3.356   4.058   2.861
 2377SOL    HW2 8031   3.408   4.212   2.842
 2378SOL     OW 8032   4.909   2.266   6.846
 2378SOL    HW1 8033   4.853   2.223   6.775
 2378SOL    HW2 8034   4.850   2.292   6.923
 2379SOL     OW 8035   6.757   1.947   6.912
 2379SOL    HW1 8036   6.840   1.890   6.914
 2379SOL    HW2 8037   6.685   1.902   6.965
 2380SOL     OW 8038   7.006   6.659   5.424
 2380SOL    HW1 8039   0.023   6.568   5.442
 2380SOL    HW2 8040   0.022   6.725   5.488
 2381SOL     OW 8041   2.032   3.871   4.005
 2381SOL    HW1 8042   1.973   3.792   4.023
 2381SOL    HW2 8043   2.066   3.866   3.911
 2382SOL     OW 8044   2.247   5.346   3.616
 2382SOL    HW1 8045   2.177   5.412   3.589
 2382SOL    HW2 8046   2.320   5.346   3.548
 2383SOL     OW 8047   5.439   6.214   6.882
 2383SOL    HW1 8048   5.496   6.280   6.930
 2383SOL    HW2 8049   5.373   6.262   6.824
 2384SOL     OW 8050   6.387   6.466   2.134
 2384SOL    HW1 8051   6.354   6.418   2.215
 2384SOL    HW2 8052   6.484   6.442   2.118
 2385SOL     OW 8053   6.157   6.982   1.283
 2385SOL    HW1 8054   6.099   6.968   1.202
 2385SOL    HW2 8055   6.194   6.895   1.313
 2386SOL     OW 8056   5.179   4.460   4.118
 2386SOL    HW1 8057   5.246   4.460   4.045
 2386SOL    HW2 8058   5.218   4.503   4.200
 2387SOL     OW 8059   0.361   2.266   3.570
 2387SOL    HW1 8060   0.382   2.229   3.660
 2387SOL    HW2 8061   0.426   2.339   3.548
 2388SOL     OW 8062   1.076   2.132   3.770
 2388SOL    HW1 8063   1.121   2.127   3.681
 2388SOL    HW2 8064   1.099   2.050   3.823
 2389SOL     OW 8065   5.354   3.334   3.352
 2389SOL    HW1 8066   5.447   3.339   3.317
 2389SOL    HW2 8067   5.308   3.255   3.312
 2390SOL     OW 8068   3.138   4.060   4.361
 2390SOL    HW1 8069   3.089   3.975   4.344
 2390SOL    HW2 8070   3.185   4.088   4.277
 2391SOL     OW 8071   4.228   4.077   5.690
 2391SOL    HW1 8072   4.185   3.989   5.710
 2391SOL    HW2 8073   4.253   4.080   5.593
 2392SOL     OW 8074   3.600   6.762   5.340
 2392SOL    HW1 8075   3.561   6.854   5.329
 2392SOL    HW2 8076   3.671   6.747   5.272
 2393SOL     OW 8077   4.184   4.821   0.172
 2393SOL    HW1 8078   4.222   4.895   0.229
 2393SOL    HW2 8079   4.254   4.789   0.109
 2394SOL     OW 8080   1.787   3.220   4.338
 2394SOL    HW1 8081   1.853   3.198   4.266
 2394SOL    HW2 8082   1.704   3.256   4.296
 2395SOL     OW 8083   6.148   2.625   0.755
 2395SOL    HW1 8084   6.104   2.618   0.665
 2395SOL    HW2 8085   6.115   2.550   0.813
 2396SOL     OW 8086   4.196   5.315   0.777
 2396SOL    HW1 8087   4.214   5.349   0.685
 2396SOL    HW2 8088   4.153   5.387   0.832
 2397SOL     OW 8089   0.083   3.717   6.963
 2397SOL    HW1 8090   7.007   3.695   6.963
 2397SOL    HW2 8091   0.095   3.814   6.942
 2398SOL     OW 8092   3.189   3.997   6.179
 2398SOL    HW1 8093   3.090   4.005   6.192
 2398SOL    HW2 8094   3.220   3.909   6.216
 2399SOL     OW 8095   5.418   1.598   2.753
 2399SOL    HW1 8096   5.394   1.670   2.818
 2399SOL    HW2 8097   5.336   1.550   2.724
 2400SOL     OW 8098   4.203   5.182   6.993
 2400SOL    HW1 8099   4.161   5.232   6.918
 2400SOL    HW2 8100   4.137   5.174   0.046
 2401SOL     OW 8101   4.411   0.706   6.405
 2401SOL    HW1 8102   4.416   0.667   6.497
 2401SOL    HW2 8103   4.322   0.685   6.365
 2402SOL     OW 8104   0.914   1.911   4.311
 2402SOL    HW1 8105   0.905   1.949   4.403
 2402SOL    HW2 8106   0.946   1.982   4.249
 2403SOL     OW 8107   2.664   2.568   0.307
 2403SOL    HW1 8108   2.719   2.587   0.225
 2403SOL    HW2 8109   2.690   2.632   0.379
 2404SOL     OW 8110   6.057   1.145   1.640
 2404SOL    HW1 8111   6.102   1.181   1.559
 2404SOL    HW2 8112   6.072   1.207   1.717
 2405SOL     OW 8113   3.198   3.296   3.408
 2405SOL    HW1 8114   3.201   3.291   3.508
 2405SOL    HW2 8115   3.112   3.337   3.380
 2406SOL     OW 8116   1.663   6.760   3.450
 2406SOL    HW1 8117   1.589   6.743   3.516
 2406SOL    HW2 8118   1.623   6.789   3.363
 2407SOL     OW 8119   5.540   2.619   2.394
 2407SOL    HW1 8120   5.442   2.632   2.405
 2407SOL    HW2 8121   5.562   2.605   2.298
 2408SOL     OW 8122   3.377   4.888   2.809
 2408SOL    HW1 8123   3.367   4.981   2.773
 2408SOL    HW2 8124   3.472   4.872   2.836
 2409SOL     OW 8125   1.769   2.648   1.517
 2409SOL    HW1 8126   1.748   2.647   1.615
 2409SOL    HW2 8127   1.849   2.590   1.500
 2410SOL     OW 8128   4.908   2.272   6.171
 2410SOL    HW1 8129   4.870   2.337   6.106
 2410SOL    HW2 8130   4.956   2.199   6.121
 2411SOL     OW 8131   4.544   5.323   5.709
 2411SOL    HW1 8132   4.459   5.276   5.686
 2411SOL    HW2 8133   4.530   5.422   5.707
 2412SOL     OW 8134   3.407   4.674   0.211
 2412SOL    HW1 8135   3.432   4.581   0.186
 2412SOL    HW2 8136   3.479   4.737   0.180
 2413SOL     OW 8137   6.621   2.109   0.106
 2413SOL    HW1 8138   6.699   2.073   0.158
 2413SOL    HW2 8139   6.571   2.033   0.064
 2414SOL     OW 8140   5.351   4.160   1.957
 2414SOL    HW1 8141   5.385   4.068   1.940
 2414SOL    HW2 8142   5.331   4.205   1.870
 2415SOL     OW 8143   1.006   6.677   0.962
 2415SOL    HW1 8144   1.033   6.604   1.025
 2415SOL    HW2 8145   0.915   6.711   0.988
 2416SOL     OW 8146   3.592   1.958   5.121
 2416SOL    HW1 8147   3.552   2.029   5.179
 2416SOL    HW2 8148   3.562   1.972   5.027
 2417SOL     OW 8149   3.999   3.392   6.013
 2417SOL    HW1 8150   3.949   3.465   5.966
 2417SOL    HW2 8151   3.987   3.402   6.111
 2418SOL     OW 8152   3.115   3.898   4.067
 2418SOL    HW1 8153   3.172   3.981   4.069
 2418SOL    HW2 8154   3.116   3.860   3.974
 2419SOL     OW 8155   0.546   6.431   3.942
 2419SOL    HW1 8156   0.590   6.445   3.853
 2419SOL    HW2 8157   0.456   6.474   3.942
 2420SOL     OW 8158   3.624   1.431   2.118
 2420SOL    HW1 8159   3.539   1.428   2.172
 2420SOL    HW2 8160   3.639   1.341   2.076
 2421SOL     OW 8161   2.613   1.050   4.771
 2421SOL    HW1 8162   2.598   1.065   4.673
 2421SOL    HW2 8163   2.676   1.120   4.805
 2422SOL     OW 8164   6.087   0.622   2.198
 2422SOL    HW1 8165   6.085   0.714   2.237
 2422SOL    HW2 8166   6.000   0.603   2.151
 2423SOL     OW 8167   1.687   6.572   3.752
 2423SOL    HW1 8168   1.757   6.605   3.817
 2423SOL    HW2 8169   1.660   6.648   3.692
 2424SOL     OW 8170   5.981   5.962   6.096
 2424SOL    HW1 8171   5.997   5.911   6.011
 2424SOL    HW2 8172   5.922   5.908   6.156
 2425SOL     OW 8173   6.319   0.259   4.376
 2425SOL    HW1 8174   6.315   0.244   4.475
 2425SOL    HW2 8175   6.227   0.253   4.338
 2426SOL     OW 8176   0.563   4.687   3.693
 2426SOL    HW1 8177   0.552   4.786   3.681
 2426SOL    HW2 8178   0.473   4.643   3.688
 2427SOL     OW 8179   5.969   5.281   6.735
 2427SOL    HW1 8180   5.967   5.313   6.640
 2427SOL    HW2 8181   5.959   5.359   6.796
 2428SOL     OW 8182   0.128   0.396   3.336
 2428SOL    HW1 8183   0.160   0.321   3.394
 2428SOL    HW2 8184   0.079   0.462   3.393
 2429SOL     OW 8185   6.698   5.723   4.756
 2429SOL    HW1 8186   6.791   5.759   4.748
 2429SOL    HW2 8187   6.701   5.624   4.766
 2430SOL     OW 8188   6.411   2.301   1.114
 2430SOL    HW1 8189   6.385   2.349   1.198
 2430SOL    HW2 8190   6.333   2.300   1.051
 2431SOL     OW 8191   3.428   0.486   1.791
 2431SOL    HW1 8192   3.479   0.486   1.877
 2431SOL    HW2 8193   3.365   0.408   1.789
 2432SOL     OW 8194   3.843   6.447   3.261
 2432SOL    HW1 8195   3.863   6.503   3.181
 2432SOL    HW2 8196   3.780   6.496   3.321
 2433SOL     OW 8197   3.450   6.235   0.896
 2433SOL    HW1 8198   3.477   6.214   0.990
 2433SOL    HW2 8199   3.497   6.317   0.864
 2434SOL     OW 8200   4.678   1.350   3.768
 2434SOL    HW1 8201   4.722   1.380   3.683
 2434SOL    HW2 8202   4.716   1.401   3.845
 2435SOL     OW 8203   4.736   5.652   5.907
 2435SOL    HW1 8204   4.766   5.747   5.918
 2435SOL    HW2 8205   4.716   5.635   5.811
 2436SOL     OW 8206   1.677   6.511   1.207
 2436SOL    HW1 8207   1.732   6.595   1.202
 2436SOL    HW2 8208   1.580   6.535   1.200
 2437SOL     OW 8209   4.061   6.112   0.957
 2437SOL    HW1 8210   4.038   6.102   0.860
 2437SOL    HW2 8211   3.991   6.066   1.013
 2438SOL     OW 8212   3.705   1.574   5.741
 2438SOL    HW1 8213   3.791   1.614   5.771
 2438SOL    HW2 8214   3.682   1.608   5.650
 2439SOL     OW 8215   1.289   4.253   6.949
 2439SOL    HW1 8216   1.363   4.214   7.002
 2439SOL    HW2 8217   1.295   4.222   6.854
 2440SOL     OW 8218   3.700   6.367   4.812
 2440SOL    HW1 8219   3.650   6.424   4.878
 2440SOL    HW2 8220   3.733   6.424   4.737
 2441SOL     OW 8221   6.867   0.607   0.175
 2441SOL    HW1 8222   6.963   0.599   0.202
 2441SOL    HW2 8223   6.817   0.525   0.203
 2442SOL     OW 8224   6.837   5.913   4.333
 2442SOL    HW1 8225   6.775   5.963   4.272
 2442SOL    HW2 8226   6.817   5.815   4.329
 2443SOL     OW 8227   3.246   6.708   6.577
 2443SOL    HW1 8228   3.322   6.647   6.597
 2443SOL    HW2 8229   3.239   6.778   6.649
 2444SOL     OW 8230   3.734   4.640   6.354
 2444SOL    HW1 8231   3.821   4.607   6.316
 2444SOL    HW2 8232   3.742   4.738   6.373
 2445SOL     OW 8233   0.133   0.917   2.125
 2445SOL    HW1 8234   0.056   0.877   2.075
 2445SOL    HW2 8235   0.142   1.014   2.101
 2446SOL     OW 8236   0.248   3.168   4.375
 2446SOL    HW1 8237   0.240   3.074   4.341
 2446SOL    HW2 8238   0.267   3.229   4.299
 2447SOL     OW 8239   2.429   1.073   1.033
 2447SOL    HW1 8240   2.422   1.091   0.935
 2447SOL    HW2 8241   2.451   0.977   1.048
 2448SOL     OW 8242   0.922   0.235   5.229
 2448SOL    HW1 8243   0.873   0.252   5.315
 2448SOL    HW2 8244   0.869   0.170   5.173
 2449SOL     OW 8245   0.169   4.255   2.580
 2449SOL    HW1 8246   0.102   4.236   2.509
 2449SOL    HW2 8247   0.123   4.292   2.661
 2450SOL     OW 8248   2.881   4.857   4.395
 2450SOL    HW1 8249   2.855   4.779   4.452
 2450SOL    HW2 8250   2.800   4.910   4.372
 2451SOL     OW 8251   0.554   0.492   4.171
 2451SOL    HW1 8252   0.647   0.526   4.185
 2451SOL    HW2 8253   0.507   0.485   4.259
 2452SOL     OW 8254   2.296   2.302   3.213
 2452SOL    HW1 8255   2.209   2.273   3.173
 2452SOL    HW2 8256   2.322   2.391   3.174
 2453SOL     OW 8257   6.959   3.805   1.046
 2453SOL    HW1 8258   7.017   3.813   1.127
 2453SOL    HW2 8259   6.965   3.713   1.009
 2454SOL     OW 8260   3.680   1.428   0.596
 2454SOL    HW1 8261   3.582   1.442   0.582
 2454SOL    HW2 8262   3.694   1.348   0.655
 2455SOL     OW 8263   5.582   6.841   0.695
 2455SOL    HW1 8264   5.614   6.747   0.688
 2455SOL    HW2 8265   5.494   6.850   0.647
 2456SOL     OW 8266   5.712   0.931   0.087
 2456SOL    HW1 8267   5.703   0.978   0.175
 2456SOL    HW2 8268   5.692   0.834   0.098
 2457SOL     OW 8269   5.891   6.008   6.878
 2457SOL    HW1 8270   5.822   5.982   6.810
 2457SOL    HW2 8271   5.900   6.108   6.880
 2458SOL     OW 8272   2.682   5.518   4.233
 2458SOL    HW1 8273   2.719   5.537   4.324
 2458SOL    HW2 8274   2.658   5.604   4.188
 2459SOL     OW 8275   2.614   6.318   0.747
 2459SOL    HW1 8276   2.593   6.359   0.835
 2459SOL    HW2 8277   2.532   6.270   0.713
 2460SOL     OW 8278   2.373   1.033   1.693
 2460SOL    HW1 8279   2.472   1.016   1.695
 2460SOL    HW2 8280   2.328   0.957   1.646
 2461SOL     OW 8281   4.030   0.159   2.965
 2461SOL    HW1 8282   3.973   0.078   2.976
 2461SOL    HW2 8283   3.974   0.235   2.932
 2462SOL     OW 8284   2.532   5.113   0.265
 2462SOL    HW1 8285   2.597   5.181   0.233
 2462SOL    HW2 8286   2.451   5.113   0.206
 2463SOL     OW 8287   6.284   2.331   3.688
 2463SOL    HW1 8288   6.224   2.301   3.762
 2463SOL    HW2 8289   6.229   2.362   3.610
 2464SOL     OW 8290   1.708   4.533   1.969
 2464SOL    HW1 8291   1.767   4.474   2.024
 2464SOL    HW2 8292   1.764   4.596   1.916
 2465SOL     OW 8293   0.415   6.427   1.407
 2465SOL    HW1 8294   0.455   6.518   1.395
 2465SOL    HW2 8295   0.430   6.373   1.324
 2466SOL     OW 8296   3.630   1.507   2.397
 2466SOL    HW1 8297   3.715   1.558   2.380
 2466SOL    HW2 8298   3.631   1.422   2.345
 2467SOL     OW 8299   5.300   1.516   5.100
 2467SOL    HW1 8300   5.309   1.540   5.197
 2467SOL    HW2 8301   5.388   1.481   5.067
 2468SOL     OW 8302   5.386   6.414   2.469
 2468SOL    HW1 8303   5.391   6.489   2.403
 2468SOL    HW2 8304   5.370   6.451   2.560
 2469SOL     OW 8305   3.453   4.451   5.347
 2469SOL    HW1 8306   3.409   4.537   5.374
 2469SOL    HW2 8307   3.511   4.418   5.421
 2470SOL     OW 8308   3.445   4.286   5.682
 2470SOL    HW1 8309   3.351   4.322   5.687
 2470SOL    HW2 8310   3.446   4.205   5.624
 2471SOL     OW 8311   2.409   6.787   0.994
 2471SOL    HW1 8312   2.505   6.796   1.022
 2471SOL    HW2 8313   2.366   6.715   1.048
 2472SOL     OW 8314   4.780   1.570   3.941
 2472SOL    HW1 8315   4.869   1.572   3.989
 2472SOL    HW2 8316   4.759   1.662   3.907
 2473SOL     OW 8317   1.755   4.240   5.097
 2473SOL    HW1 8318   1.727   4.181   5.173
 2473SOL    HW2 8319   1.809   4.187   5.032
 2474SOL     OW 8320   0.293   5.582   0.388
 2474SOL    HW1 8321   0.350   5.653   0.348
 2474SOL    HW2 8322   0.252   5.527   0.316
 2475SOL     OW 8323   4.537   1.170   0.626
 2475SOL    HW1 8324   4.619   1.166   0.682
 2475SOL    HW2 8325   4.559   1.138   0.533
 2476SOL     OW 8326   1.292   2.982   3.619
 2476SOL    HW1 8327   1.388   2.956   3.609
 2476SOL    HW2 8328   1.245   2.917   3.678
 2477SOL     OW 8329   6.118   0.638   2.719
 2477SOL    HW1 8330   6.049   0.649   2.648
 2477SOL    HW2 8331   6.194   0.585   2.683
 2478SOL     OW 8332   5.447   0.191   2.338
 2478SOL    HW1 8333   5.531   0.145   2.366
 2478SOL    HW2 8334   5.377   0.123   2.319
 2479SOL     OW 8335   1.550   3.551   1.134
 2479SOL    HW1 8336   1.622   3.620   1.130
 2479SOL    HW2 8337   1.470   3.588   1.181
 2480SOL     OW 8338   5.794   4.483   0.984
 2480SOL    HW1 8339   5.760   4.407   0.929
 2480SOL    HW2 8340   5.717   4.528   1.030
 2481SOL     OW 8341   2.796   6.832   0.138
 2481SOL    HW1 8342   2.828   6.739   0.119
 2481SOL    HW2 8343   2.752   6.869   0.056
 2482SOL     OW 8344   5.276   3.090   5.496
 2482SOL    HW1 8345   5.376   3.083   5.495
 2482SOL    HW2 8346   5.237   3.000   5.515
 2483SOL     OW 8347   1.929   1.187   6.666
 2483SOL    HW1 8348   1.880   1.152   6.746
 2483SOL    HW2 8349   1.907   1.131   6.587
 2484SOL     OW 8350   2.095   0.559   0.609
 2484SOL    HW1 8351   2.131   0.624   0.676
 2484SOL    HW2 8352   2.026   0.603   0.552
 2485SOL     OW 8353   4.762   4.470   2.042
 2485SOL    HW1 8354   4.690   4.425   1.990
 2485SOL    HW2 8355   4.771   4.425   2.131
 2486SOL     OW 8356   3.366   5.399   2.536
 2486SOL    HW1 8357   3.328   5.490   2.519
 2486SOL    HW2 8358   3.302   5.330   2.502
 2487SOL     OW 8359   3.692   5.434   6.226
 2487SOL    HW1 8360   3.731   5.450   6.135
 2487SOL    HW2 8361   3.705   5.339   6.252
 2488SOL     OW 8362   2.226   3.972   2.148
 2488SOL    HW1 8363   2.196   3.881   2.121
 2488SOL    HW2 8364   2.252   4.024   2.066
 2489SOL     OW 8365   2.279   5.333   3.870
 2489SOL    HW1 8366   2.371   5.364   3.893
 2489SOL    HW2 8367   2.267   5.336   3.771
 2490SOL     OW 8368   6.623   5.551   0.878
 2490SOL    HW1 8369   6.624   5.598   0.790
 2490SOL    HW2 8370   6.529   5.532   0.905
 2491SOL     OW 8371   2.500   6.295   2.083
 2491SOL    HW1 8372   2.497   6.379   2.028
 2491SOL    HW2 8373   2.408   6.257   2.090
 2492SOL     OW 8374   4.209   3.212   6.948
 2492SOL    HW1 8375   4.159   3.296   6.928
 2492SOL    HW2 8376   4.306   3.225   6.930
 2493SOL     OW 8377   5.710   0.166   2.934
 2493SOL    HW1 8378   5.684   0.083   2.983
 2493SOL    HW2 8379   5.810   0.175   2.935
 2494SOL     OW 8380   5.672   3.460   2.552
 2494SOL    HW1 8381   5.601   3.513   2.506
 2494SOL    HW2 8382   5.750   3.447   2.490
 2495SOL     OW 8383   5.319   0.007   4.891
 2495SOL    HW1 8384   5.256   0.043   4.822
 2495SOL    HW2 8385   5.410   0.044   4.875
 2496SOL     OW 8386   1.026   4.702   6.352
 2496SOL    HW1 8387   1.096   4.762   6.312
 2496SOL    HW2 8388   0.957   4.757   6.398
 2497SOL     OW 8389   6.683   1.401   0.649
 2497SOL    HW1 8390   6.587   1.373   0.659
 2497SOL    HW2 8391   6.689   1.500   0.648
 2498SOL     OW 8392   2.958   2.259   3.388
 2498SOL    HW1 8393   2.882   2.313   3.425
 2498SOL    HW2 8394   3.028   2.249   3.458
 2499SOL     OW 8395   5.394   1.507   4.712
 2499SOL    HW1 8396   5.446   1.585   4.677
 2499SOL    HW2 8397   5.425   1.424   4.667
 2500SOL     OW 8398   4.324   3.231   5.797
 2500SOL    HW1 8399   4.242   3.261   5.747
 2500SOL    HW2 8400   4.307   3.141   5.838
 2501SOL     OW 8401   0.196   5.855   6.842
 2501SOL    HW1 8402   0.142   5.781   6.803
 2501SOL    HW2 8403   0.259   5.890   6.773
 2502SOL     OW 8404   2.725   6.226   3.433
 2502SOL    HW1 8405   2.650   6.185   3.485
 2502SOL    HW2 8406   2.766   6.156   3.375
 2503SOL     OW 8407   3.389   6.080   5.646
 2503SOL    HW1 8408   3.437   6.069   5.558
 2503SOL    HW2 8409   3.453   6.112   5.715
 2504SOL     OW 8410   2.983   6.073   5.292
 2504SOL    HW1 8411   3.074   6.053   5.258
 2504SOL    HW2 8412   2.938   5.988   5.318
 2505SOL     OW 8413   1.630   6.565   4.558
 2505SOL    HW1 8414   1.697   6.491   4.555
 2505SOL    HW2 8415   1.677   6.653   4.555
 2506SOL     OW 8416   6.322   3.027   6.304
 2506SOL    HW1 8417   6.331   3.004   6.208
 2506SOL    HW2 8418   6.406   3.005   6.353
 2507SOL     OW 8419   6.908   4.162   0.181
 2507SOL    HW1 8420   6.902   4.239   0.117
 2507SOL    HW2 8421   7.001   4.125   0.178
 2508SOL     OW 8422   2.638   1.778   2.314
 2508SOL    HW1 8423   2.615   1.870   2.345
 2508SOL    HW2 8424   2.644   1.716   2.393
 2509SOL     OW 8425   5.564   2.852   2.910
 2509SOL    HW1 8426   5.581   2.948   2.933
 2509SOL    HW2 8427   5.521   2.847   2.820
 2510SOL     OW 8428   3.007   4.365   0.894
 2510SOL    HW1 8429   3.051   4.450   0.921
 2510SOL    HW2 8430   3.059   4.323   0.819
 2511SOL     OW 8431   2.041   1.992   4.706
 2511SOL    HW1 8432   2.026   2.063   4.638
 2511SOL    HW2 8433   2.006   2.022   4.794
 2512SOL     OW 8434   5.582   5.062   5.578
 2512SOL    HW1 8435   5.673   5.102   5.579
 2512SOL    HW2 8436   5.588   4.965   5.601
 2513SOL     OW 8437   1.556   2.746   5.897
 2513SOL    HW1 8438   1.494   2.731   5.820
 2513SOL    HW2 8439   1.551   2.841   5.926
 2514SOL     OW 8440   0.320   3.334   4.180
 2514SOL    HW1 8441   0.385   3.408   4.165
 2514SOL    HW2 8442   0.229   3.361   4.147
 2515SOL     OW 8443   1.300   6.389   0.582
 2515SOL    HW1 8444   1.251   6.317   0.532
 2515SOL    HW2 8445   1.365   6.347   0.645
 2516SOL     OW 8446   6.129   6.344   2.882
 2516SOL    HW1 8447   6.175   6.260   2.853
 2516SOL    HW2 8448   6.135   6.353   2.981
 2517SOL     OW 8449   1.829   5.610   5.554
 2517SOL    HW1 8450   1.877   5.670   5.617
 2517SOL    HW2 8451   1.840   5.644   5.460
 2518SOL     OW 8452   2.234   3.268   0.481
 2518SOL    HW1 8453   2.158   3.261   0.416
 2518SOL    HW2 8454   2.198   3.274   0.574
 2519SOL     OW 8455   5.106   5.096   4.413
 2519SOL    HW1 8456   5.105   4.996   4.419
 2519SOL    HW2 8457   5.138   5.135   4.499
 2520SOL     OW 8458   0.882   3.362   1.022
 2520SOL    HW1 8459   0.801   3.325   1.067
 2520SOL    HW2 8460   0.963   3.345   1.078
 2521SOL     OW 8461   1.249   6.410   5.563
 2521SOL    HW1 8462   1.345   6.402   5.537
 2521SOL    HW2 8463   1.243   6.434   5.660
 2522SOL     OW 8464   0.978   2.919   5.713
 2522SOL    HW1 8465   0.898   2.863   5.736
 2522SOL    HW2 8466   1.019   2.885   5.629
 2523SOL     OW 8467   0.611   3.354   1.325
 2523SOL    HW1 8468   0.693   3.324   1.373
 2523SOL    HW2 8469   0.584   3.284   1.258
 2524SOL     OW 8470   0.542   6.236   4.334
 2524SOL    HW1 8471   0.560   6.144   4.370
 2524SOL    HW2 8472   0.624   6.272   4.291
 2525SOL     OW 8473   1.024   2.596   4.693
 2525SOL    HW1 8474   1.058   2.644   4.612
 2525SOL    HW2 8475   1.101   2.574   4.753
 2526SOL     OW 8476   0.969   3.737   5.725
 2526SOL    HW1 8477   1.007   3.820   5.683
 2526SOL    HW2 8478   0.923   3.683   5.655
 2527SOL     OW 8479   4.986   0.027   4.965
 2527SOL    HW1 8480   5.076   0.018   5.007
 2527SOL    HW2 8481   4.917   0.035   5.037
 2528SOL     OW 8482   6.064   4.456   1.068
 2528SOL    HW1 8483   5.964   4.443   1.064
 2528SOL    HW2 8484   6.085   4.536   1.124
 2529SOL     OW 8485   5.875   5.142   6.362
 2529SOL    HW1 8486   5.784   5.176   6.340
 2529SOL    HW2 8487   5.873   5.042   6.367
 2530SOL     OW 8488   1.183   5.837   5.048
 2530SOL    HW1 8489   1.126   5.786   5.112
 2530SOL    HW2 8490   1.198   5.930   5.083
 2531SOL     OW 8491   5.511   5.407   4.643
 2531SOL    HW1 8492   5.608   5.382   4.641
 2531SOL    HW2 8493   5.502   5.505   4.661
 2532SOL     OW 8494   0.564   5.902   0.491
 2532SOL    HW1 8495   0.566   5.850   0.406
 2532SOL    HW2 8496   0.616   5.986   0.481
 2533SOL     OW 8497   5.170   6.320   4.035
 2533SOL    HW1 8498   5.195   6.355   4.125
 2533SOL    HW2 8499   5.205   6.381   3.964
 2534SOL     OW 8500   2.256   0.455   3.368
 2534SOL    HW1 8501   2.282   0.378   3.309
 2534SOL    HW2 8502   2.289   0.540   3.328
 2535SOL     OW 8503   2.585   2.244   6.903
 2535SOL    HW1 8504   2.633   2.221   6.988
 2535SOL    HW2 8505   2.551   2.338   6.907
 2536SOL     OW 8506   0.817   1.745   3.846
 2536SOL    HW1 8507   0.832   1.722   3.942
 2536SOL    HW2 8508   0.840   1.841   3.831
 2537SOL     OW 8509   5.101   6.088   0.288
 2537SOL    HW1 8510   5.090   6.017   0.357
 2537SOL    HW2 8511   5.190   6.078   0.244
 2538SOL     OW 8512   1.863   4.491   5.198
 2538SOL    HW1 8513   1.955   4.500   5.159
 2538SOL    HW2 8514   1.822   4.406   5.165
 2539SOL     OW 8515   3.715   0.198   5.847
 2539SOL    HW1 8516   3.625   0.223   5.810
 2539SOL    HW2 8517   3.755   0.277   5.892
 2540SOL     OW 8518   4.879   0.891   0.851
 2540SOL    HW1 8519   4.939   0.932   0.782
 2540SOL    HW2 8520   4.812   0.832   0.806
 2541SOL     OW 8521   1.729   0.377   6.119
 2541SOL    HW1 8522   1.714   0.290   6.071
 2541SOL    HW2 8523   1.738   0.451   6.053
 2542SOL     OW 8524   3.834   2.021   4.587
 2542SOL    HW1 8525   3.847   1.932   4.543
 2542SOL    HW2 8526   3.834   2.093   4.517
 2543SOL     OW 8527   2.331   0.780   2.651
 2543SOL    HW1 8528   2.330   0.824   2.561
 2543SOL    HW2 8529   2.265   0.706   2.653
 2544SOL     OW 8530   0.264   4.830   2.406
 2544SOL    HW1 8531   0.213   4.908   2.441
 2544SOL    HW2 8532   0.232   4.808   2.314
 2545SOL     OW 8533   1.438   0.541   1.684
 2545SOL    HW1 8534   1.382   0.462   1.710
 2545SOL    HW2 8535   1.471   0.587   1.766
 2546SOL     OW 8536   5.918   3.123   1.405
 2546SOL    HW1 8537   6.014   3.127   1.433
 2546SOL    HW2 8538   5.859   3.125   1.486
 2547SOL     OW 8539   5.246   5.426   6.811
 2547SOL    HW1 8540   5.160   5.379   6.831
 2547SOL    HW2 8541   5.249   5.452   6.715
 2548SOL     OW 8542   2.419   0.817   5.158
 2548SOL    HW1 8543   2.400   0.817   5.256
 2548SOL    HW2 8544   2.405   0.908   5.120
 2549SOL     OW 8545   2.155   1.994   1.742
 2549SOL    HW1 8546   2.222   2.001   1.816
 2549SOL    HW2 8547   2.069   1.957   1.778
 2550SOL     OW 8548   6.023   1.205   6.565
 2550SOL    HW1 8549   5.978   1.130   6.516
 2550SOL    HW2 8550   5.964   1.236   6.640
 2551SOL     OW 8551   3.202   5.782   0.174
 2551SOL    HW1 8552   3.219   5.784   0.075
 2551SOL    HW2 8553   3.119   5.729   0.193
 2552SOL     OW 8554   1.684   5.398   6.587
 2552SOL    HW1 8555   1.602   5.455   6.574
 2552SOL    HW2 8556   1.703   5.349   6.501
 2553SOL     OW 8557   3.131   3.090   6.284
 2553SOL    HW1 8558   3.121   3.056   6.190
 2553SOL    HW2 8559   3.116   3.189   6.285
 2554SOL     OW 8560   1.621   5.740   6.733
 2554SOL    HW1 8561   1.688   5.670   6.759
 2554SOL    HW2 8562   1.532   5.717   6.772
 2555SOL     OW 8563   6.062   6.251   6.496
 2555SOL    HW1 8564   5.977   6.291   6.531
 2555SOL    HW2 8565   6.079   6.164   6.541
 2556SOL     OW 8566   4.336   6.119   1.013
 2556SOL    HW1 8567   4.366   6.213   1.031
 2556SOL    HW2 8568   4.239   6.119   0.989
 2557SOL     OW 8569   2.524   1.129   6.599
 2557SOL    HW1 8570   2.537   1.118   6.500
 2557SOL    HW2 8571   2.555   1.221   6.626
 2558SOL     OW 8572   4.087   3.757   4.949
 2558SOL    HW1 8573   4.119   3.668   4.915
 2558SOL    HW2 8574   4.050   3.811   4.873
 2559SOL     OW 8575   6.290   3.124   3.926
 2559SOL    HW1 8576   6.297   3.038   3.977
 2559SOL    HW2 8577   6.219   3.114   3.856
 2560SOL     OW 8578   4.967   3.591   3.631
 2560SOL    HW1 8579   5.050   3.545   3.601
 2560SOL    HW2 8580   4.976   3.617   3.727
 2561SOL     OW 8581   3.327   0.703   3.714
 2561SOL    HW1 8582   3.419   0.671   3.692
 2561SOL    HW2 8583   3.271   0.702   3.631
 2562SOL     OW 8584   2.439   5.332   3.399
 2562SOL    HW1 8585   2.512   5.400   3.384
 2562SOL    HW2 8586   2.391   5.317   3.313
 2563SOL     OW 8587   3.722   1.302   6.016
 2563SOL    HW1 8588   3.697   1.398   6.031
 2563SOL    HW2 8589   3.803   1.281   6.069
 2564SOL     OW 8590   1.514   6.335   6.954
 2564SOL    HW1 8591   1.605   6.295   6.950
 2564SOL    HW2 8592   1.476   6.341   6.862
 2565SOL     OW 8593   0.412   0.683   0.926
 2565SOL    HW1 8594   0.476   0.613   0.895
 2565SOL    HW2 8595   0.359   0.716   0.847
 2566SOL     OW 8596   1.374   6.831   0.697
 2566SOL    HW1 8597   1.375   6.912   0.638
 2566SOL    HW2 8598   1.410   6.753   0.646
 2567SOL     OW 8599   1.501   1.472   1.881
 2567SOL    HW1 8600   1.493   1.523   1.795
 2567SOL    HW2 8601   1.419   1.416   1.893
 2568SOL     OW 8602   3.484   0.164   0.673
 2568SOL    HW1 8603   3.565   0.218   0.652
 2568SOL    HW2 8604   3.502   0.068   0.651
 2569SOL     OW 8605   2.077   1.517   2.257
 2569SOL    HW1 8606   1.992   1.565   2.238
 2569SOL    HW2 8607   2.076   1.482   2.350
 2570SOL     OW 8608   4.754   6.747   6.304
 2570SOL    HW1 8609   4.765   6.652   6.275
 2570SOL    HW2 8610   4.775   6.808   6.227
 2571SOL     OW 8611   2.982   3.164   4.207
 2571SOL    HW1 8612   2.997   3.090   4.272
 2571SOL    HW2 8613   3.034   3.245   4.235
 2572SOL     OW 8614   1.524   6.332   0.750
 2572SOL    HW1 8615   1.624   6.329   0.750
 2572SOL    HW2 8616   1.489   6.268   0.819
 2573SOL     OW 8617   6.612   1.246   2.088
 2573SOL    HW1 8618   6.535   1.218   2.030
 2573SOL    HW2 8619   6.581   1.258   2.182
 2574SOL     OW 8620   6.426   3.250   0.469
 2574SOL    HW1 8621   6.342   3.279   0.422
 2574SOL    HW2 8622   6.415   3.264   0.567
 2575SOL     OW 8623   4.994   3.705   1.588
 2575SOL    HW1 8624   5.065   3.771   1.613
 2575SOL    HW2 8625   5.036   3.630   1.536
 2576SOL     OW 8626   4.070   6.497   3.893
 2576SOL    HW1 8627   4.051   6.442   3.811
 2576SOL    HW2 8628   4.116   6.582   3.866
 2577SOL     OW 8629   4.876   0.403   3.542
 2577SOL    HW1 8630   4.809   0.330   3.558
 2577SOL    HW2 8631   4.853   0.451   3.457
 2578SOL     OW 8632   4.105   3.092   5.647
 2578SOL    HW1 8633   4.043   3.015   5.659
 2578SOL    HW2 8634   4.188   3.061   5.602
 2579SOL     OW 8635   1.320   1.704   4.670
 2579SOL    HW1 8636   1.399   1.642   4.672
 2579SOL    HW2 8637   1.269   1.691   4.585
 2580SOL     OW 8638   1.600   3.111   6.363
 2580SOL    HW1 8639   1.552   3.167   6.431
 2580SOL    HW2 8640   1.692   3.148   6.348
 2581SOL     OW 8641   5.791   4.634   1.901
 2581SOL    HW1 8642   5.829   4.595   1.818
 2581SOL    HW2 8643   5.812   4.574   1.979
 2582SOL     OW 8644   1.830   4.747   2.823
 2582SOL    HW1 8645   1.810   4.799   2.906
 2582SOL    HW2 8646   1.852   4.810   2.749
 2583SOL     OW 8647   1.697   0.947   1.482
 2583SOL    HW1 8648   1.630   0.959   1.555
 2583SOL    HW2 8649   1.656   0.895   1.408
 2584SOL     OW 8650   3.867   5.621   0.049
 2584SOL    HW1 8651   3.889   5.527   0.023
 2584SOL    HW2 8652   3.772   5.625   0.082
 2585SOL     OW 8653   3.527   0.619   0.060
 2585SOL    HW1 8654   3.605   0.576   0.013
 2585SOL    HW2 8655   3.446   0.561   0.050
 2586SOL     OW 8656   4.788   1.968   4.308
 2586SOL    HW1 8657   4.832   1.993   4.395
 2586SOL    HW2 8658   4.724   2.040   4.281
 2587SOL     OW 8659   6.744   1.132   4.521
 2587SOL    HW1 8660   6.840   1.160   4.525
 2587SOL    HW2 8661   6.685   1.213   4.521
 2588SOL     OW 8662   4.884   0.512   0.104
 2588SOL    HW1 8663   4.967   0.490   0.053
 2588SOL    HW2 8664   4.816   0.440   0.091
 2589SOL     OW 8665   0.527   6.423   5.579
 2589SOL    HW1 8666   0.457   6.351   5.575
 2589SOL    HW2 8667   0.617   6.382   5.565
 2590SOL     OW 8668   3.331   6.222   2.375
 2590SOL    HW1 8669   3.328   6.162   2.455
 2590SOL    HW2 8670   3.238   6.249   2.351
 2591SOL     OW 8671   6.000   6.090   2.400
 2591SOL    HW1 8672   5.957   6.074   2.489
 2591SOL    HW2 8673   5.937   6.062   2.327
 2592SOL     OW 8674   2.768   0.104   0.964
 2592SOL    HW1 8675   2.825   0.179   0.931
 2592SOL    HW2 8676   2.806   0.068   1.050
 2593SOL     OW 8677   3.261   6.626   2.025
 2593SOL    HW1 8678   3.206   6.688   2.081
 2593SOL    HW2 8679   3.358   6.651   2.032
 2594SOL     OW 8680   0.157   6.046   5.950
 2594SOL    HW1 8681   0.163   6.108   5.872
 2594SOL    HW2 8682   0.238   5.987   5.951
 2595SOL     OW 8683   6.293   1.577   5.613
 2595SOL    HW1 8684   6.364   1.643   5.634
 2595SOL    HW2 8685   6.241   1.556   5.696
 2596SOL     OW 8686   3.949   2.215   1.839
 2596SOL    HW1 8687   3.988   2.182   1.926
 2596SOL    HW2 8688   3.861   2.260   1.857
 2597SOL     OW 8689   1.830   4.284   0.477
 2597SOL    HW1 8690   1.746   4.233   0.459
 2597SOL    HW2 8691   1.809   4.382   0.486
 2598SOL     OW 8692   6.031   1.530   4.441
 2598SOL    HW1 8693   6.042   1.440   4.398
 2598SOL    HW2 8694   6.029   1.601   4.371
 2599SOL     OW 8695   3.251   6.286   0.546
 2599SOL    HW1 8696   3.267   6.225   0.623
 2599SOL    HW2 8697   3.277   6.240   0.461
 2600SOL     OW 8698   4.963   3.588   4.777
 2600SOL    HW1 8699   4.979   3.490   4.766
 2600SOL    HW2 8700   4.900   3.602   4.854
 2601SOL     OW 8701   3.205   1.378   6.897
 2601SOL    HW1 8702   3.304   1.377   6.889
 2601SOL    HW2 8703   3.164   1.373   6.806
 2602SOL     OW 8704   6.625   5.027   3.887
 2602SOL    HW1 8705   6.569   5.107   3.910
 2602SOL    HW2 8706   6.708   5.058   3.839
 2603SOL     OW 8707   2.320   2.624   1.534
 2603SOL    HW1 8708   2.339   2.684   1.612
 2603SOL    HW2 8709   2.267   2.675   1.465
 2604SOL     OW 8710   5.332   1.275   2.751
 2604SOL    HW1 8711   5.265   1.329   2.699
 2604SOL    HW2 8712   5.361   1.327   2.831
 2605SOL     OW 8713   3.120   5.162   3.538
 2605SOL    HW1 8714   3.148   5.068   3.554
 2605SOL    HW2 8715   3.030   5.178   3.578
 2606SOL     OW 8716   6.688   4.833   0.433
 2606SOL    HW1 8717   6.747   4.752   0.434
 2606SOL    HW2 8718   6.636   4.838   0.518
 2607SOL     OW 8719   0.665   1.833   6.244
 2607SOL    HW1 8720   0.764   1.826   6.239
 2607SOL    HW2 8721   0.628   1.861   6.155
 2608SOL     OW 8722   3.867   5.599   2.438
 2608SOL    HW1 8723   3.858   5.617   2.536
 2608SOL    HW2 8724   3.879   5.685   2.389
 2609SOL     OW 8725   0.533   2.796   1.194
 2609SOL    HW1 8726   0.549   2.737   1.115
 2609SOL    HW2 8727   0.601   2.777   1.264
 2610SOL     OW 8728   6.809   4.937   4.545
 2610SOL    HW1 8729   6.868   5.017   4.533
 2610SOL    HW2 8730   6.835   4.866   4.481
 2611SOL     OW 8731   5.744   0.112   1.412
 2611SOL    HW1 8732   5.658   0.066   1.437
 2611SOL    HW2 8733   5.762   0.099   1.315
 2612SOL     OW 8734   0.072   6.173   6.197
 2612SOL    HW1 8735   0.082   6.140   6.103
 2612SOL    HW2 8736   0.029   6.263   6.197
 2613SOL     OW 8737   3.194   6.597   1.114
 2613SOL    HW1 8738   3.158   6.514   1.071
 2613SOL    HW2 8739   3.231   6.657   1.043
 2614SOL     OW 8740   6.889   6.872   6.526
 2614SOL    HW1 8741   6.987   6.888   6.529
 2614SOL    HW2 8742   6.846   6.937   6.464
 2615SOL     OW 8743   5.963   4.559   2.784
 2615SOL    HW1 8744   6.034   4.551   2.714
 2615SOL    HW2 8745   5.929   4.467   2.807
 2616SOL     OW 8746   3.856   3.591   3.705
 2616SOL    HW1 8747   3.819   3.608   3.614
 2616SOL    HW2 8748   3.860   3.678   3.756
 2617SOL     OW 8749   3.864   6.355   1.283
 2617SOL    HW1 8750   3.784   6.413   1.297
 2617SOL    HW2 8751   3.869   6.287   1.356
 2618SOL     OW 8752   0.293   6.620   3.835
 2618SOL    HW1 8753   0.314   6.685   3.908
 2618SOL    HW2 8754   0.196   6.595   3.839
 2619SOL     OW 8755   2.815   1.557   3.414
 2619SOL    HW1 8756   2.809   1.481   3.349
 2619SOL    HW2 8757   2.812   1.522   3.507
 2620SOL     OW 8758   0.873   6.001   3.437
 2620SOL    HW1 8759   0.861   6.028   3.532
 2620SOL    HW2 8760   0.844   5.905   3.426
 2621SOL     OW 8761   2.131   5.912   2.942
 2621SOL    HW1 8762   2.032   5.919   2.935
 2621SOL    HW2 8763   2.162   5.959   3.026
 2622SOL     OW 8764   2.801   1.904   0.098
 2622SOL    HW1 8765   2.830   1.952   0.015
 2622SOL    HW2 8766   2.703   1.885   0.094
 2623SOL     OW 8767   3.467   1.681   4.767
 2623SOL    HW1 8768   3.422   1.591   4.758
 2623SOL    HW2 8769   3.536   1.691   4.697
 2624SOL     OW 8770   6.467   3.330   4.890
 2624SOL    HW1 8771   6.526   3.308   4.968
 2624SOL    HW2 8772   6.513   3.395   4.830
 2625SOL     OW 8773   2.475   2.694   6.089
 2625SOL    HW1 8774   2.542   2.687   6.162
 2625SOL    HW2 8775   2.475   2.787   6.052
 2626SOL     OW 8776   0.752   0.590   5.091
 2626SOL    HW1 8777   0.761   0.689   5.083
 2626SOL    HW2 8778   0.694   0.555   5.018
 2627SOL     OW 8779   0.456   0.492   5.005
 2627SOL    HW1 8780   0.430   0.505   4.909
 2627SOL    HW2 8781   0.473   0.395   5.022
 2628SOL     OW 8782   2.675   5.491   6.775
 2628SOL    HW1 8783   2.756   5.460   6.824
 2628SOL    HW2 8784   2.594   5.445   6.811
 2629SOL     OW 8785   3.184   3.919   1.744
 2629SOL    HW1 8786   3.092   3.949   1.768
 2629SOL    HW2 8787   3.219   3.858   1.815
 2630SOL     OW 8788   3.043   1.742   3.503
 2630SOL    HW1 8789   2.976   1.672   3.480
 2630SOL    HW2 8790   3.015   1.830   3.463
 2631SOL     OW 8791   4.731   0.876   4.361
 2631SOL    HW1 8792   4.685   0.812   4.421
 2631SOL    HW2 8793   4.786   0.825   4.294
 2632SOL     OW 8794   2.741   1.877   6.710
 2632SOL    HW1 8795   2.775   1.903   6.620
 2632SOL    HW2 8796   2.794   1.799   6.744
 2633SOL     OW 8797   5.798   1.826   5.747
 2633SOL    HW1 8798   5.717   1.884   5.736
 2633SOL    HW2 8799   5.835   1.838   5.839
 2634SOL     OW 8800   2.010   4.327   2.396
 2634SOL    HW1 8801   2.088   4.269   2.373
 2634SOL    HW2 8802   1.930   4.270   2.413
 2635SOL     OW 8803   5.599   6.285   4.741
 2635SOL    HW1 8804   5.581   6.368   4.794
 2635SOL    HW2 8805   5.616   6.310   4.645
 2636SOL     OW 8806   4.571   0.830   5.413
 2636SOL    HW1 8807   4.617   0.797   5.495
 2636SOL    HW2 8808   4.485   0.779   5.400
 2637SOL     OW 8809   6.392   1.449   3.845
 2637SOL    HW1 8810   6.385   1.483   3.752
 2637SOL    HW2 8811   6.301   1.426   3.880
 2638SOL     OW 8812   0.090   6.899   3.011
 2638SOL    HW1 8813   0.098   6.919   2.914
 2638SOL    HW2 8814   7.019   6.922   3.042
 2639SOL     OW 8815   0.965   0.124   1.893
 2639SOL    HW1 8816   0.947   0.079   1.806
 2639SOL    HW2 8817   0.885   0.116   1.952
 2640SOL     OW 8818   6.810   6.108   5.088
 2640SOL    HW1 8819   6.866   6.043   5.139
 2640SOL    HW2 8820   6.713   6.089   5.103
 2641SOL     OW 8821   4.973   2.691   2.332
 2641SOL    HW1 8822   4.919   2.733   2.259
 2641SOL    HW2 8823   4.975   2.592   2.319
 2642SOL     OW 8824   4.848   0.143   4.445
 2642SOL    HW1 8825   4.933   0.161   4.494
 2642SOL    HW2 8826   4.819   0.048   4.462
 2643SOL     OW 8827   1.683   4.895   3.011
 2643SOL    HW1 8828   1.658   4.979   2.964
 2643SOL    HW2 8829   1.600   4.841   3.029
 2644SOL     OW 8830   6.577   4.949   6.220
 2644SOL    HW1 8831   6.660   4.914   6.263
 2644SOL    HW2 8832   6.506   4.879   6.222
 2645SOL     OW 8833   4.354   5.834   4.012
 2645SOL    HW1 8834   4.437   5.877   3.977
 2645SOL    HW2 8835   4.360   5.735   4.000
 2646SOL     OW 8836   5.757   0.136   6.667
 2646SOL    HW1 8837   5.701   0.056   6.648
 2646SOL    HW2 8838   5.817   0.118   6.744
 2647SOL     OW 8839   5.896   0.657   1.626
 2647SOL    HW1 8840   5.941   0.575   1.660
 2647SOL    HW2 8841   5.949   0.696   1.550
 2648SOL     OW 8842   0.239   0.405   3.093
 2648SOL    HW1 8843   0.338   0.416   3.097
 2648SOL    HW2 8844   0.201   0.406   3.185
 2649SOL     OW 8845   5.423   3.259   6.085
 2649SOL    HW1 8846   5.352   3.307   6.033
 2649SOL    HW2 8847   5.380   3.193   6.147
 2650SOL     OW 8848   0.930   3.872   4.145
 2650SOL    HW1 8849   0.845   3.821   4.154
 2650SOL    HW2 8850   0.929   3.922   4.058
 2651SOL     OW 8851   0.036   2.095   0.030
 2651SOL    HW1 8852   0.047   1.999   0.057
 2651SOL    HW2 8853   0.124   2.143   0.041
 2652SOL     OW 8854   2.936   3.705   3.689
 2652SOL    HW1 8855   2.873   3.736   3.760
 2652SOL    HW2 8856   3.030   3.710   3.724
 2653SOL     OW 8857   5.032   6.822   5.250
 2653SOL    HW1 8858   5.106   6.772   5.205
 2653SOL    HW2 8859   4.944   6.784   5.221
 2654SOL     OW 8860   4.622   4.309   1.338
 2654SOL    HW1 8861   4.698   4.341   1.394
 2654SOL    HW2 8862   4.544   4.288   1.396
 2655SOL     OW 8863   5.235   4.635   4.643
 2655SOL    HW1 8864   5.167   4.571   4.679
 2655SOL    HW2 8865   5.230   4.722   4.692
 2656SOL     OW 8866   4.128   4.750   4.259
 2656SOL    HW1 8867   4.085   4.669   4.220
 2656SOL    HW2 8868   4.083   4.832   4.222
 2657SOL     OW 8869   2.812   4.252   6.677
 2657SOL    HW1 8870   2.805   4.152   6.687
 2657SOL    HW2 8871   2.837   4.274   6.583
 2658SOL     OW 8872   5.037   4.047   0.524
 2658SOL    HW1 8873   4.968   3.982   0.554
 2658SOL    HW2 8874   5.044   4.045   0.424
 2659SOL     OW 8875   6.220   2.670   4.747
 2659SOL    HW1 8876   6.229   2.691   4.649
 2659SOL    HW2 8877   6.154   2.595   4.758
 2660SOL     OW 8878   0.764   1.387   0.847
 2660SOL    HW1 8879   0.689   1.330   0.880
 2660SOL    HW2 8880   0.851   1.344   0.871
 2661SOL     OW 8881   2.361   6.563   1.139
 2661SOL    HW1 8882   2.430   6.562   1.211
 2661SOL    HW2 8883   2.296   6.488   1.155
 2662SOL     OW 8884   4.201   0.500   5.424
 2662SOL    HW1 8885   4.102   0.492   5.422
 2662SOL    HW2 8886   4.242   0.429   5.368
 2663SOL     OW 8887   2.768   3.990   1.277
 2663SOL    HW1 8888   2.765   3.963   1.374
 2663SOL    HW2 8889   2.698   3.941   1.226
 2664SOL     OW 8890   3.671   3.906   4.628
 2664SOL    HW1 8891   3.602   3.834   4.622
 2664SOL    HW2 8892   3.643   3.984   4.573
 2665SOL     OW 8893   2.885   2.505   5.340
 2665SOL    HW1 8894   2.862   2.597   5.371
 2665SOL    HW2 8895   2.985   2.494   5.342
 2666SOL     OW 8896   4.867   3.744   1.836
 2666SOL    HW1 8897   4.902   3.686   1.910
 2666SOL    HW2 8898   4.910   3.717   1.750
 2667SOL     OW 8899   1.474   6.162   4.288
 2667SOL    HW1 8900   1.516   6.091   4.232
 2667SOL    HW2 8901   1.533   6.243   4.289
 2668SOL     OW 8902   6.145   3.236   3.696
 2668SOL    HW1 8903   6.133   3.336   3.696
 2668SOL    HW2 8904   6.063   3.193   3.658
 2669SOL     OW 8905   3.258   4.869   5.050
 2669SOL    HW1 8906   3.258   4.810   5.131
 2669SOL    HW2 8907   3.173   4.855   4.999
 2670SOL     OW 8908   5.584   1.886   6.295
 2670SOL    HW1 8909   5.643   1.943   6.239
 2670SOL    HW2 8910   5.578   1.924   6.387
 2671SOL     OW 8911   3.385   5.275   6.771
 2671SOL    HW1 8912   3.464   5.314   6.818
 2671SOL    HW2 8913   3.409   5.256   6.676
 2672SOL     OW 8914   6.780   5.245   6.740
 2672SOL    HW1 8915   6.714   5.217   6.810
 2672SOL    HW2 8916   6.780   5.179   6.665
 2673SOL     OW 8917   6.038   2.137   3.656
 2673SOL    HW1 8918   5.966   2.106   3.719
 2673SOL    HW2 8919   6.095   2.059   3.631
 2674SOL     OW 8920   1.515   4.056   3.799
 2674SOL    HW1 8921   1.526   3.956   3.799
 2674SOL    HW2 8922   1.580   4.096   3.735
 2675SOL     OW 8923   6.371   5.078   4.556
 2675SOL    HW1 8924   6.293   5.015   4.562
 2675SOL    HW2 8925   6.449   5.038   4.604
 2676SOL     OW 8926   4.547   1.183   1.716
 2676SOL    HW1 8927   4.509   1.261   1.666
 2676SOL    HW2 8928   4.529   1.194   1.814
 2677SOL     OW 8929   3.207   4.355   0.171
 2677SOL    HW1 8930   3.154   4.440   0.171
 2677SOL    HW2 8931   3.146   4.279   0.194
 2678SOL     OW 8932   6.876   4.869   1.503
 2678SOL    HW1 8933   6.896   4.962   1.535
 2678SOL    HW2 8934   6.935   4.804   1.549
 2679SOL     OW 8935   3.694   5.477   0.670
 2679SOL    HW1 8936   3.736   5.410   0.732
 2679SOL    HW2 8937   3.647   5.429   0.596
 2680SOL     OW 8938   0.964   1.754   0.892
 2680SOL    HW1 8939   0.874   1.721   0.863
 2680SOL    HW2 8940   0.976   1.849   0.865
 2681SOL     OW 8941   1.713   2.448   4.245
 2681SOL    HW1 8942   1.795   2.395   4.227
 2681SOL    HW2 8943   1.635   2.405   4.199
 2682SOL     OW 8944   5.455   3.774   2.813
 2682SOL    HW1 8945   5.404   3.819   2.739
 2682SOL    HW2 8946   5.541   3.737   2.777
 2683SOL     OW 8947   1.542   4.216   0.230
 2683SOL    HW1 8948   1.625   4.249   0.186
 2683SOL    HW2 8949   1.549   4.117   0.245
 2684SOL     OW 8950   4.639   5.505   1.437
 2684SOL    HW1 8951   4.647   5.471   1.531
 2684SOL    HW2 8952   4.611   5.430   1.377
 2685SOL     OW 8953   6.073   6.002   6.595
 2685SOL    HW1 8954   6.147   5.945   6.633
 2685SOL    HW2 8955   5.991   5.946   6.584
 2686SOL     OW 8956   1.523   1.361   5.652
 2686SOL    HW1 8957   1.432   1.381   5.615
 2686SOL    HW2 8958   1.515   1.330   5.747
 2687SOL     OW 8959   4.486   4.539   2.556
 2687SOL    HW1 8960   4.398   4.580   2.532
 2687SOL    HW2 8961   4.524   4.491   2.477
 2688SOL     OW 8962   4.847   5.724   6.849
 2688SOL    HW1 8963   4.884   5.805   6.895
 2688SOL    HW2 8964   4.806   5.751   6.762
 2689SOL     OW 8965   1.982   2.741   3.558
 2689SOL    HW1 8966   1.979   2.692   3.472
 2689SOL    HW2 8967   2.039   2.823   3.548
 2690SOL     OW 8968   3.346   3.677   4.323
 2690SOL    HW1 8969   3.381   3.587   4.347
 2690SOL    HW2 8970   3.268   3.667   4.262
 2691SOL     OW 8971   1.062   5.587   2.209
 2691SOL    HW1 8972   0.977   5.581   2.157
 2691SOL    HW2 8973   1.087   5.683   2.220
 2692SOL     OW 8974   4.035   4.788   3.553
 2692SOL    HW1 8975   4.070   4.730   3.479
 2692SOL    HW2 8976   3.989   4.868   3.514
 2693SOL     OW 8977   1.915   4.168   3.039
 2693SOL    HW1 8978   1.919   4.088   2.979
 2693SOL    HW2 8979   1.829   4.168   3.089
 2694SOL     OW 8980   4.130   6.911   2.645
 2694SOL    HW1 8981   4.178   6.823   2.639
 2694SOL    HW2 8982   4.034   6.898   2.621
 2695SOL     OW 8983   5.376   0.693   2.943
 2695SOL    HW1 8984   5.451   0.640   2.902
 2695SOL    HW2 8985   5.391   0.790   2.926
 2696SOL     OW 8986   3.940   3.598   5.148
 2696SOL    HW1 8987   3.991   3.669   5.099
 2696SOL    HW2 8988   3.967   3.598   5.244
 2697SOL     OW 8989   3.693   1.432   3.474
 2697SOL    HW1 8990   3.701   1.389   3.564
 2697SOL    HW2 8991   3.600   1.467   3.462
 2698SOL     OW 8992   1.949   5.435   0.371
 2698SOL    HW1 8993   2.006   5.406   0.447
 2698SOL    HW2 8994   2.005   5.438   0.287
 2699SOL     OW 8995   3.570   6.181   0.549
 2699SOL    HW1 8996   3.511   6.195   0.629
 2699SOL    HW2 8997   3.537   6.102   0.497
 2700SOL     OW 8998   2.127   4.245   1.394
 2700SOL    HW1 8999   2.158   4.295   1.314
 2700SOL    HW2 9000   2.051   4.294   1.438
 2701SOL     OW 9001   3.097   0.541   6.761
 2701SOL    HW1 9002   3.056   0.501   6.843
 2701SOL    HW2 9003   3.121   0.467   6.697
 2702SOL     OW 9004   1.100   2.930   2.929
 2702SOL    HW1 9005   1.028   2.886   2.984
 2702SOL    HW2 9006   1.105   2.885   2.840
 2703SOL     OW 9007   2.120   0.594   2.444
 2703SOL    HW1 9008   2.114   0.567   2.541
 2703SOL    HW2 9009   2.108   0.693   2.437
 2704SOL     OW 9010   0.253   6.118   0.727
 2704SOL    HW1 9011   0.170   6.089   0.774
 2704SOL    HW2 9012   0.251   6.085   0.633
 2705SOL     OW 9013   1.534   5.590   4.487
 2705SOL    HW1 9014   1.493   5.668   4.533
 2705SOL    HW2 9015   1.607   5.621   4.426
 2706SOL     OW 9016   0.350   0.587   1.300
 2706SOL    HW1 9017   0.346   0.686   1.315
 2706SOL    HW2 9018   0.380   0.542   1.383
 2707SOL     OW 9019   2.279   1.067   5.068
 2707SOL    HW1 9020   2.253   1.158   5.100
 2707SOL    HW2 9021   2.202   1.004   5.080
 2708SOL     OW 9022   1.100   2.028   0.821
 2708SOL    HW1 9023   1.011   2.071   0.807
 2708SOL    HW2 9024   1.161   2.092   0.866
 2709SOL     OW 9025   5.471   6.242   0.316
 2709SOL    HW1 9026   5.501   6.216   0.407
 2709SOL    HW2 9027   5.408   6.172   0.280
 2710SOL     OW 9028   0.698   3.402   2.618
 2710SOL    HW1 9029   0.775   3.338   2.611
 2710SOL    HW2 9030   0.711   3.460   2.699
 2711SOL     OW 9031   2.395   1.151   3.441
 2711SOL    HW1 9032   2.307   1.199   3.436
 2711SOL    HW2 9033   2.406   1.093   3.361
 2712SOL     OW 9034   3.177   5.007   0.981
 2712SOL    HW1 9035   3.254   4.988   0.920
 2712SOL    HW2 9036   3.206   4.992   1.076
 2713SOL     OW 9037   2.378   2.201   4.838
 2713SOL    HW1 9038   2.402   2.133   4.908
 2713SOL    HW2 9039   2.401   2.165   4.748
 2714SOL     OW 9040   4.670   2.103   0.027
 2714SOL    HW1 9041   4.668   2.154   6.963
 2714SOL    HW2 9042   4.633   2.161   0.100
 2715SOL     OW 9043   5.297   0.751   0.125
 2715SOL    HW1 9044   5.323   0.659   0.154
 2715SOL    HW2 9045   5.312   0.815   0.201
 2716SOL     OW 9046   5.219   5.185   2.917
 2716SOL    HW1 9047   5.176   5.263   2.962
 2716SOL    HW2 9048   5.317   5.185   2.938
 2717SOL     OW 9049   2.561   4.917   2.410
 2717SOL    HW1 9050   2.610   4.969   2.340
 2717SOL    HW2 9051   2.473   4.887   2.373
 2718SOL     OW 9052   1.671   3.647   5.743
 2718SOL    HW1 9053   1.644   3.743   5.733
 2718SOL    HW2 9054   1.589   3.589   5.742
 2719SOL     OW 9055   6.221   5.726   1.384
 2719SOL    HW1 9056   6.312   5.739   1.422
 2719SOL    HW2 9057   6.172   5.658   1.439
 2720SOL     OW 9058   2.050   6.229   2.533
 2720SOL    HW1 9059   1.969   6.179   2.503
 2720SOL    HW2 9060   2.032   6.272   2.621
 2721SOL     OW 9061   3.228   0.729   4.267
 2721SOL    HW1 9062   3.216   0.759   4.172
 2721SOL    HW2 9063   3.159   0.772   4.325
 2722SOL     OW 9064   6.777   5.814   1.927
 2722SOL    HW1 9065   6.806   5.882   1.860
 2722SOL    HW2 9066   6.807   5.842   2.018
 2723SOL     OW 9067   1.284   6.505   5.806
 2723SOL    HW1 9068   1.204   6.462   5.848
 2723SOL    HW2 9069   1.354   6.519   5.875
 2724SOL     OW 9070   2.336   6.872   6.380
 2724SOL    HW1 9071   2.422   6.849   6.425
 2724SOL    HW2 9072   2.348   6.867   6.281
 2725SOL     OW 9073   6.368   4.810   4.319
 2725SOL    HW1 9074   6.423   4.741   4.367
 2725SOL    HW2 9075   6.277   4.814   4.359
 2726SOL     OW 9076   0.231   3.979   1.167
 2726SOL    HW1 9077   0.254   3.883   1.153
 2726SOL    HW2 9078   0.164   4.008   1.098
 2727SOL     OW 9079   0.468   5.009   3.391
 2727SOL    HW1 9080   0.453   4.915   3.363
 2727SOL    HW2 9081   0.443   5.071   3.316
 2728SOL     OW 9082   3.672   6.919   6.026
 2728SOL    HW1 9083   3.744   6.858   5.995
 2728SOL    HW2 9084   3.610   6.938   5.950
 2729SOL     OW 9085   6.237   5.657   1.090
 2729SOL    HW1 9086   6.181   5.661   1.172
 2729SOL    HW2 9087   6.328   5.692   1.110
 2730SOL     OW 9088   1.780   5.417   1.613
 2730SOL    HW1 9089   1.699   5.403   1.670
 2730SOL    HW2 9090   1.756   5.400   1.517
 2731SOL     OW 9091   3.833   3.341   2.197
 2731SOL    HW1 9092   3.926   3.331   2.233
 2731SOL    HW2 9093   3.838   3.363   2.100
 2732SOL     OW 9094   5.511   3.312   2.230
 2732SOL    HW1 9095   5.420   3.342   2.201
 2732SOL    HW2 9096   5.577   3.386   2.213
 2733SOL     OW 9097   0.379   0.105   4.793
 2733SOL    HW1 9098   0.411   0.150   4.709
 2733SOL    HW2 9099   0.428   0.019   4.805
 2734SOL     OW 9100   2.343   6.113   1.845
 2734SOL    HW1 9101   2.299   6.023   1.852
 2734SOL    HW2 9102   2.322   6.167   1.926
 2735SOL     OW 9103   1.045   3.537   2.741
 2735SOL    HW1 9104   1.087   3.458   2.695
 2735SOL    HW2 9105   1.059   3.530   2.839
 2736SOL     OW 9106   4.305   6.971   4.715
 2736SOL    HW1 9107   4.384   0.002   4.683
 2736SOL    HW2 9108   4.323   6.874   4.700
 2737SOL     OW 9109   3.783   3.636   5.460
 2737SOL    HW1 9110   3.796   3.728   5.423
 2737SOL    HW2 9111   3.686   3.620   5.477
 2738SOL     OW 9112   5.814   4.679   3.985
 2738SOL    HW1 9113   5.782   4.769   4.014
 2738SOL    HW2 9114   5.807   4.615   4.061
 2739SOL     OW 9115   6.558   5.191   0.293
 2739SOL    HW1 9116   6.644   5.159   0.333
 2739SOL    HW2 9117   6.577   5.261   0.225
 2740SOL     OW 9118   5.958   3.619   2.419
 2740SOL    HW1 9119   5.885   3.671   2.465
 2740SOL    HW2 9120   6.009   3.679   2.358
 2741SOL     OW 9121   6.693   1.316   5.533
 2741SOL    HW1 9122   6.635   1.395   5.514
 2741SOL    HW2 9123   6.709   1.265   5.449
 2742SOL     OW 9124   1.815   4.600   6.909
 2742SOL    HW1 9125   1.733   4.542   6.906
 2742SOL    HW2 9126   1.863   4.594   6.822
 2743SOL     OW 9127   6.397   5.390   2.448
 2743SOL    HW1 9128   6.424   5.309   2.499
 2743SOL    HW2 9129   6.476   5.426   2.398
 2744SOL     OW 9130   4.682   1.882   0.186
 2744SOL    HW1 9131   4.603   1.838   0.143
 2744SOL    HW2 9132   4.697   1.972   0.146
 2745SOL     OW 9133   0.913   6.526   6.702
 2745SOL    HW1 9134   0.865   6.585   6.638
 2745SOL    HW2 9135   0.857   6.512   6.784
 2746SOL     OW 9136   2.645   2.144   3.644
 2746SOL    HW1 9137   2.609   2.107   3.559
 2746SOL    HW2 9138   2.577   2.203   3.687
 2747SOL     OW 9139   5.255   3.434   5.936
 2747SOL    HW1 9140   5.252   3.534   5.943
 2747SOL    HW2 9141   5.163   3.399   5.921
 2748SOL     OW 9142   4.059   1.754   0.836
 2748SOL    HW1 9143   4.115   1.760   0.918
 2748SOL    HW2 9144   3.981   1.694   0.853
 2749SOL     OW 9145   5.967   4.326   3.775
 2749SOL    HW1 9146   5.944   4.419   3.747
 2749SOL    HW2 9147   6.042   4.328   3.841
 2750SOL     OW 9148   0.613   4.793   1.324
 2750SOL    HW1 9149   0.664   4.719   1.280
 2750SOL    HW2 9150   0.516   4.769   1.328
 2751SOL     OW 9151   0.467   6.280   0.541
 2751SOL    HW1 9152   0.398   6.339   0.500
 2751SOL    HW2 9153   0.540   6.263   0.474
 2752SOL     OW 9154   4.700   4.659   4.953
 2752SOL    HW1 9155   4.669   4.570   4.918
 2752SOL    HW2 9156   4.743   4.710   4.879
 2753SOL     OW 9157   1.415   6.818   6.290
 2753SOL    HW1 9158   1.384   6.911   6.270
 2753SOL    HW2 9159   1.415   6.803   6.389
 2754SOL     OW 9160   6.507   0.980   3.856
 2754SOL    HW1 9161   6.548   1.058   3.904
 2754SOL    HW2 9162   6.539   0.979   3.761
 2755SOL     OW 9163   2.804   6.584   3.686
 2755SOL    HW1 9164   2.759   6.620   3.604
 2755SOL    HW2 9165   2.903   6.584   3.673
 2756SOL     OW 9166   5.846   4.236   5.299
 2756SOL    HW1 9167   5.776   4.215   5.368
 2756SOL    HW2 9168   5.808   4.301   5.233
 2757SOL     OW 9169   2.257   1.304   6.398
 2757SOL    HW1 9170   2.274   1.397   6.431
 2757SOL    HW2 9171   2.190   1.260   6.457
 2758SOL     OW 9172   5.314   6.360   3.413
 2758SOL    HW1 9173   5.409   6.329   3.414
 2758SOL    HW2 9174   5.290   6.391   3.321
 2759SOL     OW 9175   4.490   5.798   5.431
 2759SOL    HW1 9176   4.395   5.771   5.422
 2759SOL    HW2 9177   4.544   5.756   5.357
 2760SOL     OW 9178   6.655   5.524   2.630
 2760SOL    HW1 9179   6.649   5.516   2.531
 2760SOL    HW2 9180   6.727   5.589   2.655
 2761SOL     OW 9181   2.139   4.231   4.461
 2761SOL    HW1 9182   2.205   4.198   4.529
 2761SOL    HW2 9183   2.189   4.276   4.386
 2762SOL     OW 9184   1.783   1.790   6.848
 2762SOL    HW1 9185   1.745   1.830   6.932
 2762SOL    HW2 9186   1.709   1.774   6.783
 2763SOL     OW 9187   4.651   2.107   5.282
 2763SOL    HW1 9188   4.669   2.079   5.376
 2763SOL    HW2 9189   4.728   2.159   5.247
 2764SOL     OW 9190   0.010   6.264   1.995
 2764SOL    HW1 9191   6.987   6.348   1.963
 2764SOL    HW2 9192   6.998   6.187   1.942
 2765SOL     OW 9193   6.864   0.238   0.895
 2765SOL    HW1 9194   6.907   0.219   0.806
 2765SOL    HW2 9195   6.771   0.270   0.880
 2766SOL     OW 9196   3.748   2.499   6.275
 2766SOL    HW1 9197   3.739   2.471   6.370
 2766SOL    HW2 9198   3.730   2.597   6.267
 2767SOL     OW 9199   6.439   5.346   6.721
 2767SOL    HW1 9200   6.470   5.418   6.658
 2767SOL    HW2 9201   6.443   5.257   6.676
 2768SOL     OW 9202   4.671   0.762   0.757
 2768SOL    HW1 9203   4.708   0.670   0.767
 2768SOL    HW2 9204   4.577   0.764   0.793
 2769SOL     OW 9205   2.872   4.301   6.413
 2769SOL    HW1 9206   2.828   4.309   6.324
 2769SOL    HW2 9207   2.957   4.353   6.413
 2770SOL     OW 9208   4.477   5.128   5.306
 2770SOL    HW1 9209   4.538   5.129   5.226
 2770SOL    HW2 9210   4.382   5.125   5.275
 2771SOL     OW 9211   5.784   0.715   4.611
 2771SOL    HW1 9212   5.846   0.703   4.688
 2771SOL    HW2 9213   5.795   0.639   4.547
 2772SOL     OW 9214   3.233   1.234   1.230
 2772SOL    HW1 9215   3.150   1.290   1.233
 2772SOL    HW2 9216   3.260   1.221   1.134
 2773SOL     OW 9217   6.502   2.526   4.119
 2773SOL    HW1 9218   6.424   2.464   4.118
 2773SOL    HW2 9219   6.571   2.494   4.053
 2774SOL     OW 9220   5.015   3.162   2.856
 2774SOL    HW1 9221   5.042   3.067   2.845
 2774SOL    HW2 9222   4.943   3.184   2.790
 2775SOL     OW 9223   6.255   3.368   4.061
 2775SOL    HW1 9224   6.203   3.350   4.145
 2775SOL    HW2 9225   6.267   3.282   4.011
 2776SOL     OW 9226   5.108   4.131   5.436
 2776SOL    HW1 9227   5.092   4.229   5.440
 2776SOL    HW2 9228   5.042   4.084   5.494
 2777SOL     OW 9229   2.594   1.679   1.324
 2777SOL    HW1 9230   2.561   1.748   1.260
 2777SOL    HW2 9231   2.533   1.600   1.323
 2778SOL     OW 9232   1.380   6.175   6.597
 2778SOL    HW1 9233   1.417   6.190   6.505
 2778SOL    HW2 9234   1.355   6.263   6.637
 2779SOL     OW 9235   5.522   0.039   1.550
 2779SOL    HW1 9236   5.512   0.076   1.642
 2779SOL    HW2 9237   5.520   6.961   1.553
 2780SOL     OW 9238   6.885   0.300   6.050
 2780SOL    HW1 9239   6.851   0.382   6.005
 2780SOL    HW2 9240   6.849   0.295   6.143
 2781SOL     OW 9241   6.080   0.647   3.333
 2781SOL    HW1 9242   6.086   0.597   3.420
 2781SOL    HW2 9243   6.050   0.740   3.349
 2782SOL     OW 9244   4.568   1.389   4.735
 2782SOL    HW1 9245   4.514   1.444   4.798
 2782SOL    HW2 9246   4.633   1.333   4.787
 2783SOL     OW 9247   0.056   4.142   1.946
 2783SOL    HW1 9248   0.141   4.163   1.994
 2783SOL    HW2 9249   0.071   4.146   1.847
 2784SOL     OW 9250   3.472   1.097   2.459
 2784SOL    HW1 9251   3.548   1.151   2.494
 2784SOL    HW2 9252   3.505   1.033   2.389
 2785SOL     OW 9253   5.137   2.152   0.555
 2785SOL    HW1 9254   5.106   2.128   0.463
 2785SOL    HW2 9255   5.196   2.232   0.551
 2786SOL     OW 9256   6.404   7.007   1.826
 2786SOL    HW1 9257   6.448   6.946   1.760
 2786SOL    HW2 9258   6.416   0.080   1.797
 2787SOL     OW 9259   6.276   6.558   5.719
 2787SOL    HW1 9260   6.236   6.477   5.676
 2787SOL    HW2 9261   6.216   6.589   5.793
 2788SOL     OW 9262   2.517   6.292   5.984
 2788SOL    HW1 9263   2.517   6.224   6.058
 2788SOL    HW2 9264   2.534   6.245   5.897
 2789SOL     OW 9265   1.880   1.805   3.740
 2789SOL    HW1 9266   1.956   1.856   3.699
 2789SOL    HW2 9267   1.795   1.856   3.726
 2790SOL     OW 9268   3.582   5.421   1.207
 2790SOL    HW1 9269   3.606   5.373   1.292
 2790SOL    HW2 9270   3.493   5.389   1.175
 2791SOL     OW 9271   0.937   4.371   2.298
 2791SOL    HW1 9272   0.922   4.365   2.397
 2791SOL    HW2 9273   0.902   4.458   2.264
 2792SOL     OW 9274   3.147   1.023   4.504
 2792SOL    HW1 9275   3.180   1.032   4.597
 2792SOL    HW2 9276   3.109   0.931   4.490
 2793SOL     OW 9277   4.960   3.785   2.201
 2793SOL    HW1 9278   5.044   3.826   2.238
 2793SOL    HW2 9279   4.985   3.722   2.128
 2794SOL     OW 9280   6.639   2.258   5.957
 2794SOL    HW1 9281   6.684   2.172   5.933
 2794SOL    HW2 9282   6.567   2.277   5.889
 2795SOL     OW 9283   0.670   4.032   1.112
 2795SOL    HW1 9284   0.672   4.005   1.208
 2795SOL    HW2 9285   0.672   3.951   1.054
 2796SOL     OW 9286   0.159   5.816   3.561
 2796SOL    HW1 9287   0.116   5.904   3.539
 2796SOL    HW2 9288   0.088   5.745   3.564
 2797SOL     OW 9289   5.166   5.087   5.716
 2797SOL    HW1 9290   5.185   5.169   5.662
 2797SOL    HW2 9291   5.214   5.094   5.804
 2798SOL     OW 9292   5.888   5.606   2.606
 2798SOL    HW1 9293   5.945   5.549   2.548
 2798SOL    HW2 9294   5.813   5.644   2.552
 2799SOL     OW 9295   5.691   5.979   6.320
 2799SOL    HW1 9296   5.728   6.056   6.269
 2799SOL    HW2 9297   5.593   5.968   6.301
 2800SOL     OW 9298   5.740   6.995   5.739
 2800SOL    HW1 9299   5.827   0.022   5.752
 2800SOL    HW2 9300   5.690   0.014   5.663
 2801SOL     OW 9301   0.551   5.709   5.663
 2801SOL    HW1 9302   0.467   5.707   5.718
 2801SOL    HW2 9303   0.588   5.616   5.655
 2802SOL     OW 9304   6.447   6.563   5.380
 2802SOL    HW1 9305   6.503   6.554   5.463
 2802SOL    HW2 9306   6.384   6.485   5.374
 2803SOL     OW 9307   3.642   4.928   5.608
 2803SOL    HW1 9308   3.664   4.841   5.563
 2803SOL    HW2 9309   3.696   4.936   5.692
 2804SOL     OW 9310   0.371   3.771   4.821
 2804SOL    HW1 9311   0.407   3.681   4.795
 2804SOL    HW2 9312   0.386   3.785   4.919
 2805SOL     OW 9313   5.680   3.629   2.773
 2805SOL    HW1 9314   5.700   3.595   2.865
 2805SOL    HW2 9315   5.672   3.552   2.710
 2806SOL     OW 9316   2.019   4.004   5.975
 2806SOL    HW1 9317   2.027   3.946   5.894
 2806SOL    HW2 9318   2.036   3.949   6.057
 2807SOL     OW 9319   4.526   0.361   3.128
 2807SOL    HW1 9320   4.523   0.458   3.153
 2807SOL    HW2 9321   4.457   0.343   3.058
 2808SOL     OW 9322   6.242   5.534   0.627
 2808SOL    HW1 9323   6.261   5.455   0.569
 2808SOL    HW2 9324   6.147   5.531   0.659
 2809SOL     OW 9325   5.406   2.200   1.579
 2809SOL    HW1 9326   5.306   2.196   1.569
 2809SOL    HW2 9327   5.448   2.194   1.489
 2810SOL     OW 9328   1.985   5.709   2.799
 2810SOL    HW1 9329   1.931   5.669   2.873
 2810SOL    HW2 9330   2.068   5.751   2.837
 2811SOL     OW 9331   0.723   1.652   2.874
 2811SOL    HW1 9332   0.653   1.581   2.883
 2811SOL    HW2 9333   0.719   1.691   2.782
 2812SOL     OW 9334   6.046   3.613   0.866
 2812SOL    HW1 9335   6.132   3.615   0.815
 2812SOL    HW2 9336   6.033   3.700   0.913
 2813SOL     OW 9337   0.562   2.039   0.136
 2813SOL    HW1 9338   0.571   1.939   0.137
 2813SOL    HW2 9339   0.537   2.069   0.045
 2814SOL     OW 9340   3.404   4.059   5.504
 2814SOL    HW1 9341   3.418   4.001   5.424
 2814SOL    HW2 9342   3.315   4.039   5.545
 2815SOL     OW 9343   6.521   5.298   6.328
 2815SOL    HW1 9344   6.452   5.234   6.364
 2815SOL    HW2 9345   6.593   5.312   6.396
 2816SOL     OW 9346   6.609   6.233   4.555
 2816SOL    HW1 9347   6.524   6.186   4.532
 2816SOL    HW2 9348   6.672   6.169   4.599
 2817SOL     OW 9349   3.243   1.249   2.741
 2817SOL    HW1 9350   3.152   1.210   2.727
 2817SOL    HW2 9351   3.242   1.307   2.823
 2818SOL     OW 9352   0.073   1.341   2.273
 2818SOL    HW1 9353   0.087   1.274   2.346
 2818SOL    HW2 9354   0.051   1.430   2.313
 2819SOL     OW 9355   1.211   0.379   2.180
 2819SOL    HW1 9356   1.190   0.310   2.249
 2819SOL    HW2 9357   1.132   0.391   2.119
 2820SOL     OW 9358   1.012   2.008   2.312
 2820SOL    HW1 9359   1.075   1.951   2.260
 2820SOL    HW2 9360   0.974   2.079   2.253
 2821SOL     OW 9361   2.725   4.878   6.071
 2821SOL    HW1 9362   2.687   4.970   6.078
 2821SOL    HW2 9363   2.782   4.871   5.990
 2822SOL     OW 9364   4.227   2.365   0.055
 2822SOL    HW1 9365   4.295   2.349   7.006
 2822SOL    HW2 9366   4.255   2.320   0.140
 2823SOL     OW 9367   6.411   0.696   6.926
 2823SOL    HW1 9368   6.343   0.737   6.866
 2823SOL    HW2 9369   6.486   0.761   6.942
 2824SOL     OW 9370   2.050   2.352   5.382
 2824SOL    HW1 9371   2.055   2.447   5.412
 2824SOL    HW2 9372   2.123   2.299   5.427
 2825SOL     OW 9373   5.633   0.462   5.827
 2825SOL    HW1 9374   5.680   0.390   5.877
 2825SOL    HW2 9375   5.550   0.489   5.876
 2826SOL     OW 9376   3.052   3.376   6.352
 2826SOL    HW1 9377   3.126   3.414   6.409
 2826SOL    HW2 9378   3.060   3.413   6.259
 2827SOL     OW 9379   0.243   0.899   6.360
 2827SOL    HW1 9380   0.248   0.812   6.409
 2827SOL    HW2 9381   0.164   0.951   6.392
 2828SOL     OW 9382   2.155   3.425   0.718
 2828SOL    HW1 9383   2.100   3.447   0.798
 2828SOL    HW2 9384   2.231   3.490   0.710
 2829SOL     OW 9385   3.102   3.017   3.613
 2829SOL    HW1 9386   3.086   3.061   3.525
 2829SOL    HW2 9387   3.026   3.039   3.675
 2830SOL     OW 9388   3.498   4.057   5.215
 2830SOL    HW1 9389   3.426   4.118   5.247
 2830SOL    HW2 9390   3.524   4.083   5.122
 2831SOL     OW 9391   1.376   3.082   2.816
 2831SOL    HW1 9392   1.418   3.173   2.819
 2831SOL    HW2 9393   1.280   3.091   2.788
 2832SOL     OW 9394   0.940   2.795   1.696
 2832SOL    HW1 9395   1.007   2.734   1.738
 2832SOL    HW2 9396   0.861   2.806   1.757
 2833SOL     OW 9397   2.447   1.893   2.152
 2833SOL    HW1 9398   2.473   1.958   2.223
 2833SOL    HW2 9399   2.475   1.801   2.179
 2834SOL     OW 9400   4.056   6.003   4.423
 2834SOL    HW1 9401   4.102   5.991   4.511
 2834SOL    HW2 9402   4.091   5.937   4.357
 2835SOL     OW 9403   0.953   6.906   0.409
 2835SOL    HW1 9404   1.043   6.910   0.365
 2835SOL    HW2 9405   0.886   6.955   0.353
 2836SOL     OW 9406   1.605   6.345   1.583
 2836SOL    HW1 9407   1.576   6.258   1.543
 2836SOL    HW2 9408   1.700   6.338   1.612
 2837SOL     OW 9409   5.562   4.420   2.707
 2837SOL    HW1 9410   5.566   4.355   2.631
 2837SOL    HW2 9411   5.514   4.503   2.679
 2838SOL     OW 9412   4.842   3.870   0.642
 2838SOL    HW1 9413   4.824   3.772   0.637
 2838SOL    HW2 9414   4.820   3.904   0.734
 2839SOL     OW 9415   0.393   2.937   2.581
 2839SOL    HW1 9416   0.459   2.880   2.532
 2839SOL    HW2 9417   0.407   3.033   2.556
 2840SOL     OW 9418   1.521   6.020   2.426
 2840SOL    HW1 9419   1.615   6.011   2.459
 2840SOL    HW2 9420   1.473   6.087   2.482
 2841SOL     OW 9421   6.062   2.389   6.871
 2841SOL    HW1 9422   6.035   2.482   6.847
 2841SOL    HW2 9423   6.123   2.353   6.800
 2842SOL     OW 9424   0.786   5.958   4.908
 2842SOL    HW1 9425   0.761   5.872   4.951
 2842SOL    HW2 9426   0.778   5.950   4.809
 2843SOL     OW 9427   2.482   1.564   2.097
 2843SOL    HW1 9428   2.490   1.521   2.007
 2843SOL    HW2 9429   2.526   1.507   2.166
 2844SOL     OW 9430   5.968   5.303   1.253
 2844SOL    HW1 9431   6.004   5.234   1.189
 2844SOL    HW2 9432   5.953   5.261   1.342
 2845SOL     OW 9433   5.124   3.190   2.333
 2845SOL    HW1 9434   5.030   3.175   2.303
 2845SOL    HW2 9435   5.182   3.116   2.299
 2846SOL     OW 9436   3.466   0.500   0.794
 2846SOL    HW1 9437   3.419   0.419   0.828
 2846SOL    HW2 9438   3.455   0.575   0.858
 2847SOL     OW 9439   4.799   4.149   2.659
 2847SOL    HW1 9440   4.765   4.125   2.568
 2847SOL    HW2 9441   4.771   4.079   2.724
 2848SOL     OW 9442   2.665   2.578   5.920
 2848SOL    HW1 9443   2.739   2.644   5.936
 2848SOL    HW2 9444   2.593   2.591   5.989
 2849SOL     OW 9445   3.522   1.132   1.740
 2849SOL    HW1 9446   3.495   1.110   1.647
 2849SOL    HW2 9447   3.465   1.081   1.804
 2850SOL     OW 9448   2.295   6.998   3.373
 2850SOL    HW1 9449   2.228   6.928   3.348
 2850SOL    HW2 9450   2.334   0.016   3.290
 2851SOL     OW 9451   4.837   3.353   6.530
 2851SOL    HW1 9452   4.764   3.291   6.559
 2851SOL    HW2 9453   4.913   3.300   6.492
 2852SOL     OW 9454   6.348   4.018   0.353
 2852SOL    HW1 9455   6.278   4.002   0.422
 2852SOL    HW2 9456   6.378   4.113   0.357
 2853SOL     OW 9457   0.931   2.998   0.037
 2853SOL    HW1 9458   0.921   2.920   6.998
 2853SOL    HW2 9459   0.940   3.082   7.005
 2854SOL     OW 9460   3.518   0.694   6.330
 2854SOL    HW1 9461   3.522   0.782   6.283
 2854SOL    HW2 9462   3.488   0.623   6.266
 2855SOL     OW 9463   1.563   2.800   4.925
 2855SOL    HW1 9464   1.548   2.880   4.867
 2855SOL    HW2 9465   1.512   2.722   4.889
 2856SOL     OW 9466   1.421   2.990   4.294
 2856SOL    HW1 9467   1.369   3.062   4.340
 2856SOL    HW2 9468   1.387   2.980   4.200
 2857SOL     OW 9469   0.295   2.872   1.014
 2857SOL    HW1 9470   0.372   2.841   1.069
 2857SOL    HW2 9471   0.326   2.894   0.921
 2858SOL     OW 9472   5.280   6.156   1.939
 2858SOL    HW1 9473   5.367   6.161   1.986
 2858SOL    HW2 9474   5.212   6.113   1.999
 2859SOL     OW 9475   5.956   6.350   0.210
 2859SOL    HW1 9476   6.034   6.407   0.182
 2859SOL    HW2 9477   5.893   6.340   0.134
 2860SOL     OW 9478   2.265   6.583   2.093
 2860SOL    HW1 9479   2.275   6.683   2.098
 2860SOL    HW2 9480   2.323   6.548   2.019
 2861SOL     OW 9481   3.351   5.874   5.328
 2861SOL    HW1 9482   3.274   5.825   5.368
 2861SOL    HW2 9483   3.374   5.834   5.239
 2862SOL     OW 9484   4.414   2.376   2.009
 2862SOL    HW1 9485   4.507   2.410   2.020
 2862SOL    HW2 9486   4.371   2.422   1.931
 2863SOL     OW 9487   5.094   1.902   6.866
 2863SOL    HW1 9488   5.126   1.836   6.933
 2863SOL    HW2 9489   5.170   1.960   6.837
 2864SOL     OW 9490   5.255   2.937   0.569
 2864SOL    HW1 9491   5.170   2.898   0.605
 2864SOL    HW2 9492   5.282   2.887   0.487
 2865SOL     OW 9493   4.391   6.508   4.100
 2865SOL    HW1 9494   4.441   6.474   4.180
 2865SOL    HW2 9495   4.294   6.513   4.122
 2866SOL     OW 9496   5.518   3.783   0.343
 2866SOL    HW1 9497   5.533   3.755   0.438
 2866SOL    HW2 9498   5.552   3.711   0.283
 2867SOL     OW 9499   5.999   6.342   2.594
 2867SOL    HW1 9500   6.079   6.357   2.652
 2867SOL    HW2 9501   6.016   6.379   2.503
 2868SOL     OW 9502   1.256   1.399   5.543
 2868SOL    HW1 9503   1.211   1.310   5.538
 2868SOL    HW2 9504   1.190   1.469   5.571
 2869SOL     OW 9505   6.253   0.861   3.630
 2869SOL    HW1 9506   6.237   0.946   3.680
 2869SOL    HW2 9507   6.352   0.848   3.617
 2870SOL     OW 9508   0.440   2.123   6.375
 2870SOL    HW1 9509   0.416   2.175   6.457
 2870SOL    HW2 9510   0.455   2.027   6.400
 2871SOL     OW 9511   6.287   0.416   0.521
 2871SOL    HW1 9512   6.259   0.358   0.444
 2871SOL    HW2 9513   6.226   0.494   0.528
 2872SOL     OW 9514   2.758   1.755   0.817
 2872SOL    HW1 9515   2.734   1.847   0.847
 2872SOL    HW2 9516   2.683   1.717   0.763
 2873SOL     OW 9517   6.780   6.639   2.231
 2873SOL    HW1 9518   6.789   6.584   2.147
 2873SOL    HW2 9519   6.816   6.587   2.308
 2874SOL     OW 9520   4.030   6.608   3.107
 2874SOL    HW1 9521   4.081   6.602   3.193
 2874SOL    HW2 9522   4.077   6.672   3.046
 2875SOL     OW 9523   4.257   6.674   2.578
 2875SOL    HW1 9524   4.294   6.589   2.613
 2875SOL    HW2 9525   4.244   6.667   2.479
 2876SOL     OW 9526   1.336   6.715   2.476
 2876SOL    HW1 9527   1.371   6.622   2.461
 2876SOL    HW2 9528   1.353   6.770   2.394
 2877SOL     OW 9529   2.003   0.853   5.909
 2877SOL    HW1 9530   1.998   0.856   5.809
 2877SOL    HW2 9531   2.073   0.788   5.937
 2878SOL     OW 9532   3.082   3.596   5.260
 2878SOL    HW1 9533   3.064   3.500   5.284
 2878SOL    HW2 9534   3.104   3.647   5.343
 2879SOL     OW 9535   4.960   5.337   5.426
 2879SOL    HW1 9536   4.882   5.274   5.425
 2879SOL    HW2 9537   4.995   5.343   5.520
 2880SOL     OW 9538   6.842   1.725   3.792
 2880SOL    HW1 9539   6.941   1.740   3.787
 2880SOL    HW2 9540   6.821   1.631   3.764
 2881SOL     OW 9541   3.429   5.896   6.788
 2881SOL    HW1 9542   3.356   5.899   6.719
 2881SOL    HW2 9543   3.466   5.988   6.801
 2882SOL     OW 9544   6.588   5.936   1.294
 2882SOL    HW1 9545   6.504   5.953   1.346
 2882SOL    HW2 9546   6.610   6.017   1.240
 2883SOL     OW 9547   5.707   6.898   3.623
 2883SOL    HW1 9548   5.790   6.848   3.647
 2883SOL    HW2 9549   5.681   6.958   3.699
 2884SOL     OW 9550   6.513   6.107   2.539
 2884SOL    HW1 9551   6.570   6.101   2.457
 2884SOL    HW2 9552   6.417   6.106   2.513
 2885SOL     OW 9553   1.321   2.400   4.404
 2885SOL    HW1 9554   1.327   2.404   4.304
 2885SOL    HW2 9555   1.226   2.384   4.430
 2886SOL     OW 9556   2.154   3.862   6.246
 2886SOL    HW1 9557   2.240   3.815   6.265
 2886SOL    HW2 9558   2.157   3.954   6.284
 2887SOL     OW 9559   0.403   6.276   4.982
 2887SOL    HW1 9560   0.352   6.200   5.023
 2887SOL    HW2 9561   0.494   6.244   4.957
 2888SOL     OW 9562   0.465   4.800   6.920
 2888SOL    HW1 9563   0.532   4.730   6.945
 2888SOL    HW2 9564   0.400   4.761   6.855
 2889SOL     OW 9565   3.262   6.643   2.506
 2889SOL    HW1 9566   3.199   6.681   2.438
 2889SOL    HW2 9567   3.209   6.598   2.578
 2890SOL     OW 9568   1.923   5.920   0.888
 2890SOL    HW1 9569   1.832   5.913   0.849
 2890SOL    HW2 9570   1.952   6.016   0.889
 2891SOL     OW 9571   0.933   3.212   3.478
 2891SOL    HW1 9572   0.873   3.193   3.557
 2891SOL    HW2 9573   1.023   3.240   3.511
 2892SOL     OW 9574   5.530   2.854   1.584
 2892SOL    HW1 9575   5.430   2.853   1.581
 2892SOL    HW2 9576   5.561   2.948   1.602
 2893SOL     OW 9577   1.165   5.526   4.300
 2893SOL    HW1 9578   1.116   5.446   4.336
 2893SOL    HW2 9579   1.259   5.500   4.280
 2894SOL     OW 9580   1.602   3.581   1.531
 2894SOL    HW1 9581   1.512   3.622   1.520
 2894SOL    HW2 9582   1.669   3.652   1.553
 2895SOL     OW 9583   4.570   0.581   6.234
 2895SOL    HW1 9584   4.639   0.527   6.282
 2895SOL    HW2 9585   4.504   0.617   6.301
 2896SOL     OW 9586   3.863   0.287   5.252
 2896SOL    HW1 9587   3.914   0.253   5.331
 2896SOL    HW2 9588   3.765   0.275   5.269
 2897SOL     OW 9589   3.692   4.853   2.576
 2897SOL    HW1 9590   3.747   4.920   2.525
 2897SOL    HW2 9591   3.740   4.766   2.579
 2898SOL     OW 9592   5.040   4.217   3.807
 2898SOL    HW1 9593   5.017   4.194   3.902
 2898SOL    HW2 9594   5.108   4.290   3.806
 2899SOL     OW 9595   6.452   2.149   0.404
 2899SOL    HW1 9596   6.552   2.154   0.399
 2899SOL    HW2 9597   6.419   2.209   0.478
 2900SOL     OW 9598   3.605   4.542   6.598
 2900SOL    HW1 9599   3.643   4.549   6.506
 2900SOL    HW2 9600   3.524   4.484   6.596
 2901SOL     OW 9601   1.945   4.984   3.537
 2901SOL    HW1 9602   1.848   5.009   3.543
 2901SOL    HW2 9603   1.953   4.891   3.503
 2902SOL     OW 9604   6.648   5.078   3.436
 2902SOL    HW1 9605   6.550   5.062   3.425
 2902SOL    HW2 9606   6.663   5.150   3.504
 2903SOL     OW 9607   4.496   6.628   0.661
 2903SOL    HW1 9608   4.402   6.643   0.693
 2903SOL    HW2 9609   4.509   6.677   0.575
 2904SOL     OW 9610   3.042   5.559   5.280
 2904SOL    HW1 9611   3.081   5.597   5.196
 2904SOL    HW2 9612   2.944   5.543   5.266
 2905SOL     OW 9613   1.562   3.946   4.257
 2905SOL    HW1 9614   1.658   3.973   4.253
 2905SOL    HW2 9615   1.544   3.879   4.185
 2906SOL     OW 9616   5.188   6.190   2.618
 2906SOL    HW1 9617   5.214   6.212   2.524
 2906SOL    HW2 9618   5.200   6.271   2.676
 2907SOL     OW 9619   0.413   1.928   3.933
 2907SOL    HW1 9620   0.470   1.853   3.899
 2907SOL    HW2 9621   0.433   1.945   4.030
 2908SOL     OW 9622   5.477   6.718   3.562
 2908SOL    HW1 9623   5.395   6.753   3.607
 2908SOL    HW2 9624   5.555   6.777   3.582
 2909SOL     OW 9625   1.886   6.177   3.737
 2909SOL    HW1 9626   1.851   6.265   3.705
 2909SOL    HW2 9627   1.847   6.157   3.827
 2910SOL     OW 9628   6.767   0.607   3.572
 2910SOL    HW1 9629   6.763   0.598   3.672
 2910SOL    HW2 9630   6.862   0.620   3.544
 2911SOL     OW 9631   1.808   5.252   4.097
 2911SOL    HW1 9632   1.771   5.303   4.175
 2911SOL    HW2 9633   1.769   5.288   4.012
 2912SOL     OW 9634   6.282   6.353   6.752
 2912SOL    HW1 9635   6.185   6.339   6.774
 2912SOL    HW2 9636   6.322   6.265   6.726
 2913SOL     OW 9637   3.089   5.167   1.952
 2913SOL    HW1 9638   3.059   5.074   1.974
 2913SOL    HW2 9639   3.119   5.170   1.856
 2914SOL     OW 9640   5.877   6.072   0.894
 2914SOL    HW1 9641   5.862   6.063   0.796
 2914SOL    HW2 9642   5.883   5.981   0.936
 2915SOL     OW 9643   2.722   1.818   3.458
 2915SOL    HW1 9644   2.754   1.737   3.409
 2915SOL    HW2 9645   2.744   1.900   3.405
 2916SOL     OW 9646   1.409   5.209   0.224
 2916SOL    HW1 9647   1.476   5.139   0.247
 2916SOL    HW2 9648   1.344   5.173   0.158
 2917SOL     OW 9649   3.509   0.320   4.540
 2917SOL    HW1 9650   3.464   0.361   4.460
 2917SOL    HW2 9651   3.535   0.393   4.604
 2918SOL     OW 9652   5.873   3.924   5.794
 2918SOL    HW1 9653   5.876   3.989   5.870
 2918SOL    HW2 9654   5.793   3.943   5.737
 2919SOL     OW 9655   6.435   0.223   3.525
 2919SOL    HW1 9656   6.475   0.315   3.522
 2919SOL    HW2 9657   6.352   0.221   3.470
 2920SOL     OW 9658   3.542   0.290   1.495
 2920SOL    HW1 9659   3.610   0.263   1.427
 2920SOL    HW2 9660   3.504   0.379   1.471
 2921SOL     OW 9661   0.554   6.916   5.677
 2921SOL    HW1 9662   0.589   6.890   5.766
 2921SOL    HW2 9663   0.484   6.987   5.688
 2922SOL     OW 9664   4.101   5.865   1.360
 2922SOL    HW1 9665   4.112   5.963   1.343
 2922SOL    HW2 9666   4.085   5.818   1.273
 2923SOL     OW 9667   6.868   5.508   4.067
 2923SOL    HW1 9668   6.937   5.557   4.120
 2923SOL    HW2 9669   6.854   5.417   4.107
 2924SOL     OW 9670   0.341   2.278   4.869
 2924SOL    HW1 9671   0.405   2.249   4.941
 2924SOL    HW2 9672   0.275   2.342   4.908
 2925SOL     OW 9673   5.826   2.086   0.705
 2925SOL    HW1 9674   5.897   2.022   0.733
 2925SOL    HW2 9675   5.822   2.089   0.605
 2926SOL     OW 9676   5.791   2.058   6.197
 2926SOL    HW1 9677   5.752   2.139   6.155
 2926SOL    HW2 9678   5.890   2.071   6.210
 2927SOL     OW 9679   1.828   3.956   0.578
 2927SOL    HW1 9680   1.816   4.015   0.658
 2927SOL    HW2 9681   1.757   3.886   0.577
 2928SOL     OW 9682   6.491   1.216   6.868
 2928SOL    HW1 9683   6.538   1.234   6.781
 2928SOL    HW2 9684   6.394   1.197   6.850
 2929SOL     OW 9685   2.364   2.818   5.629
 2929SOL    HW1 9686   2.344   2.861   5.541
 2929SOL    HW2 9687   2.369   2.719   5.618
 2930SOL     OW 9688   5.148   6.225   5.230
 2930SOL    HW1 9689   5.233   6.226   5.283
 2930SOL    HW2 9690   5.081   6.285   5.272
 2931SOL     OW 9691   4.840   4.953   6.899
 2931SOL    HW1 9692   4.880   4.929   6.810
 2931SOL    HW2 9693   4.765   5.017   6.885
 2932SOL     OW 9694   0.624   5.904   1.705
 2932SOL    HW1 9695   0.631   5.810   1.739
 2932SOL    HW2 9696   0.528   5.926   1.688
 2933SOL     OW 9697   1.436   6.475   2.157
 2933SOL    HW1 9698   1.373   6.551   2.170
 2933SOL    HW2 9699   1.477   6.480   2.067
 2934SOL     OW 9700   5.463   2.659   0.548
 2934SOL    HW1 9701   5.376   2.666   0.498
 2934SOL    HW2 9702   5.529   2.723   0.508
 2935SOL     OW 9703   6.541   2.681   6.254
 2935SOL    HW1 9704   6.525   2.593   6.210
 2935SOL    HW2 9705   6.464   2.742   6.236
 2936SOL     OW 9706   4.070   6.398   0.776
 2936SOL    HW1 9707   4.025   6.362   0.695
 2936SOL    HW2 9708   4.005   6.402   0.852
 2937SOL     OW 9709   5.074   5.369   1.190
 2937SOL    HW1 9710   5.114   5.277   1.185
 2937SOL    HW2 9711   5.082   5.414   1.102
 2938SOL     OW 9712   6.374   5.001   0.735
 2938SOL    HW1 9713   6.414   5.078   0.785
 2938SOL    HW2 9714   6.372   5.022   0.637
 2939SOL     OW 9715   1.988   0.537   1.497
 2939SOL    HW1 9716   2.053   0.474   1.540
 2939SOL    HW2 9717   1.977   0.511   1.400
 2940SOL     OW 9718   5.810   5.193   5.556
 2940SOL    HW1 9719   5.909   5.205   5.551
 2940SOL    HW2 9720   5.765   5.280   5.535
 2941SOL     OW 9721   2.159   2.261   3.633
 2941SOL    HW1 9722   2.149   2.180   3.575
 2941SOL    HW2 9723   2.076   2.272   3.688
 2942SOL     OW 9724   3.818   1.909   0.905
 2942SOL    HW1 9725   3.780   1.962   0.980
 2942SOL    HW2 9726   3.816   1.811   0.928
 2943SOL     OW 9727   5.519   4.310   3.666
 2943SOL    HW1 9728   5.514   4.221   3.621
 2943SOL    HW2 9729   5.438   4.323   3.723
 2944SOL     OW 9730   2.520   5.937   3.813
 2944SOL    HW1 9731   2.586   5.948   3.739
 2944SOL    HW2 9732   2.567   5.945   3.901
 2945SOL     OW 9733   4.738   2.602   2.012
 2945SOL    HW1 9734   4.753   2.671   1.940
 2945SOL    HW2 9735   4.735   2.647   2.101
 2946SOL     OW 9736   2.386   4.303   5.962
 2946SOL    HW1 9737   2.324   4.261   5.896
 2946SOL    HW2 9738   2.460   4.240   5.984
 2947SOL     OW 9739   0.666   5.444   1.138
 2947SOL    HW1 9740   0.586   5.426   1.081
 2947SOL    HW2 9741   0.652   5.528   1.190
 2948SOL     OW 9742   0.002   4.403   4.366
 2948SOL    HW1 9743   0.037   4.388   4.459
 2948SOL    HW2 9744   6.925   4.386   4.366
 2949SOL     OW 9745   0.379   5.313   0.185
 2949SOL    HW1 9746   0.447   5.288   0.253
 2949SOL    HW2 9747   0.412   5.391   0.132
 2950SOL     OW 9748   5.843   5.990   4.174
 2950SOL    HW1 9749   5.923   6.044   4.199
 2950SOL    HW2 9750   5.870   5.895   4.161
 2951SOL     OW 9751   5.507   1.974   2.248
 2951SOL    HW1 9752   5.456   1.919   2.314
 2951SOL    HW2 9753   5.605   1.965   2.265
 2952SOL     OW 9754   6.945   6.579   5.765
 2952SOL    HW1 9755   7.022   6.641   5.779
 2952SOL    HW2 9756   6.980   6.488   5.742
 2953SOL     OW 9757   6.451   4.233   3.366
 2953SOL    HW1 9758   6.489   4.142   3.347
 2953SOL    HW2 9759   6.503   4.301   3.315
 2954SOL     OW 9760   0.057   4.565   0.719
 2954SOL    HW1 9761   0.113   4.567   0.802
 2954SOL    HW2 9762   0.117   4.558   0.639
 2955SOL     OW 9763   0.477   4.232   1.134
 2955SOL    HW1 9764   0.511   4.266   1.222
 2955SOL    HW2 9765   0.534   4.156   1.104
 2956SOL     OW 9766   6.356   5.446   3.389
 2956SOL    HW1 9767   6.403   5.360   3.373
 2956SOL    HW2 9768   6.337   5.491   3.302
 2957SOL     OW 9769   4.912   4.656   1.359
 2957SOL    HW1 9770   4.822   4.643   1.317
 2957SOL    HW2 9771   4.964   4.571   1.355
 2958SOL     OW 9772   2.091   4.536   3.144
 2958SOL    HW1 9773   2.029   4.614   3.130
 2958SOL    HW2 9774   2.070   4.465   3.076
 2959SOL     OW 9775   5.260   2.937   2.323
 2959SOL    HW1 9776   5.197   2.922   2.399
 2959SOL    HW2 9777   5.352   2.951   2.359
 2960SOL     OW 9778   3.301   0.180   6.598
 2960SOL    HW1 9779   3.351   0.123   6.534
 2960SOL    HW2 9780   3.353   0.189   6.683
 2961SOL     OW 9781   6.183   4.871   3.134
 2961SOL    HW1 9782   6.154   4.960   3.169
 2961SOL    HW2 9783   6.144   4.857   3.042
 2962SOL     OW 9784   5.017   6.035   3.652
 2962SOL    HW1 9785   5.041   6.113   3.595
 2962SOL    HW2 9786   5.020   6.061   3.749
 2963SOL     OW 9787   0.645   0.986   0.061
 2963SOL    HW1 9788   0.650   0.985   0.161
 2963SOL    HW2 9789   0.560   1.030   0.033
 2964SOL     OW 9790   0.818   1.790   5.979
 2964SOL    HW1 9791   0.747   1.744   5.925
 2964SOL    HW2 9792   0.895   1.728   5.992
 2965SOL     OW 9793   0.489   1.017   4.747
 2965SOL    HW1 9794   0.397   1.030   4.785
 2965SOL    HW2 9795   0.532   1.106   4.733
 2966SOL     OW 9796   4.870   5.708   3.354
 2966SOL    HW1 9797   4.876   5.764   3.437
 2966SOL    HW2 9798   4.790   5.736   3.301
 2967SOL     OW 9799   6.216   0.788   5.536
 2967SOL    HW1 9800   6.153   0.866   5.544
 2967SOL    HW2 9801   6.175   0.707   5.578
 2968SOL     OW 9802   0.644   2.539   0.367
 2968SOL    HW1 9803   0.702   2.458   0.368
 2968SOL    HW2 9804   0.601   2.550   0.278
 2969SOL     OW 9805   4.649   2.660   3.936
 2969SOL    HW1 9806   4.603   2.623   4.017
 2969SOL    HW2 9807   4.651   2.760   3.942
 2970SOL     OW 9808   2.571   3.233   5.346
 2970SOL    HW1 9809   2.523   3.167   5.287
 2970SOL    HW2 9810   2.511   3.311   5.363
 2971SOL     OW 9811   5.197   3.829   0.640
 2971SOL    HW1 9812   5.163   3.923   0.632
 2971SOL    HW2 9813   5.191   3.784   0.551
 2972SOL     OW 9814   6.267   5.283   6.453
 2972SOL    HW1 9815   6.251   5.217   6.526
 2972SOL    HW2 9816   6.329   5.355   6.486
 2973SOL     OW 9817   4.947   6.861   1.968
 2973SOL    HW1 9818   4.875   6.931   1.964
 2973SOL    HW2 9819   4.988   6.850   1.878
 2974SOL     OW 9820   6.911   4.339   3.685
 2974SOL    HW1 9821   6.930   4.436   3.700
 2974SOL    HW2 9822   6.988   4.297   3.636
 2975SOL     OW 9823   5.519   4.235   4.075
 2975SOL    HW1 9824   5.511   4.157   4.138
 2975SOL    HW2 9825   5.587   4.215   4.006
 2976SOL     OW 9826   5.406   2.021   2.757
 2976SOL    HW1 9827   5.429   2.029   2.854
 2976SOL    HW2 9828   5.347   1.941   2.743
 2977SOL     OW 9829   0.707   0.633   2.614
 2977SOL    HW1 9830   0.609   0.614   2.606
 2977SOL    HW2 9831   0.751   0.614   2.526
 2978SOL     OW 9832   3.808   4.648   0.308
 2978SOL    HW1 9833   3.755   4.650   0.392
 2978SOL    HW2 9834   3.747   4.664   0.230
 2979SOL     OW 9835   3.186   1.864   4.050
 2979SOL    HW1 9836   3.248   1.942   4.062
 2979SOL    HW2 9837   3.094   1.888   4.081
 2980SOL     OW 9838   2.049   5.610   5.918
 2980SOL    HW1 9839   2.045   5.513   5.939
 2980SOL    HW2 9840   2.144   5.641   5.919
 2981SOL     OW 9841   1.827   1.144   0.292
 2981SOL    HW1 9842   1.876   1.227   0.265
 2981SOL    HW2 9843   1.862   1.066   0.240
 2982SOL     OW 9844   2.319   6.276   1.239
 2982SOL    HW1 9845   2.276   6.186   1.253
 2982SOL    HW2 9846   2.380   6.272   1.160
 2983SOL     OW 9847   6.468   2.231   1.813
 2983SOL    HW1 9848   6.469   2.326   1.842
 2983SOL    HW2 9849   6.503   2.173   1.886
 2984SOL     OW 9850   5.570   5.217   6.736
 2984SOL    HW1 9851   5.554   5.293   6.799
 2984SOL    HW2 9852   5.566   5.130   6.786
 2985SOL     OW 9853   1.752   1.536   4.942
 2985SOL    HW1 9854   1.834   1.584   4.974
 2985SOL    HW2 9855   1.744   1.546   4.843
 2986SOL     OW 9856   3.500   4.080   2.534
 2986SOL    HW1 9857   3.484   3.984   2.510
 2986SOL    HW2 9858   3.492   4.091   2.633
 2987SOL     OW 9859   1.534   1.079   4.533
 2987SOL    HW1 9860   1.463   1.126   4.586
 2987SOL    HW2 9861   1.562   0.997   4.581
 2988SOL     OW 9862   2.071   6.762   2.295
 2988SOL    HW1 9863   2.057   6.846   2.347
 2988SOL    HW2 9864   2.083   6.783   2.198
 2989SOL     OW 9865   5.256   4.584   5.500
 2989SOL    HW1 9866   5.273   4.514   5.431
 2989SOL    HW2 9867   5.189   4.551   5.566
 2990SOL     OW 9868   4.589   2.142   4.237
 2990SOL    HW1 9869   4.555   2.160   4.329
 2990SOL    HW2 9870   4.514   2.113   4.178
 2991SOL     OW 9871   6.225   3.165   5.937
 2991SOL    HW1 9872   6.267   3.232   5.998
 2991SOL    HW2 9873   6.158   3.211   5.878
 2992SOL     OW 9874   1.405   5.166   4.216
 2992SOL    HW1 9875   1.397   5.235   4.288
 2992SOL    HW2 9876   1.420   5.211   4.128
 2993SOL     OW 9877   0.766   5.017   1.371
 2993SOL    HW1 9878   0.753   5.110   1.337
 2993SOL    HW2 9879   0.679   4.967   1.366
 2994SOL     OW 9880   3.967   6.299   0.553
 2994SOL    HW1 9881   3.875   6.330   0.529
 2994SOL    HW2 9882   4.035   6.353   0.503
 2995SOL     OW 9883   3.790   0.515   6.891
 2995SOL    HW1 9884   3.711   0.472   6.847
 2995SOL    HW2 9885   3.837   0.447   6.949
 2996SOL     OW 9886   0.539   1.862   5.359
 2996SOL    HW1 9887   0.595   1.891   5.281
 2996SOL    HW2 9888   0.443   1.863   5.332
 2997SOL     OW 9889   5.033   0.166   3.320
 2997SOL    HW1 9890   4.959   0.199   3.378
 2997SOL    HW2 9891   5.118   0.213   3.344
 2998SOL     OW 9892   4.778   6.439   3.279
 2998SOL    HW1 9893   4.800   6.421   3.375
 2998SOL    HW2 9894   4.724   6.522   3.271
 2999SOL     OW 9895   2.400   5.261   5.608
 2999SOL    HW1 9896   2.403   5.176   5.659
 2999SOL    HW2 9897   2.471   5.261   5.537
 3000SOL     OW 9898   2.994   3.855   6.584
 3000SOL    HW1 9899   2.997   3.932   6.520
 3000SOL    HW2 9900   2.976   3.770   6.534
 3001SOL     OW 9901   6.388   1.676   6.607
 3001SOL    HW1 9902   6.318   1.634   6.549
 3001SOL    HW2 9903   6.358   1.767   6.635
 3002SOL     OW 9904   3.267   2.254   0.526
 3002SOL    HW1 9905   3.187   2.263   0.586
 3002SOL    HW2 9906   3.246   2.190   0.452
 3003SOL     OW 9907   1.021   6.580   0.695
 3003SOL    HW1 9908   1.107   6.529   0.695
 3003SOL    HW2 9909   1.015   6.636   0.777
 3004SOL     OW 9910   1.304   4.610   2.853
 3004SOL    HW1 9911   1.368   4.541   2.819
 3004SOL    HW2 9912   1.211   4.586   2.826
 3005SOL     OW 9913   1.599   2.902   6.793
 3005SOL    HW1 9914   1.658   2.861   6.724
 3005SOL    HW2 9915   1.636   2.990   6.821
 3006SOL     OW 9916   5.569   1.770   4.958
 3006SOL    HW1 9917   5.667   1.773   4.939
 3006SOL    HW2 9918   5.534   1.678   4.939
 3007SOL     OW 9919   4.796   4.612   0.923
 3007SOL    HW1 9920   4.866   4.668   0.879
 3007SOL    HW2 9921   4.780   4.646   1.016
 3008SOL     OW 9922   2.650   2.201   6.504
 3008SOL    HW1 9923   2.643   2.105   6.532
 3008SOL    HW2 9924   2.561   2.245   6.511
 3009SOL     OW 9925   6.925   3.224   2.685
 3009SOL    HW1 9926   6.907   3.318   2.656
 3009SOL    HW2 9927   6.854   3.163   2.649
 3010SOL     OW 9928   2.759   5.746   3.809
 3010SOL    HW1 9929   2.684   5.719   3.870
 3010SOL    HW2 9930   2.830   5.675   3.811
 3011SOL     OW 9931   6.396   1.164   1.910
 3011SOL    HW1 9932   6.438   1.211   1.832
 3011SOL    HW2 9933   6.315   1.115   1.879
 3012SOL     OW 9934   2.481   3.124   0.056
 3012SOL    HW1 9935   2.580   3.122   0.064
 3012SOL    HW2 9936   2.449   3.037   0.019
 3013SOL     OW 9937   5.711   4.946   3.670
 3013SOL    HW1 9938   5.624   4.939   3.718
 3013SOL    HW2 9939   5.701   4.911   3.577
 3014SOL     OW 9940   4.996   2.107   5.966
 3014SOL    HW1 9941   5.061   2.157   5.910
 3014SOL    HW2 9942   5.042   2.029   6.009
 3015SOL     OW 9943   1.642   2.036   0.477
 3015SOL    HW1 9944   1.542   2.036   0.485
 3015SOL    HW2 9945   1.678   1.952   0.518
 3016SOL     OW 9946   3.308   6.927   4.135
 3016SOL    HW1 9947   3.284   6.847   4.189
 3016SOL    HW2 9948   3.363   6.990   4.191
 3017SOL     OW 9949   5.689   5.722   2.459
 3017SOL    HW1 9950   5.636   5.787   2.513
 3017SOL    HW2 9951   5.632   5.644   2.433
 3018SOL     OW 9952   3.077   0.333   6.584
 3018SOL    HW1 9953   3.157   0.276   6.603
 3018SOL    HW2 9954   3.002   0.276   6.552
 3019SOL     OW 9955   0.394   0.391   6.648
 3019SOL    HW1 9956   0.362   0.385   6.743
 3019SOL    HW2 9957   0.414   0.487   6.626
 3020SOL     OW 9958   3.948   3.195   0.899
 3020SOL    HW1 9959   4.028   3.234   0.944
 3020SOL    HW2 9960   3.977   3.118   0.842
 3021SOL     OW 9961   2.819   0.404   4.694
 3021SOL    HW1 9962   2.721   0.423   4.705
 3021SOL    HW2 9963   2.871   0.456   4.761
 3022SOL     OW 9964   4.498   5.180   4.657
 3022SOL    HW1 9965   4.496   5.083   4.681
 3022SOL    HW2 9966   4.490   5.190   4.558
 3023SOL     OW 9967   4.195   6.903   3.157
 3023SOL    HW1 9968   4.165   6.863   3.071
 3023SOL    HW2 9969   4.280   6.953   3.142
 3024SOL     OW 9970   5.734   6.074   4.874
 3024SOL    HW1 9971   5.790   6.149   4.911
 3024SOL    HW2 9972   5.686   6.106   4.793
 3025SOL     OW 9973   4.205   5.924   1.655
 3025SOL    HW1 9974   4.265   5.885   1.585
 3025SOL    HW2 9975   4.115   5.880   1.651
 3026SOL     OW 9976   0.105   1.384   6.504
 3026SOL    HW1 9977   0.028   1.420   6.557
 3026SOL    HW2 9978   0.123   1.290   6.530
 3027SOL     OW 9979   3.556   1.883   2.452
 3027SOL    HW1 9980   3.510   1.801   2.488
 3027SOL    HW2 9981   3.574   1.870   2.354
 3028SOL     OW 9982   1.152   4.047   5.894
 3028SOL    HW1 9983   1.246   4.079   5.904
 3028SOL    HW2 9984   1.151   3.947   5.898
 3029SOL     OW 9985   1.290   3.191   4.109
 3029SOL    HW1 9986   1.209   3.149   4.148
 3029SOL    HW2 9987   1.303   3.159   4.015
 3030SOL     OW 9988   1.772   4.109   0.809
 3030SOL    HW1 9989   1.788   4.140   0.903
 3030SOL    HW2 9990   1.702   4.167   0.766
 3031SOL     OW 9991   0.255   4.787   1.110
 3031SOL    HW1 9992   0.257   4.763   1.207
 3031SOL    HW2 9993   0.323   4.733   1.061
 3032SOL     OW 9994   2.496   6.953   1.252
 3032SOL    HW1 9995   2.552   6.913   1.325
 3032SOL    HW2 9996   2.501   6.895   1.171
 3033SOL     OW 9997   6.106   0.885   2.324
 3033SOL    HW1 9998   6.130   0.968   2.375
 3033SOL    HW2 9999   6.106   0.906   2.226
 3034SOL     OW10000   0.632   6.429   3.454
 3034SOL    HW110001   0.559   6.457   3.391
 3034SOL    HW210002   0.647   6.330   3.446
 3035SOL     OW10003   1.025   3.491   6.147
 3035SOL    HW110004   0.928   3.476   6.161
 3035SOL    HW210005   1.067   3.519   6.234
 3036SOL     OW10006   1.439   1.686   5.885
 3036SOL    HW110007   1.491   1.667   5.802
 3036SOL    HW210008   1.499   1.730   5.953
 3037SOL     OW10009   6.450   4.998   5.577
 3037SOL    HW110010   6.540   4.955   5.584
 3037SOL    HW210011   6.391   4.963   5.649
 3038SOL     OW10012   4.926   4.446   5.408
 3038SOL    HW110013   4.945   4.460   5.311
 3038SOL    HW210014   4.859   4.514   5.438
 3039SOL     OW10015   0.525   3.081   0.671
 3039SOL    HW110016   0.568   3.121   0.752
 3039SOL    HW210017   0.592   3.023   0.624
 3040SOL     OW10018   3.383   5.121   5.439
 3040SOL    HW110019   3.298   5.109   5.490
 3040SOL    HW210020   3.425   5.032   5.424
 3041SOL     OW10021   1.563   4.615   5.626
 3041SOL    HW110022   1.578   4.534   5.569
 3041SOL    HW210023   1.588   4.595   5.720
 3042SOL     OW10024   6.029   6.178   3.219
 3042SOL    HW110025   5.981   6.139   3.141
 3042SOL    HW210026   6.010   6.276   3.224
 3043SOL     OW10027   2.726   3.826   1.559
 3043SOL    HW110028   2.686   3.746   1.604
 3043SOL    HW210029   2.824   3.829   1.578
 3044SOL     OW10030   3.404   5.804   5.624
 3044SOL    HW110031   3.327   5.766   5.572
 3044SOL    HW210032   3.381   5.896   5.655
 3045SOL     OW10033   5.290   6.619   3.109
 3045SOL    HW110034   5.349   6.547   3.073
 3045SOL    HW210035   5.198   6.582   3.124
 3046SOL     OW10036   3.418   0.166   6.836
 3046SOL    HW110037   3.365   0.221   6.900
 3046SOL    HW210038   3.474   0.100   6.886
 3047SOL     OW10039   5.813   0.124   1.117
 3047SOL    HW110040   5.733   0.095   1.064
 3047SOL    HW210041   5.869   0.185   1.062
 3048SOL     OW10042   4.683   2.403   0.579
 3048SOL    HW110043   4.645   2.460   0.507
 3048SOL    HW210044   4.782   2.417   0.585
 3049SOL     OW10045   1.816   6.857   3.124
 3049SOL    HW110046   1.872   6.860   3.207
 3049SOL    HW210047   1.724   6.891   3.144
 3050SOL     OW10048   3.335   2.063   1.541
 3050SOL    HW110049   3.247   2.102   1.569
 3050SOL    HW210050   3.399   2.066   1.617
 3051SOL     OW10051   2.024   6.519   6.419
 3051SOL    HW110052   1.939   6.558   6.455
 3051SOL    HW210053   2.019   6.419   6.423
 3052SOL     OW10054   4.958   5.769   2.045
 3052SOL    HW110055   4.934   5.836   2.115
 3052SOL    HW210056   4.883   5.763   1.979
 3053SOL     OW10057   7.004   3.353   1.223
 3053SOL    HW110058   0.073   3.311   1.221
 3053SOL    HW210059   6.996   3.410   1.305
 3054SOL     OW10060   5.741   1.979   1.612
 3054SOL    HW110061   5.737   2.078   1.602
 3054SOL    HW210062   5.830   1.946   1.580
 3055SOL     OW10063   5.170   0.271   5.219
 3055SOL    HW110064   5.210   0.179   5.230
 3055SOL    HW210065   5.119   0.275   5.134
 3056SOL     OW10066   6.927   1.008   5.446
 3056SOL    HW110067   6.848   1.011   5.384
 3056SOL    HW210068   6.958   0.913   5.454
 3057SOL     OW10069   4.960   5.291   4.270
 3057SOL    HW110070   4.934   5.255   4.180
 3057SOL    HW210071   5.015   5.223   4.318
 3058SOL     OW10072   6.523   4.416   0.732
 3058SOL    HW110073   6.444   4.454   0.779
 3058SOL    HW210074   6.579   4.490   0.694
 3059SOL     OW10075   2.576   1.272   3.619
 3059SOL    HW110076   2.584   1.366   3.652
 3059SOL    HW210077   2.504   1.266   3.551
 3060SOL     OW10078   2.182   5.294   0.482
 3060SOL    HW110079   2.209   5.199   0.468
 3060SOL    HW210080   2.264   5.350   0.495
 3061SOL     OW10081   5.808   5.656   5.468
 3061SOL    HW110082   5.807   5.713   5.386
 3061SOL    HW210083   5.834   5.712   5.547
 3062SOL     OW10084   1.845   6.606   0.664
 3062SOL    HW110085   1.925   6.659   0.636
 3062SOL    HW210086   1.843   6.598   0.764
 3063SOL     OW10087   1.808   4.636   1.351
 3063SOL    HW110088   1.788   4.614   1.255
 3063SOL    HW210089   1.738   4.595   1.410
 3064SOL     OW10090   4.817   3.426   0.317
 3064SOL    HW110091   4.887   3.458   0.253
 3064SOL    HW210092   4.853   3.348   0.369
 3065SOL     OW10093   1.123   2.189   6.363
 3065SOL    HW110094   1.185   2.249   6.312
 3065SOL    HW210095   1.037   2.179   6.313
 3066SOL     OW10096   5.346   5.030   0.297
 3066SOL    HW110097   5.319   5.010   0.203
 3066SOL    HW210098   5.443   5.009   0.309
 3067SOL     OW10099   3.025   1.055   6.896
 3067SOL    HW110100   3.006   1.046   6.799
 3067SOL    HW210101   3.043   1.150   6.918
 3068SOL     OW10102   6.835   6.488   1.701
 3068SOL    HW110103   6.810   6.575   1.744
 3068SOL    HW210104   6.760   6.423   1.710
 3069SOL     OW10105   6.442   6.491   2.560
 3069SOL    HW110106   6.518   6.550   2.530
 3069SOL    HW210107   6.391   6.537   2.632
 3070SOL     OW10108   2.699   0.793   6.936
 3070SOL    HW110109   2.748   0.822   7.019
 3070SOL    HW210110   2.725   0.852   6.860
 3071SOL     OW10111   6.466   5.989   3.959
 3071SOL    HW110112   6.531   5.987   4.036
 3071SOL    HW210113   6.474   6.077   3.911
 3072SOL     OW10114   2.061   5.433   6.171
 3072SOL    HW110115   2.040   5.338   6.146
 3072SOL    HW210116   1.981   5.473   6.216
 3073SOL     OW10117   6.771   3.860   2.810
 3073SOL    HW110118   6.699   3.874   2.741
 3073SOL    HW210119   6.758   3.924   2.885
 3074SOL     OW10120   0.128   4.192   0.922
 3074SOL    HW110121   0.031   4.166   0.912
 3074SOL    HW210122   0.182   4.146   0.851
 3075SOL     OW10123   2.526   5.632   3.394
 3075SOL    HW110124   2.592   5.676   3.334
 3075SOL    HW210125   2.439   5.619   3.345
 3076SOL     OW10126   6.545   1.843   3.737
 3076SOL    HW110127   6.607   1.780   3.691
 3076SOL    HW210128   6.564   1.937   3.707
 3077SOL     OW10129   5.527   4.368   1.963
 3077SOL    HW110130   5.469   4.287   1.972
 3077SOL    HW210131   5.621   4.345   1.990
 3078SOL     OW10132   6.880   3.469   2.580
 3078SOL    HW110133   6.940   3.547   2.599
 3078SOL    HW210134   6.785   3.500   2.578
 3079SOL     OW10135   2.990   2.172   2.900
 3079SOL    HW110136   3.013   2.224   2.818
 3079SOL    HW210137   2.921   2.103   2.878
 3080SOL     OW10138   6.118   4.602   2.081
 3080SOL    HW110139   6.215   4.613   2.100
 3080SOL    HW210140   6.082   4.686   2.039
 3081SOL     OW10141   0.507   4.614   5.759
 3081SOL    HW110142   0.605   4.595   5.764
 3081SOL    HW210143   0.491   4.693   5.700
 3082SOL     OW10144   1.437   5.545   4.174
 3082SOL    HW110145   1.472   5.499   4.256
 3082SOL    HW210146   1.409   5.639   4.198
 3083SOL     OW10147   2.839   6.541   3.172
 3083SOL    HW110148   2.817   6.467   3.109
 3083SOL    HW210149   2.939   6.548   3.182
 3084SOL     OW10150   6.380   4.513   3.601
 3084SOL    HW110151   6.387   4.418   3.631
 3084SOL    HW210152   6.299   4.555   3.642
 3085SOL     OW10153   6.389   4.988   0.438
 3085SOL    HW110154   6.377   4.909   0.377
 3085SOL    HW210155   6.454   5.051   0.397
 3086SOL     OW10156   5.115   1.344   6.961
 3086SOL    HW110157   5.020   1.313   6.974
 3086SOL    HW210158   5.177   1.283   7.011
 3087SOL     OW10159   2.508   6.686   3.557
 3087SOL    HW110160   2.558   6.628   3.493
 3087SOL    HW210161   2.410   6.675   3.543
 3088SOL     OW10162   1.743   3.500   4.940
 3088SOL    HW110163   1.645   3.485   4.930
 3088SOL    HW210164   1.768   3.496   5.036
 3089SOL     OW10165   4.252   2.151   4.513
 3089SOL    HW110166   4.338   2.102   4.528
 3089SOL    HW210167   4.223   2.194   4.599
 3090SOL     OW10168   2.737   0.989   2.133
 3090SOL    HW110169   2.675   0.989   2.055
 3090SOL    HW210170   2.812   1.054   2.117
 3091SOL     OW10171   1.163   1.050   0.464
 3091SOL    HW110172   1.089   1.093   0.515
 3091SOL    HW210173   1.133   0.959   0.433
 3092SOL     OW10174   5.619   0.114   0.675
 3092SOL    HW110175   5.718   0.105   0.680
 3092SOL    HW210176   5.590   0.111   0.579
 3093SOL     OW10177   5.355   5.708   6.414
 3093SOL    HW110178   5.433   5.694   6.475
 3093SOL    HW210179   5.374   5.665   6.326
 3094SOL     OW10180   2.572   0.013   4.130
 3094SOL    HW110181   2.553   6.949   4.083
 3094SOL    HW210182   2.579   7.019   4.228
 3095SOL     OW10183   2.431   3.629   5.536
 3095SOL    HW110184   2.487   3.634   5.619
 3095SOL    HW210185   2.453   3.706   5.476
 3096SOL     OW10186   0.883   5.032   5.562
 3096SOL    HW110187   0.941   5.070   5.635
 3096SOL    HW210188   0.833   5.107   5.518
 3097SOL     OW10189   5.774   3.574   6.749
 3097SOL    HW110190   5.700   3.514   6.719
 3097SOL    HW210191   5.764   3.595   6.846
 3098SOL     OW10192   1.572   3.214   1.468
 3098SOL    HW110193   1.605   3.136   1.522
 3098SOL    HW210194   1.514   3.272   1.524
 3099SOL     OW10195   1.044   6.185   3.990
 3099SOL    HW110196   1.007   6.106   4.038
 3099SOL    HW210197   0.973   6.254   3.978
 3100SOL     OW10198   6.442   6.272   3.738
 3100SOL    HW110199   6.430   6.317   3.649
 3100SOL    HW210200   6.354   6.237   3.769
 3101SOL     OW10201   5.148   5.648   6.113
 3101SOL    HW110202   5.097   5.567   6.142
 3101SOL    HW210203   5.087   5.728   6.116
 3102SOL     OW10204   6.575   7.008   1.108
 3102SOL    HW110205   6.652   6.995   1.045
 3102SOL    HW210206   6.508   6.936   1.094
 3103SOL     OW10207   4.069   0.980   1.094
 3103SOL    HW110208   4.143   0.955   1.156
 3103SOL    HW210209   4.086   0.940   1.004
 3104SOL     OW10210   4.130   0.540   6.027
 3104SOL    HW110211   4.229   0.526   6.023
 3104SOL    HW210212   4.110   0.629   6.067
 3105SOL     OW10213   5.355   3.384   1.468
 3105SOL    HW110214   5.406   3.396   1.383
 3105SOL    HW210215   5.396   3.310   1.522
 3106SOL     OW10216   4.804   6.557   5.161
 3106SOL    HW110217   4.738   6.626   5.192
 3106SOL    HW210218   4.840   6.584   5.071
 3107SOL     OW10219   3.805   0.797   4.903
 3107SOL    HW110220   3.783   0.730   4.974
 3107SOL    HW210221   3.762   0.884   4.926
 3108SOL     OW10222   2.085   5.640   4.988
 3108SOL    HW110223   2.082   5.581   5.068
 3108SOL    HW210224   2.070   5.585   4.906
 3109SOL     OW10225   5.971   0.289   3.995
 3109SOL    HW110226   6.047   0.329   3.943
 3109SOL    HW210227   5.982   0.190   3.999
 3110SOL     OW10228   1.357   4.233   3.046
 3110SOL    HW110229   1.301   4.156   3.014
 3110SOL    HW210230   1.388   4.286   2.967
 3111SOL     OW10231   0.117   5.045   3.299
 3111SOL    HW110232   0.027   5.083   3.320
 3111SOL    HW210233   0.186   5.085   3.360
 3112SOL     OW10234   3.022   3.155   0.820
 3112SOL    HW110235   2.926   3.126   0.826
 3112SOL    HW210236   3.075   3.084   0.774
 3113SOL     OW10237   3.587   5.817   2.562
 3113SOL    HW110238   3.665   5.755   2.555
 3113SOL    HW210239   3.536   5.797   2.646
 3114SOL     OW10240   3.562   1.950   0.581
 3114SOL    HW110241   3.589   1.875   0.521
 3114SOL    HW210242   3.583   2.037   0.537
 3115SOL     OW10243   3.843   4.898   6.373
 3115SOL    HW110244   3.904   4.843   6.316
 3115SOL    HW210245   3.876   4.993   6.375
 3116SOL     OW10246   6.841   2.277   0.024
 3116SOL    HW110247   6.760   2.217   0.023
 3116SOL    HW210248   6.924   2.221   0.027
 3117SOL     OW10249   4.515   3.592   5.594
 3117SOL    HW110250   4.531   3.501   5.557
 3117SOL    HW210251   4.503   3.658   5.519
 3118SOL     OW10252   0.631   5.732   2.469
 3118SOL    HW110253   0.624   5.657   2.402
 3118SOL    HW210254   0.665   5.695   2.555
 3119SOL     OW10255   2.517   2.496   6.994
 3119SOL    HW110256   2.589   2.489   0.040
 3119SOL    HW210257   2.428   2.499   0.018
 3120SOL     OW10258   2.235   0.362   5.703
 3120SOL    HW110259   2.235   0.292   5.631
 3120SOL    HW210260   2.238   0.318   5.793
 3121SOL     OW10261   5.821   1.560   4.725
 3121SOL    HW110262   5.810   1.540   4.628
 3121SOL    HW210263   5.867   1.484   4.771
 3122SOL     OW10264   5.147   5.207   5.250
 3122SOL    HW110265   5.082   5.229   5.323
 3122SOL    HW210266   5.146   5.280   5.182
 3123SOL     OW10267   1.967   1.421   2.546
 3123SOL    HW110268   1.887   1.479   2.532
 3123SOL    HW210269   2.017   1.451   2.628
 3124SOL     OW10270   4.687   0.543   4.372
 3124SOL    HW110271   4.657   0.564   4.279
 3124SOL    HW210272   4.785   0.524   4.372
 3125SOL     OW10273   1.522   3.230   5.086
 3125SOL    HW110274   1.507   3.314   5.034
 3125SOL    HW210275   1.498   3.245   5.181
 3126SOL     OW10276   5.292   4.453   5.244
 3126SOL    HW110277   5.319   4.545   5.213
 3126SOL    HW210278   5.374   4.397   5.255
 3127SOL     OW10279   2.256   1.861   6.686
 3127SOL    HW110280   2.338   1.898   6.731
 3127SOL    HW210281   2.175   1.892   6.735
 3128SOL     OW10282   3.501   1.222   0.331
 3128SOL    HW110283   3.597   1.222   0.305
 3128SOL    HW210284   3.493   1.238   0.430
 3129SOL     OW10285   5.789   3.516   0.840
 3129SOL    HW110286   5.879   3.557   0.855
 3129SOL    HW210287   5.792   3.455   0.762
 3130SOL     OW10288   2.228   4.607   2.080
 3130SOL    HW110289   2.220   4.606   1.980
 3130SOL    HW210290   2.158   4.549   2.120
 3131SOL     OW10291   0.979   4.023   2.079
 3131SOL    HW110292   1.074   4.004   2.051
 3131SOL    HW210293   0.952   3.959   2.150
 3132SOL     OW10294   4.996   5.133   6.677
 3132SOL    HW110295   5.030   5.171   6.762
 3132SOL    HW210296   4.915   5.184   6.647
 3133SOL     OW10297   3.498   0.710   3.439
 3133SOL    HW110298   3.422   0.680   3.382
 3133SOL    HW210299   3.584   0.679   3.398
 3134SOL     OW10300   4.469   4.729   0.790
 3134SOL    HW110301   4.489   4.654   0.727
 3134SOL    HW210302   4.399   4.700   0.855
 3135SOL     OW10303   4.815   0.186   5.734
 3135SOL    HW110304   4.914   0.175   5.742
 3135SOL    HW210305   4.778   0.113   5.675
 3136SOL     OW10306   5.501   6.864   2.713
 3136SOL    HW110307   5.554   6.945   2.686
 3136SOL    HW210308   5.410   6.869   2.671
 3137SOL     OW10309   6.831   6.559   3.708
 3137SOL    HW110310   6.783   6.478   3.676
 3137SOL    HW210311   6.789   6.641   3.669
 3138SOL     OW10312   5.946   5.603   3.645
 3138SOL    HW110313   5.880   5.527   3.649
 3138SOL    HW210314   6.001   5.594   3.562
 3139SOL     OW10315   3.331   5.331   1.141
 3139SOL    HW110316   3.347   5.340   1.043
 3139SOL    HW210317   3.232   5.328   1.159
 3140SOL     OW10318   6.179   6.215   5.872
 3140SOL    HW110319   6.203   6.181   5.781
 3140SOL    HW210320   6.081   6.236   5.875
 3141SOL     OW10321   0.771   0.068   6.559
 3141SOL    HW110322   0.806   0.030   6.644
 3141SOL    HW210323   0.800   0.163   6.550
 3142SOL     OW10324   3.343   0.217   2.687
 3142SOL    HW110325   3.303   0.294   2.735
 3142SOL    HW210326   3.436   0.201   2.722
 3143SOL     OW10327   6.028   1.339   0.032
 3143SOL    HW110328   6.053   1.259   7.000
 3143SOL    HW210329   6.110   1.393   0.050
 3144SOL     OW10330   4.599   3.810   0.995
 3144SOL    HW110331   4.504   3.842   1.001
 3144SOL    HW210332   4.654   3.876   0.944
 3145SOL     OW10333   2.021   6.469   2.075
 3145SOL    HW110334   2.112   6.510   2.084
 3145SOL    HW210335   1.971   6.517   2.003
 3146SOL     OW10336   0.660   1.365   4.497
 3146SOL    HW110337   0.717   1.436   4.455
 3146SOL    HW210338   0.592   1.334   4.430
 3147SOL     OW10339   3.180   5.132   0.136
 3147SOL    HW110340   3.146   5.040   0.119
 3147SOL    HW210341   3.260   5.127   0.196
 3148SOL     OW10342   6.887   6.795   4.011
 3148SOL    HW110343   6.909   6.704   3.977
 3148SOL    HW210344   6.936   6.864   3.958
 3149SOL     OW10345   2.836   1.017   6.618
 3149SOL    HW110346   2.768   0.980   6.555
 3149SOL    HW210347   2.791   1.044   6.703
 3150SOL     OW10348   6.987   5.878   5.192
 3150SOL    HW110349   0.053   5.896   5.149
 3150SOL    HW210350   6.937   5.810   5.138
 3151SOL     OW10351   0.502   1.350   5.386
 3151SOL    HW110352   0.541   1.273   5.335
 3151SOL    HW210353   0.558   1.431   5.371
 3152SOL     OW10354   0.745   4.715   0.426
 3152SOL    HW110355   0.719   4.665   0.509
 3152SOL    HW210356   0.665   4.763   0.390
 3153SOL     OW10357   6.178   5.824   0.628
 3153SOL    HW110358   6.178   5.727   0.602
 3153SOL    HW210359   6.272   5.854   0.644
 3154SOL     OW10360   6.845   2.037   0.238
 3154SOL    HW110361   6.853   1.938   0.230
 3154SOL    HW210362   6.933   2.080   0.220
 3155SOL     OW10363   6.616   4.863   0.096
 3155SOL    HW110364   6.562   4.879   0.178
 3155SOL    HW210365   6.700   4.918   0.099
 3156SOL     OW10366   2.937   3.476   2.152
 3156SOL    HW110367   2.852   3.424   2.165
 3156SOL    HW210368   3.008   3.440   2.213
 3157SOL     OW10369   1.642   1.635   5.682
 3157SOL    HW110370   1.647   1.692   5.599
 3157SOL    HW210371   1.608   1.544   5.658
 3158SOL     OW10372   2.561   1.337   4.024
 3158SOL    HW110373   2.545   1.238   4.031
 3158SOL    HW210374   2.503   1.375   3.952
 3159SOL     OW10375   5.692   0.230   6.397
 3159SOL    HW110376   5.712   0.256   6.492
 3159SOL    HW210377   5.729   0.139   6.379
 3160SOL     OW10378   1.433   5.857   6.117
 3160SOL    HW110379   1.463   5.880   6.025
 3160SOL    HW210380   1.494   5.902   6.184
 3161SOL     OW10381   2.362   2.500   2.817
 3161SOL    HW110382   2.390   2.479   2.911
 3161SOL    HW210383   2.441   2.498   2.757
 3162SOL     OW10384   1.137   5.941   1.723
 3162SOL    HW110385   1.167   5.851   1.752
 3162SOL    HW210386   1.217   6.000   1.710
 3163SOL     OW10387   4.446   4.022   6.346
 3163SOL    HW110388   4.430   4.068   6.434
 3163SOL    HW210389   4.544   4.019   6.327
 3164SOL     OW10390   4.018   5.522   0.889
 3164SOL    HW110391   3.990   5.615   0.864
 3164SOL    HW210392   3.947   5.457   0.861
 3165SOL     OW10393   2.015   6.312   1.332
 3165SOL    HW110394   2.112   6.295   1.348
 3165SOL    HW210395   2.004   6.380   1.259
 3166SOL     OW10396   4.113   1.936   3.488
 3166SOL    HW110397   4.114   1.901   3.395
 3166SOL    HW210398   4.166   2.020   3.494
 3167SOL     OW10399   5.423   4.203   1.073
 3167SOL    HW110400   5.423   4.110   1.038
 3167SOL    HW210401   5.492   4.257   1.025
 3168SOL     OW10402   5.339   3.272   6.891
 3168SOL    HW110403   5.379   3.187   6.857
 3168SOL    HW210404   5.254   3.292   6.841
 3169SOL     OW10405   2.253   4.307   3.705
 3169SOL    HW110406   2.255   4.301   3.605
 3169SOL    HW210407   2.159   4.295   3.737
 3170SOL     OW10408   4.156   5.812   2.020
 3170SOL    HW110409   4.233   5.755   1.989
 3170SOL    HW210410   4.082   5.806   1.953
 3171SOL     OW10411   6.704   1.727   2.262
 3171SOL    HW110412   6.650   1.793   2.313
 3171SOL    HW210413   6.682   1.634   2.293
 3172SOL     OW10414   6.280   5.544   6.856
 3172SOL    HW110415   6.331   5.485   6.793
 3172SOL    HW210416   6.312   5.639   6.846
 3173SOL     OW10417   3.234   2.455   0.190
 3173SOL    HW110418   3.191   2.541   0.162
 3173SOL    HW210419   3.255   2.458   0.288
 3174SOL     OW10420   3.146   2.721   0.149
 3174SOL    HW110421   3.111   2.671   0.070
 3174SOL    HW210422   3.074   2.780   0.186
 3175SOL     OW10423   6.087   1.432   1.477
 3175SOL    HW110424   6.002   1.478   1.452
 3175SOL    HW210425   6.119   1.377   1.400
 3176SOL     OW10426   0.626   3.833   5.149
 3176SOL    HW110427   0.544   3.856   5.097
 3176SOL    HW210428   0.619   3.739   5.182
 3177SOL     OW10429   5.309   4.256   3.873
 3177SOL    HW110430   5.337   4.228   3.964
 3177SOL    HW210431   5.307   4.356   3.868
 3178SOL     OW10432   6.359   2.679   0.583
 3178SOL    HW110433   6.298   2.661   0.660
 3178SOL    HW210434   6.387   2.775   0.584
 3179SOL     OW10435   0.915   2.059   2.000
 3179SOL    HW110436   0.967   2.093   1.921
 3179SOL    HW210437   0.824   2.101   2.001
 3180SOL     OW10438   5.252   0.116   0.510
 3180SOL    HW110439   5.175   0.053   0.514
 3180SOL    HW210440   5.283   0.137   0.603
 3181SOL     OW10441   6.516   1.967   3.396
 3181SOL    HW110442   6.616   1.967   3.396
 3181SOL    HW210443   6.483   2.061   3.388
 3182SOL     OW10444   2.295   0.241   6.885
 3182SOL    HW110445   2.341   0.226   6.973
 3182SOL    HW210446   2.345   0.310   6.833
 3183SOL     OW10447   4.749   4.199   2.151
 3183SOL    HW110448   4.687   4.220   2.075
 3183SOL    HW210449   4.841   4.183   2.114
 3184SOL     OW10450   0.805   2.903   2.565
 3184SOL    HW110451   0.848   2.827   2.517
 3184SOL    HW210452   0.706   2.902   2.548
 3185SOL     OW10453   4.541   5.911   6.828
 3185SOL    HW110454   4.518   5.815   6.844
 3185SOL    HW210455   4.579   5.951   6.911
 3186SOL     OW10456   3.126   1.918   0.737
 3186SOL    HW110457   3.088   1.904   0.829
 3186SOL    HW210458   3.225   1.906   0.740
 3187SOL     OW10459   4.636   5.328   0.811
 3187SOL    HW110460   4.602   5.313   0.718
 3187SOL    HW210461   4.719   5.384   0.807
 3188SOL     OW10462   1.402   6.774   4.210
 3188SOL    HW110463   1.331   6.752   4.277
 3188SOL    HW210464   1.489   6.788   4.258
 3189SOL     OW10465   1.327   2.536   1.398
 3189SOL    HW110466   1.330   2.497   1.490
 3189SOL    HW210467   1.416   2.578   1.377
 3190SOL     OW10468   0.085   5.260   0.709
 3190SOL    HW110469   0.173   5.270   0.663
 3190SOL    HW210470   0.095   5.204   0.791
 3191SOL     OW10471   4.757   5.741   1.519
 3191SOL    HW110472   4.715   5.651   1.502
 3191SOL    HW210473   4.708   5.786   1.594
 3192SOL     OW10474   0.576   3.260   1.608
 3192SOL    HW110475   0.529   3.197   1.669
 3192SOL    HW210476   0.522   3.271   1.524
 3193SOL     OW10477   3.932   1.249   6.164
 3193SOL    HW110478   3.903   1.279   6.255
 3193SOL    HW210479   3.992   1.169   6.174
 3194SOL     OW10480   1.831   1.830   6.187
 3194SOL    HW110481   1.830   1.929   6.199
 3194SOL    HW210482   1.870   1.787   6.268
 3195SOL     OW10483   1.976   0.743   2.948
 3195SOL    HW110484   1.891   0.689   2.943
 3195SOL    HW210485   2.030   0.729   2.865
 3196SOL     OW10486   0.433   1.119   6.983
 3196SOL    HW110487   0.453   1.212   6.953
 3196SOL    HW210488   0.336   1.110   7.003
 3197SOL     OW10489   2.771   6.734   4.399
 3197SOL    HW110490   2.827   6.717   4.480
 3197SOL    HW210491   2.823   6.789   4.333
 3198SOL     OW10492   6.379   2.785   3.357
 3198SOL    HW110493   6.395   2.709   3.294
 3198SOL    HW210494   6.369   2.749   3.450
 3199SOL     OW10495   5.235   4.102   2.807
 3199SOL    HW110496   5.244   4.098   2.906
 3199SOL    HW210497   5.146   4.141   2.783
 3200SOL     OW10498   5.366   3.153   2.619
 3200SOL    HW110499   5.459   3.187   2.606
 3200SOL    HW210500   5.308   3.225   2.657
 3201SOL     OW10501   6.642   4.579   3.599
 3201SOL    HW110502   6.679   4.634   3.674
 3201SOL    HW210503   6.545   4.560   3.616
 3202SOL     OW10504   1.447   5.146   1.273
 3202SOL    HW110505   1.536   5.159   1.229
 3202SOL    HW210506   1.445   5.056   1.318
 3203SOL     OW10507   5.514   2.302   0.374
 3203SOL    HW110508   5.568   2.359   0.313
 3203SOL    HW210509   5.563   2.217   0.392
 3204SOL     OW10510   4.417   6.713   2.907
 3204SOL    HW110511   4.364   6.660   2.840
 3204SOL    HW210512   4.451   6.796   2.863
 3205SOL     OW10513   5.437   2.548   5.650
 3205SOL    HW110514   5.421   2.614   5.724
 3205SOL    HW210515   5.516   2.575   5.597
 3206SOL     OW10516   1.813   4.954   0.656
 3206SOL    HW110517   1.886   4.896   0.620
 3206SOL    HW210518   1.830   5.049   0.629
 3207SOL     OW10519   1.343   0.919   6.520
 3207SOL    HW110520   1.440   0.919   6.497
 3207SOL    HW210521   1.327   0.855   6.596
 3208SOL     OW10522   4.583   6.503   5.951
 3208SOL    HW110523   4.561   6.518   6.047
 3208SOL    HW210524   4.652   6.432   5.942
 3209SOL     OW10525   3.578   5.041   3.756
 3209SOL    HW110526   3.479   5.048   3.746
 3209SOL    HW210527   3.618   5.002   3.672
 3210SOL     OW10528   1.535   4.211   0.697
 3210SOL    HW110529   1.485   4.270   0.760
 3210SOL    HW210530   1.516   4.238   0.603
 3211SOL     OW10531   1.358   3.945   0.739
 3211SOL    HW110532   1.391   4.036   0.764
 3211SOL    HW210533   1.401   3.915   0.654
 3212SOL     OW10534   2.963   6.869   1.426
 3212SOL    HW110535   3.007   6.786   1.392
 3212SOL    HW210536   2.997   6.890   1.518
 3213SOL     OW10537   1.727   6.981   0.681
 3213SOL    HW110538   1.681   6.942   0.761
 3213SOL    HW210539   1.824   6.995   0.701
 3214SOL     OW10540   4.544   5.897   0.682
 3214SOL    HW110541   4.591   5.907   0.595
 3214SOL    HW210542   4.507   5.985   0.711
 3215SOL     OW10543   0.336   3.755   1.018
 3215SOL    HW110544   0.336   3.685   0.947
 3215SOL    HW210545   0.429   3.792   1.028
 3216SOL     OW10546   5.975   5.518   0.722
 3216SOL    HW110547   5.965   5.434   0.776
 3216SOL    HW210548   5.885   5.550   0.694
 3217SOL     OW10549   0.212   5.438   2.328
 3217SOL    HW110550   0.278   5.374   2.289
 3217SOL    HW210551   0.220   5.527   2.282
 3218SOL     OW10552   5.018   2.549   3.477
 3218SOL    HW110553   5.118   2.556   3.469
 3218SOL    HW210554   4.991   2.453   3.468
 3219SOL     OW10555   0.726   1.662   3.447
 3219SOL    HW110556   0.712   1.575   3.400
 3219SOL    HW210557   0.824   1.682   3.452
 3220SOL     OW10558   0.184   5.094   5.755
 3220SOL    HW110559   0.157   5.075   5.849
 3220SOL    HW210560   0.284   5.090   5.747
 3221SOL     OW10561   3.857   0.230   1.860
 3221SOL    HW110562   3.760   0.214   1.846
 3221SOL    HW210563   3.888   0.184   1.943
 3222SOL     OW10564   2.755   1.389   2.882
 3222SOL    HW110565   2.812   1.416   2.805
 3222SOL    HW210566   2.779   1.296   2.911
 3223SOL     OW10567   2.327   6.901   6.099
 3223SOL    HW110568   2.257   6.971   6.081
 3223SOL    HW210569   2.405   6.916   6.037
 3224SOL     OW10570   4.889   3.118   5.139
 3224SOL    HW110571   4.853   3.045   5.197
 3224SOL    HW210572   4.988   3.127   5.155
 3225SOL     OW10573   5.177   2.570   5.537
 3225SOL    HW110574   5.264   2.546   5.579
 3225SOL    HW210575   5.186   2.565   5.437
 3226SOL     OW10576   2.324   0.971   2.427
 3226SOL    HW110577   2.422   0.975   2.406
 3226SOL    HW210578   2.285   1.063   2.420
 3227SOL     OW10579   2.860   3.289   6.809
 3227SOL    HW110580   2.910   3.270   6.725
 3227SOL    HW210581   2.763   3.298   6.788
 3228SOL     OW10582   0.229   3.629   1.308
 3228SOL    HW110583   0.174   3.692   1.363
 3228SOL    HW210584   0.289   3.682   1.248
 3229SOL     OW10585   3.526   0.457   5.548
 3229SOL    HW110586   3.484   0.546   5.528
 3229SOL    HW210587   3.489   0.420   5.633
 3230SOL     OW10588   2.316   4.446   5.363
 3230SOL    HW110589   2.350   4.532   5.326
 3230SOL    HW210590   2.272   4.393   5.290
 3231SOL     OW10591   2.896   0.252   1.875
 3231SOL    HW110592   2.968   0.191   1.909
 3231SOL    HW210593   2.911   0.344   1.910
 3232SOL     OW10594   4.844   6.577   4.759
 3232SOL    HW110595   4.749   6.546   4.762
 3232SOL    HW210596   4.903   6.502   4.731
 3233SOL     OW10597   6.791   2.576   1.043
 3233SOL    HW110598   6.874   2.626   1.018
 3233SOL    HW210599   6.719   2.598   0.977
 3234SOL     OW10600   0.704   2.385   6.914
 3234SOL    HW110601   0.669   2.418   6.826
 3234SOL    HW210602   0.769   2.450   6.951
 3235SOL     OW10603   7.022   0.355   1.738
 3235SOL    HW110604   0.067   0.427   1.755
 3235SOL    HW210605   6.941   0.394   1.693
 3236SOL     OW10606   1.471   3.778   0.054
 3236SOL    HW110607   1.378   3.809   0.073
 3236SOL    HW210608   1.491   3.699   0.112
 3237SOL     OW10609   5.980   1.451   3.432
 3237SOL    HW110610   5.896   1.457   3.487
 3237SOL    HW210611   5.965   1.495   3.343
 3238SOL     OW10612   0.104   5.276   0.256
 3238SOL    HW110613   0.050   5.356   0.231
 3238SOL    HW210614   0.198   5.288   0.223
 3239SOL     OW10615   6.362   1.392   2.262
 3239SOL    HW110616   6.426   1.340   2.319
 3239SOL    HW210617   6.276   1.342   2.255
 3240SOL     OW10618   0.059   6.432   6.424
 3240SOL    HW110619   6.991   6.404   6.456
 3240SOL    HW210620   0.129   6.373   6.464
 3241SOL     OW10621   4.697   0.687   5.210
 3241SOL    HW110622   4.638   0.747   5.265
 3241SOL    HW210623   4.672   0.592   5.226
 3242SOL     OW10624   4.541   4.561   6.660
 3242SOL    HW110625   4.567   4.511   6.578
 3242SOL    HW210626   4.521   4.496   6.734
 3243SOL     OW10627   4.411   4.981   6.956
 3243SOL    HW110628   4.347   5.058   6.961
 3243SOL    HW210629   4.360   4.896   6.969
 3244SOL     OW10630   4.996   5.678   0.388
 3244SOL    HW110631   5.084   5.702   0.428
 3244SOL    HW210632   4.977   5.740   0.311
 3245SOL     OW10633   5.421   3.571   4.257
 3245SOL    HW110634   5.380   3.553   4.167
 3245SOL    HW210635   5.515   3.538   4.258
 3246SOL     OW10636   6.371   0.318   2.997
 3246SOL    HW110637   6.410   0.389   3.057
 3246SOL    HW210638   6.284   0.350   2.959
 3247SOL     OW10639   5.930   4.304   2.968
 3247SOL    HW110640   5.861   4.365   3.008
 3247SOL    HW210641   5.960   4.238   3.036
 3248SOL     OW10642   5.623   3.339   1.880
 3248SOL    HW110643   5.530   3.327   1.846
 3248SOL    HW210644   5.639   3.436   1.900
 3249SOL     OW10645   3.578   4.165   3.790
 3249SOL    HW110646   3.630   4.188   3.873
 3249SOL    HW210647   3.632   4.187   3.709
 3250SOL     OW10648   5.596   0.431   2.918
 3250SOL    HW110649   5.677   0.488   2.931
 3250SOL    HW210650   5.622   0.335   2.914
 3251SOL     OW10651   3.548   0.954   3.741
 3251SOL    HW110652   3.581   0.981   3.832
 3251SOL    HW210653   3.453   0.981   3.731
 3252SOL     OW10654   2.642   0.726   2.712
 3252SOL    HW110655   2.545   0.740   2.692
 3252SOL    HW210656   2.688   0.690   2.631
 3253SOL     OW10657   4.659   3.841   1.637
 3253SOL    HW110658   4.639   3.935   1.665
 3253SOL    HW210659   4.710   3.795   1.710
 3254SOL     OW10660   5.006   5.913   6.148
 3254SOL    HW110661   5.070   5.931   6.223
 3254SOL    HW210662   4.912   5.920   6.182
 3255SOL     OW10663   4.833   6.849   0.336
 3255SOL    HW110664   4.884   6.914   0.279
 3255SOL    HW210665   4.777   6.899   0.402
 3256SOL     OW10666   3.992   1.347   0.901
 3256SOL    HW110667   3.906   1.298   0.884
 3256SOL    HW210668   4.064   1.280   0.921
 3257SOL     OW10669   1.226   1.916   2.180
 3257SOL    HW110670   1.297   1.972   2.137
 3257SOL    HW210671   1.268   1.841   2.230
 3258SOL     OW10672   4.770   6.095   2.487
 3258SOL    HW110673   4.771   6.025   2.559
 3258SOL    HW210674   4.720   6.175   2.520
 3259SOL     OW10675   5.087   4.752   5.250
 3259SOL    HW110676   5.076   4.742   5.348
 3259SOL    HW210677   5.059   4.668   5.204
 3260SOL     OW10678   1.147   2.566   1.135
 3260SOL    HW110679   1.203   2.557   1.218
 3260SOL    HW210680   1.131   2.662   1.116
 3261SOL     OW10681   5.475   0.812   1.616
 3261SOL    HW110682   5.456   0.884   1.683
 3261SOL    HW210683   5.552   0.839   1.559
 3262SOL     OW10684   3.221   1.881   2.450
 3262SOL    HW110685   3.157   1.916   2.518
 3262SOL    HW210686   3.284   1.817   2.493
 3263SOL     OW10687   2.382   1.012   3.221
 3263SOL    HW110688   2.355   1.076   3.149
 3263SOL    HW210689   2.406   0.924   3.181
 3264SOL     OW10690   0.898   5.029   0.854
 3264SOL    HW110691   0.865   5.105   0.798
 3264SOL    HW210692   0.989   5.002   0.823
 3265SOL     OW10693   5.027   0.835   6.656
 3265SOL    HW110694   4.944   0.890   6.652
 3265SOL    HW210695   5.049   0.801   6.565
 3266SOL     OW10696   1.782   4.305   0.161
 3266SOL    HW110697   1.843   4.309   0.082
 3266SOL    HW210698   1.826   4.252   0.234
 3267SOL     OW10699   3.103   6.612   1.400
 3267SOL    HW110700   3.118   6.629   1.303
 3267SOL    HW210701   3.175   6.551   1.434
 3268SOL     OW10702   1.807   4.093   1.608
 3268SOL    HW110703   1.842   4.178   1.647
 3268SOL    HW210704   1.744   4.114   1.533
 3269SOL     OW10705   4.997   5.753   2.420
 3269SOL    HW110706   4.974   5.832   2.362
 3269SOL    HW210707   4.939   5.754   2.502
 3270SOL     OW10708   1.216   4.064   6.250
 3270SOL    HW110709   1.250   4.098   6.163
 3270SOL    HW210710   1.145   3.996   6.235
 3271SOL     OW10711   5.664   3.597   1.895
 3271SOL    HW110712   5.625   3.684   1.865
 3271SOL    HW210713   5.764   3.600   1.883
 3272SOL     OW10714   2.913   4.421   5.960
 3272SOL    HW110715   3.013   4.418   5.965
 3272SOL    HW210716   2.875   4.338   6.000
 3273SOL     OW10717   6.111   5.821   0.090
 3273SOL    HW110718   6.177   5.843   0.162
 3273SOL    HW210719   6.023   5.796   0.131
 3274SOL     OW10720   5.692   1.582   1.094
 3274SOL    HW110721   5.606   1.535   1.113
 3274SOL    HW210722   5.742   1.594   1.179
 3275SOL     OW10723   5.692   1.237   0.100
 3275SOL    HW110724   5.765   1.229   0.168
 3275SOL    HW210725   5.731   1.228   0.008
 3276SOL     OW10726   3.423   5.614   6.525
 3276SOL    HW110727   3.491   5.610   6.597
 3276SOL    HW210728   3.344   5.557   6.550
 3277SOL     OW10729   3.923   6.605   0.505
 3277SOL    HW110730   3.833   6.610   0.549
 3277SOL    HW210731   3.986   6.666   0.553
 3278SOL     OW10732   0.923   0.886   5.860
 3278SOL    HW110733   0.966   0.912   5.946
 3278SOL    HW210734   0.862   0.960   5.830
 3279SOL     OW10735   4.790   0.252   0.211
 3279SOL    HW110736   4.782   0.262   0.311
 3279SOL    HW210737   4.810   0.156   0.189
 3280SOL     OW10738   4.933   4.461   4.278
 3280SOL    HW110739   5.010   4.458   4.215
 3280SOL    HW210740   4.848   4.440   4.229
 3281SOL     OW10741   1.563   5.035   1.944
 3281SOL    HW110742   1.561   5.120   1.891
 3281SOL    HW210743   1.473   4.992   1.941
 3282SOL     OW10744   0.098   5.108   5.109
 3282SOL    HW110745   0.169   5.151   5.165
 3282SOL    HW210746   0.028   5.176   5.085
 3283SOL     OW10747   3.678   0.604   1.122
 3283SOL    HW110748   3.762   0.561   1.155
 3283SOL    HW210749   3.699   0.670   1.051
 3284SOL     OW10750   0.536   5.260   6.659
 3284SOL    HW110751   0.628   5.220   6.651
 3284SOL    HW210752   0.480   5.232   6.582
 3285SOL     OW10753   4.322   2.250   3.450
 3285SOL    HW110754   4.267   2.244   3.533
 3285SOL    HW210755   4.360   2.342   3.442
 3286SOL     OW10756   3.437   3.190   2.573
 3286SOL    HW110757   3.517   3.134   2.553
 3286SOL    HW210758   3.357   3.131   2.586
 3287SOL     OW10759   0.718   0.544   0.345
 3287SOL    HW110760   0.715   0.644   0.346
 3287SOL    HW210761   0.782   0.512   0.415
 3288SOL     OW10762   1.616   6.015   6.824
 3288SOL    HW110763   1.516   6.007   6.829
 3288SOL    HW210764   1.653   5.932   6.783
 3289SOL     OW10765   2.505   0.459   4.988
 3289SOL    HW110766   2.447   0.535   4.957
 3289SOL    HW210767   2.589   0.496   5.028
 3290SOL     OW10768   0.228   5.823   1.364
 3290SOL    HW110769   0.253   5.732   1.396
 3290SOL    HW210770   0.293   5.853   1.295
 3291SOL     OW10771   1.927   6.996   6.906
 3291SOL    HW110772   1.845   0.016   6.944
 3291SOL    HW210773   1.957   0.026   6.826
 3292SOL     OW10774   0.188   0.742   0.735
 3292SOL    HW110775   0.091   0.735   0.712
 3292SOL    HW210776   0.240   0.680   0.677
 3293SOL     OW10777   0.146   4.015   1.658
 3293SOL    HW110778   0.183   4.017   1.565
 3293SOL    HW210779   0.221   4.017   1.724
 3294SOL     OW10780   6.040   1.963   5.895
 3294SOL    HW110781   6.046   2.062   5.908
 3294SOL    HW210782   6.055   1.941   5.798
 3295SOL     OW10783   1.532   2.514   2.455
 3295SOL    HW110784   1.609   2.545   2.400
 3295SOL    HW210785   1.449   2.562   2.428
 3296SOL     OW10786   1.197   6.857   2.905
 3296SOL    HW110787   1.252   6.791   2.956
 3296SOL    HW210788   1.110   6.872   2.953
 3297SOL     OW10789   3.058   1.486   5.776
 3297SOL    HW110790   3.118   1.467   5.698
 3297SOL    HW210791   2.986   1.417   5.780
 3298SOL     OW10792   6.072   1.790   5.639
 3298SOL    HW110793   5.976   1.790   5.669
 3298SOL    HW210794   6.104   1.696   5.633
 3299SOL     OW10795   3.440   5.746   3.059
 3299SOL    HW110796   3.504   5.678   3.094
 3299SOL    HW210797   3.486   5.804   2.992
 3300SOL     OW10798   0.280   1.189   5.266
 3300SOL    HW110799   0.276   1.204   5.167
 3300SOL    HW210800   0.375   1.191   5.296
 3301SOL     OW10801   2.142   3.156   3.653
 3301SOL    HW110802   2.172   3.251   3.651
 3301SOL    HW210803   2.175   3.112   3.737
 3302SOL     OW10804   0.649   4.908   5.308
 3302SOL    HW110805   0.739   4.911   5.266
 3302SOL    HW210806   0.613   4.815   5.302
 3303SOL     OW10807   3.646   3.814   1.032
 3303SOL    HW110808   3.677   3.807   1.127
 3303SOL    HW210809   3.698   3.886   0.986
 3304SOL     OW10810   1.393   5.571   4.780
 3304SOL    HW110811   1.312   5.557   4.723
 3304SOL    HW210812   1.467   5.512   4.750
 3305SOL     OW10813   2.387   1.179   2.218
 3305SOL    HW110814   2.289   1.184   2.238
 3305SOL    HW210815   2.422   1.089   2.244
 3306SOL     OW10816   2.526   5.530   4.789
 3306SOL    HW110817   2.503   5.523   4.692
 3306SOL    HW210818   2.455   5.483   4.842
 3307SOL     OW10819   0.046   5.585   6.601
 3307SOL    HW110820   0.079   5.548   6.688
 3307SOL    HW210821   6.972   5.560   6.589
 3308SOL     OW10822   2.821   6.340   1.303
 3308SOL    HW110823   2.844   6.429   1.345
 3308SOL    HW210824   2.894   6.275   1.322
 3309SOL     OW10825   6.731   5.845   3.624
 3309SOL    HW110826   6.636   5.873   3.629
 3309SOL    HW210827   6.770   5.843   3.716
 3310SOL     OW10828   0.416   3.937   5.650
 3310SOL    HW110829   0.501   3.973   5.689
 3310SOL    HW210830   0.338   3.987   5.688
 3311SOL     OW10831   3.894   3.655   0.957
 3311SOL    HW110832   3.864   3.575   1.011
 3311SOL    HW210833   3.843   3.657   0.871
 3312SOL     OW10834   4.593   4.576   5.998
 3312SOL    HW110835   4.602   4.534   5.908
 3312SOL    HW210836   4.545   4.663   5.990
 3313SOL     OW10837   1.046   6.474   3.695
 3313SOL    HW110838   1.003   6.505   3.611
 3313SOL    HW210839   1.137   6.436   3.675
 3314SOL     OW10840   2.423   1.236   2.624
 3314SOL    HW110841   2.415   1.332   2.652
 3314SOL    HW210842   2.520   1.211   2.619
 3315SOL     OW10843   6.494   4.368   4.118
 3315SOL    HW110844   6.552   4.431   4.066
 3315SOL    HW210845   6.405   4.411   4.134
 3316SOL     OW10846   5.113   0.917   5.715
 3316SOL    HW110847   5.059   0.929   5.798
 3316SOL    HW210848   5.058   0.869   5.646
 3317SOL     OW10849   4.841   2.793   1.843
 3317SOL    HW110850   4.827   2.796   1.744
 3317SOL    HW210851   4.795   2.871   1.886
 3318SOL     OW10852   1.947   1.672   1.135
 3318SOL    HW110853   1.941   1.596   1.200
 3318SOL    HW210854   1.972   1.755   1.184
 3319SOL     OW10855   6.315   1.981   3.783
 3319SOL    HW110856   6.366   1.895   3.776
 3319SOL    HW210857   6.371   2.055   3.744
 3320SOL     OW10858   6.523   0.595   5.142
 3320SOL    HW110859   6.590   0.552   5.081
 3320SOL    HW210860   6.517   0.542   5.227
 3321SOL     OW10861   4.596   1.611   0.440
 3321SOL    HW110862   4.611   1.546   0.365
 3321SOL    HW210863   4.519   1.670   0.417
 3322SOL     OW10864   6.638   2.678   1.252
 3322SOL    HW110865   6.660   2.621   1.173
 3322SOL    HW210866   6.722   2.709   1.296
 3323SOL     OW10867   3.206   2.958   0.466
 3323SOL    HW110868   3.241   2.947   0.373
 3323SOL    HW210869   3.147   3.039   0.470
 3324SOL     OW10870   4.208   5.111   6.652
 3324SOL    HW110871   4.170   5.033   6.701
 3324SOL    HW210872   4.237   5.082   6.561
 3325SOL     OW10873   0.068   3.583   6.351
 3325SOL    HW110874   0.113   3.532   6.277
 3325SOL    HW210875   0.110   3.559   6.438
 3326SOL     OW10876   5.356   1.749   2.361
 3326SOL    HW110877   5.306   1.671   2.322
 3326SOL    HW210878   5.427   1.716   2.423
 3327SOL     OW10879   3.554   5.500   1.598
 3327SOL    HW110880   3.569   5.599   1.602
 3327SOL    HW210881   3.623   5.458   1.539
 3328SOL     OW10882   4.431   2.079   0.436
 3328SOL    HW110883   4.379   1.995   0.421
 3328SOL    HW210884   4.475   2.076   0.526
 3329SOL     OW10885   5.389   0.267   4.544
 3329SOL    HW110886   5.322   0.221   4.602
 3329SOL    HW210887   5.451   0.321   4.601
 3330SOL     OW10888   6.314   4.662   1.660
 3330SOL    HW110889   6.348   4.754   1.679
 3330SOL    HW210890   6.323   4.606   1.742
 3331SOL     OW10891   2.533   2.984   1.438
 3331SOL    HW110892   2.582   3.004   1.523
 3331SOL    HW210893   2.491   3.067   1.402
 3332SOL     OW10894   5.588   5.433   6.923
 3332SOL    HW110895   5.493   5.459   6.936
 3332SOL    HW210896   5.629   5.490   6.851
 3333SOL     OW10897   4.493   4.481   6.244
 3333SOL    HW110898   4.417   4.546   6.252
 3333SOL    HW210899   4.559   4.516   6.177
 3334SOL     OW10900   2.688   4.072   1.641
 3334SOL    HW110901   2.674   3.973   1.628
 3334SOL    HW210902   2.759   4.086   1.709
 3335SOL     OW10903   4.693   6.349   5.480
 3335SOL    HW110904   4.733   6.271   5.431
 3335SOL    HW210905   4.602   6.368   5.443
 3336SOL     OW10906   2.590   6.197   4.567
 3336SOL    HW110907   2.580   6.105   4.530
 3336SOL    HW210908   2.685   6.228   4.557
 3337SOL     OW10909   2.963   3.783   2.887
 3337SOL    HW110910   2.978   3.849   2.813
 3337SOL    HW210911   3.001   3.694   2.861
 3338SOL     OW10912   5.781   2.517   1.466
 3338SOL    HW110913   5.845   2.503   1.390
 3338SOL    HW210914   5.731   2.602   1.452
 3339SOL     OW10915   6.499   0.232   6.665
 3339SOL    HW110916   6.454   0.277   6.588
 3339SOL    HW210917   6.540   0.146   6.633
 3340SOL     OW10918   3.681   0.571   2.316
 3340SOL    HW110919   3.778   0.565   2.339
 3340SOL    HW210920   3.632   0.621   2.388
 3341SOL     OW10921   1.024   5.546   3.064
 3341SOL    HW110922   1.093   5.498   3.009
 3341SOL    HW210923   0.943   5.489   3.071
 3342SOL     OW10924   2.640   0.025   4.414
 3342SOL    HW110925   2.636   0.122   4.437
 3342SOL    HW210926   2.715   7.004   4.465
 3343SOL     OW10927   5.467   2.913   0.784
 3343SOL    HW110928   5.485   2.839   0.849
 3343SOL    HW210929   5.398   2.884   0.718
 3344SOL     OW10930   5.707   3.341   4.026
 3344SOL    HW110931   5.723   3.270   3.958
 3344SOL    HW210932   5.679   3.426   3.980
 3345SOL     OW10933   1.441   3.787   6.130
 3345SOL    HW110934   1.535   3.772   6.098
 3345SOL    HW210935   1.436   3.768   6.228
 3346SOL     OW10936   1.294   0.422   0.501
 3346SOL    HW110937   1.238   0.408   0.582
 3346SOL    HW210938   1.385   0.454   0.528
 3347SOL     OW10939   0.680   3.831   4.510
 3347SOL    HW110940   0.721   3.920   4.487
 3347SOL    HW210941   0.752   3.770   4.543
 3348SOL     OW10942   3.153   3.465   3.766
 3348SOL    HW110943   3.197   3.391   3.715
 3348SOL    HW210944   3.222   3.534   3.790
 3349SOL     OW10945   0.979   5.778   2.884
 3349SOL    HW110946   0.899   5.775   2.824
 3349SOL    HW210947   0.995   5.687   2.923
 3350SOL     OW10948   1.279   2.322   5.627
 3350SOL    HW110949   1.334   2.397   5.663
 3350SOL    HW210950   1.338   2.257   5.578
 3351SOL     OW10951   5.038   0.912   2.458
 3351SOL    HW110952   4.960   0.923   2.519
 3351SOL    HW210953   5.122   0.906   2.511
 3352SOL     OW10954   6.925   2.536   0.507
 3352SOL    HW110955   6.937   2.631   0.479
 3352SOL    HW210956   6.977   2.476   0.445
 3353SOL     OW10957   1.489   5.543   2.159
 3353SOL    HW110958   1.576   5.497   2.178
 3353SOL    HW210959   1.490   5.634   2.200
 3354SOL     OW10960   4.792   2.519   5.320
 3354SOL    HW110961   4.782   2.423   5.293
 3354SOL    HW210962   4.745   2.534   5.407
 3355SOL     OW10963   1.952   1.389   0.219
 3355SOL    HW110964   2.050   1.406   0.216
 3355SOL    HW210965   1.903   1.476   0.210
 3356SOL     OW10966   1.898   4.552   5.866
 3356SOL    HW110967   1.944   4.641   5.870
 3356SOL    HW210968   1.932   4.500   5.787
 3357SOL     OW10969   2.786   4.766   1.750
 3357SOL    HW110970   2.816   4.718   1.832
 3357SOL    HW210971   2.722   4.708   1.699
 3358SOL     OW10972   5.161   0.791   0.772
 3358SOL    HW110973   5.100   0.735   0.827
 3358SOL    HW210974   5.114   0.819   0.688
 3359SOL     OW10975   6.786   0.586   3.836
 3359SOL    HW110976   6.706   0.603   3.893
 3359SOL    HW210977   6.836   0.507   3.872
 3360SOL     OW10978   0.773   1.428   6.991
 3360SOL    HW110979   0.852   1.401   0.024
 3360SOL    HW210980   0.750   1.354   6.928
 3361SOL     OW10981   0.917   4.333   3.490
 3361SOL    HW110982   0.985   4.357   3.421
 3361SOL    HW210983   0.826   4.332   3.449
 3362SOL     OW10984   3.816   1.900   3.547
 3362SOL    HW110985   3.788   1.862   3.459
 3362SOL    HW210986   3.915   1.907   3.551
 3363SOL     OW10987   6.346   6.958   0.770
 3363SOL    HW110988   6.400   0.006   0.724
 3363SOL    HW210989   6.307   6.896   0.702
 3364SOL     OW10990   1.286   4.495   3.658
 3364SOL    HW110991   1.250   4.405   3.682
 3364SOL    HW210992   1.219   4.566   3.683
 3365SOL     OW10993   0.637   2.446   5.433
 3365SOL    HW110994   0.562   2.452   5.367
 3365SOL    HW210995   0.674   2.538   5.450
 3366SOL     OW10996   6.032   0.185   5.955
 3366SOL    HW110997   6.044   0.087   5.939
 3366SOL    HW210998   6.116   0.223   5.993
 3367SOL     OW10999   3.592   2.910   1.407
 3367SOL    HW111000   3.603   2.811   1.414
 3367SOL    HW211001   3.573   2.949   1.497
 3368SOL     OW11002   0.700   5.118   5.850
 3368SOL    HW111003   0.789   5.128   5.805
 3368SOL    HW211004   0.687   5.023   5.879
 3369SOL     OW11005   3.876   2.473   5.890
 3369SOL    HW111006   3.790   2.522   5.898
 3369SOL    HW211007   3.912   2.455   5.982
 3370SOL     OW11008   6.801   5.953   6.410
 3370SOL    HW111009   6.721   5.988   6.363
 3370SOL    HW211010   6.881   6.007   6.386
 3371SOL     OW11011   1.843   3.319   2.074
 3371SOL    HW111012   1.934   3.293   2.042
 3371SOL    HW211013   1.802   3.242   2.123
 3372SOL     OW11014   1.065   1.379   1.012
 3372SOL    HW111015   1.077   1.318   1.091
 3372SOL    HW211016   1.083   1.473   1.040
 3373SOL     OW11017   6.943   1.654   2.981
 3373SOL    HW111018   6.997   1.597   3.043
 3373SOL    HW211019   6.846   1.629   2.990
 3374SOL     OW11020   1.519   6.258   4.569
 3374SOL    HW111021   1.490   6.212   4.485
 3374SOL    HW211022   1.512   6.357   4.556
 3375SOL     OW11023   5.872   5.693   6.077
 3375SOL    HW111024   5.842   5.666   6.168
 3375SOL    HW211025   5.968   5.669   6.065
 3376SOL     OW11026   4.027   3.230   3.441
 3376SOL    HW111027   4.040   3.211   3.538
 3376SOL    HW211028   4.078   3.313   3.417
 3377SOL     OW11029   0.371   6.672   4.982
 3377SOL    HW111030   0.404   6.589   5.028
 3377SOL    HW211031   0.279   6.692   5.013
 3378SOL     OW11032   6.923   1.365   0.505
 3378SOL    HW111033   6.995   1.316   0.555
 3378SOL    HW211034   6.851   1.393   0.570
 3379SOL     OW11035   6.675   6.490   6.584
 3379SOL    HW111036   6.603   6.427   6.616
 3379SOL    HW211037   6.746   6.438   6.536
 3380SOL     OW11038   5.913   6.754   6.292
 3380SOL    HW111039   5.906   6.680   6.358
 3380SOL    HW211040   6.005   6.754   6.252
 3381SOL     OW11041   1.034   2.816   1.410
 3381SOL    HW111042   1.002   2.797   1.503
 3381SOL    HW211043   1.134   2.820   1.409
 3382SOL     OW11044   0.477   1.306   0.964
 3382SOL    HW111045   0.476   1.229   0.901
 3382SOL    HW211046   0.391   1.357   0.956
 3383SOL     OW11047   4.627   6.060   1.921
 3383SOL    HW111048   4.671   6.150   1.922
 3383SOL    HW211049   4.544   6.065   1.866
 3384SOL     OW11050   2.434   3.296   5.811
 3384SOL    HW111051   2.376   3.357   5.757
 3384SOL    HW211052   2.528   3.299   5.777
 3385SOL     OW11053   6.837   2.608   4.370
 3385SOL    HW111054   6.927   2.577   4.400
 3385SOL    HW211055   6.786   2.530   4.332
 3386SOL     OW11056   6.371   3.901   6.440
 3386SOL    HW111057   6.303   3.829   6.455
 3386SOL    HW211058   6.462   3.859   6.434
 3387SOL     OW11059   3.028   1.005   3.669
 3387SOL    HW111060   2.943   1.049   3.696
 3387SOL    HW211061   3.043   1.020   3.571
 3388SOL     OW11062   5.097   3.351   1.878
 3388SOL    HW111063   5.021   3.285   1.874
 3388SOL    HW211064   5.168   3.323   1.814
 3389SOL     OW11065   5.386   4.769   5.322
 3389SOL    HW111066   5.322   4.721   5.383
 3389SOL    HW211067   5.389   4.866   5.346
 3390SOL     OW11068   5.099   4.696   5.749
 3390SOL    HW111069   5.145   4.711   5.661
 3390SOL    HW211070   5.069   4.601   5.755
 3391SOL     OW11071   4.890   3.074   4.808
 3391SOL    HW111072   4.847   3.150   4.856
 3391SOL    HW211073   4.944   3.020   4.873
 3392SOL     OW11074   2.637   6.771   4.009
 3392SOL    HW111075   2.734   6.750   4.000
 3392SOL    HW211076   2.587   6.689   4.037
 3393SOL     OW11077   0.254   6.295   0.123
 3393SOL    HW111078   0.316   6.262   0.052
 3393SOL    HW211079   0.230   6.390   0.105
 3394SOL     OW11080   6.394   3.261   1.938
 3394SOL    HW111081   6.325   3.288   1.871
 3394SOL    HW211082   6.376   3.306   2.026
 3395SOL     OW11083   5.616   2.966   3.294
 3395SOL    HW111084   5.565   2.890   3.335
 3395SOL    HW211085   5.599   2.968   3.196
 3396SOL     OW11086   4.987   1.897   3.547
 3396SOL    HW111087   4.958   1.802   3.532
 3396SOL    HW211088   5.015   1.938   3.461
 3397SOL     OW11089   2.164   0.644   5.146
 3397SOL    HW111090   2.204   0.736   5.143
 3397SOL    HW211091   2.169   0.602   5.055
 3398SOL     OW11092   0.661   6.771   5.014
 3398SOL    HW111093   0.719   6.692   5.030
 3398SOL    HW211094   0.571   6.740   4.984
 3399SOL     OW11095   5.576   4.476   4.230
 3399SOL    HW111096   5.664   4.524   4.231
 3399SOL    HW211097   5.570   4.419   4.147
 3400SOL     OW11098   4.853   2.505   5.882
 3400SOL    HW111099   4.818   2.589   5.840
 3400SOL    HW211100   4.946   2.521   5.914
 3401SOL     OW11101   6.976   3.540   0.952
 3401SOL    HW111102   7.009   3.489   1.032
 3401SOL    HW211103   6.922   3.479   0.894
 3402SOL     OW11104   4.080   5.846   6.694
 3402SOL    HW111105   4.083   5.794   6.608
 3402SOL    HW211106   3.998   5.819   6.745
 3403SOL     OW11107   3.517   6.185   4.508
 3403SOL    HW111108   3.459   6.190   4.426
 3403SOL    HW211109   3.479   6.243   4.580
 3404SOL     OW11110   4.816   1.641   0.218
 3404SOL    HW111111   4.793   1.738   0.213
 3404SOL    HW211112   4.878   1.625   0.295
 3405SOL     OW11113   0.174   3.756   4.318
 3405SOL    HW111114   0.261   3.775   4.362
 3405SOL    HW211115   0.102   3.748   4.387
 3406SOL     OW11116   0.773   4.188   2.164
 3406SOL    HW111117   0.845   4.125   2.136
 3406SOL    HW211118   0.814   4.272   2.199
 3407SOL     OW11119   1.229   5.094   6.782
 3407SOL    HW111120   1.171   5.045   6.716
 3407SOL    HW211121   1.291   5.155   6.732
 3408SOL     OW11122   4.745   3.861   5.218
 3408SOL    HW111123   4.803   3.872   5.137
 3408SOL    HW211124   4.690   3.778   5.209
 3409SOL     OW11125   3.376   6.223   6.570
 3409SOL    HW111126   3.293   6.279   6.568
 3409SOL    HW211127   3.409   6.217   6.664
 3410SOL     OW11128   0.036   6.168   0.219
 3410SOL    HW111129   0.119   6.207   0.179
 3410SOL    HW211130   6.978   6.198   0.167
 3411SOL     OW11131   0.768   3.133   1.873
 3411SOL    HW111132   0.819   3.195   1.814
 3411SOL    HW211133   0.698   3.184   1.924
 3412SOL     OW11134   4.046   3.011   6.757
 3412SOL    HW111135   4.047   2.917   6.791
 3412SOL    HW211136   4.018   3.073   6.830
 3413SOL     OW11137   5.654   1.581   0.839
 3413SOL    HW111138   5.661   1.668   0.789
 3413SOL    HW211139   5.688   1.594   0.932
 3414SOL     OW11140   2.086   0.549   5.832
 3414SOL    HW111141   2.008   0.495   5.799
 3414SOL    HW211142   2.171   0.509   5.799
 3415SOL     OW11143   1.746   3.888   4.929
 3415SOL    HW111144   1.790   3.976   4.915
 3415SOL    HW211145   1.803   3.815   4.891
 3416SOL     OW11146   0.260   5.771   0.823
 3416SOL    HW111147   0.267   5.719   0.908
 3416SOL    HW211148   0.207   5.855   0.839
 3417SOL     OW11149   0.304   5.514   2.837
 3417SOL    HW111150   0.384   5.571   2.859
 3417SOL    HW211151   0.328   5.418   2.851
 3418SOL     OW11152   3.738   0.744   4.658
 3418SOL    HW111153   3.753   0.828   4.606
 3418SOL    HW211154   3.758   0.760   4.754
 3419SOL     OW11155   3.849   5.680   4.917
 3419SOL    HW111156   3.765   5.626   4.914
 3419SOL    HW211157   3.865   5.720   4.826
 3420SOL     OW11158   5.286   3.149   4.382
 3420SOL    HW111159   5.346   3.189   4.452
 3420SOL    HW211160   5.335   3.144   4.295
 3421SOL     OW11161   5.402   0.898   5.741
 3421SOL    HW111162   5.340   0.851   5.804
 3421SOL    HW211163   5.370   0.886   5.647
 3422SOL     OW11164   1.971   0.169   1.329
 3422SOL    HW111165   1.941   0.084   1.285
 3422SOL    HW211166   2.057   0.199   1.287
 3423SOL     OW11167   1.334   4.687   7.005
 3423SOL    HW111168   1.394   4.708   6.927
 3423SOL    HW211169   1.252   4.641   6.972
 3424SOL     OW11170   3.100   6.886   1.692
 3424SOL    HW111171   3.121   6.799   1.737
 3424SOL    HW211172   3.034   6.937   1.747
 3425SOL     OW11173   5.136   4.965   2.737
 3425SOL    HW111174   5.216   5.020   2.760
 3425SOL    HW211175   5.123   4.894   2.806
 3426SOL     OW11176   4.014   2.389   0.723
 3426SOL    HW111177   4.060   2.306   0.754
 3426SOL    HW211178   4.073   2.468   0.739
 3427SOL     OW11179   6.192   0.237   0.081
 3427SOL    HW111180   6.247   0.255   7.021
 3427SOL    HW211181   6.224   0.152   0.124
 3428SOL     OW11182   2.964   4.785   0.921
 3428SOL    HW111183   2.939   4.864   0.865
 3428SOL    HW211184   3.045   4.742   0.882
 3429SOL     OW11185   0.244   2.193   0.147
 3429SOL    HW111186   0.265   2.179   0.244
 3429SOL    HW211187   0.304   2.265   0.111
 3430SOL     OW11188   0.457   6.467   5.173
 3430SOL    HW111189   0.419   6.397   5.113
 3430SOL    HW211190   0.405   6.471   5.258
 3431SOL     OW11191   0.842   6.923   1.162
 3431SOL    HW111192   0.748   6.938   1.134
 3431SOL    HW211193   0.901   6.993   1.121
 3432SOL     OW11194   1.828   2.507   0.029
 3432SOL    HW111195   1.797   2.576   6.985
 3432SOL    HW211196   1.759   2.434   0.035
 3433SOL     OW11197   0.562   0.430   6.387
 3433SOL    HW111198   0.482   0.370   6.379
 3433SOL    HW211199   0.590   0.436   6.482
 3434SOL     OW11200   4.727   2.064   0.646
 3434SOL    HW111201   4.680   2.035   0.729
 3434SOL    HW211202   4.785   2.143   0.667
 3435SOL     OW11203   0.679   1.664   0.818
 3435SOL    HW111204   0.600   1.661   0.757
 3435SOL    HW211205   0.693   1.575   0.860
 3436SOL     OW11206   3.735   5.551   6.590
 3436SOL    HW111207   3.732   5.585   6.496
 3436SOL    HW211208   3.770   5.622   6.651
 3437SOL     OW11209   1.886   1.212   5.777
 3437SOL    HW111210   1.898   1.189   5.874
 3437SOL    HW211211   1.885   1.311   5.766
 3438SOL     OW11212   0.999   2.759   6.892
 3438SOL    HW111213   0.974   2.764   6.795
 3438SOL    HW211214   1.077   2.697   6.903
 3439SOL     OW11215   1.847   6.423   4.969
 3439SOL    HW111216   1.943   6.397   4.977
 3439SOL    HW211217   1.804   6.417   5.059
 3440SOL     OW11218   3.691   3.197   1.769
 3440SOL    HW111219   3.606   3.150   1.746
 3440SOL    HW211220   3.769   3.136   1.754
 3441SOL     OW11221   5.099   0.374   4.530
 3441SOL    HW111222   5.169   0.438   4.560
 3441SOL    HW211223   5.098   0.369   4.430
 3442SOL     OW11224   3.116   5.530   2.052
 3442SOL    HW111225   3.168   5.450   2.081
 3442SOL    HW211226   3.104   5.528   1.952
 3443SOL     OW11227   5.292   5.940   1.706
 3443SOL    HW111228   5.343   5.994   1.772
 3443SOL    HW211229   5.210   5.903   1.749
 3444SOL     OW11230   5.382   5.368   0.402
 3444SOL    HW111231   5.339   5.369   0.312
 3444SOL    HW211232   5.437   5.451   0.413
 3445SOL     OW11233   6.359   5.868   4.634
 3445SOL    HW111234   6.280   5.849   4.692
 3445SOL    HW211235   6.430   5.913   4.687
 3446SOL     OW11236   6.058   0.278   2.493
 3446SOL    HW111237   6.118   0.256   2.570
 3446SOL    HW211238   6.108   0.333   2.426
 3447SOL     OW11239   5.444   5.885   0.986
 3447SOL    HW111240   5.430   5.790   1.012
 3447SOL    HW211241   5.383   5.944   1.040
 3448SOL     OW11242   3.029   0.312   1.091
 3448SOL    HW111243   2.988   0.264   1.169
 3448SOL    HW211244   3.045   0.408   1.117
 3449SOL     OW11245   6.265   6.644   3.866
 3449SOL    HW111246   6.202   6.575   3.830
 3449SOL    HW211247   6.215   6.727   3.890
 3450SOL     OW11248   6.792   2.186   6.695
 3450SOL    HW111249   6.756   2.187   6.602
 3450SOL    HW211250   6.762   2.103   6.741
 3451SOL     OW11251   2.298   6.591   1.497
 3451SOL    HW111252   2.390   6.602   1.533
 3451SOL    HW211253   2.256   6.509   1.535
 3452SOL     OW11254   5.867   0.761   6.016
 3452SOL    HW111255   5.864   0.678   6.072
 3452SOL    HW211256   5.780   0.773   5.969
 3453SOL     OW11257   6.404   5.874   5.654
 3453SOL    HW111258   6.499   5.896   5.631
 3453SOL    HW211259   6.353   5.958   5.670
 3454SOL     OW11260   1.426   2.316   6.335
 3454SOL    HW111261   1.442   2.223   6.368
 3454SOL    HW211262   1.484   2.333   6.256
 3455SOL     OW11263   2.396   2.073   4.473
 3455SOL    HW111264   2.493   2.071   4.446
 3455SOL    HW211265   2.352   2.154   4.436
 3456SOL     OW11266   5.895   5.385   2.793
 3456SOL    HW111267   5.807   5.358   2.832
 3456SOL    HW211268   5.888   5.476   2.753
 3457SOL     OW11269   2.878   5.478   3.297
 3457SOL    HW111270   2.972   5.454   3.272
 3457SOL    HW211271   2.814   5.422   3.244
 3458SOL     OW11272   4.545   0.643   1.145
 3458SOL    HW111273   4.616   0.586   1.187
 3458SOL    HW211274   4.530   0.724   1.201
 3459SOL     OW11275   5.941   3.710   2.713
 3459SOL    HW111276   6.008   3.679   2.780
 3459SOL    HW211277   5.851   3.673   2.736
 3460SOL     OW11278   2.588   3.123   6.688
 3460SOL    HW111279   2.682   3.101   6.660
 3460SOL    HW211280   2.550   3.047   6.742
 3461SOL     OW11281   4.447   6.384   5.028
 3461SOL    HW111282   4.538   6.370   5.067
 3461SOL    HW211283   4.404   6.463   5.073
 3462SOL     OW11284   0.576   3.454   2.385
 3462SOL    HW111285   0.624   3.437   2.472
 3462SOL    HW211286   0.490   3.404   2.384
 3463SOL     OW11287   1.051   3.791   2.977
 3463SOL    HW111288   1.147   3.764   2.975
 3463SOL    HW211289   0.996   3.715   3.012
 3464SOL     OW11290   6.377   2.980   6.665
 3464SOL    HW111291   6.425   3.066   6.652
 3464SOL    HW211292   6.307   2.970   6.595
 3465SOL     OW11293   2.039   2.343   2.400
 3465SOL    HW111294   2.107   2.375   2.334
 3465SOL    HW211295   2.013   2.249   2.377
 3466SOL     OW11296   0.181   4.618   0.102
 3466SOL    HW111297   0.130   4.554   0.160
 3466SOL    HW211298   0.212   4.696   0.157
 3467SOL     OW11299   1.806   2.081   0.923
 3467SOL    HW111300   1.749   2.012   0.967
 3467SOL    HW211301   1.894   2.040   0.897
 3468SOL     OW11302   5.863   6.817   2.681
 3468SOL    HW111303   5.863   6.743   2.613
 3468SOL    HW211304   5.888   6.903   2.636
 3469SOL     OW11305   4.669   0.192   3.553
 3469SOL    HW111306   4.581   0.195   3.505
 3469SOL    HW211307   4.716   0.106   3.530
 3470SOL     OW11308   6.666   3.061   1.985
 3470SOL    HW111309   6.627   3.132   2.044
 3470SOL    HW211310   6.684   3.100   1.894
 3471SOL     OW11311   4.327   4.978   4.445
 3471SOL    HW111312   4.268   5.058   4.438
 3471SOL    HW211313   4.282   4.907   4.498
 3472SOL     OW11314   2.719   1.339   3.249
 3472SOL    HW111315   2.718   1.241   3.266
 3472SOL    HW211316   2.626   1.375   3.258
 3473SOL     OW11317   6.941   2.709   1.372
 3473SOL    HW111318   6.895   2.798   1.374
 3473SOL    HW211319   6.979   2.688   1.462
 3474SOL     OW11320   1.237   4.529   2.402
 3474SOL    HW111321   1.307   4.588   2.361
 3474SOL    HW211322   1.273   4.488   2.486
 3475SOL     OW11323   1.297   4.622   4.346
 3475SOL    HW111324   1.387   4.666   4.355
 3475SOL    HW211325   1.259   4.641   4.256
 3476SOL     OW11326   2.186   1.564   3.046
 3476SOL    HW111327   2.271   1.605   3.077
 3476SOL    HW211328   2.194   1.540   2.949
 3477SOL     OW11329   1.411   5.861   1.231
 3477SOL    HW111330   1.485   5.924   1.253
 3477SOL    HW211331   1.353   5.848   1.311
 3478SOL     OW11332   2.650   5.302   5.184
 3478SOL    HW111333   2.705   5.379   5.216
 3478SOL    HW211334   2.595   5.266   5.259
 3479SOL     OW11335   0.737   0.360   3.458
 3479SOL    HW111336   0.667   0.364   3.387
 3479SOL    HW211337   0.693   0.361   3.548
 3480SOL     OW11338   0.881   6.347   4.916
 3480SOL    HW111339   0.958   6.284   4.926
 3480SOL    HW211340   0.912   6.430   4.870
 3481SOL     OW11341   4.728   0.727   0.207
 3481SOL    HW111342   4.793   0.662   0.168
 3481SOL    HW211343   4.684   0.687   0.287
 3482SOL     OW11344   6.334   1.553   2.029
 3482SOL    HW111345   6.326   1.511   2.120
 3482SOL    HW211346   6.411   1.512   1.981
 3483SOL     OW11347   5.007   2.034   1.767
 3483SOL    HW111348   5.071   1.957   1.771
 3483SOL    HW211349   5.004   2.079   1.856
 3484SOL     OW11350   1.172   3.139   6.787
 3484SOL    HW111351   1.119   3.135   6.703
 3484SOL    HW211352   1.235   3.061   6.790
 3485SOL     OW11353   2.016   1.353   4.509
 3485SOL    HW111354   2.031   1.452   4.506
 3485SOL    HW211355   1.919   1.333   4.491
 3486SOL     OW11356   2.904   0.163   3.772
 3486SOL    HW111357   2.829   0.145   3.836
 3486SOL    HW211358   2.987   0.185   3.823
 3487SOL     OW11359   5.995   2.522   5.567
 3487SOL    HW111360   5.964   2.427   5.576
 3487SOL    HW211361   5.933   2.582   5.616
 3488SOL     OW11362   6.358   0.742   4.327
 3488SOL    HW111363   6.365   0.804   4.249
 3488SOL    HW211364   6.266   0.703   4.330
 3489SOL     OW11365   4.569   6.677   1.387
 3489SOL    HW111366   4.627   6.697   1.307
 3489SOL    HW211367   4.498   6.612   1.361
 3490SOL     OW11368   4.325   4.484   0.398
 3490SOL    HW111369   4.369   4.508   0.484
 3490SOL    HW211370   4.229   4.510   0.401
 3491SOL     OW11371   4.489   2.400   5.469
 3491SOL    HW111372   4.546   2.333   5.517
 3491SOL    HW211373   4.403   2.357   5.442
 3492SOL     OW11374   6.796   4.892   1.254
 3492SOL    HW111375   6.855   4.874   1.333
 3492SOL    HW211376   6.784   4.807   1.202
 3493SOL     OW11377   5.232   3.952   5.277
 3493SOL    HW111378   5.214   4.043   5.313
 3493SOL    HW211379   5.162   3.888   5.311
 3494SOL     OW11380   3.469   0.516   1.334
 3494SOL    HW111381   3.479   0.600   1.388
 3494SOL    HW211382   3.525   0.524   1.251
 3495SOL     OW11383   5.577   4.821   1.935
 3495SOL    HW111384   5.646   4.753   1.909
 3495SOL    HW211385   5.525   4.847   1.853
 3496SOL     OW11386   6.341   4.402   1.275
 3496SOL    HW111387   6.335   4.333   1.203
 3496SOL    HW211388   6.385   4.485   1.238
 3497SOL     OW11389   2.826   1.188   3.708
 3497SOL    HW111390   2.872   1.274   3.684
 3497SOL    HW211391   2.730   1.192   3.678
 3498SOL     OW11392   2.856   2.172   1.004
 3498SOL    HW111393   2.873   2.262   0.964
 3498SOL    HW211394   2.822   2.110   0.933
 3499SOL     OW11395   4.933   3.641   3.916
 3499SOL    HW111396   4.918   3.613   4.011
 3499SOL    HW211397   5.006   3.709   3.913
 3500SOL     OW11398   1.709   3.809   5.220
 3500SOL    HW111399   1.613   3.799   5.249
 3500SOL    HW211400   1.715   3.794   5.121
 3501SOL     OW11401   1.750   5.658   4.950
 3501SOL    HW111402   1.729   5.748   4.987
 3501SOL    HW211403   1.790   5.668   4.859
 3502SOL     OW11404   6.501   2.638   2.485
 3502SOL    HW111405   6.584   2.693   2.475
 3502SOL    HW211406   6.421   2.691   2.455
 3503SOL     OW11407   6.230   6.721   4.945
 3503SOL    HW111408   6.239   6.642   4.884
 3503SOL    HW211409   6.154   6.705   5.009
 3504SOL     OW11410   2.296   1.604   1.763
 3504SOL    HW111411   2.230   1.627   1.835
 3504SOL    HW211412   2.366   1.542   1.800
 3505SOL     OW11413   5.865   4.587   4.996
 3505SOL    HW111414   5.809   4.505   4.997
 3505SOL    HW211415   5.916   4.594   5.081
 3506SOL     OW11416   5.035   5.555   5.768
 3506SOL    HW111417   5.013   5.460   5.790
 3506SOL    HW211418   4.951   5.606   5.751
 3507SOL     OW11419   1.583   0.563   0.846
 3507SOL    HW111420   1.510   0.601   0.902
 3507SOL    HW211421   1.634   0.496   0.898
 3508SOL     OW11422   2.865   2.094   5.665
 3508SOL    HW111423   2.830   2.160   5.731
 3508SOL    HW211424   2.829   2.115   5.574
 3509SOL     OW11425   5.413   0.204   6.062
 3509SOL    HW111426   5.386   0.161   5.976
 3509SOL    HW211427   5.420   0.134   6.133
 3510SOL     OW11428   1.465   2.013   1.994
 3510SOL    HW111429   1.526   2.045   2.066
 3510SOL    HW211430   1.460   1.913   1.996
 3511SOL     OW11431   2.955   5.294   0.723
 3511SOL    HW111432   2.890   5.235   0.674
 3511SOL    HW211433   3.048   5.265   0.700
 3512SOL     OW11434   0.457   4.322   1.415
 3512SOL    HW111435   0.421   4.361   1.500
 3512SOL    HW211436   0.552   4.353   1.403
 3513SOL     OW11437   6.068   3.004   0.292
 3513SOL    HW111438   6.096   3.008   0.388
 3513SOL    HW211439   5.996   3.071   0.275
 3514SOL     OW11440   0.696   1.549   1.943
 3514SOL    HW111441   0.597   1.535   1.950
 3514SOL    HW211442   0.718   1.585   1.853
 3515SOL     OW11443   5.570   6.056   2.950
 3515SOL    HW111444   5.575   6.062   2.851
 3515SOL    HW211445   5.481   6.017   2.977
 3516SOL     OW11446   4.895   0.127   0.712
 3516SOL    HW111447   4.950   0.197   0.757
 3516SOL    HW211448   4.845   0.167   0.635
 3517SOL     OW11449   1.396   2.422   0.474
 3517SOL    HW111450   1.340   2.372   0.408
 3517SOL    HW211451   1.474   2.463   0.427
 3518SOL     OW11452   5.953   2.695   4.517
 3518SOL    HW111453   5.894   2.722   4.441
 3518SOL    HW211454   6.048   2.712   4.492
 3519SOL     OW11455   1.564   0.814   6.850
 3519SOL    HW111456   1.551   0.869   6.933
 3519SOL    HW211457   1.484   0.755   6.837
 3520SOL     OW11458   3.285   4.672   6.243
 3520SOL    HW111459   3.286   4.618   6.159
 3520SOL    HW211460   3.318   4.615   6.319
 3521SOL     OW11461   4.934   1.932   6.623
 3521SOL    HW111462   4.838   1.953   6.643
 3521SOL    HW211463   4.986   1.930   6.708
 3522SOL     OW11464   0.460   4.639   1.976
 3522SOL    HW111465   0.476   4.621   2.073
 3522SOL    HW211466   0.505   4.725   1.950
 3523SOL     OW11467   1.789   5.261   6.376
 3523SOL    HW111468   1.814   5.280   6.281
 3523SOL    HW211469   1.815   5.167   6.399
 3524SOL     OW11470   4.437   1.489   1.940
 3524SOL    HW111471   4.405   1.415   1.880
 3524SOL    HW211472   4.522   1.528   1.903
 3525SOL     OW11473   1.243   4.305   3.265
 3525SOL    HW111474   1.306   4.278   3.192
 3525SOL    HW211475   1.189   4.383   3.235
 3526SOL     OW11476   2.128   6.568   4.103
 3526SOL    HW111477   2.165   6.560   4.196
 3526SOL    HW211478   2.099   6.662   4.086
 3527SOL     OW11479   6.095   2.857   6.520
 3527SOL    HW111480   6.094   2.867   6.420
 3527SOL    HW211481   6.085   2.761   6.544
 3528SOL     OW11482   0.745   5.525   4.559
 3528SOL    HW111483   0.647   5.534   4.547
 3528SOL    HW211484   0.765   5.487   4.649
 3529SOL     OW11485   4.194   0.207   0.022
 3529SOL    HW111486   4.196   0.255   0.109
 3529SOL    HW211487   4.135   0.127   0.029
 3530SOL     OW11488   0.447   5.095   2.654
 3530SOL    HW111489   0.417   5.129   2.565
 3530SOL    HW211490   0.517   5.024   2.640
 3531SOL     OW11491   5.604   2.845   0.420
 3531SOL    HW111492   5.612   2.887   0.330
 3531SOL    HW211493   5.695   2.836   0.460
 3532SOL     OW11494   2.894   0.838   1.791
 3532SOL    HW111495   2.935   0.923   1.824
 3532SOL    HW211496   2.962   0.765   1.795
 3533SOL     OW11497   1.806   1.864   2.409
 3533SOL    HW111498   1.726   1.915   2.439
 3533SOL    HW211499   1.848   1.817   2.487
 3534SOL     OW11500   5.781   0.482   6.124
 3534SOL    HW111501   5.691   0.473   6.168
 3534SOL    HW211502   5.800   0.399   6.071
 3535SOL     OW11503   1.778   5.557   0.632
 3535SOL    HW111504   1.688   5.523   0.605
 3535SOL    HW211505   1.844   5.482   0.627
 3536SOL     OW11506   2.654   2.399   3.238
 3536SOL    HW111507   2.727   2.353   3.188
 3536SOL    HW211508   2.680   2.410   3.334
 3537SOL     OW11509   3.243   5.555   1.296
 3537SOL    HW111510   3.267   5.476   1.240
 3537SOL    HW211511   3.208   5.524   1.384
 3538SOL     OW11512   1.123   0.208   6.232
 3538SOL    HW111513   1.045   0.206   6.170
 3538SOL    HW211514   1.207   0.220   6.180
 3539SOL     OW11515   5.684   3.549   5.935
 3539SOL    HW111516   5.645   3.563   6.026
 3539SOL    HW211517   5.613   3.563   5.865
 3540SOL     OW11518   2.455   2.339   6.092
 3540SOL    HW111519   2.393   2.350   6.015
 3540SOL    HW211520   2.444   2.416   6.155
 3541SOL     OW11521   1.632   2.541   6.419
 3541SOL    HW111522   1.612   2.586   6.331
 3541SOL    HW211523   1.549   2.539   6.474
 3542SOL     OW11524   1.505   4.955   2.366
 3542SOL    HW111525   1.576   4.998   2.311
 3542SOL    HW211526   1.495   4.859   2.340
 3543SOL     OW11527   0.633   2.285   4.940
 3543SOL    HW111528   0.722   2.244   4.959
 3543SOL    HW211529   0.594   2.242   4.858
 3544SOL     OW11530   2.913   3.947   6.123
 3544SOL    HW111531   2.894   3.860   6.079
 3544SOL    HW211532   2.887   3.942   6.220
 3545SOL     OW11533   4.149   5.468   0.527
 3545SOL    HW111534   4.106   5.557   0.542
 3545SOL    HW211535   4.087   5.408   0.476
 3546SOL     OW11536   0.679   3.721   4.063
 3546SOL    HW111537   0.743   3.643   4.065
 3546SOL    HW211538   0.658   3.744   3.968
 3547SOL     OW11539   6.584   4.809   5.168
 3547SOL    HW111540   6.661   4.817   5.104
 3547SOL    HW211541   6.520   4.884   5.152
 3548SOL     OW11542   5.688   0.401   5.571
 3548SOL    HW111543   5.751   0.468   5.533
 3548SOL    HW211544   5.663   0.427   5.664
 3549SOL     OW11545   6.967   4.366   5.881
 3549SOL    HW111546   7.002   4.398   5.793
 3549SOL    HW211547   6.876   4.405   5.896
 3550SOL     OW11548   5.609   3.333   3.283
 3550SOL    HW111549   5.701   3.366   3.262
 3550SOL    HW211550   5.615   3.257   3.348
 3551SOL     OW11551   3.234   2.136   2.688
 3551SOL    HW111552   3.326   2.157   2.654
 3551SOL    HW211553   3.167   2.161   2.618
 3552SOL     OW11554   6.327   6.763   1.641
 3552SOL    HW111555   6.318   6.782   1.543
 3552SOL    HW211556   6.237   6.744   1.680
 3553SOL     OW11557   4.444   5.351   1.016
 3553SOL    HW111558   4.494   5.342   0.929
 3553SOL    HW211559   4.385   5.431   1.012
 3554SOL     OW11560   4.531   2.009   1.434
 3554SOL    HW111561   4.467   1.962   1.495
 3554SOL    HW211562   4.521   1.973   1.341
 3555SOL     OW11563   0.257   4.320   3.647
 3555SOL    HW111564   0.309   4.239   3.675
 3555SOL    HW211565   0.282   4.345   3.553
 3556SOL     OW11566   3.996   1.489   4.236
 3556SOL    HW111567   3.995   1.490   4.136
 3556SOL    HW211568   4.084   1.522   4.269
 3557SOL     OW11569   1.106   1.610   4.434
 3557SOL    HW111570   1.088   1.511   4.436
 3557SOL    HW211571   1.034   1.657   4.486
 3558SOL     OW11572   1.202   6.026   2.330
 3558SOL    HW111573   1.154   5.960   2.274
 3558SOL    HW211574   1.255   6.087   2.271
 3559SOL     OW11575   0.401   6.166   5.543
 3559SOL    HW111576   0.467   6.145   5.615
 3559SOL    HW211577   0.423   6.116   5.460
 3560SOL     OW11578   1.252   5.800   2.710
 3560SOL    HW111579   1.233   5.782   2.613
 3560SOL    HW211580   1.166   5.823   2.757
 3561SOL     OW11581   4.264   4.716   4.743
 3561SOL    HW111582   4.188   4.764   4.786
 3561SOL    HW211583   4.294   4.641   4.802
 3562SOL     OW11584   4.377   1.741   3.337
 3562SOL    HW111585   4.329   1.653   3.329
 3562SOL    HW211586   4.339   1.805   3.271
 3563SOL     OW11587   5.489   1.440   0.167
 3563SOL    HW111588   5.408   1.413   0.219
 3563SOL    HW211589   5.546   1.359   0.150
 3564SOL     OW11590   1.157   4.684   3.431
 3564SOL    HW111591   1.082   4.629   3.395
 3564SOL    HW211592   1.146   4.695   3.530
 3565SOL     OW11593   2.752   5.720   5.074
 3565SOL    HW111594   2.716   5.807   5.040
 3565SOL    HW211595   2.770   5.659   4.997
 3566SOL     OW11596   0.186   3.643   5.853
 3566SOL    HW111597   0.219   3.700   5.928
 3566SOL    HW211598   0.087   3.644   5.851
 3567SOL     OW11599   0.027   2.849   6.704
 3567SOL    HW111600   0.007   2.780   6.634
 3567SOL    HW211601   0.059   2.803   6.787
 3568SOL     OW11602   4.923   5.156   4.031
 3568SOL    HW111603   4.854   5.209   3.981
 3568SOL    HW211604   5.005   5.147   3.975
 3569SOL     OW11605   1.890   1.727   5.791
 3569SOL    HW111606   1.904   1.715   5.890
 3569SOL    HW211607   1.793   1.713   5.770
 3570SOL     OW11608   5.422   0.396   5.490
 3570SOL    HW111609   5.378   0.482   5.466
 3570SOL    HW211610   5.517   0.412   5.516
 3571SOL     OW11611   0.777   5.410   4.811
 3571SOL    HW111612   0.824   5.324   4.791
 3571SOL    HW211613   0.828   5.462   4.880
 3572SOL     OW11614   5.967   3.612   3.205
 3572SOL    HW111615   6.049   3.642   3.253
 3572SOL    HW211616   5.904   3.689   3.193
 3573SOL     OW11617   0.235   5.262   3.557
 3573SOL    HW111618   0.258   5.200   3.632
 3573SOL    HW211619   0.200   5.348   3.593
 3574SOL     OW11620   0.826   3.343   0.745
 3574SOL    HW111621   0.858   3.336   0.840
 3574SOL    HW211622   0.844   3.257   0.698
 3575SOL     OW11623   5.630   5.372   2.210
 3575SOL    HW111624   5.625   5.273   2.224
 3575SOL    HW211625   5.656   5.391   2.116
 3576SOL     OW11626   0.640   2.554   6.054
 3576SOL    HW111627   0.726   2.503   6.053
 3576SOL    HW211628   0.655   2.643   6.099
 3577SOL     OW11629   1.444   2.067   6.435
 3577SOL    HW111630   1.422   1.984   6.384
 3577SOL    HW211631   1.368   2.090   6.496
 3578SOL     OW11632   3.751   1.856   0.154
 3578SOL    HW111633   3.735   1.861   0.253
 3578SOL    HW211634   3.824   1.919   0.129
 3579SOL     OW11635   0.582   2.452   3.600
 3579SOL    HW111636   0.643   2.373   3.595
 3579SOL    HW211637   0.635   2.537   3.593
 3580SOL     OW11638   6.565   3.527   1.621
 3580SOL    HW111639   6.637   3.529   1.690
 3580SOL    HW211640   6.554   3.434   1.587
 3581SOL     OW11641   1.424   5.498   3.450
 3581SOL    HW111642   1.330   5.526   3.469
 3581SOL    HW211643   1.444   5.414   3.501
 3582SOL     OW11644   1.262   3.457   6.620
 3582SOL    HW111645   1.266   3.363   6.586
 3582SOL    HW211646   1.355   3.493   6.628
 3583SOL     OW11647   1.011   4.432   6.322
 3583SOL    HW111648   1.001   4.531   6.321
 3583SOL    HW211649   0.982   4.394   6.234
 3584SOL     OW11650   5.360   4.889   6.215
 3584SOL    HW111651   5.308   4.824   6.271
 3584SOL    HW211652   5.387   4.967   6.271
 3585SOL     OW11653   2.987   1.226   4.425
 3585SOL    HW111654   2.897   1.202   4.390
 3585SOL    HW211655   3.041   1.143   4.440
 3586SOL     OW11656   6.121   1.518   4.728
 3586SOL    HW111657   6.095   1.524   4.632
 3586SOL    HW211658   6.167   1.603   4.755
 3587SOL     OW11659   2.152   4.876   5.622
 3587SOL    HW111660   2.223   4.806   5.611
 3587SOL    HW211661   2.093   4.877   5.541
 3588SOL     OW11662   1.224   3.067   5.315
 3588SOL    HW111663   1.227   3.145   5.378
 3588SOL    HW211664   1.183   3.096   5.228
 3589SOL     OW11665   5.334   0.632   5.422
 3589SOL    HW111666   5.374   0.722   5.409
 3589SOL    HW211667   5.299   0.598   5.335
 3590SOL     OW11668   0.988   3.516   0.384
 3590SOL    HW111669   0.974   3.451   0.309
 3590SOL    HW211670   1.082   3.549   0.382
 3591SOL     OW11671   5.385   4.138   6.891
 3591SOL    HW111672   5.433   4.088   6.819
 3591SOL    HW211673   5.287   4.116   6.888
 3592SOL     OW11674   0.727   5.364   1.926
 3592SOL    HW111675   0.782   5.283   1.947
 3592SOL    HW211676   0.689   5.355   1.834
 3593SOL     OW11677   0.764   5.268   5.172
 3593SOL    HW111678   0.808   5.313   5.249
 3593SOL    HW211679   0.826   5.199   5.133
 3594SOL     OW11680   5.129   6.522   3.597
 3594SOL    HW111681   5.065   6.548   3.525
 3594SOL    HW211682   5.221   6.513   3.559
 3595SOL     OW11683   4.572   6.008   6.407
 3595SOL    HW111684   4.501   5.993   6.338
 3595SOL    HW211685   4.543   6.082   6.468
 3596SOL     OW11686   6.666   3.076   2.715
 3596SOL    HW111687   6.693   3.121   2.801
 3596SOL    HW211688   6.572   3.042   2.724
 3597SOL     OW11689   1.829   2.116   5.675
 3597SOL    HW111690   1.854   2.103   5.579
 3597SOL    HW211691   1.898   2.074   5.733
 3598SOL     OW11692   0.933   5.853   6.476
 3598SOL    HW111693   0.874   5.795   6.420
 3598SOL    HW211694   0.985   5.915   6.416
 3599SOL     OW11695   5.826   2.596   6.564
 3599SOL    HW111696   5.924   2.576   6.554
 3599SOL    HW211697   5.778   2.514   6.595
 3600SOL     OW11698   0.480   2.966   1.643
 3600SOL    HW111699   0.382   2.981   1.636
 3600SOL    HW211700   0.528   3.026   1.578
 3601SOL     OW11701   5.123   3.181   6.259
 3601SOL    HW111702   5.176   3.210   6.338
 3601SOL    HW211703   5.048   3.246   6.243
 3602SOL     OW11704   1.384   3.588   0.626
 3602SOL    HW111705   1.348   3.557   0.714
 3602SOL    HW211706   1.352   3.681   0.607
 3603SOL     OW11707   3.337   1.286   3.857
 3603SOL    HW111708   3.340   1.380   3.820
 3603SOL    HW211709   3.428   1.261   3.891
 3604SOL     OW11710   6.545   5.855   3.269
 3604SOL    HW111711   6.501   5.930   3.219
 3604SOL    HW211712   6.642   5.875   3.279
 3605SOL     OW11713   6.478   4.269   4.452
 3605SOL    HW111714   6.430   4.334   4.510
 3605SOL    HW211715   6.415   4.231   4.385
 3606SOL     OW11716   0.824   0.660   4.507
 3606SOL    HW111717   0.801   0.757   4.517
 3606SOL    HW211718   0.836   0.619   4.597
 3607SOL     OW11719   5.363   5.326   1.871
 3607SOL    HW111720   5.424   5.325   1.792
 3607SOL    HW211721   5.370   5.239   1.919
 3608SOL     OW11722   4.760   2.108   4.709
 3608SOL    HW111723   4.790   2.023   4.752
 3608SOL    HW211724   4.814   2.125   4.626
 3609SOL     OW11725   1.210   0.503   4.337
 3609SOL    HW111726   1.189   0.525   4.433
 3609SOL    HW211727   1.192   0.583   4.280
 3610SOL     OW11728   1.620   6.883   5.865
 3610SOL    HW111729   1.685   6.811   5.886
 3610SOL    HW211730   1.598   6.879   5.767
 3611SOL     OW11731   4.503   4.896   4.722
 3611SOL    HW111732   4.433   4.834   4.756
 3611SOL    HW211733   4.536   4.863   4.633
 3612SOL     OW11734   0.291   0.219   0.273
 3612SOL    HW111735   0.340   0.136   0.248
 3612SOL    HW211736   0.232   0.248   0.197
 3613SOL     OW11737   4.838   4.727   2.104
 3613SOL    HW111738   4.814   4.641   2.061
 3613SOL    HW211739   4.859   4.711   2.201
 3614SOL     OW11740   3.849   3.381   0.736
 3614SOL    HW111741   3.801   3.464   0.765
 3614SOL    HW211742   3.894   3.339   0.815
 3615SOL     OW11743   5.198   3.819   6.243
 3615SOL    HW111744   5.297   3.803   6.239
 3615SOL    HW211745   5.160   3.772   6.323
 3616SOL     OW11746   0.484   1.845   6.439
 3616SOL    HW111747   0.559   1.837   6.373
 3616SOL    HW211748   0.472   1.758   6.487
 3617SOL     OW11749   4.651   0.975   0.108
 3617SOL    HW111750   4.665   0.892   0.162
 3617SOL    HW211751   4.604   0.951   0.023
 3618SOL     OW11752   2.599   2.934   5.584
 3618SOL    HW111753   2.517   2.884   5.611
 3618SOL    HW211754   2.645   2.886   5.510
 3619SOL     OW11755   5.725   2.680   4.685
 3619SOL    HW111756   5.747   2.639   4.774
 3619SOL    HW211757   5.810   2.701   4.636
 3620SOL     OW11758   6.250   6.108   5.635
 3620SOL    HW111759   6.331   6.161   5.608
 3620SOL    HW211760   6.186   6.103   5.559
 3621SOL     OW11761   3.217   2.880   5.130
 3621SOL    HW111762   3.119   2.898   5.133
 3621SOL    HW211763   3.262   2.925   5.208
 3622SOL     OW11764   0.992   1.894   6.561
 3622SOL    HW111765   1.012   1.919   6.466
 3622SOL    HW211766   0.897   1.918   6.583
 3623SOL     OW11767   6.742   6.523   4.859
 3623SOL    HW111768   6.839   6.501   4.872
 3623SOL    HW211769   6.727   6.620   4.877
 3624SOL     OW11770   1.754   7.010   2.167
 3624SOL    HW111771   1.831   0.044   2.135
 3624SOL    HW211772   1.717   0.027   2.251
 3625SOL     OW11773   0.132   3.086   6.844
 3625SOL    HW111774   0.099   3.001   6.803
 3625SOL    HW211775   0.224   3.072   6.881
 3626SOL     OW11776   1.710   2.508   5.384
 3626SOL    HW111777   1.794   2.553   5.352
 3626SOL    HW211778   1.643   2.507   5.310
 3627SOL     OW11779   3.642   3.441   1.692
 3627SOL    HW111780   3.658   3.350   1.730
 3627SOL    HW211781   3.675   3.510   1.758
 3628SOL     OW11782   1.275   1.178   2.356
 3628SOL    HW111783   1.192   1.134   2.391
 3628SOL    HW211784   1.356   1.129   2.389
 3629SOL     OW11785   0.194   1.134   5.527
 3629SOL    HW111786   0.096   1.124   5.542
 3629SOL    HW211787   0.211   1.155   5.431
 3630SOL     OW11788   5.173   2.431   4.103
 3630SOL    HW111789   5.197   2.368   4.177
 3630SOL    HW211790   5.146   2.519   4.141
 3631SOL     OW11791   2.090   0.799   3.321
 3631SOL    HW111792   2.186   0.788   3.346
 3631SOL    HW211793   2.046   0.864   3.382
 3632SOL     OW11794   5.464   5.540   0.924
 3632SOL    HW111795   5.401   5.551   1.000
 3632SOL    HW211796   5.495   5.445   0.920
 3633SOL     OW11797   4.250   2.091   5.652
 3633SOL    HW111798   4.316   2.125   5.719
 3633SOL    HW211799   4.252   1.991   5.651
 3634SOL     OW11800   1.630   5.268   5.889
 3634SOL    HW111801   1.664   5.199   5.826
 3634SOL    HW211802   1.559   5.227   5.948
 3635SOL     OW11803   3.522   0.034   1.189
 3635SOL    HW111804   3.622   0.038   1.186
 3635SOL    HW211805   3.485   0.127   1.182
 3636SOL     OW11806   6.877   5.961   0.807
 3636SOL    HW111807   6.861   5.867   0.776
 3636SOL    HW211808   6.955   5.962   0.870
 3637SOL     OW11809   0.391   2.609   2.077
 3637SOL    HW111810   0.316   2.605   2.011
 3637SOL    HW211811   0.405   2.518   2.116
 3638SOL     OW11812   0.841   4.146   3.259
 3638SOL    HW111813   0.752   4.178   3.294
 3638SOL    HW211814   0.897   4.113   3.335
 3639SOL     OW11815   4.065   5.702   0.570
 3639SOL    HW111816   4.056   5.783   0.511
 3639SOL    HW211817   4.013   5.716   0.654
 3640SOL     OW11818   3.937   1.185   0.231
 3640SOL    HW111819   3.974   1.092   0.230
 3640SOL    HW211820   3.998   1.247   0.182
 3641SOL     OW11821   5.951   3.744   2.157
 3641SOL    HW111822   5.949   3.842   2.140
 3641SOL    HW211823   5.962   3.695   2.070
 3642SOL     OW11824   5.353   2.233   6.725
 3642SOL    HW111825   5.303   2.232   6.812
 3642SOL    HW211826   5.445   2.270   6.741
 3643SOL     OW11827   2.483   5.799   4.814
 3643SOL    HW111828   2.516   5.705   4.811
 3643SOL    HW211829   2.560   5.862   4.825
 3644SOL     OW11830   1.707   1.757   1.925
 3644SOL    HW111831   1.761   1.673   1.926
 3644SOL    HW211832   1.768   1.836   1.926
 3645SOL     OW11833   1.504   2.011   3.968
 3645SOL    HW111834   1.578   2.047   4.026
 3645SOL    HW211835   1.416   2.043   4.003
 3646SOL     OW11836   1.926   4.254   5.918
 3646SOL    HW111837   1.956   4.161   5.941
 3646SOL    HW211838   1.909   4.305   6.002
 3647SOL     OW11839   2.495   6.137   6.704
 3647SOL    HW111840   2.548   6.214   6.668
 3647SOL    HW211841   2.528   6.052   6.663
 3648SOL     OW11842   4.491   5.857   2.380
 3648SOL    HW111843   4.507   5.864   2.479
 3648SOL    HW211844   4.498   5.947   2.338
 3649SOL     OW11845   6.169   3.118   1.555
 3649SOL    HW111846   6.194   3.029   1.518
 3649SOL    HW211847   6.187   3.119   1.654
 3650SOL     OW11848   6.568   5.271   2.112
 3650SOL    HW111849   6.659   5.311   2.103
 3650SOL    HW211850   6.499   5.344   2.117
 3651SOL     OW11851   0.780   0.638   4.256
 3651SOL    HW111852   0.864   0.615   4.207
 3651SOL    HW211853   0.799   0.643   4.354
 3652SOL     OW11854   6.261   0.129   3.333
 3652SOL    HW111855   6.227   0.036   3.344
 3652SOL    HW211856   6.348   0.128   3.285
 3653SOL     OW11857   1.263   1.186   3.043
 3653SOL    HW111858   1.290   1.125   3.117
 3653SOL    HW211859   1.320   1.169   2.962
 3654SOL     OW11860   3.939   4.896   0.208
 3654SOL    HW111861   4.027   4.855   0.185
 3654SOL    HW211862   3.871   4.824   0.222
 3655SOL     OW11863   3.334   0.035   3.764
 3655SOL    HW111864   3.395   6.978   3.760
 3655SOL    HW211865   3.250   0.010   3.814
 3656SOL     OW11866   0.414   5.262   1.558
 3656SOL    HW111867   0.432   5.271   1.461
 3656SOL    HW211868   0.316   5.273   1.575
 3657SOL     OW11869   5.203   5.314   5.571
 3657SOL    HW111870   5.195   5.311   5.472
 3657SOL    HW211871   5.219   5.409   5.601
 3658SOL     OW11872   2.488   4.814   6.467
 3658SOL    HW111873   2.490   4.759   6.550
 3658SOL    HW211874   2.429   4.770   6.399
 3659SOL     OW11875   2.260   2.585   5.941
 3659SOL    HW111876   2.201   2.659   5.909
 3659SOL    HW211877   2.339   2.624   5.989
 3660SOL     OW11878   5.606   6.117   4.322
 3660SOL    HW111879   5.531   6.051   4.323
 3660SOL    HW211880   5.656   6.109   4.236
 3661SOL     OW11881   6.948   0.567   4.974
 3661SOL    HW111882   6.978   0.645   4.920
 3661SOL    HW211883   6.934   0.595   5.069
 3662SOL     OW11884   4.152   0.337   4.485
 3662SOL    HW111885   4.130   0.389   4.568
 3662SOL    HW211886   4.246   0.303   4.490
 3663SOL     OW11887   1.726   2.856   0.657
 3663SOL    HW111888   1.795   2.849   0.730
 3663SOL    HW211889   1.637   2.877   0.697
 3664SOL     OW11890   4.707   2.163   1.855
 3664SOL    HW111891   4.692   2.079   1.907
 3664SOL    HW211892   4.702   2.242   1.917
 3665SOL     OW11893   1.256   6.202   4.918
 3665SOL    HW111894   1.319   6.133   4.954
 3665SOL    HW211895   1.162   6.177   4.941
 3666SOL     OW11896   1.250   4.009   2.932
 3666SOL    HW111897   1.296   3.921   2.941
 3666SOL    HW211898   1.232   4.028   2.836
 3667SOL     OW11899   0.472   1.368   3.564
 3667SOL    HW111900   0.440   1.412   3.480
 3667SOL    HW211901   0.557   1.319   3.545
 3668SOL     OW11902   1.138   1.024   1.569
 3668SOL    HW111903   1.160   1.114   1.608
 3668SOL    HW211904   1.052   0.991   1.608
 3669SOL     OW11905   5.443   1.855   3.432
 3669SOL    HW111906   5.521   1.817   3.482
 3669SOL    HW211907   5.379   1.781   3.409
 3670SOL     OW11908   2.201   5.343   6.583
 3670SOL    HW111909   2.283   5.290   6.562
 3670SOL    HW211910   2.201   5.426   6.527
 3671SOL     OW11911   0.060   1.959   4.133
 3671SOL    HW111912   6.990   1.922   4.146
 3671SOL    HW211913   0.085   1.951   4.036
 3672SOL     OW11914   4.834   1.914   2.144
 3672SOL    HW111915   4.916   1.862   2.119
 3672SOL    HW211916   4.762   1.896   2.077
 3673SOL     OW11917   3.856   5.686   6.799
 3673SOL    HW111918   3.910   5.660   6.879
 3673SOL    HW211919   3.761   5.698   6.825
 3674SOL     OW11920   1.631   5.787   5.849
 3674SOL    HW111921   1.670   5.878   5.859
 3674SOL    HW211922   1.532   5.790   5.862
 3675SOL     OW11923   1.941   2.559   4.364
 3675SOL    HW111924   1.853   2.511   4.355
 3675SOL    HW211925   1.924   2.655   4.388
 3676SOL     OW11926   6.527   4.389   2.680
 3676SOL    HW111927   6.618   4.375   2.641
 3676SOL    HW211928   6.458   4.381   2.608
 3677SOL     OW11929   2.885   6.440   4.336
 3677SOL    HW111930   2.826   6.437   4.256
 3677SOL    HW211931   2.846   6.384   4.409
 3678SOL     OW11932   1.488   1.456   4.571
 3678SOL    HW111933   1.546   1.397   4.514
 3678SOL    HW211934   1.518   1.551   4.561
 3679SOL     OW11935   6.734   0.411   3.099
 3679SOL    HW111936   6.801   0.472   3.057
 3679SOL    HW211937   6.653   0.463   3.125
 3680SOL     OW11938   5.136   2.523   3.835
 3680SOL    HW111939   5.131   2.512   3.935
 3680SOL    HW211940   5.096   2.442   3.791
 3681SOL     OW11941   0.724   1.270   6.781
 3681SOL    HW111942   0.761   1.180   6.757
 3681SOL    HW211943   0.649   1.293   6.719
 3682SOL     OW11944   5.934   2.811   0.180
 3682SOL    HW111945   5.978   2.721   0.175
 3682SOL    HW211946   5.993   2.874   0.231
 3683SOL     OW11947   0.073   1.555   4.449
 3683SOL    HW111948   0.121   1.497   4.383
 3683SOL    HW211949   7.004   1.516   4.468
 3684SOL     OW11950   1.051   5.412   0.303
 3684SOL    HW111951   0.968   5.467   0.305
 3684SOL    HW211952   1.120   5.458   0.246
 3685SOL     OW11953   2.035   5.806   6.275
 3685SOL    HW111954   1.997   5.721   6.238
 3685SOL    HW211955   2.134   5.808   6.257
 3686SOL     OW11956   6.104   4.968   4.644
 3686SOL    HW111957   6.128   4.912   4.723
 3686SOL    HW211958   6.008   4.998   4.652
 3687SOL     OW11959   3.837   6.048   4.026
 3687SOL    HW111960   3.850   6.129   4.084
 3687SOL    HW211961   3.740   6.025   4.024
 3688SOL     OW11962   6.807   2.846   6.830
 3688SOL    HW111963   6.852   2.768   6.873
 3688SOL    HW211964   6.863   2.880   6.754
 3689SOL     OW11965   1.865   0.621   5.552
 3689SOL    HW111966   1.877   0.549   5.621
 3689SOL    HW211967   1.768   0.643   5.543
 3690SOL     OW11968   3.869   5.930   0.113
 3690SOL    HW111969   3.848   5.848   0.060
 3690SOL    HW211970   3.846   5.914   0.209
 3691SOL     OW11971   2.529   1.553   6.985
 3691SOL    HW111972   2.626   1.570   6.974
 3691SOL    HW211973   2.502   1.473   6.930
 3692SOL     OW11974   6.354   5.244   5.525
 3692SOL    HW111975   6.426   5.311   5.544
 3692SOL    HW211976   6.383   5.154   5.559
 3693SOL     OW11977   2.130   3.294   3.052
 3693SOL    HW111978   2.183   3.275   2.969
 3693SOL    HW211979   2.076   3.214   3.076
 3694SOL     OW11980   0.558   6.310   2.095
 3694SOL    HW111981   0.460   6.313   2.075
 3694SOL    HW211982   0.587   6.215   2.104
 3695SOL     OW11983   5.276   2.962   1.070
 3695SOL    HW111984   5.223   3.001   1.145
 3695SOL    HW211985   5.329   3.033   1.026
 3696SOL     OW11986   3.833   0.306   4.197
 3696SOL    HW111987   3.882   0.342   4.276
 3696SOL    HW211988   3.828   0.206   4.203
 3697SOL     OW11989   0.015   6.054   2.854
 3697SOL    HW111990   6.977   6.133   2.845
 3697SOL    HW211991   0.098   6.081   2.904
 3698SOL     OW11992   2.298   0.917   3.576
 3698SOL    HW111993   2.302   1.008   3.535
 3698SOL    HW211994   2.208   0.904   3.618
 3699SOL     OW11995   1.830   1.301   3.505
 3699SOL    HW111996   1.849   1.342   3.416
 3699SOL    HW211997   1.806   1.205   3.494
 3700SOL     OW11998   1.504   5.110   4.855
 3700SOL    HW111999   1.465   5.187   4.905
 3700SOL    HW212000   1.603   5.109   4.867
 3701SOL     OW12001   1.467   0.132   3.825
 3701SOL    HW112002   1.556   0.165   3.791
 3701SOL    HW212003   1.480   0.042   3.866
 3702SOL     OW12004   5.704   6.490   3.707
 3702SOL    HW112005   5.760   6.459   3.631
 3702SOL    HW212006   5.614   6.446   3.702
 3703SOL     OW12007   6.859   0.750   6.642
 3703SOL    HW112008   6.796   0.748   6.564
 3703SOL    HW212009   6.953   0.736   6.610
 3704SOL     OW12010   3.745   2.051   1.122
 3704SOL    HW112011   3.711   2.137   1.083
 3704SOL    HW212012   3.818   2.070   1.187
 3705SOL     OW12013   5.462   4.071   4.627
 3705SOL    HW112014   5.467   4.144   4.559
 3705SOL    HW212015   5.521   3.995   4.599
 3706SOL     OW12016   0.376   3.827   6.796
 3706SOL    HW112017   0.387   3.732   6.827
 3706SOL    HW212018   0.401   3.889   6.870
 3707SOL     OW12019   5.128   5.415   4.819
 3707SOL    HW112020   5.216   5.460   4.800
 3707SOL    HW212021   5.090   5.379   4.734
 3708SOL     OW12022   5.626   7.019   0.936
 3708SOL    HW112023   5.599   0.008   0.840
 3708SOL    HW212024   5.565   6.953   0.980
 3709SOL     OW12025   3.624   0.142   1.715
 3709SOL    HW112026   3.587   0.210   1.652
 3709SOL    HW212027   3.680   0.076   1.664
 3710SOL     OW12028   6.361   5.482   5.221
 3710SOL    HW112029   6.455   5.492   5.253
 3710SOL    HW212030   6.298   5.492   5.298
 3711SOL     OW12031   1.552   5.428   5.242
 3711SOL    HW112032   1.565   5.381   5.329
 3711SOL    HW212033   1.555   5.527   5.257
 3712SOL     OW12034   1.026   5.107   6.420
 3712SOL    HW112035   1.001   5.204   6.423
 3712SOL    HW212036   0.959   5.058   6.364
 3713SOL     OW12037   0.612   0.050   5.195
 3713SOL    HW112038   0.579   0.090   5.281
 3713SOL    HW212039   0.702   0.009   5.210
 3714SOL     OW12040   5.775   5.616   6.331
 3714SOL    HW112041   5.709   5.665   6.389
 3714SOL    HW212042   5.748   5.521   6.323
 3715SOL     OW12043   1.124   4.061   2.644
 3715SOL    HW112044   1.063   4.039   2.568
 3715SOL    HW212045   1.094   4.146   2.687
 3716SOL     OW12046   6.035   6.671   4.652
 3716SOL    HW112047   5.987   6.591   4.617
 3716SOL    HW212048   6.109   6.642   4.713
 3717SOL     OW12049   5.796   0.257   0.053
 3717SOL    HW112050   5.830   0.194   0.123
 3717SOL    HW212051   5.862   0.332   0.041
 3718SOL     OW12052   6.930   0.464   0.478
 3718SOL    HW112053   6.862   0.433   0.412
 3718SOL    HW212054   7.013   0.410   0.467
 3719SOL     OW12055   4.989   3.102   0.467
 3719SOL    HW112056   5.013   3.025   0.527
 3719SOL    HW212057   5.070   3.131   0.416
 3720SOL     OW12058   5.865   3.073   0.543
 3720SOL    HW112059   5.886   3.015   0.464
 3720SOL    HW212060   5.780   3.042   0.585
 3721SOL     OW12061   6.994   5.331   1.374
 3721SOL    HW112062   6.972   5.427   1.390
 3721SOL    HW212063   6.913   5.283   1.341
 3722SOL     OW12064   5.568   6.104   1.145
 3722SOL    HW112065   5.533   6.085   1.237
 3722SOL    HW212066   5.548   6.027   1.085
 3723SOL     OW12067   5.170   4.995   0.780
 3723SOL    HW112068   5.242   5.042   0.730
 3723SOL    HW212069   5.109   5.061   0.823
 3724SOL     OW12070   1.957   4.534   5.446
 3724SOL    HW112071   1.922   4.530   5.352
 3724SOL    HW212072   1.971   4.630   5.472
 3725SOL     OW12073   0.261   5.280   6.749
 3725SOL    HW112074   0.197   5.244   6.680
 3725SOL    HW212075   0.355   5.259   6.722
 3726SOL     OW12076   5.643   3.032   6.217
 3726SOL    HW112077   5.552   3.006   6.250
 3726SOL    HW212078   5.633   3.098   6.143
 3727SOL     OW12079   6.644   2.240   5.622
 3727SOL    HW112080   6.644   2.147   5.658
 3727SOL    HW212081   6.723   2.252   5.561
 3728SOL     OW12082   1.053   3.163   6.547
 3728SOL    HW112083   1.102   3.173   6.460
 3728SOL    HW212084   0.955   3.172   6.531
 3729SOL     OW12085   1.714   1.372   4.414
 3729SOL    HW112086   1.727   1.273   4.407
 3729SOL    HW212087   1.677   1.407   4.327
 3730SOL     OW12088   3.176   5.713   5.482
 3730SOL    HW112089   3.149   5.626   5.441
 3730SOL    HW212090   3.099   5.749   5.536
 3731SOL     OW12091   0.162   1.567   0.251
 3731SOL    HW112092   0.089   1.508   0.216
 3731SOL    HW212093   0.129   1.618   0.330
 3732SOL     OW12094   2.443   2.166   0.307
 3732SOL    HW112095   2.530   2.198   0.344
 3732SOL    HW212096   2.456   2.130   0.215
 3733SOL     OW12097   1.960   3.062   3.092
 3733SOL    HW112098   1.991   2.994   3.026
 3733SOL    HW212099   1.861   3.056   3.103
 3734SOL     OW12100   5.358   0.146   0.760
 3734SOL    HW112101   5.450   0.143   0.720
 3734SOL    HW212102   5.361   0.106   0.852
 3735SOL     OW12103   3.116   0.530   2.699
 3735SOL    HW112104   3.089   0.469   2.625
 3735SOL    HW212105   3.183   0.596   2.666
 3736SOL     OW12106   0.671   1.366   1.172
 3736SOL    HW112107   0.632   1.452   1.207
 3736SOL    HW212108   0.602   1.318   1.118
 3737SOL     OW12109   5.403   1.407   4.034
 3737SOL    HW112110   5.307   1.388   4.053
 3737SOL    HW212111   5.458   1.386   4.115
 3738SOL     OW12112   6.299   0.558   1.364
 3738SOL    HW112113   6.224   0.518   1.312
 3738SOL    HW212114   6.333   0.492   1.431
 3739SOL     OW12115   2.333   5.252   1.228
 3739SOL    HW112116   2.329   5.215   1.320
 3739SOL    HW212117   2.270   5.329   1.219
 3740SOL     OW12118   6.607   0.072   0.702
 3740SOL    HW112119   6.660   0.008   0.758
 3740SOL    HW212120   6.640   0.068   0.607
 3741SOL     OW12121   4.919   2.977   6.024
 3741SOL    HW112122   4.976   2.917   6.079
 3741SOL    HW212123   4.823   2.966   6.050
 3742SOL     OW12124   3.583   1.428   6.988
 3742SOL    HW112125   3.619   1.447   6.896
 3742SOL    HW212126   3.553   1.333   6.993
 3743SOL     OW12127   5.768   3.342   0.649
 3743SOL    HW112128   5.734   3.250   0.668
 3743SOL    HW212129   5.820   3.341   0.563
 3744SOL     OW12130   0.942   6.405   1.601
 3744SOL    HW112131   0.985   6.424   1.689
 3744SOL    HW212132   0.847   6.376   1.615
 3745SOL     OW12133   4.503   4.544   2.847
 3745SOL    HW112134   4.493   4.528   2.749
 3745SOL    HW212135   4.594   4.517   2.876
 3746SOL     OW12136   6.929   0.351   3.960
 3746SOL    HW112137   6.998   0.333   4.031
 3746SOL    HW212138   6.841   0.366   4.003
 3747SOL     OW12139   3.898   5.732   5.181
 3747SOL    HW112140   3.869   5.733   5.085
 3747SOL    HW212141   3.817   5.735   5.239
 3748SOL     OW12142   5.516   1.260   1.682
 3748SOL    HW112143   5.560   1.344   1.649
 3748SOL    HW212144   5.585   1.201   1.722
 3749SOL     OW12145   2.771   4.933   3.066
 3749SOL    HW112146   2.736   4.917   3.159
 3749SOL    HW212147   2.710   4.888   3.000
 3750SOL     OW12148   6.473   4.629   1.159
 3750SOL    HW112149   6.561   4.620   1.111
 3750SOL    HW212150   6.487   4.681   1.243
 3751SOL     OW12151   6.475   3.400   0.946
 3751SOL    HW112152   6.548   3.333   0.962
 3751SOL    HW212153   6.441   3.433   1.034
 3752SOL     OW12154   0.307   6.702   0.311
 3752SOL    HW112155   0.343   6.791   0.284
 3752SOL    HW212156   0.383   6.638   0.324
 3753SOL     OW12157   0.382   1.090   3.820
 3753SOL    HW112158   0.398   1.187   3.799
 3753SOL    HW212159   0.284   1.074   3.830
 3754SOL     OW12160   3.940   6.798   1.124
 3754SOL    HW112161   3.863   6.857   1.148
 3754SOL    HW212162   3.944   6.785   1.025
 3755SOL     OW12163   5.549   5.499   4.232
 3755SOL    HW112164   5.473   5.555   4.200
 3755SOL    HW212165   5.581   5.441   4.157
 3756SOL     OW12166   2.207   6.088   6.117
 3756SOL    HW112167   2.269   6.119   6.188
 3756SOL    HW212168   2.261   6.055   6.039
 3757SOL     OW12169   3.915   6.562   6.267
 3757SOL    HW112170   3.892   6.483   6.324
 3757SOL    HW212171   3.953   6.530   6.180
 3758SOL     OW12172   2.289   1.679   4.997
 3758SOL    HW112173   2.217   1.698   4.931
 3758SOL    HW212174   2.360   1.622   4.955
 3759SOL     OW12175   4.542   5.715   6.099
 3759SOL    HW112176   4.524   5.620   6.126
 3759SOL    HW212177   4.589   5.716   6.010
 3760SOL     OW12178   1.751   2.092   4.827
 3760SOL    HW112179   1.742   2.156   4.751
 3760SOL    HW212180   1.841   2.104   4.870
 3761SOL     OW12181   0.810   0.941   5.280
 3761SOL    HW112182   0.733   0.881   5.301
 3761SOL    HW212183   0.895   0.888   5.283
 3762SOL     OW12184   1.205   4.654   0.245
 3762SOL    HW112185   1.272   4.685   0.178
 3762SOL    HW212186   1.122   4.708   0.236
 3763SOL     OW12187   6.896   4.627   0.463
 3763SOL    HW112188   6.895   4.538   0.509
 3763SOL    HW212189   6.946   4.693   0.519
 3764SOL     OW12190   1.657   6.840   4.295
 3764SOL    HW112191   1.682   6.920   4.242
 3764SOL    HW212192   1.648   6.865   4.392
 3765SOL     OW12193   5.058   0.820   1.059
 3765SOL    HW112194   4.980   0.839   1.000
 3765SOL    HW212195   5.043   0.860   1.149
 3766SOL     OW12196   1.217   1.523   3.488
 3766SOL    HW112197   1.298   1.578   3.468
 3766SOL    HW212198   1.238   1.426   3.474
 3767SOL     OW12199   2.548   4.559   0.882
 3767SOL    HW112200   2.599   4.601   0.958
 3767SOL    HW212201   2.610   4.504   0.826
 3768SOL     OW12202   2.004   5.874   4.810
 3768SOL    HW112203   2.055   5.802   4.857
 3768SOL    HW212204   1.922   5.896   4.862
 3769SOL     OW12205   5.910   6.177   5.674
 3769SOL    HW112206   5.971   6.097   5.680
 3769SOL    HW212207   5.912   6.213   5.581
 3770SOL     OW12208   1.869   0.315   6.591
 3770SOL    HW112209   1.801   0.242   6.578
 3770SOL    HW212210   1.949   0.278   6.637
 3771SOL     OW12211   5.855   3.174   0.226
 3771SOL    HW112212   5.781   3.200   0.289
 3771SOL    HW212213   5.878   3.252   0.168
 3772SOL     OW12214   6.802   1.010   0.354
 3772SOL    HW112215   6.740   0.932   0.349
 3772SOL    HW212216   6.875   0.991   0.420
 3773SOL     OW12217   6.532   3.022   6.005
 3773SOL    HW112218   6.506   3.116   5.985
 3773SOL    HW212219   6.627   3.007   5.977
 3774SOL     OW12220   0.036   5.570   0.132
 3774SOL    HW112221   0.016   5.666   0.112
 3774SOL    HW212222   0.100   5.535   0.064
 3775SOL     OW12223   5.239   5.092   2.216
 3775SOL    HW112224   5.224   5.179   2.263
 3775SOL    HW212225   5.264   5.022   2.283
 3776SOL     OW12226   4.024   1.563   1.187
 3776SOL    HW112227   4.101   1.543   1.126
 3776SOL    HW212228   3.959   1.624   1.141
 3777SOL     OW12229   3.398   4.962   4.355
 3777SOL    HW112230   3.478   4.906   4.335
 3777SOL    HW212231   3.315   4.906   4.345
 3778SOL     OW12232   3.185   4.961   2.450
 3778SOL    HW112233   3.265   4.913   2.486
 3778SOL    HW212234   3.102   4.922   2.489
 3779SOL     OW12235   1.978   5.332   0.949
 3779SOL    HW112236   2.018   5.413   0.991
 3779SOL    HW212237   1.886   5.317   0.986
 3780SOL     OW12238   5.340   6.128   5.876
 3780SOL    HW112239   5.361   6.032   5.896
 3780SOL    HW212240   5.275   6.134   5.801
 3781SOL     OW12241   1.230   6.741   4.428
 3781SOL    HW112242   1.242   6.827   4.476
 3781SOL    HW212243   1.263   6.666   4.485
 3782SOL     OW12244   2.830   0.865   4.191
 3782SOL    HW112245   2.845   0.901   4.099
 3782SOL    HW212246   2.740   0.820   4.195
 3783SOL     OW12247   5.431   5.279   4.047
 3783SOL    HW112248   5.425   5.211   4.120
 3783SOL    HW212249   5.350   5.337   4.048
 3784SOL     OW12250   4.729   2.487   2.459
 3784SOL    HW112251   4.734   2.388   2.452
 3784SOL    HW212252   4.637   2.518   2.433
 3785SOL     OW12253   1.416   1.513   6.916
 3785SOL    HW112254   1.387   1.590   6.973
 3785SOL    HW212255   1.508   1.530   6.881
 3786SOL     OW12256   1.867   6.563   2.622
 3786SOL    HW112257   1.842   6.657   2.598
 3786SOL    HW212258   1.805   6.499   2.577
 3787SOL     OW12259   6.220   0.450   2.352
 3787SOL    HW112260   6.290   0.389   2.315
 3787SOL    HW212261   6.192   0.516   2.283
 3788SOL     OW12262   1.159   4.244   4.239
 3788SOL    HW112263   1.197   4.155   4.264
 3788SOL    HW212264   1.189   4.313   4.306
 3789SOL     OW12265   0.412   3.394   5.224
 3789SOL    HW112266   0.403   3.398   5.324
 3789SOL    HW212267   0.486   3.454   5.195
 3790SOL     OW12268   1.739   4.874   5.303
 3790SOL    HW112269   1.685   4.802   5.260
 3790SOL    HW212270   1.682   4.928   5.364
 3791SOL     OW12271   6.125   0.259   0.338
 3791SOL    HW112272   6.140   0.295   0.246
 3791SOL    HW212273   6.029   0.232   0.348
 3792SOL     OW12274   0.812   1.636   4.526
 3792SOL    HW112275   0.747   1.710   4.508
 3792SOL    HW212276   0.820   1.623   4.625
 3793SOL     OW12277   4.280   0.103   2.545
 3793SOL    HW112278   4.356   0.143   2.596
 3793SOL    HW212279   4.227   0.044   2.605
 3794SOL     OW12280   2.530   4.242   1.082
 3794SOL    HW112281   2.461   4.284   1.022
 3794SOL    HW212282   2.620   4.248   1.039
 3795SOL     OW12283   4.729   5.950   6.652
 3795SOL    HW112284   4.695   5.953   6.558
 3795SOL    HW212285   4.652   5.944   6.715
 3796SOL     OW12286   2.376   1.492   1.326
 3796SOL    HW112287   2.320   1.565   1.366
 3796SOL    HW212288   2.349   1.404   1.365
 3797SOL     OW12289   0.395   4.072   2.535
 3797SOL    HW112290   0.476   4.128   2.519
 3797SOL    HW212291   0.313   4.129   2.526
 3798SOL     OW12292   3.124   5.598   2.552
 3798SOL    HW112293   3.062   5.639   2.485
 3798SOL    HW212294   3.103   5.634   2.643
 3799SOL     OW12295   0.759   2.335   4.351
 3799SOL    HW112296   0.765   2.425   4.394
 3799SOL    HW212297   0.664   2.304   4.351
 3800SOL     OW12298   5.506   3.281   4.485
 3800SOL    HW112299   5.591   3.312   4.526
 3800SOL    HW212300   5.429   3.313   4.541
 3801SOL     OW12301   6.232   6.549   2.746
 3801SOL    HW112302   6.209   6.470   2.802
 3801SOL    HW212303   6.175   6.627   2.772
 3802SOL     OW12304   1.139   2.375   2.689
 3802SOL    HW112305   1.234   2.370   2.656
 3802SOL    HW212306   1.076   2.365   2.612
 3803SOL     OW12307   3.639   2.368   1.405
 3803SOL    HW112308   3.696   2.297   1.364
 3803SOL    HW212309   3.628   2.351   1.503
 3804SOL     OW12310   5.482   1.430   3.667
 3804SOL    HW112311   5.456   1.340   3.700
 3804SOL    HW212312   5.400   1.480   3.638
 3805SOL     OW12313   2.951   3.090   1.982
 3805SOL    HW112314   2.947   3.021   1.910
 3805SOL    HW212315   2.884   3.161   1.963
 3806SOL     OW12316   3.911   4.161   6.740
 3806SOL    HW112317   3.860   4.076   6.729
 3806SOL    HW212318   3.889   4.222   6.664
 3807SOL     OW12319   2.032   6.256   3.374
 3807SOL    HW112320   2.085   6.185   3.420
 3807SOL    HW212321   1.981   6.309   3.442
 3808SOL     OW12322   4.747   0.119   0.972
 3808SOL    HW112323   4.801   0.178   1.032
 3808SOL    HW212324   4.791   0.113   0.883
 3809SOL     OW12325   5.917   2.879   0.825
 3809SOL    HW112326   5.970   2.833   0.896
 3809SOL    HW212327   5.863   2.952   0.867
 3810SOL     OW12328   4.670   2.781   4.607
 3810SOL    HW112329   4.669   2.879   4.587
 3810SOL    HW212330   4.690   2.730   4.524
 3811SOL     OW12331   0.935   4.092   3.976
 3811SOL    HW112332   0.877   4.120   3.899
 3811SOL    HW212333   1.010   4.156   3.987
 3812SOL     OW12334   5.476   0.126   5.593
 3812SOL    HW112335   5.456   0.173   5.679
 3812SOL    HW212336   5.457   0.187   5.516
 3813SOL     OW12337   4.555   4.479   0.193
 3813SOL    HW112338   4.457   4.489   0.210
 3813SOL    HW212339   4.572   4.393   0.145
 3814SOL     OW12340   0.111   6.562   0.474
 3814SOL    HW112341   0.149   6.577   0.565
 3814SOL    HW212342   0.150   6.628   0.409
 3815SOL     OW12343   4.378   3.042   6.637
 3815SOL    HW112344   4.367   3.088   6.725
 3815SOL    HW212345   4.348   2.947   6.645
 3816SOL     OW12346   0.590   5.997   6.988
 3816SOL    HW112347   0.658   5.966   6.922
 3816SOL    HW212348   0.536   5.919   7.019
 3817SOL     OW12349   5.113   3.820   2.720
 3817SOL    HW112350   5.153   3.875   2.793
 3817SOL    HW212351   5.116   3.723   2.746
 3818SOL     OW12352   5.399   0.470   0.182
 3818SOL    HW112353   5.309   0.453   0.221
 3818SOL    HW212354   5.420   0.400   0.113
 3819SOL     OW12355   5.141   5.566   1.401
 3819SOL    HW112356   5.077   5.632   1.361
 3819SOL    HW212357   5.123   5.476   1.363
 3820SOL     OW12358   6.310   6.669   3.123
 3820SOL    HW112359   6.371   6.675   3.202
 3820SOL    HW212360   6.256   6.752   3.115
 3821SOL     OW12361   2.971   1.851   0.959
 3821SOL    HW112362   2.904   1.801   0.904
 3821SOL    HW212363   2.936   1.862   1.052
 3822SOL     OW12364   1.126   6.516   2.606
 3822SOL    HW112365   1.183   6.568   2.543
 3822SOL    HW212366   1.183   6.470   2.673
 3823SOL     OW12367   3.050   2.722   6.123
 3823SOL    HW112368   3.132   2.690   6.075
 3823SOL    HW212369   3.077   2.765   6.209
 3824SOL     OW12370   5.870   2.091   0.385
 3824SOL    HW112371   5.782   2.059   0.351
 3824SOL    HW212372   5.935   2.097   0.309
 3825SOL     OW12373   0.783   6.264   0.519
 3825SOL    HW112374   0.723   6.274   0.440
 3825SOL    HW212375   0.779   6.170   0.553
 3826SOL     OW12376   0.792   2.949   0.283
 3826SOL    HW112377   0.846   2.959   0.199
 3826SOL    HW212378   0.708   3.003   0.275
 3827SOL     OW12379   2.822   2.787   1.025
 3827SOL    HW112380   2.782   2.878   1.030
 3827SOL    HW212381   2.906   2.784   1.079
 3828SOL     OW12382   3.668   2.574   1.759
 3828SOL    HW112383   3.703   2.500   1.816
 3828SOL    HW212384   3.610   2.536   1.687
 3829SOL     OW12385   1.866   4.714   4.457
 3829SOL    HW112386   1.904   4.786   4.516
 3829SOL    HW212387   1.821   4.645   4.514
 3830SOL     OW12388   0.644   0.061   4.404
 3830SOL    HW112389   0.610   0.145   4.446
 3830SOL    HW212390   0.566   0.004   4.376
 3831SOL     OW12391   4.869   1.769   2.397
 3831SOL    HW112392   4.944   1.828   2.426
 3831SOL    HW212393   4.830   1.803   2.311
 3832SOL     OW12394   5.565   0.448   2.628
 3832SOL    HW112395   5.565   0.464   2.726
 3832SOL    HW212396   5.581   0.351   2.609
 3833SOL     OW12397   0.778   5.792   6.179
 3833SOL    HW112398   0.807   5.699   6.155
 3833SOL    HW212399   0.764   5.845   6.096
 3834SOL     OW12400   4.143   2.963   1.178
 3834SOL    HW112401   4.088   2.936   1.099
 3834SOL    HW212402   4.096   3.036   1.228
 3835SOL     OW12403   3.103   5.644   5.030
 3835SOL    HW112404   3.186   5.698   5.046
 3835SOL    HW212405   3.056   5.679   4.950
 3836SOL     OW12406   1.427   4.076   5.988
 3836SOL    HW112407   1.447   3.986   6.027
 3836SOL    HW212408   1.502   4.138   6.007
 3837SOL     OW12409   4.708   3.581   6.881
 3837SOL    HW112410   4.754   3.658   6.925
 3837SOL    HW212411   4.717   3.500   6.938
 3838SOL     OW12412   0.226   3.048   4.678
 3838SOL    HW112413   0.284   3.108   4.624
 3838SOL    HW212414   0.282   2.979   4.724
 3839SOL     OW12415   3.839   0.352   4.517
 3839SOL    HW112416   3.874   0.393   4.602
 3839SOL    HW212417   3.786   0.270   4.539
 3840SOL     OW12418   2.052   1.312   5.202
 3840SOL    HW112419   2.130   1.320   5.140
 3840SOL    HW212420   2.019   1.404   5.226
 3841SOL     OW12421   0.179   3.149   5.110
 3841SOL    HW112422   0.139   3.219   5.169
 3841SOL    HW212423   0.276   3.140   5.131
 3842SOL     OW12424   0.720   3.935   6.958
 3842SOL    HW112425   0.756   3.875   6.886
 3842SOL    HW212426   0.786   4.008   6.977
 3843SOL     OW12427   6.977   4.321   2.220
 3843SOL    HW112428   7.006   4.378   2.297
 3843SOL    HW212429   6.881   4.340   2.199
 3844SOL     OW12430   6.867   3.605   6.141
 3844SOL    HW112431   6.919   3.632   6.222
 3844SOL    HW212432   6.840   3.510   6.149
 3845SOL     OW12433   3.827   2.981   2.991
 3845SOL    HW112434   3.741   2.953   3.034
 3845SOL    HW212435   3.881   3.035   3.055
 3846SOL     OW12436   1.246   4.666   3.927
 3846SOL    HW112437   1.195   4.653   4.012
 3846SOL    HW212438   1.328   4.610   3.929
 3847SOL     OW12439   5.898   0.487   4.876
 3847SOL    HW112440   5.891   0.433   4.792
 3847SOL    HW212441   5.984   0.539   4.874
 3848SOL     OW12442   2.973   5.395   2.475
 3848SOL    HW112443   2.887   5.440   2.451
 3848SOL    HW212444   3.043   5.464   2.494
 3849SOL     OW12445   0.970   1.558   5.278
 3849SOL    HW112446   0.920   1.481   5.318
 3849SOL    HW212447   0.914   1.641   5.285
 3850SOL     OW12448   2.780   3.617   1.324
 3850SOL    HW112449   2.866   3.644   1.282
 3850SOL    HW212450   2.761   3.677   1.402
 3851SOL     OW12451   1.463   4.714   3.051
 3851SOL    HW112452   1.387   4.677   2.998
 3851SOL    HW212453   1.543   4.654   3.040
 3852SOL     OW12454   4.859   6.474   4.443
 3852SOL    HW112455   4.900   6.452   4.354
 3852SOL    HW212456   4.872   6.571   4.462
 3853SOL     OW12457   1.733   3.202   2.875
 3853SOL    HW112458   1.743   3.150   2.960
 3853SOL    HW212459   1.784   3.288   2.882
 3854SOL     OW12460   1.774   3.641   2.681
 3854SOL    HW112461   1.771   3.563   2.618
 3854SOL    HW212462   1.869   3.667   2.698
 3855SOL     OW12463   4.687   6.350   6.692
 3855SOL    HW112464   4.738   6.405   6.625
 3855SOL    HW212465   4.607   6.310   6.647
 3856SOL     OW12466   6.464   6.229   5.527
 3856SOL    HW112467   6.501   6.311   5.570
 3856SOL    HW212468   6.391   6.254   5.464
 3857SOL     OW12469   1.051   5.854   6.094
 3857SOL    HW112470   1.075   5.780   6.032
 3857SOL    HW212471   0.972   5.826   6.149
 3858SOL     OW12472   1.603   5.902   5.594
 3858SOL    HW112473   1.622   5.843   5.672
 3858SOL    HW212474   1.678   5.893   5.527
 3859SOL     OW12475   6.432   2.217   3.489
 3859SOL    HW112476   6.364   2.229   3.561
 3859SOL    HW212477   6.469   2.307   3.463
 3860SOL     OW12478   0.803   0.641   5.637
 3860SOL    HW112479   0.723   0.700   5.650
 3860SOL    HW212480   0.828   0.639   5.540
 3861SOL     OW12481   4.921   4.400   1.786
 3861SOL    HW112482   4.876   4.422   1.873
 3861SOL    HW212483   4.973   4.478   1.754
 3862SOL     OW12484   0.480   6.858   4.743
 3862SOL    HW112485   0.464   6.777   4.799
 3862SOL    HW212486   0.436   6.846   4.654
 3863SOL     OW12487   3.971   3.898   6.187
 3863SOL    HW112488   3.987   3.896   6.088
 3863SOL    HW212489   4.058   3.895   6.235
 3864SOL     OW12490   3.651   1.430   5.007
 3864SOL    HW112491   3.723   1.454   4.942
 3864SOL    HW212492   3.578   1.498   5.003
 3865SOL     OW12493   4.123   0.233   1.008
 3865SOL    HW112494   4.105   0.331   1.013
 3865SOL    HW212495   4.086   0.187   1.089
 3866SOL     OW12496   4.421   0.748   0.929
 3866SOL    HW112497   4.454   0.700   1.010
 3866SOL    HW212498   4.321   0.755   0.933
 3867SOL     OW12499   1.784   3.444   3.702
 3867SOL    HW112500   1.736   3.357   3.696
 3867SOL    HW212501   1.758   3.503   3.625
 3868SOL     OW12502   2.559   6.473   1.281
 3868SOL    HW112503   2.506   6.390   1.296
 3868SOL    HW212504   2.651   6.448   1.248
 3869SOL     OW12505   0.017   2.950   4.510
 3869SOL    HW112506   0.115   2.939   4.527
 3869SOL    HW212507   7.015   3.047   4.515
 3870SOL     OW12508   4.754   4.694   0.529
 3870SOL    HW112509   4.711   4.757   0.594
 3870SOL    HW212510   4.749   4.732   0.437
 3871SOL     OW12511   4.051   0.927   2.937
 3871SOL    HW112512   4.143   0.913   2.972
 3871SOL    HW212513   3.991   0.957   3.011
 3872SOL     OW12514   3.235   2.941   2.277
 3872SOL    HW112515   3.310   2.964   2.214
 3872SOL    HW212516   3.273   2.901   2.360
 3873SOL     OW12517   6.815   5.824   1.258
 3873SOL    HW112518   6.818   5.760   1.181
 3873SOL    HW212519   6.723   5.864   1.265
 3874SOL     OW12520   4.095   6.098   0.130
 3874SOL    HW112521   4.185   6.074   0.167
 3874SOL    HW212522   4.030   6.024   0.147
 3875SOL     OW12523   1.290   3.097   2.136
 3875SOL    HW112524   1.278   3.025   2.068
 3875SOL    HW212525   1.263   3.063   2.226
 3876SOL     OW12526   5.689   5.480   6.643
 3876SOL    HW112527   5.777   5.515   6.677
 3876SOL    HW212528   5.680   5.384   6.667
 3877SOL     OW12529   6.716   2.223   0.485
 3877SOL    HW112530   6.719   2.182   0.576
 3877SOL    HW212531   6.792   2.191   0.430
 3878SOL     OW12532   2.294   6.193   5.654
 3878SOL    HW112533   2.203   6.163   5.685
 3878SOL    HW212534   2.318   6.144   5.569
 3879SOL     OW12535   4.383   6.490   1.362
 3879SOL    HW112536   4.297   6.472   1.411
 3879SOL    HW212537   4.392   6.426   1.286
 3880SOL     OW12538   5.576   4.031   3.507
 3880SOL    HW112539   5.648   4.004   3.571
 3880SOL    HW212540   5.509   3.958   3.499
 3881SOL     OW12541   1.391   4.889   0.330
 3881SOL    HW112542   1.339   4.923   0.251
 3881SOL    HW212543   1.475   4.942   0.339
 3882SOL     OW12544   6.441   0.993   5.024
 3882SOL    HW112545   6.457   1.067   5.089
 3882SOL    HW212546   6.376   1.024   4.955
 3883SOL     OW12547   4.421   1.238   3.807
 3883SOL    HW112548   4.510   1.272   3.777
 3883SOL    HW212549   4.380   1.182   3.736
 3884SOL     OW12550   0.832   5.764   4.452
 3884SOL    HW112551   0.822   5.670   4.485
 3884SOL    HW212552   0.876   5.819   4.522
 3885SOL     OW12553   6.170   0.931   4.695
 3885SOL    HW112554   6.183   1.008   4.757
 3885SOL    HW212555   6.247   0.927   4.631
 3886SOL     OW12556   6.647   0.005   5.098
 3886SOL    HW112557   6.564   6.972   5.091
 3886SOL    HW212558   6.711   6.999   5.026
 3887SOL     OW12559   5.423   2.025   5.744
 3887SOL    HW112560   5.386   1.962   5.675
 3887SOL    HW212561   5.488   1.977   5.802
 3888SOL     OW12562   0.297   0.397   6.096
 3888SOL    HW112563   0.300   0.495   6.111
 3888SOL    HW212564   0.317   0.350   6.182
 3889SOL     OW12565   6.798   3.643   6.704
 3889SOL    HW112566   6.731   3.571   6.721
 3889SOL    HW212567   6.781   3.720   6.766
 3890SOL     OW12568   6.768   6.555   3.194
 3890SOL    HW112569   6.732   6.634   3.145
 3890SOL    HW212570   6.693   6.492   3.214
 3891SOL     OW12571   5.480   4.426   4.695
 3891SOL    HW112572   5.524   4.425   4.605
 3891SOL    HW212573   5.422   4.507   4.702
 3892SOL     OW12574   0.821   0.179   2.187
 3892SOL    HW112575   0.869   0.186   2.275
 3892SOL    HW212576   0.755   0.104   2.190
 3893SOL     OW12577   3.236   5.747   2.203
 3893SOL    HW112578   3.209   5.671   2.144
 3893SOL    HW212579   3.254   5.828   2.146
 3894SOL     OW12580   3.409   2.247   1.174
 3894SOL    HW112581   3.407   2.258   1.075
 3894SOL    HW212582   3.482   2.304   1.212
 3895SOL     OW12583   0.749   1.086   5.741
 3895SOL    HW112584   0.659   1.095   5.784
 3895SOL    HW212585   0.801   1.170   5.756
 3896SOL     OW12586   0.480   2.551   5.764
 3896SOL    HW112587   0.572   2.590   5.766
 3896SOL    HW212588   0.412   2.624   5.774
 3897SOL     OW12589   2.932   6.755   2.323
 3897SOL    HW112590   2.871   6.680   2.296
 3897SOL    HW212591   2.934   6.762   2.423
 3898SOL     OW12592   3.437   2.916   3.414
 3898SOL    HW112593   3.345   2.941   3.385
 3898SOL    HW212594   3.436   2.892   3.511
 3899SOL     OW12595   4.937   1.212   4.718
 3899SOL    HW112596   4.908   1.144   4.651
 3899SOL    HW212597   5.019   1.180   4.766
 3900SOL     OW12598   5.611   3.149   3.492
 3900SOL    HW112599   5.622   3.079   3.421
 3900SOL    HW212600   5.518   3.146   3.527
 3901SOL     OW12601   2.001   6.211   5.978
 3901SOL    HW112602   1.985   6.307   5.999
 3901SOL    HW212603   2.078   6.178   6.032
 3902SOL     OW12604   4.571   4.386   2.323
 3902SOL    HW112605   4.558   4.299   2.275
 3902SOL    HW212606   4.640   4.375   2.395
 3903SOL     OW12607   4.200   4.204   6.715
 3903SOL    HW112608   4.126   4.165   6.770
 3903SOL    HW212609   4.163   4.273   6.653
 3904SOL     OW12610   0.846   0.009   6.813
 3904SOL    HW112611   0.889   6.949   6.851
 3904SOL    HW212612   0.788   0.052   6.882
 3905SOL     OW12613   6.226   6.949   6.618
 3905SOL    HW112614   6.270   6.863   6.591
 3905SOL    HW212615   6.189   6.994   6.536
 3906SOL     OW12616   2.418   5.111   4.893
 3906SOL    HW112617   2.391   5.202   4.926
 3906SOL    HW212618   2.460   5.060   4.968
 3907SOL     OW12619   0.634   1.307   4.971
 3907SOL    HW112620   0.702   1.271   5.034
 3907SOL    HW212621   0.668   1.300   4.877
 3908SOL     OW12622   0.259   0.620   6.435
 3908SOL    HW112623   0.347   0.595   6.474
 3908SOL    HW212624   0.189   0.555   6.463
 3909SOL     OW12625   5.377   4.013   6.495
 3909SOL    HW112626   5.385   4.086   6.426
 3909SOL    HW212627   5.429   3.933   6.465
 3910SOL     OW12628   3.837   4.020   1.871
 3910SOL    HW112629   3.780   4.044   1.949
 3910SOL    HW212630   3.932   4.006   1.902
 3911SOL     OW12631   5.412   0.820   0.880
 3911SOL    HW112632   5.444   0.737   0.926
 3911SOL    HW212633   5.312   0.823   0.884
 3912SOL     OW12634   3.195   1.510   6.013
 3912SOL    HW112635   3.294   1.518   5.997
 3912SOL    HW212636   3.148   1.500   5.925
 3913SOL     OW12637   3.602   5.710   6.882
 3913SOL    HW112638   3.534   5.770   6.839
 3913SOL    HW212639   3.595   5.719   6.981
 3914SOL     OW12640   5.303   1.322   1.866
 3914SOL    HW112641   5.361   1.279   1.796
 3914SOL    HW212642   5.255   1.251   1.918
 3915SOL     OW12643   3.724   6.504   0.040
 3915SOL    HW112644   3.660   6.428   0.025
 3915SOL    HW212645   3.795   6.475   0.104
 3916SOL     OW12646   3.008   6.867   2.870
 3916SOL    HW112647   3.099   6.867   2.828
 3916SOL    HW212648   2.992   6.955   2.914
 3917SOL     OW12649   2.723   5.280   0.156
 3917SOL    HW112650   2.773   5.366   0.151
 3917SOL    HW212651   2.756   5.219   0.084
 3918SOL     OW12652   4.624   1.203   0.342
 3918SOL    HW112653   4.660   1.143   0.271
 3918SOL    HW212654   4.524   1.194   0.346
 3919SOL     OW12655   4.160   0.833   0.673
 3919SOL    HW112656   4.241   0.883   0.705
 3919SOL    HW212657   4.088   0.898   0.649
 3920SOL     OW12658   1.982   1.410   6.507
 3920SOL    HW112659   1.951   1.330   6.557
 3920SOL    HW212660   1.971   1.491   6.564
 3921SOL     OW12661   6.667   3.083   6.880
 3921SOL    HW112662   6.731   3.137   6.935
 3921SOL    HW212663   6.697   2.987   6.880
 3922SOL     OW12664   4.678   5.143   1.588
 3922SOL    HW112665   4.602   5.202   1.615
 3922SOL    HW212666   4.749   5.198   1.544
 3923SOL     OW12667   6.002   1.653   1.210
 3923SOL    HW112668   6.065   1.581   1.181
 3923SOL    HW212669   5.945   1.620   1.286
 3924SOL     OW12670   0.548   4.209   3.344
 3924SOL    HW112671   0.508   4.251   3.263
 3924SOL    HW212672   0.497   4.238   3.425
 3925SOL     OW12673   4.503   4.106   0.942
 3925SOL    HW112674   4.517   4.113   1.040
 3925SOL    HW212675   4.407   4.084   0.923
 3926SOL     OW12676   0.902   0.192   6.073
 3926SOL    HW112677   0.872   0.283   6.103
 3926SOL    HW212678   0.825   0.129   6.076
 3927SOL     OW12679   0.933   3.187   3.925
 3927SOL    HW112680   0.998   3.251   3.884
 3927SOL    HW212681   0.971   3.095   3.923
 3928SOL     OW12682   2.668   6.725   2.727
 3928SOL    HW112683   2.735   6.756   2.795
 3928SOL    HW212684   2.644   6.801   2.668
 3929SOL     OW12685   0.023   1.424   6.951
 3929SOL    HW112686   0.123   1.419   6.947
 3929SOL    HW212687   7.006   1.350   6.896
 3930SOL     OW12688   1.151   1.915   3.903
 3930SOL    HW112689   1.225   1.962   3.950
 3930SOL    HW212690   1.159   1.816   3.919
 3931SOL     OW12691   1.806   1.923   1.642
 3931SOL    HW112692   1.849   1.859   1.706
 3931SOL    HW212693   1.831   2.017   1.666
 3932SOL     OW12694   2.310   5.415   4.202
 3932SOL    HW112695   2.333   5.370   4.288
 3932SOL    HW212696   2.388   5.471   4.172
 3933SOL     OW12697   0.935   5.890   0.123
 3933SOL    HW112698   1.017   5.878   0.179
 3933SOL    HW212699   0.904   5.801   0.090
 3934SOL     OW12700   0.350   1.923   3.129
 3934SOL    HW112701   0.413   1.848   3.147
 3934SOL    HW212702   0.257   1.888   3.119
 3935SOL     OW12703   6.235   2.505   6.319
 3935SOL    HW112704   6.305   2.556   6.269
 3935SOL    HW212705   6.154   2.493   6.260
 3936SOL     OW12706   6.511   5.776   5.238
 3936SOL    HW112707   6.450   5.739   5.309
 3936SOL    HW212708   6.606   5.763   5.267
 3937SOL     OW12709   0.436   5.413   2.491
 3937SOL    HW112710   0.451   5.365   2.405
 3937SOL    HW212711   0.340   5.443   2.496
 3938SOL     OW12712   6.806   3.255   4.714
 3938SOL    HW112713   6.798   3.349   4.748
 3938SOL    HW212714   6.886   3.248   4.655
 3939SOL     OW12715   1.929   0.722   2.644
 3939SOL    HW112716   1.897   0.654   2.709
 3939SOL    HW212717   1.868   0.801   2.645
 3940SOL     OW12718   3.024   4.919   2.009
 3940SOL    HW112719   2.948   4.863   2.040
 3940SOL    HW212720   3.106   4.898   2.062
 3941SOL     OW12721   5.874   0.103   4.463
 3941SOL    HW112722   5.914   0.016   4.492
 3941SOL    HW212723   5.857   0.160   4.543
 3942SOL     OW12724   1.480   6.110   5.977
 3942SOL    HW112725   1.481   6.134   6.074
 3942SOL    HW212726   1.549   6.163   5.929
 3943SOL     OW12727   1.341   3.616   1.866
 3943SOL    HW112728   1.325   3.564   1.949
 3943SOL    HW212729   1.436   3.648   1.864
 3944SOL     OW12730   5.330   2.704   5.848
 3944SOL    HW112731   5.275   2.785   5.867
 3944SOL    HW212732   5.272   2.623   5.849
 3945SOL     OW12733   0.881   2.591   3.059
 3945SOL    HW112734   0.853   2.687   3.049
 3945SOL    HW212735   0.938   2.565   2.981
 3946SOL     OW12736   6.876   3.195   0.034
 3946SOL    HW112737   6.854   3.169   0.128
 3946SOL    HW212738   6.819   3.272   0.006
 3947SOL     OW12739   5.932   5.425   0.388
 3947SOL    HW112740   5.868   5.352   0.364
 3947SOL    HW212741   5.882   5.505   0.421
 3948SOL     OW12742   1.662   3.870   6.898
 3948SOL    HW112743   1.690   3.961   6.925
 3948SOL    HW212744   1.578   3.844   6.946
 3949SOL     OW12745   6.561   6.970   2.658
 3949SOL    HW112746   6.587   0.037   2.696
 3949SOL    HW212747   6.472   6.942   2.695
 3950SOL     OW12748   4.160   4.192   1.712
 3950SOL    HW112749   4.149   4.093   1.716
 3950SOL    HW212750   4.237   4.219   1.768
 3951SOL     OW12751   0.662   2.840   6.160
 3951SOL    HW112752   0.719   2.878   6.233
 3951SOL    HW212753   0.663   2.901   6.081
 3952SOL     OW12754   5.812   2.525   4.114
 3952SOL    HW112755   5.885   2.457   4.125
 3952SOL    HW212756   5.725   2.479   4.102
 3953SOL     OW12757   3.435   4.559   5.941
 3953SOL    HW112758   3.439   4.482   5.877
 3953SOL    HW212759   3.386   4.635   5.899
 3954SOL     OW12760   6.193   3.548   5.780
 3954SOL    HW112761   6.170   3.508   5.691
 3954SOL    HW212762   6.111   3.588   5.820
 3955SOL     OW12763   4.922   6.419   0.614
 3955SOL    HW112764   4.918   6.469   0.527
 3955SOL    HW212765   4.850   6.452   0.675
 3956SOL     OW12766   1.133   2.832   5.452
 3956SOL    HW112767   1.193   2.756   5.476
 3956SOL    HW212768   1.187   2.916   5.443
 3957SOL     OW12769   3.167   6.689   3.880
 3957SOL    HW112770   3.101   6.639   3.824
 3957SOL    HW212771   3.145   6.787   3.879
 3958SOL     OW12772   6.271   6.978   0.218
 3958SOL    HW112773   6.357   6.939   0.249
 3958SOL    HW212774   6.208   6.985   0.295
 3959SOL     OW12775   3.308   5.426   0.857
 3959SOL    HW112776   3.219   5.429   0.902
 3959SOL    HW212777   3.343   5.519   0.845
 3960SOL     OW12778   4.601   2.642   6.564
 3960SOL    HW112779   4.635   2.733   6.540
 3960SOL    HW212780   4.569   2.643   6.659
 3961SOL     OW12781   5.284   2.055   1.946
 3961SOL    HW112782   5.304   2.153   1.944
 3961SOL    HW212783   5.341   2.008   1.878
 3962SOL     OW12784   0.739   5.521   0.247
 3962SOL    HW112785   0.771   5.439   0.199
 3962SOL    HW212786   0.738   5.504   0.345
 3963SOL     OW12787   5.493   5.318   3.119
 3963SOL    HW112788   5.516   5.245   3.055
 3963SOL    HW212789   5.504   5.407   3.073
 3964SOL     OW12790   4.685   6.236   4.804
 3964SOL    HW112791   4.707   6.279   4.892
 3964SOL    HW212792   4.762   6.179   4.775
 3965SOL     OW12793   3.343   4.524   6.491
 3965SOL    HW112794   3.245   4.528   6.512
 3965SOL    HW212795   3.358   4.465   6.411
 3966SOL     OW12796   6.385   4.403   6.408
 3966SOL    HW112797   6.426   4.320   6.370
 3966SOL    HW212798   6.330   4.378   6.488
 3967SOL     OW12799   1.082   5.078   3.792
 3967SOL    HW112800   0.989   5.042   3.801
 3967SOL    HW212801   1.147   5.003   3.790
 3968SOL     OW12802   5.313   0.354   2.981
 3968SOL    HW112803   5.402   0.397   2.972
 3968SOL    HW212804   5.318   0.280   3.047
 3969SOL     OW12805   1.209   4.954   2.837
 3969SOL    HW112806   1.290   4.926   2.786
 3969SOL    HW212807   1.129   4.907   2.802
 3970SOL     OW12808   4.567   4.613   3.683
 3970SOL    HW112809   4.585   4.518   3.660
 3970SOL    HW212810   4.473   4.622   3.716
 3971SOL     OW12811   2.610   5.619   3.038
 3971SOL    HW112812   2.659   5.615   2.952
 3971SOL    HW212813   2.531   5.680   3.029
 3972SOL     OW12814   0.319   6.035   0.466
 3972SOL    HW112815   0.413   6.006   0.486
 3972SOL    HW212816   0.319   6.131   0.438
 3973SOL     OW12817   3.121   3.325   5.261
 3973SOL    HW112818   3.193   3.271   5.218
 3973SOL    HW212819   3.038   3.269   5.271
 3974SOL     OW12820   0.532   1.285   6.609
 3974SOL    HW112821   0.497   1.351   6.542
 3974SOL    HW212822   0.593   1.220   6.564
 3975SOL     OW12823   6.594   0.538   5.656
 3975SOL    HW112824   6.625   0.627   5.690
 3975SOL    HW212825   6.662   0.502   5.592
 3976SOL     OW12826   1.222   4.544   1.109
 3976SOL    HW112827   1.235   4.611   1.182
 3976SOL    HW212828   1.205   4.454   1.149
 3977SOL     OW12829   2.619   5.889   5.905
 3977SOL    HW112830   2.713   5.860   5.889
 3977SOL    HW212831   2.586   5.848   5.990
 3978SOL     OW12832   5.476   1.384   5.688
 3978SOL    HW112833   5.462   1.286   5.703
 3978SOL    HW212834   5.571   1.407   5.705
 3979SOL     OW12835   2.401   0.138   1.386
 3979SOL    HW112836   2.441   0.053   1.351
 3979SOL    HW212837   2.337   0.174   1.318
 3980SOL     OW12838   5.745   3.552   4.881
 3980SOL    HW112839   5.664   3.606   4.904
 3980SOL    HW212840   5.818   3.574   4.945
 3981SOL     OW12841   0.115   2.389   6.208
 3981SOL    HW112842   0.151   2.297   6.192
 3981SOL    HW212843   0.031   2.384   6.262
 3982SOL     OW12844   2.357   1.065   4.799
 3982SOL    HW112845   2.319   1.065   4.892
 3982SOL    HW212846   2.455   1.045   4.804
 3983SOL     OW12847   3.229   6.248   4.325
 3983SOL    HW112848   3.281   6.163   4.313
 3983SOL    HW212849   3.133   6.232   4.300
 3984SOL     OW12850   1.888   0.182   2.036
 3984SOL    HW112851   1.820   0.221   1.974
 3984SOL    HW212852   1.972   0.161   1.985
 3985SOL     OW12853   2.008   4.319   0.009
 3985SOL    HW112854   2.085   4.337   0.070
 3985SOL    HW212855   1.993   4.398   6.972
 3986SOL     OW12856   0.268   2.147   2.307
 3986SOL    HW112857   0.179   2.106   2.289
 3986SOL    HW212858   0.257   2.222   2.372
 3987SOL     OW12859   1.618   5.699   5.206
 3987SOL    HW112860   1.627   5.798   5.220
 3987SOL    HW212861   1.583   5.681   5.115
 3988SOL     OW12862   3.317   2.107   5.959
 3988SOL    HW112863   3.347   2.102   6.054
 3988SOL    HW212864   3.250   2.181   5.948
 3989SOL     OW12865   6.120   0.046   6.383
 3989SOL    HW112866   6.198   0.063   6.323
 3989SOL    HW212867   6.044   0.007   6.330
 3990SOL     OW12868   5.750   2.544   4.961
 3990SOL    HW112869   5.799   2.514   5.043
 3990SOL    HW212870   5.651   2.544   4.979
 3991SOL     OW12871   0.180   2.658   3.480
 3991SOL    HW112872   0.187   2.597   3.559
 3991SOL    HW212873   0.217   2.611   3.399
 3992SOL     OW12874   3.756   3.255   6.463
 3992SOL    HW112875   3.831   3.237   6.399
 3992SOL    HW212876   3.787   3.315   6.536
 3993SOL     OW12877   2.835   1.982   2.747
 3993SOL    HW112878   2.814   1.886   2.728
 3993SOL    HW212879   2.759   2.039   2.715
 3994SOL     OW12880   2.329   2.520   5.305
 3994SOL    HW112881   2.311   2.584   5.381
 3994SOL    HW212882   2.388   2.563   5.238
 3995SOL     OW12883   2.240   4.203   3.411
 3995SOL    HW112884   2.254   4.172   3.317
 3995SOL    HW212885   2.287   4.290   3.425
 3996SOL     OW12886   1.744   1.193   4.723
 3996SOL    HW112887   1.660   1.235   4.758
 3996SOL    HW212888   1.726   1.153   4.633
 3997SOL     OW12889   4.966   3.822   3.029
 3997SOL    HW112890   4.938   3.887   3.099
 3997SOL    HW212891   5.012   3.745   3.072
 3998SOL     OW12892   6.030   2.155   2.193
 3998SOL    HW112893   6.118   2.144   2.147
 3998SOL    HW212894   5.964   2.091   2.154
 3999SOL     OW12895   6.348   3.774   3.566
 3999SOL    HW112896   6.403   3.748   3.645
 3999SOL    HW212897   6.400   3.756   3.482
 4000SOL     OW12898   3.125   5.424   2.907
 4000SOL    HW112899   3.029   5.397   2.899
 4000SOL    HW212900   3.138   5.514   2.864
 4001SOL     OW12901   2.538   3.975   5.599
 4001SOL    HW112902   2.633   3.972   5.628
 4001SOL    HW212903   2.528   3.931   5.510
 4002SOL     OW12904   3.595   2.853   4.247
 4002SOL    HW112905   3.567   2.899   4.331
 4002SOL    HW212906   3.690   2.822   4.257
 4003SOL     OW12907   1.607   0.962   6.519
 4003SOL    HW112908   1.688   0.983   6.465
 4003SOL    HW212909   1.599   1.029   6.593
 4004SOL     OW12910   0.068   3.390   4.093
 4004SOL    HW112911   0.009   3.360   4.018
 4004SOL    HW212912   0.065   3.490   4.100
 4005SOL     OW12913   4.442   4.598   1.108
 4005SOL    HW112914   4.464   4.695   1.097
 4005SOL    HW212915   4.369   4.573   1.044
 4006SOL     OW12916   5.398   4.729   2.133
 4006SOL    HW112917   5.477   4.764   2.083
 4006SOL    HW212918   5.329   4.696   2.068
 4007SOL     OW12919   0.590   2.530   2.922
 4007SOL    HW112920   0.675   2.484   2.897
 4007SOL    HW212921   0.517   2.462   2.933
 4008SOL     OW12922   3.085   0.669   6.251
 4008SOL    HW112923   3.083   0.569   6.248
 4008SOL    HW212924   2.992   0.704   6.255
 4009SOL     OW12925   4.811   1.969   1.256
 4009SOL    HW112926   4.884   2.004   1.198
 4009SOL    HW212927   4.827   1.997   1.351
 4010SOL     OW12928   3.230   3.569   1.821
 4010SOL    HW112929   3.248   3.472   1.802
 4010SOL    HW212930   3.233   3.621   1.736
 4011SOL     OW12931   6.902   6.510   2.002
 4011SOL    HW112932   6.888   6.590   1.944
 4011SOL    HW212933   6.993   6.514   2.043
 4012SOL     OW12934   4.761   6.556   2.533
 4012SOL    HW112935   4.738   6.580   2.627
 4012SOL    HW212936   4.814   6.472   2.532
 4013SOL     OW12937   2.299   0.714   1.241
 4013SOL    HW112938   2.355   0.765   1.306
 4013SOL    HW212939   2.348   0.632   1.211
 4014SOL     OW12940   3.239   5.387   3.772
 4014SOL    HW112941   3.176   5.400   3.848
 4014SOL    HW212942   3.192   5.339   3.698
 4015SOL     OW12943   4.925   4.843   6.408
 4015SOL    HW112944   4.826   4.828   6.410
 4015SOL    HW212945   4.944   4.935   6.374
 4016SOL     OW12946   3.043   5.949   6.906
 4016SOL    HW112947   3.083   5.887   6.974
 4016SOL    HW212948   2.945   5.932   6.898
 4017SOL     OW12949   0.297   5.704   5.826
 4017SOL    HW112950   0.241   5.702   5.910
 4017SOL    HW212951   0.323   5.611   5.801
 4018SOL     OW12952   4.406   6.783   1.712
 4018SOL    HW112953   4.429   6.754   1.804
 4018SOL    HW212954   4.309   6.767   1.694
 4019SOL     OW12955   5.732   4.060   2.228
 4019SOL    HW112956   5.648   4.106   2.259
 4019SOL    HW212957   5.715   3.962   2.220
 4020SOL     OW12958   6.410   3.125   5.463
 4020SOL    HW112959   6.383   3.162   5.374
 4020SOL    HW212960   6.503   3.089   5.458
 4021SOL     OW12961   3.674   4.331   5.236
 4021SOL    HW112962   3.691   4.312   5.140
 4021SOL    HW212963   3.593   4.390   5.244
 4022SOL     OW12964   3.514   6.645   6.607
 4022SOL    HW112965   3.546   6.597   6.526
 4022SOL    HW212966   3.501   6.580   6.682
 4023SOL     OW12967   0.053   0.521   5.445
 4023SOL    HW112968   0.053   0.457   5.522
 4023SOL    HW212969   0.125   0.495   5.380
 4024SOL     OW12970   2.516   4.500   4.204
 4024SOL    HW112971   2.571   4.472   4.126
 4024SOL    HW212972   2.450   4.427   4.226
 4025SOL     OW12973   0.722   6.384   4.157
 4025SOL    HW112974   0.674   6.406   4.072
 4025SOL    HW212975   0.745   6.469   4.205
 4026SOL     OW12976   5.658   6.948   4.083
 4026SOL    HW112977   5.636   0.001   4.146
 4026SOL    HW212978   5.653   6.982   3.989
 4027SOL     OW12979   2.381   2.554   0.383
 4027SOL    HW112980   2.468   2.590   0.350
 4027SOL    HW212981   2.380   2.556   0.483
 4028SOL     OW12982   4.437   1.630   3.871
 4028SOL    HW112983   4.369   1.579   3.924
 4028SOL    HW212984   4.446   1.590   3.780
 4029SOL     OW12985   2.935   4.378   5.687
 4029SOL    HW112986   2.928   4.450   5.617
 4029SOL    HW212987   2.930   4.420   5.778
 4030SOL     OW12988   6.844   1.124   2.094
 4030SOL    HW112989   6.759   1.177   2.087
 4030SOL    HW212990   6.828   1.031   2.061
 4031SOL     OW12991   5.369   5.991   3.364
 4031SOL    HW112992   5.274   5.958   3.365
 4031SOL    HW212993   5.377   6.069   3.302
 4032SOL     OW12994   6.901   6.859   1.999
 4032SOL    HW112995   6.997   6.832   2.010
 4032SOL    HW212996   6.873   6.913   2.078
 4033SOL     OW12997   2.401   3.230   1.478
 4033SOL    HW112998   2.431   3.304   1.418
 4033SOL    HW212999   2.333   3.265   1.542
 4034SOL     OW13000   5.938   1.591   5.085
 4034SOL    HW113001   5.899   1.581   5.177
 4034SOL    HW213002   6.010   1.660   5.088
 4035SOL     OW13003   6.503   2.044   1.257
 4035SOL    HW113004   6.530   2.100   1.179
 4035SOL    HW213005   6.414   2.002   1.239
 4036SOL     OW13006   3.951   4.847   2.431
 4036SOL    HW113007   4.035   4.794   2.443
 4036SOL    HW213008   3.915   4.833   2.339
 4037SOL     OW13009   1.850   1.659   0.225
 4037SOL    HW113010   1.785   1.711   0.169
 4037SOL    HW213011   1.912   1.723   0.270
 4038SOL     OW13012   4.204   2.786   1.610
 4038SOL    HW113013   4.232   2.872   1.653
 4038SOL    HW213014   4.109   2.792   1.581
 4039SOL     OW13015   5.829   5.392   1.544
 4039SOL    HW113016   5.842   5.294   1.554
 4039SOL    HW213017   5.765   5.425   1.613
 4040SOL     OW13018   3.363   6.688   5.044
 4040SOL    HW113019   3.374   6.636   5.129
 4040SOL    HW213020   3.403   6.779   5.055
 4041SOL     OW13021   0.587   5.061   1.130
 4041SOL    HW113022   0.620   4.967   1.136
 4041SOL    HW213023   0.647   5.114   1.070
 4042SOL     OW13024   5.765   5.922   4.557
 4042SOL    HW113025   5.719   5.911   4.469
 4042SOL    HW213026   5.732   5.853   4.621
 4043SOL     OW13027   6.863   2.548   5.482
 4043SOL    HW113028   6.768   2.564   5.510
 4043SOL    HW213029   6.898   2.629   5.435
 4044SOL     OW13030   4.572   6.795   3.755
 4044SOL    HW113031   4.530   6.855   3.686
 4044SOL    HW213032   4.562   6.836   3.845
 4045SOL     OW13033   4.333   5.887   5.734
 4045SOL    HW113034   4.380   5.975   5.723
 4045SOL    HW213035   4.297   5.857   5.646
 4046SOL     OW13036   1.504   1.558   3.768
 4046SOL    HW113037   1.552   1.588   3.686
 4046SOL    HW213038   1.529   1.618   3.845
 4047SOL     OW13039   2.061   2.374   0.208
 4047SOL    HW113040   2.055   2.436   0.286
 4047SOL    HW213041   1.975   2.378   0.157
 4048SOL     OW13042   5.162   1.822   1.699
 4048SOL    HW113043   5.108   1.752   1.652
 4048SOL    HW213044   5.235   1.778   1.751
 4049SOL     OW13045   5.242   5.255   6.414
 4049SOL    HW113046   5.280   5.295   6.330
 4049SOL    HW213047   5.304   5.185   6.449
 4050SOL     OW13048   0.984   6.736   1.656
 4050SOL    HW113049   1.026   6.728   1.746
 4050SOL    HW213050   1.051   6.769   1.590
 4051SOL     OW13051   3.645   1.702   6.694
 4051SOL    HW113052   3.554   1.677   6.728
 4051SOL    HW213053   3.713   1.686   6.766
 4052SOL     OW13054   6.873   1.489   2.124
 4052SOL    HW113055   6.775   1.500   2.104
 4052SOL    HW213056   6.886   1.413   2.187
 4053SOL     OW13057   3.003   5.930   3.619
 4053SOL    HW113058   3.068   5.856   3.606
 4053SOL    HW213059   3.006   5.962   3.714
 4054SOL     OW13060   5.684   4.025   0.849
 4054SOL    HW113061   5.632   3.969   0.914
 4054SOL    HW213062   5.740   3.965   0.791
 4055SOL     OW13063   2.739   3.179   0.066
 4055SOL    HW113064   2.780   3.230   7.013
 4055SOL    HW213065   2.757   3.226   0.152
 4056SOL     OW13066   5.164   3.854   0.916
 4056SOL    HW113067   5.192   3.841   0.821
 4056SOL    HW213068   5.100   3.931   0.921
 4057SOL     OW13069   6.899   2.435   1.387
 4057SOL    HW113070   6.920   2.532   1.373
 4057SOL    HW213071   6.831   2.406   1.319
 4058SOL     OW13072   2.021   0.055   5.232
 4058SOL    HW113073   1.922   0.042   5.232
 4058SOL    HW213074   2.045   0.131   5.292
 4059SOL     OW13075   0.489   1.504   2.975
 4059SOL    HW113076   0.546   1.426   2.999
 4059SOL    HW213077   0.416   1.475   2.913
 4060SOL     OW13078   5.451   5.643   4.787
 4060SOL    HW113079   5.429   5.738   4.807
 4060SOL    HW213080   5.482   5.598   4.871
 4061SOL     OW13081   2.611   4.605   2.348
 4061SOL    HW113082   2.565   4.524   2.385
 4061SOL    HW213083   2.658   4.653   2.422
 4062SOL     OW13084   2.490   1.414   1.860
 4062SOL    HW113085   2.438   1.329   1.872
 4062SOL    HW213086   2.587   1.392   1.850
 4063SOL     OW13087   6.156   6.490   0.066
 4063SOL    HW113088   6.209   6.562   0.110
 4063SOL    HW213089   6.201   6.463   7.002
 4064SOL     OW13090   2.245   0.241   3.746
 4064SOL    HW113091   2.271   0.331   3.709
 4064SOL    HW213092   2.289   0.169   3.693
 4065SOL     OW13093   1.587   6.699   1.406
 4065SOL    HW113094   1.589   6.786   1.358
 4065SOL    HW213095   1.513   6.642   1.370
 4066SOL     OW13096   6.113   4.797   3.412
 4066SOL    HW113097   6.103   4.804   3.313
 4066SOL    HW213098   6.131   4.887   3.451
 4067SOL     OW13099   6.319   3.239   2.866
 4067SOL    HW113100   6.401   3.200   2.908
 4067SOL    HW213101   6.331   3.242   2.767
 4068SOL     OW13102   1.780   1.522   4.669
 4068SOL    HW113103   1.865   1.483   4.703
 4068SOL    HW213104   1.742   1.463   4.598
 4069SOL     OW13105   2.958   5.459   6.596
 4069SOL    HW113106   2.928   5.554   6.590
 4069SOL    HW213107   3.058   5.455   6.587
 4070SOL     OW13108   0.830   3.584   1.898
 4070SOL    HW113109   0.756   3.517   1.899
 4070SOL    HW213110   0.883   3.574   1.814
 4071SOL     OW13111   1.410   1.042   5.192
 4071SOL    HW113112   1.390   1.041   5.290
 4071SOL    HW213113   1.384   1.131   5.154
 4072SOL     OW13114   0.152   5.757   4.405
 4072SOL    HW113115   0.195   5.842   4.376
 4072SOL    HW213116   0.199   5.723   4.487
 4073SOL     OW13117   2.902   6.095   6.029
 4073SOL    HW113118   2.983   6.113   6.085
 4073SOL    HW213119   2.889   6.171   5.965
 4074SOL     OW13120   0.004   3.774   2.206
 4074SOL    HW113121   0.093   3.761   2.249
 4074SOL    HW213122   6.954   3.769   2.275
 4075SOL     OW13123   4.377   2.112   1.955
 4075SOL    HW113124   4.293   2.081   2.000
 4075SOL    HW213125   4.389   2.210   1.971
 4076SOL     OW13126   2.949   2.406   5.824
 4076SOL    HW113127   2.868   2.352   5.804
 4076SOL    HW213128   2.936   2.499   5.789
 4077SOL     OW13129   3.079   1.302   0.093
 4077SOL    HW113130   3.125   1.346   0.015
 4077SOL    HW213131   3.147   1.252   0.147
 4078SOL     OW13132   0.510   5.678   1.273
 4078SOL    HW113133   0.553   5.757   1.227
 4078SOL    HW213134   0.418   5.664   1.236
 4079SOL     OW13135   1.598   0.599   3.646
 4079SOL    HW113136   1.552   0.680   3.609
 4079SOL    HW213137   1.547   0.564   3.725
 4080SOL     OW13138   3.992   4.696   6.232
 4080SOL    HW113139   4.092   4.694   6.237
 4080SOL    HW213140   3.962   4.672   6.139
 4081SOL     OW13141   2.008   2.770   4.645
 4081SOL    HW113142   2.082   2.752   4.710
 4081SOL    HW213143   1.945   2.692   4.644
 4082SOL     OW13144   1.018   3.594   0.701
 4082SOL    HW113145   0.955   3.528   0.659
 4082SOL    HW213146   1.005   3.684   0.658
 4083SOL     OW13147   0.046   4.464   1.965
 4083SOL    HW113148   6.986   4.465   1.908
 4083SOL    HW213149   0.032   4.401   2.041
 4084SOL     OW13150   5.374   2.129   3.461
 4084SOL    HW113151   5.426   2.049   3.432
 4084SOL    HW213152   5.437   2.204   3.481
 4085SOL     OW13153   2.820   5.709   1.312
 4085SOL    HW113154   2.775   5.677   1.228
 4085SOL    HW213155   2.756   5.704   1.388
 4086SOL     OW13156   0.954   5.543   1.954
 4086SOL    HW113157   0.934   5.631   1.912
 4086SOL    HW213158   0.876   5.481   1.940
 4087SOL     OW13159   1.475   1.466   3.204
 4087SOL    HW113160   1.496   1.383   3.256
 4087SOL    HW213161   1.476   1.545   3.265
 4088SOL     OW13162   6.712   0.959   6.741
 4088SOL    HW113163   6.660   0.911   6.671
 4088SOL    HW213164   6.790   0.903   6.770
 4089SOL     OW13165   6.282   5.638   4.333
 4089SOL    HW113166   6.343   5.593   4.398
 4089SOL    HW213167   6.311   5.618   4.240
 4090SOL     OW13168   1.899   5.245   5.314
 4090SOL    HW113169   1.831   5.242   5.387
 4090SOL    HW213170   1.875   5.178   5.243
 4091SOL     OW13171   6.620   6.120   6.995
 4091SOL    HW113172   6.527   6.094   6.970
 4091SOL    HW213173   6.624   6.219   7.012
 4092SOL     OW13174   6.412   2.351   5.441
 4092SOL    HW113175   6.325   2.395   5.418
 4092SOL    HW213176   6.477   2.420   5.472
 4093SOL     OW13177   4.727   6.266   2.210
 4093SOL    HW113178   4.644   6.217   2.236
 4093SOL    HW213179   4.793   6.264   2.286
 4094SOL     OW13180   2.088   5.488   5.384
 4094SOL    HW113181   2.000   5.445   5.363
 4094SOL    HW213182   2.088   5.582   5.350
 4095SOL     OW13183   0.379   3.786   0.172
 4095SOL    HW113184   0.338   3.755   0.087
 4095SOL    HW213185   0.478   3.793   0.161
 4096SOL     OW13186   4.721   6.109   5.685
 4096SOL    HW113187   4.766   6.166   5.616
 4096SOL    HW213188   4.668   6.037   5.639
 4097SOL     OW13189   3.977   4.618   5.416
 4097SOL    HW113190   3.972   4.519   5.433
 4097SOL    HW213191   4.031   4.661   5.489
 4098SOL     OW13192   0.114   2.476   2.246
 4098SOL    HW113193   0.195   2.524   2.279
 4098SOL    HW213194   0.062   2.440   2.324
 4099SOL     OW13195   3.126   5.165   1.688
 4099SOL    HW113196   3.037   5.118   1.689
 4099SOL    HW213197   3.199   5.097   1.697
 4100SOL     OW13198   7.003   6.840   4.814
 4100SOL    HW113199   0.016   6.777   4.745
 4100SOL    HW213200   0.056   6.892   4.855
 4101SOL     OW13201   5.761   1.106   0.342
 4101SOL    HW113202   5.756   1.186   0.401
 4101SOL    HW213203   5.843   1.054   0.363
 4102SOL     OW13204   6.725   0.808   0.938
 4102SOL    HW113205   6.645   0.853   0.898
 4102SOL    HW213206   6.743   0.847   1.028
 4103SOL     OW13207   0.117   0.287   0.484
 4103SOL    HW113208   0.164   0.256   0.402
 4103SOL    HW213209   0.183   0.297   0.559
 4104SOL     OW13210   0.727   4.817   3.142
 4104SOL    HW113211   0.761   4.859   3.058
 4104SOL    HW213212   0.780   4.735   3.162
 4105SOL     OW13213   4.854   6.926   1.298
 4105SOL    HW113214   4.936   6.962   1.252
 4105SOL    HW213215   4.881   6.877   1.381
 4106SOL     OW13216   6.483   2.847   2.881
 4106SOL    HW113217   6.385   2.859   2.897
 4106SOL    HW213218   6.497   2.767   2.822
 4107SOL     OW13219   1.335   5.729   0.844
 4107SOL    HW113220   1.411   5.680   0.886
 4107SOL    HW213221   1.324   5.818   0.890
 4108SOL     OW13222   6.337   4.013   5.927
 4108SOL    HW113223   6.296   3.958   5.854
 4108SOL    HW213224   6.331   3.964   6.014
 4109SOL     OW13225   6.177   0.035   5.110
 4109SOL    HW113226   6.174   0.129   5.142
 4109SOL    HW213227   6.192   0.033   5.011
 4110SOL     OW13228   4.045   3.348   5.668
 4110SOL    HW113229   4.079   3.300   5.587
 4110SOL    HW213230   3.963   3.302   5.701
 4111SOL     OW13231   4.668   3.181   6.754
 4111SOL    HW113232   4.698   3.104   6.809
 4111SOL    HW213233   4.634   3.254   6.813
 4112SOL     OW13234   5.096   6.103   4.284
 4112SOL    HW113235   5.152   6.039   4.336
 4112SOL    HW213236   5.153   6.177   4.248
 4113SOL     OW13237   5.107   5.988   4.787
 4113SOL    HW113238   5.029   5.926   4.779
 4113SOL    HW213239   5.087   6.057   4.857
 4114SOL     OW13240   3.261   2.148   3.955
 4114SOL    HW113241   3.353   2.181   3.934
 4114SOL    HW213242   3.197   2.181   3.886
 4115SOL     OW13243   3.463   4.989   2.031
 4115SOL    HW113244   3.505   4.901   2.008
 4115SOL    HW213245   3.375   4.972   2.076
 4116SOL     OW13246   3.382   1.385   2.263
 4116SOL    HW113247   3.327   1.465   2.238
 4116SOL    HW213248   3.336   1.335   2.337
 4117SOL     OW13249   1.723   4.350   2.756
 4117SOL    HW113250   1.815   4.388   2.752
 4117SOL    HW213251   1.723   4.258   2.718
 4118SOL     OW13252   3.454   6.718   0.066
 4118SOL    HW113253   3.431   6.815   0.073
 4118SOL    HW213254   3.533   6.706   0.005
 4119SOL     OW13255   2.822   1.959   3.810
 4119SOL    HW113256   2.778   2.009   3.735
 4119SOL    HW213257   2.848   1.868   3.779
 4120SOL     OW13258   3.574   0.385   6.746
 4120SOL    HW113259   3.533   0.294   6.754
 4120SOL    HW213260   3.504   0.451   6.718
 4121SOL     OW13261   6.002   0.840   4.237
 4121SOL    HW113262   6.078   0.787   4.276
 4121SOL    HW213263   5.943   0.873   4.311
 4122SOL     OW13264   1.003   5.697   4.759
 4122SOL    HW113265   0.989   5.654   4.849
 4122SOL    HW213266   1.059   5.637   4.702
 4123SOL     OW13267   4.355   5.130   5.592
 4123SOL    HW113268   4.261   5.107   5.568
 4123SOL    HW213269   4.400   5.174   5.514
 4124SOL     OW13270   5.906   5.654   6.883
 4124SOL    HW113271   5.877   5.712   6.959
 4124SOL    HW213272   5.967   5.582   6.917
 4125SOL     OW13273   5.016   1.543   2.454
 4125SOL    HW113274   4.968   1.609   2.513
 4125SOL    HW213275   5.044   1.589   2.370
 4126SOL     OW13276   1.134   3.805   4.346
 4126SOL    HW113277   1.170   3.898   4.347
 4126SOL    HW213278   1.060   3.798   4.279
 4127SOL     OW13279   4.776   5.178   4.861
 4127SOL    HW113280   4.865   5.204   4.822
 4127SOL    HW213281   4.752   5.086   4.829
 4128SOL     OW13282   1.139   2.616   1.751
 4128SOL    HW113283   1.071   2.560   1.797
 4128SOL    HW213284   1.231   2.586   1.776
 4129SOL     OW13285   3.848   1.036   6.807
 4129SOL    HW113286   3.833   1.069   6.714
 4129SOL    HW213287   3.777   0.971   6.831
 4130SOL     OW13288   6.398   2.623   6.649
 4130SOL    HW113289   6.409   2.551   6.581
 4130SOL    HW213290   6.473   2.689   6.641
 4131SOL     OW13291   1.132   0.263   3.528
 4131SOL    HW113292   1.162   0.247   3.621
 4131SOL    HW213293   1.076   0.186   3.497
 4132SOL     OW13294   5.069   4.785   3.423
 4132SOL    HW113295   4.980   4.796   3.468
 4132SOL    HW213296   5.063   4.710   3.358
 4133SOL     OW13297   2.895   5.994   0.695
 4133SOL    HW113298   2.884   6.087   0.732
 4133SOL    HW213299   2.819   5.974   0.634
 4134SOL     OW13300   2.648   3.556   1.040
 4134SOL    HW113301   2.701   3.533   1.121
 4134SOL    HW213302   2.586   3.480   1.017
 4135SOL     OW13303   0.980   1.551   2.810
 4135SOL    HW113304   0.907   1.571   2.875
 4135SOL    HW213305   0.956   1.470   2.756
 4136SOL     OW13306   1.411   2.066   3.077
 4136SOL    HW113307   1.345   2.141   3.081
 4136SOL    HW213308   1.398   2.013   2.994
 4137SOL     OW13309   0.658   4.431   0.983
 4137SOL    HW113310   0.569   4.402   1.018
 4137SOL    HW213311   0.699   4.358   0.929
 4138SOL     OW13312   4.292   5.453   3.172
 4138SOL    HW113313   4.349   5.431   3.093
 4138SOL    HW213314   4.340   5.430   3.257
 4139SOL     OW13315   1.934   1.766   5.525
 4139SOL    HW113316   1.839   1.775   5.494
 4139SOL    HW213317   1.936   1.766   5.625
 4140SOL     OW13318   2.860   0.488   5.353
 4140SOL    HW113319   2.887   0.543   5.273
 4140SOL    HW213320   2.804   0.545   5.414
 4141SOL     OW13321   6.341   6.127   1.045
 4141SOL    HW113322   6.323   6.058   1.115
 4141SOL    HW213323   6.297   6.213   1.073
 4142SOL     OW13324   6.728   5.297   1.293
 4142SOL    HW113325   6.704   5.305   1.196
 4142SOL    HW213326   6.688   5.214   1.331
 4143SOL     OW13327   6.115   1.789   1.012
 4143SOL    HW113328   6.044   1.760   1.077
 4143SOL    HW213329   6.193   1.826   1.062
 4144SOL     OW13330   4.947   3.540   6.732
 4144SOL    HW113331   4.855   3.556   6.768
 4144SOL    HW213332   4.944   3.543   6.632
 4145SOL     OW13333   6.375   6.516   1.356
 4145SOL    HW113334   6.319   6.459   1.417
 4145SOL    HW213335   6.370   6.480   1.263
 4146SOL     OW13336   6.555   0.420   4.783
 4146SOL    HW113337   6.625   0.432   4.853
 4146SOL    HW213338   6.505   0.506   4.771
 4147SOL     OW13339   4.756   4.194   5.933
 4147SOL    HW113340   4.847   4.206   5.895
 4147SOL    HW213341   4.692   4.174   5.858
 4148SOL     OW13342   1.003   0.433   5.086
 4148SOL    HW113343   0.992   0.354   5.146
 4148SOL    HW213344   0.920   0.489   5.090
 4149SOL     OW13345   0.037   2.971   1.085
 4149SOL    HW113346   7.000   2.920   1.022
 4149SOL    HW213347   0.133   2.952   1.064
 4150SOL     OW13348   0.602   0.772   6.287
 4150SOL    HW113349   0.530   0.728   6.234
 4150SOL    HW213350   0.653   0.836   6.228
 4151SOL     OW13351   2.709   5.682   5.639
 4151SOL    HW113352   2.692   5.714   5.546
 4151SOL    HW213353   2.807   5.688   5.660
 4152SOL     OW13354   4.385   6.096   1.780
 4152SOL    HW113355   4.352   6.100   1.874
 4152SOL    HW213356   4.323   6.040   1.725
 4153SOL     OW13357   4.504   5.535   6.681
 4153SOL    HW113358   4.420   5.481   6.689
 4153SOL    HW213359   4.525   5.549   6.584
 4154SOL     OW13360   7.019   5.216   3.966
 4154SOL    HW113361   6.972   5.200   4.053
 4154SOL    HW213362   6.968   5.171   3.892
 4155SOL     OW13363   0.152   1.186   2.053
 4155SOL    HW113364   0.122   1.260   2.113
 4155SOL    HW213365   0.139   1.212   1.958
 4156SOL     OW13366   5.448   6.192   5.263
 4156SOL    HW113367   5.462   6.130   5.186
 4156SOL    HW213368   5.443   6.139   5.348
 4157SOL     OW13369   5.238   5.147   4.656
 4157SOL    HW113370   5.312   5.204   4.620
 4157SOL    HW213371   5.275   5.060   4.689
 4158SOL     OW13372   1.641   4.598   2.678
 4158SOL    HW113373   1.676   4.514   2.720
 4158SOL    HW213374   1.694   4.676   2.710
 4159SOL     OW13375   2.215   3.854   4.340
 4159SOL    HW113376   2.293   3.807   4.380
 4159SOL    HW213377   2.147   3.787   4.310
 4160SOL     OW13378   5.932   1.259   0.755
 4160SOL    HW113379   6.012   1.200   0.750
 4160SOL    HW213380   5.888   1.263   0.665
 4161SOL     OW13381   0.769   0.918   0.611
 4161SOL    HW113382   0.768   0.883   0.705
 4161SOL    HW213383   0.744   0.844   0.549
 4162SOL     OW13384   6.397   6.632   6.749
 4162SOL    HW113385   6.475   6.583   6.788
 4162SOL    HW213386   6.323   6.568   6.731
 4163SOL     OW13387   5.856   6.356   3.523
 4163SOL    HW113388   5.873   6.262   3.551
 4163SOL    HW213389   5.935   6.392   3.473
 4164SOL     OW13390   1.819   6.656   6.523
 4164SOL    HW113391   1.754   6.728   6.548
 4164SOL    HW213392   1.834   6.596   6.601
 4165SOL     OW13393   4.024   6.701   0.146
 4165SOL    HW113394   4.018   6.682   0.244
 4165SOL    HW213395   3.932   6.706   0.108
 4166SOL     OW13396   6.776   4.257   1.425
 4166SOL    HW113397   6.698   4.312   1.455
 4166SOL    HW213398   6.752   4.160   1.430
 4167SOL     OW13399   1.233   4.123   1.008
 4167SOL    HW113400   1.299   4.048   1.007
 4167SOL    HW213401   1.147   4.092   0.968
 4168SOL     OW13402   6.679   5.100   0.837
 4168SOL    HW113403   6.604   5.106   0.904
 4168SOL    HW213404   6.714   5.191   0.819
 4169SOL     OW13405   5.730   3.962   3.701
 4169SOL    HW113406   5.688   3.915   3.779
 4169SOL    HW213407   5.825   3.984   3.723
 4170SOL     OW13408   4.324   4.096   5.440
 4170SOL    HW113409   4.310   4.195   5.436
 4170SOL    HW213410   4.414   4.074   5.402
 4171SOL     OW13411   6.338   5.510   0.880
 4171SOL    HW113412   6.297   5.541   0.794
 4171SOL    HW213413   6.291   5.553   0.957
 4172SOL     OW13414   0.283   2.570   6.084
 4172SOL    HW113415   0.312   2.657   6.125
 4172SOL    HW213416   0.211   2.529   6.140
 4173SOL     OW13417   5.141   3.701   5.978
 4173SOL    HW113418   5.068   3.667   5.920
 4173SOL    HW213419   5.103   3.739   6.062
 4174SOL     OW13420   5.490   0.855   3.362
 4174SOL    HW113421   5.401   0.840   3.318
 4174SOL    HW213422   5.513   0.952   3.358
 4175SOL     OW13423   2.122   6.367   4.550
 4175SOL    HW113424   2.201   6.313   4.520
 4175SOL    HW213425   2.097   6.340   4.643
 4176SOL     OW13426   2.869   6.979   1.852
 4176SOL    HW113427   2.791   6.937   1.805
 4176SOL    HW213428   2.863   6.960   1.950
 4177SOL     OW13429   6.236   4.264   4.987
 4177SOL    HW113430   6.202   4.173   4.964
 4177SOL    HW213431   6.236   4.322   4.905
 4178SOL     OW13432   4.688   0.327   4.786
 4178SOL    HW113433   4.745   0.358   4.863
 4178SOL    HW213434   4.731   0.353   4.700
 4179SOL     OW13435   5.534   2.361   3.452
 4179SOL    HW113436   5.460   2.381   3.388
 4179SOL    HW213437   5.521   2.415   3.535
 4180SOL     OW13438   4.860   4.083   1.567
 4180SOL    HW113439   4.933   4.030   1.610
 4180SOL    HW213440   4.772   4.050   1.600
 4181SOL     OW13441   2.281   1.636   0.720
 4181SOL    HW113442   2.260   1.716   0.776
 4181SOL    HW213443   2.244   1.554   0.765
 4182SOL     OW13444   0.204   0.048   3.171
 4182SOL    HW113445   0.155   7.002   3.118
 4182SOL    HW213446   0.219   0.130   3.116
 4183SOL     OW13447   4.479   0.929   6.912
 4183SOL    HW113448   4.441   0.967   6.828
 4183SOL    HW213449   4.529   0.845   6.891
 4184SOL     OW13450   4.467   4.749   1.533
 4184SOL    HW113451   4.392   4.684   1.521
 4184SOL    HW213452   4.536   4.710   1.594
 4185SOL     OW13453   0.177   5.690   2.223
 4185SOL    HW113454   0.163   5.756   2.149
 4185SOL    HW213455   0.204   5.739   2.306
 4186SOL     OW13456   2.368   5.557   0.967
 4186SOL    HW113457   2.406   5.465   0.976
 4186SOL    HW213458   2.275   5.558   1.002
 4187SOL     OW13459   3.537   4.096   5.879
 4187SOL    HW113460   3.525   4.172   5.816
 4187SOL    HW213461   3.592   4.024   5.836
 4188SOL     OW13462   4.733   6.922   4.579
 4188SOL    HW113463   4.657   6.977   4.615
 4188SOL    HW213464   4.699   6.857   4.511
 4189SOL     OW13465   3.499   0.729   5.490
 4189SOL    HW113466   3.558   0.766   5.561
 4189SOL    HW213467   3.536   0.752   5.400
 4190SOL     OW13468   0.365   0.585   0.546
 4190SOL    HW113469   0.354   0.663   0.486
 4190SOL    HW213470   0.363   0.501   0.492
 4191SOL     OW13471   5.312   3.497   3.127
 4191SOL    HW113472   5.335   3.437   3.050
 4191SOL    HW213473   5.332   3.450   3.213
 4192SOL     OW13474   0.468   1.161   4.151
 4192SOL    HW113475   0.450   1.089   4.218
 4192SOL    HW213476   0.434   1.133   4.061
 4193SOL     OW13477   1.557   6.982   2.985
 4193SOL    HW113478   1.573   6.930   2.901
 4193SOL    HW213479   1.622   0.036   2.990
 4194SOL     OW13480   6.042   0.265   5.256
 4194SOL    HW113481   5.976   0.285   5.184
 4194SOL    HW213482   5.995   0.226   5.335
 4195SOL     OW13483   4.039   0.200   2.398
 4195SOL    HW113484   4.118   0.168   2.451
 4195SOL    HW213485   4.061   0.194   2.300
 4196SOL     OW13486   5.678   2.216   3.770
 4196SOL    HW113487   5.610   2.275   3.727
 4196SOL    HW213488   5.762   2.268   3.785
 4197SOL     OW13489   5.019   5.713   5.194
 4197SOL    HW113490   5.105   5.754   5.165
 4197SOL    HW213491   5.005   5.627   5.146
 4198SOL     OW13492   5.384   2.969   6.320
 4198SOL    HW113493   5.368   2.992   6.416
 4198SOL    HW213494   5.297   2.943   6.278
 4199SOL     OW13495   2.015   3.301   6.534
 4199SOL    HW113496   1.968   3.307   6.446
 4199SOL    HW213497   1.948   3.301   6.608
 4200SOL     OW13498   2.828   6.312   5.339
 4200SOL    HW113499   2.884   6.229   5.341
 4200SOL    HW213500   2.823   6.351   5.431
 4201SOL     OW13501   6.140   6.242   3.657
 4201SOL    HW113502   6.164   6.292   3.574
 4201SOL    HW213503   6.087   6.161   3.632
 4202SOL     OW13504   4.247   5.667   5.471
 4202SOL    HW113505   4.244   5.586   5.412
 4202SOL    HW213506   4.187   5.737   5.434
 4203SOL     OW13507   5.070   5.473   0.752
 4203SOL    HW113508   5.147   5.535   0.740
 4203SOL    HW213509   4.986   5.526   0.763
 4204SOL     OW13510   3.900   3.016   2.362
 4204SOL    HW113511   3.955   3.005   2.444
 4204SOL    HW213512   3.941   2.963   2.287
 4205SOL     OW13513   3.696   4.974   3.536
 4205SOL    HW113514   3.789   4.991   3.503
 4205SOL    HW213515   3.637   4.949   3.459
 4206SOL     OW13516   6.065   0.570   5.274
 4206SOL    HW113517   6.145   0.607   5.227
 4206SOL    HW213518   6.032   0.489   5.224
 4207SOL     OW13519   1.875   1.257   1.790
 4207SOL    HW113520   1.894   1.161   1.771
 4207SOL    HW213521   1.778   1.275   1.775
 4208SOL     OW13522   0.836   3.463   6.693
 4208SOL    HW113523   0.816   3.370   6.665
 4208SOL    HW213524   0.921   3.494   6.649
 4209SOL     OW13525   0.628   1.604   5.338
 4209SOL    HW113526   0.650   1.601   5.241
 4209SOL    HW213527   0.592   1.694   5.362
 4210SOL     OW13528   3.256   3.334   2.195
 4210SOL    HW113529   3.190   3.260   2.205
 4210SOL    HW213530   3.305   3.348   2.281
 4211SOL     OW13531   3.717   5.263   5.259
 4211SOL    HW113532   3.727   5.266   5.159
 4211SOL    HW213533   3.771   5.187   5.295
 4212SOL     OW13534   6.143   2.665   2.317
 4212SOL    HW113535   6.063   2.724   2.304
 4212SOL    HW213536   6.184   2.644   2.228
 4213SOL     OW13537   2.747   0.615   2.496
 4213SOL    HW113538   2.805   0.663   2.430
 4213SOL    HW213539   2.693   0.546   2.448
 4214SOL     OW13540   1.183   3.891   5.584
 4214SOL    HW113541   1.179   3.989   5.565
 4214SOL    HW213542   1.254   3.874   5.653
 4215SOL     OW13543   6.834   6.092   4.624
 4215SOL    HW113544   6.889   6.161   4.577
 4215SOL    HW213545   6.833   6.008   4.570
 4216SOL     OW13546   1.179   1.497   3.069
 4216SOL    HW113547   1.250   1.486   3.139
 4216SOL    HW213548   1.178   1.416   3.010
 4217SOL     OW13549   6.938   0.285   2.568
 4217SOL    HW113550   6.927   0.267   2.470
 4217SOL    HW213551   7.010   0.226   2.604
 4218SOL     OW13552   5.102   0.525   1.837
 4218SOL    HW113553   5.151   0.437   1.837
 4218SOL    HW213554   5.154   0.592   1.784
 4219SOL     OW13555   2.823   5.148   3.402
 4219SOL    HW113556   2.890   5.150   3.328
 4219SOL    HW213557   2.849   5.079   3.470
 4220SOL     OW13558   5.725   2.731   3.563
 4220SOL    HW113559   5.810   2.779   3.546
 4220SOL    HW213560   5.648   2.787   3.535
 4221SOL     OW13561   6.013   5.704   6.627
 4221SOL    HW113562   5.983   5.690   6.722
 4221SOL    HW213563   5.959   5.648   6.566
 4222SOL     OW13564   6.477   2.581   2.767
 4222SOL    HW113565   6.536   2.502   2.784
 4222SOL    HW213566   6.492   2.616   2.675
 4223SOL     OW13567   3.144   3.170   4.958
 4223SOL    HW113568   3.069   3.173   5.025
 4223SOL    HW213569   3.168   3.263   4.930
 4224SOL     OW13570   4.954   2.973   3.420
 4224SOL    HW113571   4.909   2.899   3.471
 4224SOL    HW213572   4.987   3.042   3.485
 4225SOL     OW13573   4.716   0.604   5.562
 4225SOL    HW113574   4.634   0.568   5.518
 4225SOL    HW213575   4.795   0.590   5.503
 4226SOL     OW13576   0.658   0.116   3.087
 4226SOL    HW113577   0.583   0.145   3.028
 4226SOL    HW213578   0.721   0.193   3.102
 4227SOL     OW13579   3.466   5.219   6.503
 4227SOL    HW113580   3.527   5.144   6.477
 4227SOL    HW213581   3.376   5.203   6.463
 4228SOL     OW13582   0.592   3.703   3.528
 4228SOL    HW113583   0.582   3.771   3.456
 4228SOL    HW213584   0.576   3.612   3.491
 4229SOL     OW13585   4.945   5.287   5.747
 4229SOL    HW113586   5.005   5.214   5.777
 4229SOL    HW213587   4.864   5.291   5.806
 4230SOL     OW13588   2.592   0.674   4.219
 4230SOL    HW113589   2.509   0.696   4.270
 4230SOL    HW213590   2.572   0.607   4.149
 4231SOL     OW13591   5.360   5.906   4.871
 4231SOL    HW113592   5.296   5.959   4.815
 4231SOL    HW213593   5.400   5.965   4.940
 4232SOL     OW13594   0.125   4.508   1.452
 4232SOL    HW113595   0.187   4.493   1.375
 4232SOL    HW213596   0.090   4.420   1.484
 4233SOL     OW13597   6.846   0.821   0.009
 4233SOL    HW113598   6.833   0.740   0.066
 4233SOL    HW213599   6.761   0.873   0.005
 4234SOL     OW13600   1.341   6.995   5.734
 4234SOL    HW113601   1.388   6.924   5.680
 4234SOL    HW213602   1.338   0.058   5.681
 4235SOL     OW13603   5.176   3.776   5.599
 4235SOL    HW113604   5.144   3.681   5.603
 4235SOL    HW213605   5.147   3.818   5.514
 4236SOL     OW13606   0.490   3.569   2.847
 4236SOL    HW113607   0.495   3.485   2.903
 4236SOL    HW213608   0.582   3.605   2.833
 4237SOL     OW13609   6.285   5.050   3.804
 4237SOL    HW113610   6.259   5.131   3.856
 4237SOL    HW213611   6.203   5.000   3.777
 4238SOL     OW13612   3.656   4.924   2.827
 4238SOL    HW113613   3.739   4.897   2.878
 4238SOL    HW213614   3.671   4.909   2.730
 4239SOL     OW13615   5.936   1.290   3.803
 4239SOL    HW113616   5.891   1.254   3.885
 4239SOL    HW213617   5.875   1.280   3.725
 4240SOL     OW13618   2.169   6.934   0.041
 4240SOL    HW113619   2.098   6.978   7.008
 4240SOL    HW213620   2.255   6.934   7.012
 4241SOL     OW13621   6.032   1.256   1.264
 4241SOL    HW113622   6.054   1.170   1.310
 4241SOL    HW213623   5.953   1.242   1.204
 4242SOL     OW13624   1.869   0.609   3.256
 4242SOL    HW113625   1.897   0.537   3.192
 4242SOL    HW213626   1.944   0.674   3.267
 4243SOL     OW13627   0.774   3.766   3.714
 4243SOL    HW113628   0.825   3.693   3.759
 4243SOL    HW213629   0.733   3.731   3.630
 4244SOL     OW13630   4.990   5.236   0.897
 4244SOL    HW113631   4.900   5.196   0.883
 4244SOL    HW213632   4.999   5.318   0.840
 4245SOL     OW13633   6.385   1.257   6.267
 4245SOL    HW113634   6.336   1.243   6.182
 4245SOL    HW213635   6.409   1.353   6.277
 4246SOL     OW13636   5.764   2.650   3.821
 4246SOL    HW113637   5.737   2.647   3.725
 4246SOL    HW213638   5.822   2.571   3.842
 4247SOL     OW13639   2.178   5.117   3.500
 4247SOL    HW113640   2.092   5.069   3.517
 4247SOL    HW213641   2.186   5.194   3.563
 4248SOL     OW13642   1.331   1.063   3.651
 4248SOL    HW113643   1.258   1.064   3.720
 4248SOL    HW213644   1.397   0.992   3.674
 4249SOL     OW13645   5.258   1.678   3.310
 4249SOL    HW113646   5.227   1.772   3.294
 4249SOL    HW213647   5.276   1.634   3.223
 4250SOL     OW13648   6.382   6.114   4.445
 4250SOL    HW113649   6.304   6.159   4.402
 4250SOL    HW213650   6.350   6.043   4.507
 4251SOL     OW13651   6.357   3.119   1.139
 4251SOL    HW113652   6.390   3.089   1.229
 4251SOL    HW213653   6.329   3.215   1.144
 4252SOL     OW13654   4.984   6.240   6.423
 4252SOL    HW113655   5.076   6.275   6.439
 4252SOL    HW213656   4.918   6.316   6.428
 4253SOL     OW13657   3.338   6.832   1.516
 4253SOL    HW113658   3.247   6.863   1.543
 4253SOL    HW213659   3.343   6.732   1.523
 4254SOL     OW13660   2.206   4.145   1.907
 4254SOL    HW113661   2.271   4.221   1.918
 4254SOL    HW213662   2.113   4.178   1.926
 4255SOL     OW13663   0.077   3.899   3.935
 4255SOL    HW113664   0.164   3.941   3.912
 4255SOL    HW213665   0.010   3.917   3.862
 4256SOL     OW13666   0.678   5.841   0.869
 4256SOL    HW113667   0.630   5.918   0.827
 4256SOL    HW213668   0.649   5.756   0.825
 4257SOL     OW13669   4.670   1.354   4.489
 4257SOL    HW113670   4.662   1.438   4.436
 4257SOL    HW213671   4.611   1.359   4.570
 4258SOL     OW13672   3.093   6.145   1.022
 4258SOL    HW113673   3.024   6.109   1.085
 4258SOL    HW213674   3.127   6.070   0.965
 4259SOL     OW13675   1.689   5.780   0.798
 4259SOL    HW113676   1.612   5.828   0.756
 4259SOL    HW213677   1.737   5.727   0.728
 4260SOL     OW13678   5.721   0.746   3.337
 4260SOL    HW113679   5.627   0.773   3.359
 4260SOL    HW213680   5.721   0.651   3.305
 4261SOL     OW13681   1.711   0.193   2.961
 4261SOL    HW113682   1.797   0.189   2.909
 4261SOL    HW213683   1.719   0.261   3.033
 4262SOL     OW13684   0.927   4.273   6.116
 4262SOL    HW113685   0.973   4.302   6.032
 4262SOL    HW213686   0.957   4.181   6.140
 4263SOL     OW13687   2.690   0.815   3.703
 4263SOL    HW113688   2.666   0.883   3.634
 4263SOL    HW213689   2.700   0.860   3.792
 4264SOL     OW13690   6.270   1.748   4.737
 4264SOL    HW113691   6.297   1.805   4.660
 4264SOL    HW213692   6.291   1.795   4.823
 4265SOL     OW13693   3.793   0.769   0.953
 4265SOL    HW113694   3.784   0.866   0.977
 4265SOL    HW213695   3.783   0.759   0.854
 4266SOL     OW13696   2.131   6.075   6.645
 4266SOL    HW113697   2.063   6.144   6.621
 4266SOL    HW213698   2.201   6.071   6.573
 4267SOL     OW13699   2.186   4.073   4.160
 4267SOL    HW113700   2.128   4.009   4.110
 4267SOL    HW213701   2.228   4.025   4.238
 4268SOL     OW13702   1.792   5.531   6.797
 4268SOL    HW113703   1.762   5.471   6.723
 4268SOL    HW213704   1.779   5.486   6.885
 4269SOL     OW13705   2.828   0.688   3.325
 4269SOL    HW113706   2.845   0.723   3.417
 4269SOL    HW213707   2.730   0.677   3.311
 4270SOL     OW13708   3.357   2.883   2.518
 4270SOL    HW113709   3.368   2.851   2.612
 4270SOL    HW213710   3.436   2.856   2.464
 4271SOL     OW13711   0.049   1.095   0.292
 4271SOL    HW113712   6.985   1.047   0.274
 4271SOL    HW213713   0.032   1.193   0.293
 4272SOL     OW13714   6.901   2.559   5.001
 4272SOL    HW113715   6.803   2.574   4.992
 4272SOL    HW213716   6.918   2.487   5.068
 4273SOL     OW13717   5.022   6.368   4.697
 4273SOL    HW113718   5.107   6.355   4.647
 4273SOL    HW213719   5.029   6.323   4.787
 4274SOL     OW13720   1.247   6.973   1.972
 4274SOL    HW113721   1.174   0.017   1.962
 4274SOL    HW213722   1.334   7.014   1.943
 4275SOL     OW13723   6.833   1.821   4.057
 4275SOL    HW113724   6.772   1.756   4.102
 4275SOL    HW213725   6.844   1.795   3.961
 4276SOL     OW13726   3.014   4.972   3.813
 4276SOL    HW113727   3.098   5.025   3.825
 4276SOL    HW213728   3.017   4.891   3.872
 4277SOL     OW13729   0.028   4.338   2.827
 4277SOL    HW113730   0.026   4.436   2.810
 4277SOL    HW213731   6.991   4.316   2.904
 4278SOL     OW13732   0.451   6.779   4.218
 4278SOL    HW113733   0.435   6.697   4.163
 4278SOL    HW213734   0.399   6.855   4.181
 4279SOL     OW13735   2.057   1.162   2.799
 4279SOL    HW113736   2.040   1.093   2.729
 4279SOL    HW213737   1.992   1.149   2.874
 4280SOL     OW13738   6.273   0.027   5.878
 4280SOL    HW113739   6.216   6.999   5.812
 4280SOL    HW213740   6.350   0.068   5.829
 4281SOL     OW13741   5.567   5.258   3.382
 4281SOL    HW113742   5.653   5.233   3.426
 4281SOL    HW213743   5.586   5.297   3.292
 4282SOL     OW13744   3.463   4.372   0.447
 4282SOL    HW113745   3.497   4.404   0.359
 4282SOL    HW213746   3.525   4.303   0.484
 4283SOL     OW13747   3.020   1.371   3.579
 4283SOL    HW113748   2.997   1.344   3.485
 4283SOL    HW213749   3.113   1.407   3.582
 4284SOL     OW13750   4.561   5.281   0.553
 4284SOL    HW113751   4.552   5.181   0.550
 4284SOL    HW213752   4.617   5.311   0.475
 4285SOL     OW13753   2.223   1.447   5.703
 4285SOL    HW113754   2.216   1.347   5.705
 4285SOL    HW213755   2.257   1.480   5.791
 4286SOL     OW13756   5.673   6.973   6.042
 4286SOL    HW113757   5.683   6.968   5.942
 4286SOL    HW213758   5.577   6.983   6.066
 4287SOL     OW13759   4.645   1.042   5.789
 4287SOL    HW113760   4.708   1.049   5.712
 4287SOL    HW213761   4.605   0.950   5.791
 4288SOL     OW13762   0.914   5.359   3.407
 4288SOL    HW113763   0.902   5.332   3.311
 4288SOL    HW213764   0.964   5.446   3.411
 4289SOL     OW13765   0.607   2.245   5.925
 4289SOL    HW113766   0.628   2.220   5.831
 4289SOL    HW213767   0.690   2.243   5.980
 4290SOL     OW13768   0.989   6.112   4.993
 4290SOL    HW113769   0.998   6.095   5.091
 4290SOL    HW213770   0.917   6.052   4.955
 4291SOL     OW13771   4.961   3.998   6.592
 4291SOL    HW113772   4.972   4.080   6.535
 4291SOL    HW213773   4.864   3.982   6.608
 4292SOL     OW13774   6.323   2.885   0.168
 4292SOL    HW113775   6.316   2.900   0.070
 4292SOL    HW213776   6.239   2.918   0.212
 4293SOL     OW13777   3.700   4.518   7.017
 4293SOL    HW113778   3.612   4.471   7.011
 4293SOL    HW213779   3.763   4.463   0.051
 4294SOL     OW13780   1.849   1.031   6.393
 4294SOL    HW113781   1.908   0.950   6.387
 4294SOL    HW213782   1.896   1.110   6.355
 4295SOL     OW13783   5.264   5.848   4.030
 4295SOL    HW113784   5.279   5.779   3.959
 4295SOL    HW213785   5.165   5.860   4.044
 4296SOL     OW13786   3.312   6.967   0.075
 4296SOL    HW113787   3.348   0.003   0.148
 4296SOL    HW213788   3.228   6.923   0.106
 4297SOL     OW13789   6.479   6.783   2.179
 4297SOL    HW113790   6.492   6.690   2.213
 4297SOL    HW213791   6.422   6.781   2.096
 4298SOL     OW13792   3.461   6.130   1.728
 4298SOL    HW113793   3.421   6.062   1.790
 4298SOL    HW213794   3.559   6.114   1.721
 4299SOL     OW13795   1.322   2.934   0.027
 4299SOL    HW113796   1.299   2.942   6.952
 4299SOL    HW213797   1.252   2.980   0.082
 4300SOL     OW13798   2.662   6.904   0.381
 4300SOL    HW113799   2.610   6.835   0.431
 4300SOL    HW213800   2.710   6.861   0.304
 4301SOL     OW13801   4.537   0.200   1.762
 4301SOL    HW113802   4.536   0.173   1.858
 4301SOL    HW213803   4.622   0.169   1.719
 4302SOL     OW13804   6.742   0.503   6.483
 4302SOL    HW113805   6.659   0.480   6.534
 4302SOL    HW213806   6.724   0.581   6.423
 4303SOL     OW13807   0.087   4.347   4.113
 4303SOL    HW113808   0.171   4.400   4.113
 4303SOL    HW213809   0.046   4.349   4.204
 4304SOL     OW13810   3.513   3.676   2.247
 4304SOL    HW113811   3.431   3.663   2.192
 4304SOL    HW213812   3.556   3.764   2.223
 4305SOL     OW13813   0.488   6.602   6.198
 4305SOL    HW113814   0.445   6.553   6.273
 4305SOL    HW213815   0.418   6.649   6.144
 4306SOL     OW13816   4.869   4.596   4.494
 4306SOL    HW113817   4.813   4.535   4.549
 4306SOL    HW213818   4.876   4.560   4.400
 4307SOL     OW13819   5.609   3.263   5.262
 4307SOL    HW113820   5.608   3.218   5.351
 4307SOL    HW213821   5.607   3.193   5.190
 4308SOL     OW13822   5.918   5.565   1.243
 4308SOL    HW113823   5.934   5.467   1.231
 4308SOL    HW213824   5.931   5.611   1.155
 4309SOL     OW13825   1.360   1.149   0.997
 4309SOL    HW113826   1.351   1.237   0.951
 4309SOL    HW213827   1.319   1.154   1.088
 4310SOL     OW13828   1.787   2.266   1.123
 4310SOL    HW113829   1.797   2.199   1.049
 4310SOL    HW213830   1.862   2.332   1.119
 4311SOL     OW13831   0.345   5.984   2.647
 4311SOL    HW113832   0.339   6.066   2.589
 4311SOL    HW213833   0.261   5.931   2.640
 4312SOL     OW13834   1.697   5.547   2.711
 4312SOL    HW113835   1.649   5.511   2.791
 4312SOL    HW213836   1.672   5.493   2.630
 4313SOL     OW13837   4.365   1.777   0.437
 4313SOL    HW113838   4.277   1.759   0.392
 4313SOL    HW213839   4.354   1.768   0.536
 4314SOL     OW13840   6.011   1.289   4.879
 4314SOL    HW113841   6.054   1.375   4.852
 4314SOL    HW213842   6.004   1.286   4.979
 4315SOL     OW13843   2.337   0.481   3.622
 4315SOL    HW113844   2.299   0.468   3.531
 4315SOL    HW213845   2.431   0.515   3.614
 4316SOL     OW13846   4.831   0.231   2.291
 4316SOL    HW113847   4.755   0.273   2.242
 4316SOL    HW213848   4.887   0.302   2.333
 4317SOL     OW13849   5.254   1.439   5.847
 4317SOL    HW113850   5.331   1.433   5.784
 4317SOL    HW213851   5.257   1.361   5.910
 4318SOL     OW13852   1.110   1.683   4.860
 4318SOL    HW113853   1.061   1.769   4.851
 4318SOL    HW213854   1.176   1.674   4.785
 4319SOL     OW13855   1.319   2.133   1.039
 4319SOL    HW113856   1.383   2.187   1.094
 4319SOL    HW213857   1.280   2.191   0.967
 4320SOL     OW13858   3.868   5.307   0.822
 4320SOL    HW113859   3.916   5.231   0.778
 4320SOL    HW213860   3.842   5.281   0.915
 4321SOL     OW13861   0.058   4.683   4.718
 4321SOL    HW113862   0.094   4.615   4.781
 4321SOL    HW213863   0.133   4.728   4.671
 4322SOL     OW13864   6.591   2.819   6.654
 4322SOL    HW113865   6.657   2.833   6.728
 4322SOL    HW213866   6.512   2.878   6.669
 4323SOL     OW13867   5.056   4.804   0.369
 4323SOL    HW113868   5.015   4.881   0.418
 4323SOL    HW213869   5.046   4.817   0.271
 4324SOL     OW13870   6.558   4.114   6.038
 4324SOL    HW113871   6.496   4.057   5.983
 4324SOL    HW213872   6.520   4.124   6.130
 4325SOL     OW13873   3.004   1.837   2.137
 4325SOL    HW113874   3.046   1.761   2.188
 4325SOL    HW213875   2.999   1.917   2.197
 4326SOL     OW13876   5.207   4.393   2.124
 4326SOL    HW113877   5.125   4.340   2.146
 4326SOL    HW213878   5.275   4.333   2.081
 4327SOL     OW13879   5.035   6.131   2.090
 4327SOL    HW113880   4.964   6.149   2.023
 4327SOL    HW213881   5.056   6.215   2.140
 4328SOL     OW13882   5.592   4.779   5.522
 4328SOL    HW113883   5.685   4.778   5.486
 4328SOL    HW213884   5.527   4.792   5.447
 4329SOL     OW13885   5.566   2.783   5.361
 4329SOL    HW113886   5.504   2.721   5.314
 4329SOL    HW213887   5.644   2.733   5.396
 4330SOL     OW13888   2.061   6.688   4.579
 4330SOL    HW113889   2.030   6.649   4.666
 4330SOL    HW213890   2.122   6.623   4.533
 4331SOL     OW13891   5.816   0.990   1.681
 4331SOL    HW113892   5.884   1.058   1.654
 4331SOL    HW213893   5.863   0.907   1.711
 4332SOL     OW13894   6.222   2.934   2.894
 4332SOL    HW113895   6.226   2.944   2.994
 4332SOL    HW213896   6.171   3.010   2.855
 4333SOL     OW13897   4.451   1.879   4.668
 4333SOL    HW113898   4.500   1.799   4.633
 4333SOL    HW213899   4.356   1.875   4.639
 4334SOL     OW13900   1.882   2.763   1.988
 4334SOL    HW113901   1.893   2.723   2.079
 4334SOL    HW213902   1.870   2.862   1.997
 4335SOL     OW13903   3.575   2.775   2.180
 4335SOL    HW113904   3.550   2.678   2.174
 4335SOL    HW213905   3.591   2.800   2.275
 4336SOL     OW13906   2.453   5.615   5.727
 4336SOL    HW113907   2.441   5.607   5.628
 4336SOL    HW213908   2.540   5.661   5.747
 4337SOL     OW13909   2.253   4.738   1.513
 4337SOL    HW113910   2.349   4.757   1.534
 4337SOL    HW213911   2.249   4.674   1.436
 4338SOL     OW13912   6.292   0.082   6.173
 4338SOL    HW113913   6.297   0.178   6.148
 4338SOL    HW213914   6.291   0.026   6.091
 4339SOL     OW13915   4.126   2.980   6.478
 4339SOL    HW113916   4.214   2.933   6.483
 4339SOL    HW213917   4.101   3.014   6.568
 4340SOL     OW13918   6.062   3.836   1.019
 4340SOL    HW113919   6.157   3.804   1.021
 4340SOL    HW213920   6.052   3.915   1.079
 4341SOL     OW13921   1.610   5.553   0.976
 4341SOL    HW113922   1.641   5.641   0.939
 4341SOL    HW213923   1.627   5.552   1.075
 4342SOL     OW13924   5.498   3.702   3.082
 4342SOL    HW113925   5.453   3.727   2.997
 4342SOL    HW213926   5.441   3.638   3.133
 4343SOL     OW13927   3.154   5.873   4.512
 4343SOL    HW113928   3.191   5.780   4.511
 4343SOL    HW213929   3.209   5.930   4.574
 4344SOL     OW13930   1.351   3.377   2.845
 4344SOL    HW113931   1.261   3.409   2.876
 4344SOL    HW213932   1.360   3.395   2.747
 4345SOL     OW13933   3.339   3.900   4.950
 4345SOL    HW113934   3.292   3.967   5.007
 4345SOL    HW213935   3.407   3.851   5.006
 4346SOL     OW13936   1.933   2.643   2.750
 4346SOL    HW113937   1.928   2.546   2.725
 4346SOL    HW213938   2.028   2.673   2.749
 4347SOL     OW13939   5.629   6.386   2.848
 4347SOL    HW113940   5.601   6.302   2.800
 4347SOL    HW213941   5.620   6.464   2.786
 4348SOL     OW13942   0.284   6.056   4.488
 4348SOL    HW113943   0.324   6.040   4.397
 4348SOL    HW213944   0.347   6.112   4.542
 4349SOL     OW13945   6.355   2.297   4.080
 4349SOL    HW113946   6.425   2.226   4.073
 4349SOL    HW213947   6.301   2.282   4.163
 4350SOL     OW13948   4.664   1.825   3.888
 4350SOL    HW113949   4.584   1.794   3.837
 4350SOL    HW213950   4.644   1.824   3.986
 4351SOL     OW13951   1.378   6.297   1.171
 4351SOL    HW113952   1.308   6.257   1.230
 4351SOL    HW213953   1.402   6.388   1.205
 4352SOL     OW13954   6.582   4.186   1.656
 4352SOL    HW113955   6.549   4.102   1.612
 4352SOL    HW213956   6.550   4.266   1.605
 4353SOL     OW13957   3.522   3.621   0.409
 4353SOL    HW113958   3.583   3.667   0.474
 4353SOL    HW213959   3.545   3.524   0.405
 4354SOL     OW13960   1.958   1.251   6.290
 4354SOL    HW113961   1.984   1.318   6.359
 4354SOL    HW213962   1.977   1.288   6.199
 4355SOL     OW13963   2.053   6.964   2.477
 4355SOL    HW113964   2.076   0.029   2.434
 4355SOL    HW213965   2.094   6.960   2.568
 4356SOL     OW13966   4.629   3.622   5.840
 4356SOL    HW113967   4.558   3.651   5.904
 4356SOL    HW213968   4.591   3.616   5.748
 4357SOL     OW13969   6.825   1.013   1.488
 4357SOL    HW113970   6.830   0.934   1.427
 4357SOL    HW213971   6.883   1.086   1.453
 4358SOL     OW13972   6.956   0.858   0.553
 4358SOL    HW113973   6.940   0.863   0.651
 4358SOL    HW213974   6.909   0.778   0.515
 4359SOL     OW13975   0.922   0.982   7.009
 4359SOL    HW113976   0.829   0.984   0.025
 4359SOL    HW213977   0.979   1.048   0.035
 4360SOL     OW13978   0.489   3.127   4.517
 4360SOL    HW113979   0.420   3.169   4.458
 4360SOL    HW213980   0.573   3.112   4.465
 4361SOL     OW13981   2.093   3.982   1.228
 4361SOL    HW113982   2.131   4.075   1.228
 4361SOL    HW213983   2.001   3.983   1.267
 4362SOL     OW13984   0.030   6.069   4.295
 4362SOL    HW113985   0.064   6.073   4.201
 4362SOL    HW213986   6.983   5.997   4.302
 4363SOL     OW13987   4.731   1.102   1.552
 4363SOL    HW113988   4.667   1.123   1.626
 4363SOL    HW213989   4.781   1.185   1.527
 4364SOL     OW13990   3.284   4.123   3.563
 4364SOL    HW113991   3.192   4.108   3.525
 4364SOL    HW213992   3.349   4.060   3.520
 4365SOL     OW13993   2.949   0.905   2.491
 4365SOL    HW113994   2.907   0.863   2.571
 4365SOL    HW213995   2.921   0.856   2.409
 4366SOL     OW13996   6.034   6.289   6.867
 4366SOL    HW113997   6.015   6.303   6.964
 4366SOL    HW213998   5.960   6.327   6.812
 4367SOL     OW13999   2.535   4.948   3.695
 4367SOL    HW114000   2.444   4.988   3.700
 4367SOL    HW214001   2.546   4.879   3.767
 4368SOL     OW14002   3.844   5.580   1.760
 4368SOL    HW114003   3.773   5.541   1.818
 4368SOL    HW214004   3.868   5.671   1.793
 4369SOL     OW14005   4.622   5.237   3.225
 4369SOL    HW114006   4.688   5.189   3.167
 4369SOL    HW214007   4.548   5.274   3.168
 4370SOL     OW14008   3.595   4.312   1.387
 4370SOL    HW114009   3.591   4.242   1.316
 4370SOL    HW214010   3.592   4.403   1.344
 4371SOL     OW14011   1.913   1.972   2.729
 4371SOL    HW114012   1.914   1.969   2.829
 4371SOL    HW214013   1.854   2.046   2.698
 4372SOL     OW14014   2.406   2.678   4.765
 4372SOL    HW114015   2.502   2.663   4.740
 4372SOL    HW214016   2.393   2.773   4.793
 4373SOL     OW14017   4.619   1.212   6.648
 4373SOL    HW114018   4.600   1.115   6.661
 4373SOL    HW214019   4.575   1.265   6.720
 4374SOL     OW14020   1.893   1.582   1.630
 4374SOL    HW114021   1.875   1.599   1.726
 4374SOL    HW214022   1.980   1.532   1.620
 4375SOL     OW14023   3.880   5.791   2.883
 4375SOL    HW114024   3.886   5.733   2.964
 4375SOL    HW214025   3.865   5.734   2.802
 4376SOL     OW14026   6.255   0.675   1.985
 4376SOL    HW114027   6.339   0.698   2.035
 4376SOL    HW214028   6.193   0.625   2.046
 4377SOL     OW14029   5.804   5.652   0.489
 4377SOL    HW114030   5.715   5.699   0.485
 4377SOL    HW214031   5.877   5.721   0.485
 4378SOL     OW14032   1.903   3.901   2.894
 4378SOL    HW114033   1.962   3.878   2.817
 4378SOL    HW214034   1.865   3.818   2.934
 4379SOL     OW14035   2.347   1.211   1.908
 4379SOL    HW114036   2.257   1.224   1.867
 4379SOL    HW214037   2.337   1.195   2.007
 4380SOL     OW14038   1.690   6.422   4.040
 4380SOL    HW114039   1.744   6.351   3.994
 4380SOL    HW214040   1.721   6.512   4.011
 4381SOL     OW14041   2.232   4.130   4.729
 4381SOL    HW114042   2.163   4.057   4.729
 4381SOL    HW214043   2.292   4.118   4.808
 4382SOL     OW14044   5.893   3.060   6.286
 4382SOL    HW114045   5.936   2.972   6.265
 4382SOL    HW214046   5.796   3.056   6.265
 4383SOL     OW14047   0.516   2.908   5.645
 4383SOL    HW114048   0.451   2.873   5.577
 4383SOL    HW214049   0.466   2.953   5.719
 4384SOL     OW14050   5.659   1.135   6.647
 4384SOL    HW114051   5.578   1.170   6.600
 4384SOL    HW214052   5.633   1.102   6.738
 4385SOL     OW14053   6.861   2.342   4.674
 4385SOL    HW114054   6.822   2.332   4.765
 4385SOL    HW214055   6.913   2.427   4.669
 4386SOL     OW14056   1.186   3.994   6.548
 4386SOL    HW114057   1.090   3.991   6.521
 4386SOL    HW214058   1.237   3.922   6.502
 4387SOL     OW14059   1.438   1.613   1.654
 4387SOL    HW114060   1.409   1.708   1.647
 4387SOL    HW214061   1.397   1.560   1.580
 4388SOL     OW14062   4.826   0.923   6.160
 4388SOL    HW114063   4.755   0.853   6.150
 4388SOL    HW214064   4.798   1.005   6.110
 4389SOL     OW14065   5.386   1.984   0.365
 4389SOL    HW114066   5.328   2.065   0.358
 4389SOL    HW214067   5.338   1.906   0.324
 4390SOL     OW14068   4.237   1.894   2.263
 4390SOL    HW114069   4.335   1.906   2.246
 4390SOL    HW214070   4.209   1.947   2.342
 4391SOL     OW14071   1.777   5.690   6.113
 4391SOL    HW114072   1.850   5.713   6.048
 4391SOL    HW214073   1.742   5.774   6.155
 4392SOL     OW14074   6.346   3.550   5.272
 4392SOL    HW114075   6.271   3.617   5.274
 4392SOL    HW214076   6.318   3.471   5.216
 4393SOL     OW14077   5.661   6.399   3.327
 4393SOL    HW114078   5.686   6.487   3.287
 4393SOL    HW214079   5.729   6.373   3.395
 4394SOL     OW14080   6.427   5.356   2.743
 4394SOL    HW114081   6.482   5.422   2.691
 4394SOL    HW214082   6.345   5.401   2.778
 4395SOL     OW14083   3.912   1.007   2.087
 4395SOL    HW114084   3.868   1.009   1.997
 4395SOL    HW214085   3.958   1.095   2.103
 4396SOL     OW14086   2.267   2.217   4.190
 4396SOL    HW114087   2.366   2.204   4.178
 4396SOL    HW214088   2.229   2.261   4.108
 4397SOL     OW14089   0.908   1.909   4.938
 4397SOL    HW114090   0.853   1.885   4.858
 4397SOL    HW214091   0.847   1.924   5.017
 4398SOL     OW14092   1.346   4.759   4.632
 4398SOL    HW114093   1.435   4.801   4.648
 4398SOL    HW214094   1.352   4.699   4.552
 4399SOL     OW14095   1.490   0.493   2.393
 4399SOL    HW114096   1.407   0.531   2.354
 4399SOL    HW214097   1.522   0.417   2.336
 4400SOL     OW14098   2.317   0.307   5.167
 4400SOL    HW114099   2.290   0.268   5.079
 4400SOL    HW214100   2.238   0.309   5.229
 4401SOL     OW14101   5.446   6.877   6.942
 4401SOL    HW114102   5.532   6.877   6.993
 4401SOL    HW214103   5.374   6.919   6.997
 4402SOL     OW14104   1.947   6.590   1.824
 4402SOL    HW114105   1.870   6.647   1.852
 4402SOL    HW214106   1.917   6.527   1.752
 4403SOL     OW14107   0.217   0.259   3.554
 4403SOL    HW114108   0.144   0.260   3.622
 4403SOL    HW214109   0.211   0.175   3.500
 4404SOL     OW14110   0.777   4.173   5.498
 4404SOL    HW114111   0.876   4.157   5.500
 4404SOL    HW214112   0.739   4.136   5.414
 4405SOL     OW14113   2.902   4.102   0.450
 4405SOL    HW114114   2.846   4.110   0.368
 4405SOL    HW214115   2.991   4.144   0.434
 4406SOL     OW14116   5.907   4.780   1.462
 4406SOL    HW114117   5.876   4.861   1.413
 4406SOL    HW214118   5.844   4.704   1.444
 4407SOL     OW14119   6.910   4.366   0.575
 4407SOL    HW114120   6.955   4.419   0.647
 4407SOL    HW214121   6.955   4.277   0.565
 4408SOL     OW14122   4.428   1.213   0.966
 4408SOL    HW114123   4.419   1.302   1.011
 4408SOL    HW214124   4.512   1.168   0.998
 4409SOL     OW14125   4.047   0.421   2.088
 4409SOL    HW114126   4.105   0.427   2.169
 4409SOL    HW214127   3.999   0.334   2.088
 4410SOL     OW14128   1.694   5.401   0.269
 4410SOL    HW114129   1.786   5.383   0.304
 4410SOL    HW214130   1.626   5.373   0.337
 4411SOL     OW14131   3.997   3.207   3.721
 4411SOL    HW114132   4.064   3.279   3.738
 4411SOL    HW214133   3.914   3.227   3.773
 4412SOL     OW14134   3.579   0.969   4.745
 4412SOL    HW114135   3.600   0.985   4.649
 4412SOL    HW214136   3.508   0.899   4.753
 4413SOL     OW14137   4.848   5.473   4.672
 4413SOL    HW114138   4.886   5.380   4.675
 4413SOL    HW214139   4.749   5.467   4.661
 4414SOL     OW14140   3.927   4.884   1.860
 4414SOL    HW114141   4.027   4.888   1.868
 4414SOL    HW214142   3.891   4.976   1.846
 4415SOL     OW14143   4.331   4.192   5.921
 4415SOL    HW114144   4.347   4.115   5.983
 4415SOL    HW214145   4.302   4.157   5.832
 4416SOL     OW14146   3.191   0.791   3.958
 4416SOL    HW114147   3.176   0.890   3.958
 4416SOL    HW214148   3.253   0.766   3.884
 4417SOL     OW14149   6.228   4.291   3.493
 4417SOL    HW114150   6.315   4.270   3.448
 4417SOL    HW214151   6.236   4.274   3.591
 4418SOL     OW14152   5.098   0.576   3.634
 4418SOL    HW114153   5.027   0.529   3.581
 4418SOL    HW214154   5.185   0.527   3.625
 4419SOL     OW14155   5.518   6.219   0.598
 4419SOL    HW114156   5.478   6.152   0.661
 4419SOL    HW214157   5.600   6.259   0.639
 4420SOL     OW14158   5.115   1.909   1.294
 4420SOL    HW114159   5.074   1.967   1.223
 4420SOL    HW214160   5.099   1.813   1.271
 4421SOL     OW14161   1.946   0.996   3.473
 4421SOL    HW114162   1.894   1.014   3.556
 4421SOL    HW214163   1.988   1.081   3.441
 4422SOL     OW14164   2.075   3.812   5.773
 4422SOL    HW114165   2.044   3.718   5.759
 4422SOL    HW214166   2.153   3.831   5.713
 4423SOL     OW14167   1.253   2.573   5.516
 4423SOL    HW114168   1.186   2.501   5.531
 4423SOL    HW214169   1.301   2.558   5.430
 4424SOL     OW14170   4.869   0.100   4.187
 4424SOL    HW114171   4.867   0.090   4.287
 4424SOL    HW214172   4.893   0.195   4.164
 4425SOL     OW14173   3.538   5.584   5.683
 4425SOL    HW114174   3.491   5.659   5.636
 4425SOL    HW214175   3.600   5.622   5.752
 4426SOL     OW14176   0.074   2.104   4.897
 4426SOL    HW114177   0.005   2.032   4.902
 4426SOL    HW214178   0.107   2.125   4.989
 4427SOL     OW14179   6.715   6.783   3.062
 4427SOL    HW114180   6.768   6.863   3.092
 4427SOL    HW214181   6.632   6.813   3.016
 4428SOL     OW14182   3.379   5.379   1.762
 4428SOL    HW114183   3.437   5.418   1.691
 4428SOL    HW214184   3.283   5.394   1.738
 4429SOL     OW14185   3.051   0.502   3.238
 4429SOL    HW114186   3.042   0.523   3.140
 4429SOL    HW214187   2.965   0.524   3.285
 4430SOL     OW14188   5.368   3.113   4.821
 4430SOL    HW114189   5.286   3.110   4.879
 4430SOL    HW214190   5.356   3.181   4.750
 4431SOL     OW14191   1.271   0.619   2.298
 4431SOL    HW114192   1.231   0.533   2.267
 4431SOL    HW214193   1.261   0.688   2.226
 4432SOL     OW14194   3.321   4.094   3.844
 4432SOL    HW114195   3.421   4.090   3.848
 4432SOL    HW214196   3.293   4.121   3.751
 4433SOL     OW14197   5.633   0.414   4.622
 4433SOL    HW114198   5.663   0.323   4.651
 4433SOL    HW214199   5.680   0.440   4.538
 4434SOL     OW14200   3.540   1.996   3.462
 4434SOL    HW114201   3.470   2.020   3.395
 4434SOL    HW214202   3.578   2.080   3.501
 4435SOL     OW14203   3.829   4.037   0.945
 4435SOL    HW114204   3.881   4.001   1.022
 4435SOL    HW214205   3.872   4.009   0.859
 4436SOL     OW14206   3.887   1.881   0.619
 4436SOL    HW114207   3.801   1.927   0.596
 4436SOL    HW214208   3.887   1.857   0.716
 4437SOL     OW14209   5.529   1.128   4.249
 4437SOL    HW114210   5.459   1.080   4.302
 4437SOL    HW214211   5.517   1.226   4.260
 4438SOL     OW14212   4.326   1.316   6.985
 4438SOL    HW114213   4.233   1.334   7.019
 4438SOL    HW214214   4.333   1.348   6.891
 4439SOL     OW14215   0.465   6.214   1.244
 4439SOL    HW114216   0.521   6.143   1.286
 4439SOL    HW214217   0.515   6.257   1.169
 4440SOL     OW14218   1.753   4.893   0.941
 4440SOL    HW114219   1.821   4.831   0.980
 4440SOL    HW214220   1.773   4.907   0.844
 4441SOL     OW14221   6.639   1.714   2.879
 4441SOL    HW114222   6.550   1.739   2.916
 4441SOL    HW214223   6.696   1.796   2.873
 4442SOL     OW14224   2.744   5.922   4.878
 4442SOL    HW114225   2.824   5.889   4.828
 4442SOL    HW214226   2.736   6.021   4.865
 4443SOL     OW14227   6.665   2.733   0.843
 4443SOL    HW114228   6.661   2.723   0.744
 4443SOL    HW214229   6.594   2.796   0.873
 4444SOL     OW14230   3.933   5.649   6.131
 4444SOL    HW114231   3.859   5.715   6.148
 4444SOL    HW214232   3.987   5.680   6.053
 4445SOL     OW14233   6.953   0.660   1.171
 4445SOL    HW114234   0.014   0.706   1.140
 4445SOL    HW214235   6.957   0.563   1.147
 4446SOL     OW14236   6.521   1.808   1.909
 4446SOL    HW114237   6.448   1.826   1.843
 4446SOL    HW214238   6.481   1.774   1.994
 4447SOL     OW14239   6.015   3.547   6.165
 4447SOL    HW114240   6.009   3.455   6.125
 4447SOL    HW214241   5.947   3.556   6.238
 4448SOL     OW14242   3.162   4.202   0.721
 4448SOL    HW114243   3.146   4.108   0.749
 4448SOL    HW214244   3.182   4.205   0.623
 4449SOL     OW14245   4.705   0.644   6.017
 4449SOL    HW114246   4.798   0.609   6.022
 4449SOL    HW214247   4.660   0.632   6.106
 4450SOL     OW14248   4.037   3.671   4.273
 4450SOL    HW114249   4.074   3.722   4.351
 4450SOL    HW214250   3.938   3.659   4.286
 4451SOL     OW14251   5.755   4.151   3.341
 4451SOL    HW114252   5.852   4.134   3.359
 4451SOL    HW214253   5.700   4.108   3.413
 4452SOL     OW14254   5.244   6.617   4.522
 4452SOL    HW114255   5.297   6.676   4.460
 4452SOL    HW214256   5.289   6.614   4.611
 4453SOL     OW14257   6.826   2.956   1.399
 4453SOL    HW114258   6.768   2.963   1.480
 4453SOL    HW214259   6.800   3.027   1.334
 4454SOL     OW14260   5.850   2.282   7.012
 4454SOL    HW114261   5.879   2.195   0.030
 4454SOL    HW214262   5.911   2.306   6.937
 4455SOL     OW14263   4.169   0.669   6.280
 4455SOL    HW114264   4.141   0.579   6.313
 4455SOL    HW214265   4.093   0.734   6.291
 4456SOL     OW14266   2.698   5.444   2.405
 4456SOL    HW114267   2.675   5.532   2.364
 4456SOL    HW214268   2.614   5.391   2.419
 4457SOL     OW14269   4.350   2.620   0.350
 4457SOL    HW114270   4.280   2.552   0.371
 4457SOL    HW214271   4.368   2.675   0.431
 4458SOL     OW14272   1.230   3.890   6.823
 4458SOL    HW114273   1.196   3.965   6.766
 4458SOL    HW214274   1.213   3.803   6.777
 4459SOL     OW14275   4.816   0.548   3.859
 4459SOL    HW114276   4.901   0.589   3.894
 4459SOL    HW214277   4.834   0.456   3.827
 4460SOL     OW14278   2.956   3.055   5.233
 4460SOL    HW114279   2.970   2.957   5.249
 4460SOL    HW214280   2.876   3.086   5.284
 4461SOL     OW14281   1.378   0.532   2.705
 4461SOL    HW114282   1.412   0.457   2.649
 4461SOL    HW214283   1.364   0.612   2.648
 4462SOL     OW14284   0.198   3.165   2.081
 4462SOL    HW114285   0.240   3.198   2.165
 4462SOL    HW214286   0.209   3.066   2.074
 4463SOL     OW14287   3.928   3.100   0.164
 4463SOL    HW114288   4.013   3.125   0.117
 4463SOL    HW214289   3.857   3.082   0.096
 4464SOL     OW14290   6.608   4.287   6.620
 4464SOL    HW114291   6.513   4.313   6.639
 4464SOL    HW214292   6.612   4.190   6.596
 4465SOL     OW14293   2.212   5.573   2.457
 4465SOL    HW114294   2.145   5.578   2.531
 4465SOL    HW214295   2.273   5.653   2.461
 4466SOL     OW14296   1.429   0.930   2.774
 4466SOL    HW114297   1.373   0.851   2.748
 4466SOL    HW214298   1.398   1.011   2.725
 4467SOL     OW14299   1.371   6.990   3.594
 4467SOL    HW114300   1.272   6.983   3.604
 4467SOL    HW214301   1.405   0.042   3.652
 4468SOL     OW14302   1.363   2.666   0.946
 4468SOL    HW114303   1.267   2.648   0.926
 4468SOL    HW214304   1.412   2.579   0.953
 4469SOL     OW14305   3.956   0.509   1.553
 4469SOL    HW114306   3.942   0.537   1.648
 4469SOL    HW214307   4.053   0.518   1.530
 4470SOL     OW14308   6.156   3.022   2.175
 4470SOL    HW114309   6.189   3.113   2.150
 4470SOL    HW214310   6.065   3.008   2.136
 4471SOL     OW14311   0.145   1.892   0.411
 4471SOL    HW114312   0.136   1.954   0.488
 4471SOL    HW214313   0.086   1.812   0.425
 4472SOL     OW14314   1.865   3.167   3.602
 4472SOL    HW114315   1.816   3.151   3.687
 4472SOL    HW214316   1.964   3.169   3.620
 4473SOL     OW14317   0.114   2.662   4.061
 4473SOL    HW114318   0.018   2.655   4.035
 4473SOL    HW214319   0.166   2.705   3.987
 4474SOL     OW14320   3.741   0.669   1.957
 4474SOL    HW114321   3.799   0.633   1.884
 4474SOL    HW214322   3.686   0.595   1.996
 4475SOL     OW14323   1.717   3.860   2.367
 4475SOL    HW114324   1.761   3.933   2.420
 4475SOL    HW214325   1.698   3.782   2.427
 4476SOL     OW14326   4.585   6.468   4.307
 4476SOL    HW114327   4.556   6.388   4.360
 4476SOL    HW214328   4.684   6.466   4.297
 4477SOL     OW14329   1.096   0.465   5.440
 4477SOL    HW114330   1.002   0.500   5.433
 4477SOL    HW214331   1.097   0.367   5.420
 4478SOL     OW14332   3.360   5.899   2.412
 4478SOL    HW114333   3.329   5.839   2.338
 4478SOL    HW214334   3.436   5.857   2.460
 4479SOL     OW14335   0.537   0.897   1.027
 4479SOL    HW114336   0.587   0.875   1.111
 4479SOL    HW214337   0.486   0.816   0.997
 4480SOL     OW14338   1.779   3.571   5.398
 4480SOL    HW114339   1.685   3.538   5.407
 4480SOL    HW214340   1.778   3.670   5.384
 4481SOL     OW14341   2.392   6.699   5.127
 4481SOL    HW114342   2.439   6.761   5.065
 4481SOL    HW214343   2.460   6.650   5.182
 4482SOL     OW14344   6.998   4.066   4.188
 4482SOL    HW114345   0.005   4.162   4.180
 4482SOL    HW214346   7.017   4.019   4.102
 4483SOL     OW14347   4.954   3.492   2.283
 4483SOL    HW114348   4.992   3.500   2.375
 4483SOL    HW214349   4.885   3.563   2.270
 4484SOL     OW14350   3.416   2.988   5.318
 4484SOL    HW114351   3.513   2.965   5.312
 4484SOL    HW214352   3.386   2.981   5.414
 4485SOL     OW14353   5.202   1.631   5.411
 4485SOL    HW114354   5.273   1.612   5.479
 4485SOL    HW214355   5.112   1.617   5.451
 4486SOL     OW14356   5.237   3.737   4.350
 4486SOL    HW114357   5.318   3.706   4.300
 4486SOL    HW214358   5.239   3.701   4.443
 4487SOL     OW14359   2.460   3.008   6.475
 4487SOL    HW114360   2.512   3.066   6.538
 4487SOL    HW214361   2.432   2.924   6.523
 4488SOL     OW14362   6.187   3.390   5.106
 4488SOL    HW114363   6.094   3.352   5.113
 4488SOL    HW214364   6.199   3.431   5.016
 4489SOL     OW14365   5.885   5.289   4.359
 4489SOL    HW114366   5.975   5.333   4.358
 4489SOL    HW214367   5.873   5.236   4.276
 4490SOL     OW14368   6.580   2.402   2.984
 4490SOL    HW114369   6.529   2.468   3.039
 4490SOL    HW214370   6.653   2.361   3.039
 4491SOL     OW14371   0.192   2.579   4.615
 4491SOL    HW114372   0.281   2.600   4.655
 4491SOL    HW214373   0.120   2.622   4.669
 4492SOL     OW14374   5.089   3.398   1.212
 4492SOL    HW114375   5.113   3.471   1.276
 4492SOL    HW214376   4.997   3.413   1.177
 4493SOL     OW14377   4.722   6.121   5.292
 4493SOL    HW114378   4.779   6.070   5.228
 4493SOL    HW214379   4.648   6.063   5.324
 4494SOL     OW14380   0.078   1.357   5.756
 4494SOL    HW114381   0.100   1.399   5.668
 4494SOL    HW214382   0.020   1.277   5.741
 4495SOL     OW14383   5.094   5.546   4.295
 4495SOL    HW114384   5.058   5.454   4.309
 4495SOL    HW214385   5.020   5.612   4.299
 4496SOL     OW14386   4.721   5.576   1.133
 4496SOL    HW114387   4.656   5.504   1.157
 4496SOL    HW214388   4.685   5.629   1.056
 4497SOL     OW14389   4.981   0.672   6.397
 4497SOL    HW114390   4.928   0.587   6.404
 4497SOL    HW214391   4.968   0.711   6.306
 4498SOL     OW14392   6.721   3.329   6.465
 4498SOL    HW114393   6.715   3.263   6.390
 4498SOL    HW214394   6.663   3.408   6.445
 4499SOL     OW14395   0.202   3.517   3.827
 4499SOL    HW114396   0.253   3.435   3.853
 4499SOL    HW214397   0.186   3.573   3.909
 4500SOL     OW14398   3.050   3.425   4.022
 4500SOL    HW114399   3.113   3.444   3.947
 4500SOL    HW214400   2.998   3.342   4.002
 4501SOL     OW14401   6.917   3.326   5.483
 4501SOL    HW114402   6.919   3.424   5.500
 4501SOL    HW214403   6.957   3.306   5.394
 4502SOL     OW14404   1.372   2.094   0.147
 4502SOL    HW114405   1.470   2.110   0.159
 4502SOL    HW214406   1.354   2.064   0.053
 4503SOL     OW14407   3.532   6.803   2.601
 4503SOL    HW114408   3.479   6.723   2.573
 4503SOL    HW214409   3.539   6.805   2.701
 4504SOL     OW14410   6.487   1.149   4.732
 4504SOL    HW114411   6.555   1.220   4.710
 4504SOL    HW214412   6.526   1.059   4.713
 4505SOL     OW14413   6.151   5.626   3.240
 4505SOL    HW114414   6.157   5.659   3.146
 4505SOL    HW214415   6.171   5.701   3.303
 4506SOL     OW14416   4.558   2.313   3.957
 4506SOL    HW114417   4.608   2.359   4.030
 4506SOL    HW214418   4.490   2.251   3.996
 4507SOL     OW14419   5.458   4.657   2.649
 4507SOL    HW114420   5.411   4.738   2.613
 4507SOL    HW214421   5.556   4.673   2.649
 4508SOL     OW14422   1.006   4.689   5.789
 4508SOL    HW114423   0.989   4.684   5.887
 4508SOL    HW214424   1.068   4.615   5.762
 4509SOL     OW14425   5.126   2.367   3.191
 4509SOL    HW114426   5.062   2.315   3.247
 4509SOL    HW214427   5.078   2.406   3.113
 4510SOL     OW14428   4.696   0.027   5.165
 4510SOL    HW114429   4.628   0.045   5.094
 4510SOL    HW214430   4.697   0.103   5.231
 4511SOL     OW14431   6.972   3.236   6.550
 4511SOL    HW114432   6.872   3.242   6.547
 4511SOL    HW214433   7.003   3.255   6.643
 4512SOL     OW14434   2.549   0.205   5.685
 4512SOL    HW114435   2.459   0.174   5.656
 4512SOL    HW214436   2.619   0.161   5.629
 4513SOL     OW14437   4.766   6.629   0.725
 4513SOL    HW114438   4.812   6.686   0.657
 4513SOL    HW214439   4.667   6.633   0.709
 4514SOL     OW14440   4.737   1.252   4.876
 4514SOL    HW114441   4.818   1.232   4.820
 4514SOL    HW214442   4.766   1.297   4.960
 4515SOL     OW14443   0.372   3.351   6.004
 4515SOL    HW114444   0.327   3.344   5.915
 4515SOL    HW214445   0.452   3.411   5.996
 4516SOL     OW14446   1.927   0.334   6.299
 4516SOL    HW114447   1.854   0.356   6.234
 4516SOL    HW214448   1.888   0.317   6.389
 4517SOL     OW14449   2.392   0.973   6.855
 4517SOL    HW114450   2.319   0.936   6.798
 4517SOL    HW214451   2.416   1.065   6.823
 4518SOL     OW14452   6.725   1.025   3.390
 4518SOL    HW114453   6.758   1.109   3.347
 4518SOL    HW214454   6.677   0.969   3.323
 4519SOL     OW14455   5.727   0.257   2.125
 4519SOL    HW114456   5.685   0.179   2.171
 4519SOL    HW214457   5.821   0.269   2.156
 4520SOL     OW14458   5.433   6.109   3.631
 4520SOL    HW114459   5.422   6.100   3.532
 4520SOL    HW214460   5.409   6.022   3.675
 4521SOL     OW14461   5.376   1.783   4.113
 4521SOL    HW114462   5.425   1.727   4.046
 4521SOL    HW214463   5.327   1.856   4.064
 4522SOL     OW14464   5.652   0.022   3.845
 4522SOL    HW114465   5.686   0.106   3.803
 4522SOL    HW214466   5.555   0.033   3.867
 4523SOL     OW14467   1.566   4.484   0.174
 4523SOL    HW114468   1.592   4.573   0.211
 4523SOL    HW214469   1.649   4.429   0.160
 4524SOL     OW14470   5.473   2.285   4.431
 4524SOL    HW114471   5.409   2.218   4.467
 4524SOL    HW214472   5.494   2.353   4.502
 4525SOL     OW14473   5.354   1.024   3.183
 4525SOL    HW114474   5.379   1.120   3.180
 4525SOL    HW214475   5.383   0.979   3.099
 4526SOL     OW14476   4.994   0.509   1.008
 4526SOL    HW114477   5.087   0.544   1.015
 4526SOL    HW214478   4.964   0.513   0.912
 4527SOL     OW14479   4.389   1.536   3.602
 4527SOL    HW114480   4.355   1.462   3.544
 4527SOL    HW214481   4.385   1.622   3.551
 4528SOL     OW14482   4.550   6.666   6.578
 4528SOL    HW114483   4.462   6.709   6.600
 4528SOL    HW214484   4.624   6.730   6.597
 4529SOL     OW14485   3.262   1.863   4.544
 4529SOL    HW114486   3.231   1.786   4.488
 4529SOL    HW214487   3.192   1.886   4.612
 4530SOL     OW14488   0.325   3.641   5.620
 4530SOL    HW114489   0.249   3.646   5.685
 4530SOL    HW214490   0.385   3.720   5.633
 4531SOL     OW14491   0.615   3.444   3.761
 4531SOL    HW114492   0.608   3.536   3.722
 4531SOL    HW214493   0.531   3.423   3.812
 4532SOL     OW14494   6.159   1.733   3.446
 4532SOL    HW114495   6.096   1.709   3.520
 4532SOL    HW214496   6.123   1.698   3.359
 4533SOL     OW14497   1.647   0.456   2.618
 4533SOL    HW114498   1.612   0.381   2.675
 4533SOL    HW214499   1.604   0.452   2.528
 4534SOL     OW14500   5.512   4.301   4.939
 4534SOL    HW114501   5.477   4.208   4.929
 4534SOL    HW214502   5.481   4.357   4.862
 4535SOL     OW14503   5.016   1.792   2.657
 4535SOL    HW114504   5.015   1.870   2.720
 4535SOL    HW214505   5.069   1.815   2.576
 4536SOL     OW14506   4.118   2.253   4.016
 4536SOL    HW114507   4.212   2.284   4.008
 4536SOL    HW214508   4.099   2.228   4.111
 4537SOL     OW14509   3.842   2.893   6.041
 4537SOL    HW114510   3.771   2.886   5.972
 4537SOL    HW214511   3.898   2.974   6.023
 4538SOL     OW14512   2.997   0.806   4.410
 4538SOL    HW114513   2.929   0.762   4.468
 4538SOL    HW214514   2.953   0.844   4.329
 4539SOL     OW14515   2.319   0.959   3.896
 4539SOL    HW114516   2.340   0.875   3.846
 4539SOL    HW214517   2.234   0.947   3.947
 4540SOL     OW14518   3.097   3.064   4.461
 4540SOL    HW114519   3.069   2.983   4.511
 4540SOL    HW214520   3.111   3.140   4.524
 4541SOL     OW14521   5.502   1.668   0.392
 4541SOL    HW114522   5.456   1.598   0.338
 4541SOL    HW214523   5.460   1.757   0.374
 4542SOL     OW14524   6.339   0.181   2.330
 4542SOL    HW114525   6.364   0.214   2.239
 4542SOL    HW214526   6.366   0.085   2.340
 4543SOL     OW14527   5.146   1.854   0.967
 4543SOL    HW114528   5.064   1.813   1.006
 4543SOL    HW214529   5.127   1.883   0.873
 4544SOL     OW14530   3.234   6.400   5.967
 4544SOL    HW114531   3.234   6.469   6.039
 4544SOL    HW214532   3.238   6.309   6.007
 4545SOL     OW14533   5.485   2.513   4.606
 4545SOL    HW114534   5.575   2.552   4.585
 4545SOL    HW214535   5.416   2.585   4.604
 4546SOL     OW14536   1.678   1.551   6.570
 4546SOL    HW114537   1.671   1.467   6.516
 4546SOL    HW214538   1.685   1.528   6.667
 4547SOL     OW14539   6.424   2.650   3.068
 4547SOL    HW114540   6.495   2.715   3.093
 4547SOL    HW214541   6.414   2.647   2.969
 4548SOL     OW14542   1.045   4.434   4.653
 4548SOL    HW114543   0.960   4.421   4.602
 4548SOL    HW214544   1.122   4.434   4.589
 4549SOL     OW14545   5.729   3.784   2.291
 4549SOL    HW114546   5.743   3.836   2.375
 4549SOL    HW214547   5.817   3.748   2.258
 4550SOL     OW14548   0.701   6.165   2.851
 4550SOL    HW114549   0.736   6.151   2.759
 4550SOL    HW214550   0.774   6.203   2.909
 4551SOL     OW14551   6.364   1.557   6.264
 4551SOL    HW114552   6.424   1.636   6.279
 4551SOL    HW214553   6.275   1.575   6.306
 4552SOL     OW14554   6.427   2.905   0.973
 4552SOL    HW114555   6.361   2.885   0.902
 4552SOL    HW214556   6.398   2.986   1.024
 4553SOL     OW14557   3.851   4.548   6.752
 4553SOL    HW114558   3.848   4.498   6.839
 4553SOL    HW214559   3.807   4.493   6.681
 4554SOL     OW14560   4.415   0.436   1.633
 4554SOL    HW114561   4.440   0.345   1.665
 4554SOL    HW214562   4.451   0.505   1.696
 4555SOL     OW14563   3.498   1.915   5.585
 4555SOL    HW114564   3.406   1.878   5.586
 4555SOL    HW214565   3.507   1.982   5.659
 4556SOL     OW14566   4.715   2.579   3.694
 4556SOL    HW114567   4.713   2.610   3.789
 4556SOL    HW214568   4.743   2.483   3.691
 4557SOL     OW14569   4.912   6.726   4.981
 4557SOL    HW114570   4.889   6.697   4.888
 4557SOL    HW214571   4.898   6.824   4.990
 4558SOL     OW14572   0.353   3.399   5.506
 4558SOL    HW114573   0.331   3.342   5.585
 4558SOL    HW214574   0.329   3.494   5.526
 4559SOL     OW14575   0.712   4.488   2.079
 4559SOL    HW114576   0.629   4.456   2.125
 4559SOL    HW214577   0.712   4.457   1.984
 4560SOL     OW14578   4.797   4.928   3.388
 4560SOL    HW114579   4.739   4.874   3.327
 4560SOL    HW214580   4.741   4.995   3.437
 4561SOL     OW14581   2.825   0.950   1.241
 4561SOL    HW114582   2.922   0.972   1.253
 4561SOL    HW214583   2.808   0.928   1.145
 4562SOL     OW14584   3.253   6.170   5.229
 4562SOL    HW114585   3.339   6.177   5.179
 4562SOL    HW214586   3.226   6.260   5.262
 4563SOL     OW14587   0.727   4.179   0.646
 4563SOL    HW114588   0.753   4.191   0.742
 4563SOL    HW214589   0.803   4.204   0.587
 4564SOL     OW14590   0.411   6.878   0.642
 4564SOL    HW114591   0.511   6.876   0.647
 4564SOL    HW214592   0.375   6.790   0.673
 4565SOL     OW14593   0.060   1.049   5.905
 4565SOL    HW114594   0.126   1.022   5.975
 4565SOL    HW214595   0.109   1.081   5.824
 4566SOL     OW14596   6.717   1.668   0.642
 4566SOL    HW114597   6.666   1.750   0.668
 4566SOL    HW214598   6.809   1.672   0.680
 4567SOL     OW14599   0.189   1.085   0.035
 4567SOL    HW114600   0.157   1.021   6.987
 4567SOL    HW214601   0.126   1.085   0.112
 4568SOL     OW14602   0.804   4.611   5.316
 4568SOL    HW114603   0.894   4.574   5.340
 4568SOL    HW214604   0.814   4.703   5.279
 4569SOL     OW14605   1.892   1.403   3.260
 4569SOL    HW114606   1.938   1.491   3.268
 4569SOL    HW214607   1.876   1.382   3.164
 4570SOL     OW14608   0.799   5.733   3.403
 4570SOL    HW114609   0.762   5.690   3.321
 4570SOL    HW214610   0.726   5.742   3.471
 4571SOL     OW14611   3.069   3.057   6.001
 4571SOL    HW114612   2.976   3.022   5.994
 4571SOL    HW214613   3.079   3.137   5.941
 4572SOL     OW14614   1.162   7.020   6.662
 4572SOL    HW114615   1.140   7.013   6.565
 4572SOL    HW214616   1.081   0.026   6.713
 4573SOL     OW14617   6.114   6.154   0.304
 4573SOL    HW114618   6.128   6.154   0.403
 4573SOL    HW214619   6.042   6.219   0.281
 4574SOL     OW14620   6.704   3.995   1.399
 4574SOL    HW114621   6.788   3.942   1.394
 4574SOL    HW214622   6.644   3.956   1.470
 4575SOL     OW14623   6.068   2.135   6.227
 4575SOL    HW114624   6.096   2.186   6.145
 4575SOL    HW214625   6.110   2.044   6.224
 4576SOL     OW14626   2.303   5.988   6.421
 4576SOL    HW114627   2.374   6.050   6.390
 4576SOL    HW214628   2.324   5.895   6.390
 4577SOL     OW14629   0.883   2.244   3.915
 4577SOL    HW114630   0.949   2.201   3.853
 4577SOL    HW214631   0.840   2.174   3.972
 4578SOL     OW14632   1.176   3.261   3.794
 4578SOL    HW114633   1.176   3.220   3.703
 4578SOL    HW214634   1.240   3.337   3.797
 4579SOL     OW14635   5.428   2.260   2.595
 4579SOL    HW114636   5.406   2.195   2.668
 4579SOL    HW214637   5.411   2.353   2.627
 4580SOL     OW14638   4.788   5.454   6.849
 4580SOL    HW114639   4.791   5.554   6.849
 4580SOL    HW214640   4.713   5.422   6.907
 4581SOL     OW14641   3.138   5.392   3.243
 4581SOL    HW114642   3.177   5.450   3.172
 4581SOL    HW214643   3.108   5.306   3.202
 4582SOL     OW14644   5.568   6.528   4.896
 4582SOL    HW114645   5.515   6.611   4.878
 4582SOL    HW214646   5.547   6.494   4.988
 4583SOL     OW14647   2.923   1.222   5.022
 4583SOL    HW114648   2.922   1.275   5.107
 4583SOL    HW214649   2.846   1.251   4.964
 4584SOL     OW14650   0.169   4.984   5.373
 4584SOL    HW114651   0.180   4.941   5.463
 4584SOL    HW214652   0.235   4.945   5.309
 4585SOL     OW14653   2.852   6.498   2.882
 4585SOL    HW114654   2.758   6.466   2.870
 4585SOL    HW214655   2.853   6.579   2.941
 4586SOL     OW14656   4.310   5.041   0.372
 4586SOL    HW114657   4.301   5.140   0.359
 4586SOL    HW214658   4.406   5.015   0.365
 4587SOL     OW14659   4.025   3.879   2.037
 4587SOL    HW114660   4.024   3.930   2.123
 4587SOL    HW214661   3.954   3.808   2.040
 4588SOL     OW14662   4.330   4.485   5.536
 4588SOL    HW114663   4.288   4.413   5.481
 4588SOL    HW214664   4.397   4.444   5.599
 4589SOL     OW14665   5.500   1.248   2.101
 4589SOL    HW114666   5.569   1.319   2.093
 4589SOL    HW214667   5.455   1.234   2.013
 4590SOL     OW14668   5.109   5.710   1.099
 4590SOL    HW114669   5.065   5.751   1.019
 4590SOL    HW214670   5.052   5.724   1.180
 4591SOL     OW14671   0.322   6.069   5.148
 4591SOL    HW114672   0.241   6.094   5.200
 4591SOL    HW214673   0.397   6.049   5.211
 4592SOL     OW14674   4.043   2.089   2.051
 4592SOL    HW114675   3.981   2.010   2.049
 4592SOL    HW214676   4.072   2.106   2.145
 4593SOL     OW14677   3.901   5.770   4.077
 4593SOL    HW114678   3.908   5.717   3.993
 4593SOL    HW214679   3.832   5.842   4.066
 4594SOL     OW14680   3.248   1.088   1.812
 4594SOL    HW114681   3.237   1.124   1.905
 4594SOL    HW214682   3.198   1.147   1.748
 4595SOL     OW14683   3.445   2.583   6.202
 4595SOL    HW114684   3.433   2.502   6.260
 4595SOL    HW214685   3.535   2.623   6.218
 4596SOL     OW14686   5.879   6.514   2.957
 4596SOL    HW114687   5.800   6.483   2.905
 4596SOL    HW214688   5.961   6.465   2.926
 4597SOL     OW14689   5.074   4.595   6.750
 4597SOL    HW114690   5.078   4.693   6.731
 4597SOL    HW214691   5.124   4.575   6.835
 4598SOL     OW14692   2.063   4.963   0.329
 4598SOL    HW114693   2.104   4.976   0.419
 4598SOL    HW214694   2.093   4.875   0.292
 4599SOL     OW14695   1.622   5.030   0.280
 4599SOL    HW114696   1.644   5.039   0.183
 4599SOL    HW214697   1.672   5.099   0.332
 4600SOL     OW14698   1.352   4.968   5.012
 4600SOL    HW114699   1.279   4.933   4.954
 4600SOL    HW214700   1.416   5.021   4.956
 4601SOL     OW14701   1.495   0.058   5.421
 4601SOL    HW114702   1.504   7.020   5.501
 4601SOL    HW214703   1.512   0.005   5.338
 4602SOL     OW14704   0.969   5.837   0.891
 4602SOL    HW114705   1.024   5.920   0.894
 4602SOL    HW214706   0.872   5.862   0.884
 4603SOL     OW14707   3.671   6.394   1.526
 4603SOL    HW114708   3.645   6.461   1.458
 4603SOL    HW214709   3.764   6.413   1.558
 4604SOL     OW14710   4.584   0.705   2.054
 4604SOL    HW114711   4.642   0.624   2.064
 4604SOL    HW214712   4.641   0.787   2.046
 4605SOL     OW14713   3.785   0.933   3.371
 4605SOL    HW114714   3.793   0.954   3.469
 4605SOL    HW214715   3.756   0.838   3.359
 4606SOL     OW14716   1.273   6.830   1.211
 4606SOL    HW114717   1.189   6.814   1.158
 4606SOL    HW214718   1.249   6.846   1.306
 4607SOL     OW14719   2.338   2.513   0.997
 4607SOL    HW114720   2.276   2.561   0.935
 4607SOL    HW214721   2.305   2.522   1.091
 4608SOL     OW14722   0.620   5.730   3.628
 4608SOL    HW114723   0.538   5.751   3.682
 4608SOL    HW214724   0.698   5.719   3.690
 4609SOL     OW14725   4.068   5.281   6.086
 4609SOL    HW114726   4.092   5.239   5.998
 4609SOL    HW214727   4.112   5.370   6.093
 4610SOL     OW14728   4.967   2.444   0.619
 4610SOL    HW114729   5.016   2.455   0.705
 4610SOL    HW214730   4.984   2.352   0.583
 4611SOL     OW14731   6.624   5.972   5.847
 4611SOL    HW114732   6.631   5.913   5.928
 4611SOL    HW214733   6.647   6.066   5.873
 4612SOL     OW14734   0.812   5.630   7.011
 4612SOL    HW114735   0.904   5.591   7.015
 4612SOL    HW214736   0.759   5.599   0.069
 4613SOL     OW14737   2.727   6.171   2.328
 4613SOL    HW114738   2.690   6.253   2.285
 4613SOL    HW214739   2.825   6.167   2.311
 4614SOL     OW14740   0.890   4.537   4.870
 4614SOL    HW114741   0.941   4.491   4.798
 4614SOL    HW214742   0.798   4.558   4.837
 4615SOL     OW14743   1.962   0.774   6.904
 4615SOL    HW114744   1.893   0.760   6.833
 4615SOL    HW214745   2.006   0.686   6.925
 4616SOL     OW14746   5.777   0.145   5.476
 4616SOL    HW114747   5.723   0.226   5.498
 4616SOL    HW214748   5.857   0.140   5.536
 4617SOL     OW14749   1.019   2.388   2.192
 4617SOL    HW114750   1.067   2.351   2.113
 4617SOL    HW214751   1.036   2.487   2.199
 4618SOL     OW14752   2.323   2.533   5.608
 4618SOL    HW114753   2.368   2.445   5.589
 4618SOL    HW214754   2.229   2.531   5.573
 4619SOL     OW14755   3.314   6.166   3.034
 4619SOL    HW114756   3.216   6.146   3.029
 4619SOL    HW214757   3.330   6.234   3.106
 4620SOL     OW14758   3.772   4.139   0.127
 4620SOL    HW114759   3.701   4.113   0.191
 4620SOL    HW214760   3.852   4.172   0.177
 4621SOL     OW14761   4.786   1.211   3.073
 4621SOL    HW114762   4.733   1.144   3.022
 4621SOL    HW214763   4.738   1.299   3.074
 4622SOL     OW14764   2.117   4.283   0.385
 4622SOL    HW114765   2.136   4.185   0.389
 4622SOL    HW214766   2.025   4.301   0.420
 4623SOL     OW14767   6.543   6.255   0.769
 4623SOL    HW114768   6.542   6.351   0.798
 4623SOL    HW214769   6.606   6.204   0.828
 4624SOL     OW14770   5.352   6.950   3.350
 4624SOL    HW114771   5.320   6.937   3.444
 4624SOL    HW214772   5.422   6.882   3.329
 4625SOL     OW14773   2.084   4.620   0.420
 4625SOL    HW114774   2.162   4.559   0.437
 4625SOL    HW214775   2.076   4.639   0.323
 4626SOL     OW14776   5.636   5.171   2.660
 4626SOL    HW114777   5.545   5.135   2.640
 4626SOL    HW214778   5.667   5.227   2.582
 4627SOL     OW14779   3.291   5.114   3.828
 4627SOL    HW114780   3.283   5.212   3.812
 4627SOL    HW214781   3.265   5.093   3.922
 4628SOL     OW14782   5.592   3.562   3.924
 4628SOL    HW114783   5.614   3.645   3.872
 4628SOL    HW214784   5.551   3.495   3.862
 4629SOL     OW14785   2.622   5.027   5.062
 4629SOL    HW114786   2.627   5.120   5.099
 4629SOL    HW214787   2.661   4.963   5.128
 4630SOL     OW14788   3.760   5.840   2.149
 4630SOL    HW114789   3.847   5.834   2.197
 4630SOL    HW214790   3.724   5.748   2.132
 4631SOL     OW14791   2.484   6.352   3.561
 4631SOL    HW114792   2.464   6.297   3.642
 4631SOL    HW214793   2.405   6.410   3.541
 4632SOL     OW14794   4.080   5.014   2.620
 4632SOL    HW114795   4.119   4.934   2.666
 4632SOL    HW214796   4.012   4.984   2.553
 4633SOL     OW14797   5.750   1.459   3.614
 4633SOL    HW114798   5.811   1.457   3.693
 4633SOL    HW214799   5.655   1.466   3.644
 4634SOL     OW14800   2.671   4.612   6.332
 4634SOL    HW114801   2.765   4.594   6.303
 4634SOL    HW214802   2.659   4.710   6.348
 4635SOL     OW14803   5.660   3.520   2.192
 4635SOL    HW114804   5.696   3.567   2.111
 4635SOL    HW214805   5.657   3.585   2.269
 4636SOL     OW14806   2.328   4.865   0.059
 4636SOL    HW114807   2.423   4.873   0.028
 4636SOL    HW214808   2.276   4.945   0.029
 4637SOL     OW14809   0.899   0.459   0.075
 4637SOL    HW114810   0.881   0.557   0.071
 4637SOL    HW214811   0.945   0.430   7.013
 4638SOL     OW14812   4.332   2.710   6.703
 4638SOL    HW114813   4.392   2.669   6.771
 4638SOL    HW214814   4.241   2.723   6.743
 4639SOL     OW14815   2.385   4.530   4.990
 4639SOL    HW114816   2.358   4.484   4.905
 4639SOL    HW214817   2.485   4.542   4.990
 4640SOL     OW14818   4.886   4.619   3.955
 4640SOL    HW114819   4.803   4.666   3.983
 4640SOL    HW214820   4.965   4.680   3.968
 4641SOL     OW14821   2.902   6.042   4.441
 4641SOL    HW114822   2.835   5.968   4.434
 4641SOL    HW214823   2.988   6.005   4.477
 4642SOL     OW14824   0.679   6.036   4.469
 4642SOL    HW114825   0.772   6.057   4.440
 4642SOL    HW214826   0.662   6.074   4.560
 4643SOL     OW14827   5.865   2.915   1.242
 4643SOL    HW114828   5.803   2.960   1.178
 4643SOL    HW214829   5.902   2.983   1.305
 4644SOL     OW14830   0.705   4.797   4.918
 4644SOL    HW114831   0.626   4.853   4.943
 4644SOL    HW214832   0.777   4.810   4.986
 4645SOL     OW14833   0.854   0.934   4.928
 4645SOL    HW114834   0.763   0.960   4.959
 4645SOL    HW214835   0.900   1.013   4.889
 4646SOL     OW14836   2.791   6.007   3.254
 4646SOL    HW114837   2.744   6.001   3.166
 4646SOL    HW214838   2.805   5.916   3.291
 4647SOL     OW14839   1.193   0.278   3.794
 4647SOL    HW114840   1.128   0.210   3.827
 4647SOL    HW214841   1.280   0.266   3.841
 4648SOL     OW14842   4.170   0.791   2.023
 4648SOL    HW114843   4.085   0.755   2.061
 4648SOL    HW214844   4.231   0.716   2.000
 4649SOL     OW14845   5.083   0.175   5.809
 4649SOL    HW114846   5.156   0.241   5.793
 4649SOL    HW214847   5.067   0.166   5.907
 4650SOL     OW14848   4.681   5.723   3.948
 4650SOL    HW114849   4.683   5.798   4.014
 4650SOL    HW214850   4.592   5.677   3.953
 4651SOL     OW14851   6.875   1.561   1.213
 4651SOL    HW114852   6.924   1.604   1.136
 4651SOL    HW214853   6.780   1.589   1.211
 4652SOL     OW14854   0.710   0.358   4.578
 4652SOL    HW114855   0.767   0.438   4.594
 4652SOL    HW214856   0.749   0.279   4.625
 4653SOL     OW14857   6.304   4.954   6.927
 4653SOL    HW114858   6.403   4.947   6.913
 4653SOL    HW214859   6.285   5.023   6.996
 4654SOL     OW14860   0.221   6.306   0.400
 4654SOL    HW114861   0.166   6.385   0.424
 4654SOL    HW214862   0.223   6.295   0.300
 4655SOL     OW14863   6.475   5.692   1.479
 4655SOL    HW114864   6.555   5.634   1.461
 4655SOL    HW214865   6.504   5.775   1.527
 4656SOL     OW14866   0.987   0.490   3.518
 4656SOL    HW114867   1.056   0.417   3.524
 4656SOL    HW214868   0.913   0.461   3.458
 4657SOL     OW14869   4.695   6.279   1.171
 4657SOL    HW114870   4.683   6.218   1.250
 4657SOL    HW214871   4.626   6.258   1.102
 4658SOL     OW14872   4.698   1.625   2.771
 4658SOL    HW114873   4.777   1.596   2.825
 4658SOL    HW214874   4.635   1.676   2.829
 4659SOL     OW14875   2.782   4.138   5.390
 4659SOL    HW114876   2.716   4.210   5.367
 4659SOL    HW214877   2.755   4.096   5.477
 4660SOL     OW14878   1.430   2.988   5.579
 4660SOL    HW114879   1.468   2.936   5.503
 4660SOL    HW214880   1.484   3.071   5.593
 4661SOL     OW14881   3.685   3.937   5.740
 4661SOL    HW114882   3.627   3.879   5.683
 4661SOL    HW214883   3.779   3.935   5.706
 4662SOL     OW14884   3.984   0.268   5.008
 4662SOL    HW114885   4.082   0.249   5.015
 4662SOL    HW214886   3.944   0.270   5.100
 4663SOL     OW14887   0.644   1.976   2.824
 4663SOL    HW114888   0.627   1.988   2.726
 4663SOL    HW214889   0.732   1.932   2.838
 4664SOL     OW14890   2.113   1.444   0.849
 4664SOL    HW114891   2.046   1.519   0.854
 4664SOL    HW214892   2.148   1.425   0.941
 4665SOL     OW14893   3.950   0.018   0.371
 4665SOL    HW114894   3.947   0.117   0.353
 4665SOL    HW214895   3.962   0.002   0.469
 4666SOL     OW14896   1.504   2.378   0.742
 4666SOL    HW114897   1.481   2.401   0.648
 4666SOL    HW214898   1.602   2.360   0.749
 4667SOL     OW14899   6.124   4.378   1.422
 4667SOL    HW114900   6.208   4.366   1.370
 4667SOL    HW214901   6.097   4.475   1.419
 4668SOL     OW14902   5.387   2.503   2.724
 4668SOL    HW114903   5.379   2.543   2.816
 4668SOL    HW214904   5.360   2.571   2.656
 4669SOL     OW14905   3.814   6.491   6.740
 4669SOL    HW114906   3.882   6.483   6.667
 4669SOL    HW214907   3.856   6.462   6.827
 4670SOL     OW14908   3.177   2.417   5.435
 4670SOL    HW114909   3.221   2.415   5.345
 4670SOL    HW214910   3.126   2.333   5.449
 4671SOL     OW14911   6.762   2.202   2.759
 4671SOL    HW114912   6.731   2.166   2.847
 4671SOL    HW214913   6.688   2.256   2.718
 4672SOL     OW14914   2.615   4.514   6.015
 4672SOL    HW114915   2.567   4.441   5.966
 4672SOL    HW214916   2.712   4.490   6.022
 4673SOL     OW14917   4.662   6.903   1.108
 4673SOL    HW114918   4.724   6.888   1.185
 4673SOL    HW214919   4.691   6.985   1.058
 4674SOL     OW14920   4.804   0.268   6.917
 4674SOL    HW114921   4.801   0.169   6.930
 4674SOL    HW214922   4.759   0.292   6.830
 4675SOL     OW14923   0.246   2.604   6.529
 4675SOL    HW114924   0.298   2.688   6.544
 4675SOL    HW214925   0.152   2.617   6.561
 4676SOL     OW14926   6.896   6.265   3.408
 4676SOL    HW114927   6.988   6.226   3.418
 4676SOL    HW214928   6.858   6.237   3.320
 4677SOL     OW14929   2.919   1.215   0.362
 4677SOL    HW114930   2.882   1.303   0.391
 4677SOL    HW214931   2.973   1.175   0.436
 4678SOL     OW14932   2.060   4.347   2.930
 4678SOL    HW114933   1.986   4.296   2.976
 4678SOL    HW214934   2.023   4.396   2.852
 4679SOL     OW14935   4.133   0.198   1.365
 4679SOL    HW114936   4.062   0.223   1.431
 4679SOL    HW214937   4.104   0.118   1.313
 4680SOL     OW14938   3.868   1.244   6.455
 4680SOL    HW114939   3.836   1.158   6.417
 4680SOL    HW214940   3.801   1.278   6.521
 4681SOL     OW14941   5.421   4.742   0.102
 4681SOL    HW114942   5.478   4.781   0.174
 4681SOL    HW214943   5.476   4.725   0.020
 4682SOL     OW14944   4.623   4.835   5.523
 4682SOL    HW114945   4.662   4.860   5.611
 4682SOL    HW214946   4.612   4.918   5.467
 4683SOL     OW14947   5.014   5.683   2.765
 4683SOL    HW114948   5.095   5.724   2.724
 4683SOL    HW214949   4.998   5.593   2.726
 4684SOL     OW14950   5.380   6.902   5.616
 4684SOL    HW114951   5.281   6.916   5.619
 4684SOL    HW214952   5.425   6.989   5.593
 4685SOL     OW14953   1.951   4.847   6.201
 4685SOL    HW114954   1.905   4.889   6.123
 4685SOL    HW214955   2.037   4.805   6.171
 4686SOL     OW14956   4.242   5.376   6.642
 4686SOL    HW114957   4.236   5.381   6.542
 4686SOL    HW214958   4.278   5.286   6.669
 4687SOL     OW14959   4.822   3.028   3.936
 4687SOL    HW114960   4.816   3.127   3.933
 4687SOL    HW214961   4.876   2.995   3.859
 4688SOL     OW14962   5.865   3.679   5.162
 4688SOL    HW114963   5.858   3.590   5.208
 4688SOL    HW214964   5.827   3.750   5.222
 4689SOL     OW14965   5.087   0.615   0.263
 4689SOL    HW114966   5.083   0.714   0.249
 4689SOL    HW214967   5.019   0.570   0.205
 4690SOL     OW14968   1.144   0.149   0.289
 4690SOL    HW114969   1.084   0.226   0.308
 4690SOL    HW214970   1.235   0.183   0.266
 4691SOL     OW14971   2.770   3.475   0.808
 4691SOL    HW114972   2.865   3.448   0.823
 4691SOL    HW214973   2.728   3.497   0.896
 4692SOL     OW14974   5.358   5.494   2.801
 4692SOL    HW114975   5.291   5.459   2.867
 4692SOL    HW214976   5.312   5.555   2.737
 4693SOL     OW14977   1.261   1.609   2.605
 4693SOL    HW114978   1.235   1.518   2.572
 4693SOL    HW214979   1.179   1.660   2.632
 4694SOL     OW14980   2.432   1.247   0.079
 4694SOL    HW114981   2.350   1.192   0.095
 4694SOL    HW214982   2.441   1.315   0.152
 4695SOL     OW14983   1.461   4.900   1.398
 4695SOL    HW114984   1.448   4.870   1.493
 4695SOL    HW214985   1.556   4.929   1.385
 4696SOL     OW14986   0.103   4.551   6.860
 4696SOL    HW114987   0.062   4.460   6.856
 4696SOL    HW214988   0.093   4.588   6.952
 4697SOL     OW14989   1.310   4.049   1.296
 4697SOL    HW114990   1.268   4.129   1.253
 4697SOL    HW214991   1.352   3.991   1.226
 4698SOL     OW14992   4.476   6.126   2.923
 4698SOL    HW114993   4.527   6.204   2.888
 4698SOL    HW214994   4.540   6.057   2.957
 4699SOL     OW14995   1.366   6.190   2.175
 4699SOL    HW114996   1.409   6.278   2.154
 4699SOL    HW214997   1.407   6.119   2.117
 4700SOL     OW14998   6.694   1.475   3.007
 4700SOL    HW114999   6.658   1.547   2.948
 4700SOL    HW215000   6.642   1.472   3.092
 4701SOL     OW15001   3.544   2.209   0.488
 4701SOL    HW115002   3.451   2.243   0.502
 4701SOL    HW215003   3.609   2.271   0.530
 4702SOL     OW15004   4.933   4.964   0.546
 4702SOL    HW115005   4.969   5.049   0.585
 4702SOL    HW215006   4.865   4.925   0.608
 4703SOL     OW15007   0.464   0.021   2.533
 4703SOL    HW115008   0.427   0.102   2.579
 4703SOL    HW215009   0.492   6.975   2.601
 4704SOL     OW15010   6.507   6.257   6.482
 4704SOL    HW115011   6.451   6.294   6.407
 4704SOL    HW215012   6.475   6.165   6.505
 4705SOL     OW15013   4.283   2.485   1.309
 4705SOL    HW115014   4.314   2.572   1.346
 4705SOL    HW215015   4.350   2.414   1.329
 4706SOL     OW15016   2.686   0.258   0.237
 4706SOL    HW115017   2.775   0.231   0.202
 4706SOL    HW215018   2.680   0.357   0.242
 4707SOL     OW15019   1.309   0.052   0.520
 4707SOL    HW115020   1.391   0.022   0.472
 4707SOL    HW215021   1.250   0.102   0.457
 4708SOL     OW15022   1.065   2.304   5.838
 4708SOL    HW115023   1.100   2.219   5.798
 4708SOL    HW215024   1.140   2.355   5.880
 4709SOL     OW15025   4.417   5.593   5.111
 4709SOL    HW115026   4.492   5.619   5.171
 4709SOL    HW215027   4.445   5.517   5.053
 4710SOL     OW15028   5.129   6.963   5.664
 4710SOL    HW115029   5.062   6.902   5.706
 4710SOL    HW215030   5.131   0.027   5.714
 4711SOL     OW15031   6.374   1.675   1.446
 4711SOL    HW115032   6.451   1.715   1.496
 4711SOL    HW215033   6.296   1.665   1.508
 4712SOL     OW15034   2.968   4.915   6.182
 4712SOL    HW115035   2.983   5.010   6.210
 4712SOL    HW215036   2.872   4.903   6.158
 4713SOL     OW15037   3.732   4.197   0.545
 4713SOL    HW115038   3.811   4.220   0.487
 4713SOL    HW215039   3.758   4.206   0.641
 4714SOL     OW15040   1.319   1.362   6.512
 4714SOL    HW115041   1.244   1.427   6.521
 4714SOL    HW215042   1.307   1.287   6.577
 4715SOL     OW15043   5.799   3.236   2.198
 4715SOL    HW115044   5.850   3.166   2.148
 4715SOL    HW215045   5.732   3.278   2.138
 4716SOL     OW15046   3.902   6.781   5.987
 4716SOL    HW115047   3.978   6.717   5.980
 4716SOL    HW215048   3.936   6.875   5.987
 4717SOL     OW15049   0.481   6.159   4.017
 4717SOL    HW115050   0.502   6.255   4.002
 4717SOL    HW215051   0.465   6.143   4.114
 4718SOL     OW15052   6.053   2.129   0.925
 4718SOL    HW115053   5.962   2.138   0.966
 4718SOL    HW215054   6.088   2.037   0.941
 4719SOL     OW15055   4.903   3.158   1.854
 4719SOL    HW115056   4.828   3.126   1.912
 4719SOL    HW215057   4.879   3.144   1.758
 4720SOL     OW15058   2.120   5.330   5.880
 4720SOL    HW115059   2.093   5.333   5.783
 4720SOL    HW215060   2.216   5.303   5.887
 4721SOL     OW15061   6.670   1.600   2.594
 4721SOL    HW115062   6.603   1.596   2.520
 4721SOL    HW215063   6.627   1.634   2.677
 4722SOL     OW15064   1.187   6.113   0.045
 4722SOL    HW115065   1.141   6.202   0.045
 4722SOL    HW215066   1.265   6.116   0.109
 4723SOL     OW15067   2.146   3.157   5.560
 4723SOL    HW115068   2.155   3.094   5.637
 4723SOL    HW215069   2.183   3.246   5.585
 4724SOL     OW15070   6.571   0.205   4.305
 4724SOL    HW115071   6.566   0.123   4.363
 4724SOL    HW215072   6.493   0.264   4.324
 4725SOL     OW15073   6.426   5.260   0.803
 4725SOL    HW115074   6.509   5.284   0.753
 4725SOL    HW215075   6.394   5.340   0.854
 4726SOL     OW15076   1.526   3.483   6.389
 4726SOL    HW115077   1.552   3.466   6.484
 4726SOL    HW215078   1.603   3.521   6.339
 4727SOL     OW15079   1.015   6.483   1.190
 4727SOL    HW115080   0.945   6.553   1.205
 4727SOL    HW215081   1.073   6.476   1.271
 4728SOL     OW15082   5.822   1.196   2.091
 4728SOL    HW115083   5.787   1.275   2.140
 4728SOL    HW215084   5.877   1.227   2.013
 4729SOL     OW15085   4.719   0.931   0.558
 4729SOL    HW115086   4.663   0.912   0.477
 4729SOL    HW215087   4.708   0.857   0.624
 4730SOL     OW15088   3.039   5.970   5.013
 4730SOL    HW115089   3.083   6.056   4.989
 4730SOL    HW215090   2.964   5.987   5.077
 4731SOL     OW15091   3.137   0.501   0.417
 4731SOL    HW115092   3.154   0.413   0.462
 4731SOL    HW215093   3.040   0.525   0.428
 4732SOL     OW15094   0.906   3.866   5.220
 4732SOL    HW115095   0.827   3.827   5.172
 4732SOL    HW215096   0.920   3.960   5.190
 4733SOL     OW15097   1.880   3.685   3.878
 4733SOL    HW115098   1.865   3.756   3.809
 4733SOL    HW215099   1.805   3.618   3.873
 4734SOL     OW15100   4.474   3.296   6.925
 4734SOL    HW115101   4.425   3.374   6.884
 4734SOL    HW215102   4.524   3.327   7.006
 4735SOL     OW15103   0.390   5.282   4.561
 4735SOL    HW115104   0.368   5.271   4.464
 4735SOL    HW215105   0.459   5.215   4.587
 4736SOL     OW15106   6.182   1.548   5.870
 4736SOL    HW115107   6.266   1.525   5.918
 4736SOL    HW215108   6.125   1.606   5.927
 4737SOL     OW15109   3.245   4.165   1.635
 4737SOL    HW115110   3.164   4.212   1.671
 4737SOL    HW215111   3.242   4.069   1.662
 4738SOL     OW15112   1.752   6.448   2.861
 4738SOL    HW115113   1.796   6.484   2.944
 4738SOL    HW215114   1.726   6.524   2.802
 4739SOL     OW15115   4.672   1.863   2.935
 4739SOL    HW115116   4.696   1.885   2.840
 4739SOL    HW215117   4.752   1.827   2.982
 4740SOL     OW15118   0.244   1.482   0.878
 4740SOL    HW115119   0.260   1.571   0.922
 4740SOL    HW215120   0.168   1.436   0.925
 4741SOL     OW15121   5.347   3.233   1.030
 4741SOL    HW115122   5.283   3.309   1.029
 4741SOL    HW215123   5.425   3.256   1.089
 4742SOL     OW15124   2.917   0.094   0.182
 4742SOL    HW115125   2.939   0.142   0.097
 4742SOL    HW215126   2.855   0.018   0.161
 4743SOL     OW15127   1.888   3.457   5.189
 4743SOL    HW115128   1.843   3.503   5.265
 4743SOL    HW215129   1.988   3.465   5.199
 4744SOL     OW15130   2.756   3.663   6.119
 4744SOL    HW115131   2.742   3.718   6.037
 4744SOL    HW215132   2.680   3.599   6.130
 4745SOL     OW15133   2.540   5.716   6.128
 4745SOL    HW115134   2.514   5.630   6.084
 4745SOL    HW215135   2.614   5.699   6.193
 4746SOL     OW15136   5.441   6.625   2.304
 4746SOL    HW115137   5.365   6.623   2.239
 4746SOL    HW215138   5.459   6.719   2.331
 4747SOL     OW15139   1.938   3.948   6.614
 4747SOL    HW115140   1.972   3.943   6.708
 4747SOL    HW215141   1.939   4.044   6.583
 4748SOL     OW15142   0.717   4.855   0.956
 4748SOL    HW115143   0.762   4.780   1.005
 4748SOL    HW215144   0.787   4.917   0.920
 4749SOL     OW15145   2.713   6.432   5.703
 4749SOL    HW115146   2.805   6.403   5.677
 4749SOL    HW215147   2.654   6.352   5.712
 4750SOL     OW15148   0.039   3.517   3.610
 4750SOL    HW115149   0.086   3.526   3.698
 4750SOL    HW215150   7.016   3.603   3.587
 4751SOL     OW15151   2.652   2.578   1.010
 4751SOL    HW115152   2.553   2.592   1.006
 4751SOL    HW215153   2.698   2.667   1.010
 4752SOL     OW15154   2.953   0.139   6.949
 4752SOL    HW115155   2.969   0.232   6.916
 4752SOL    HW215156   2.899   0.089   6.881
 4753SOL     OW15157   5.135   0.852   4.147
 4753SOL    HW115158   5.163   0.947   4.160
 4753SOL    HW215159   5.214   0.791   4.163
 4754SOL     OW15160   6.316   0.286   4.699
 4754SOL    HW115161   6.299   0.257   4.794
 4754SOL    HW215162   6.406   0.329   4.693
 4755SOL     OW15163   2.431   0.551   0.800
 4755SOL    HW115164   2.422   0.481   0.871
 4755SOL    HW215165   2.398   0.515   0.713
 4756SOL     OW15166   6.174   3.596   1.492
 4756SOL    HW115167   6.188   3.508   1.448
 4756SOL    HW215168   6.123   3.656   1.430
 4757SOL     OW15169   2.316   1.905   0.766
 4757SOL    HW115170   2.385   1.953   0.820
 4757SOL    HW215171   2.352   1.883   0.676
 4758SOL     OW15172   1.822   6.153   4.022
 4758SOL    HW115173   1.728   6.127   4.044
 4758SOL    HW215174   1.872   6.170   4.107
 4759SOL     OW15175   5.501   4.948   4.509
 4759SOL    HW115176   5.587   4.998   4.504
 4759SOL    HW215177   5.504   4.868   4.449
 4760SOL     OW15178   3.338   1.869   0.278
 4760SOL    HW115179   3.373   1.864   0.185
 4760SOL    HW215180   3.326   1.964   0.305
 4761SOL     OW15181   0.409   6.196   6.883
 4761SOL    HW115182   0.385   6.179   6.787
 4761SOL    HW215183   0.467   6.122   6.916
 4762SOL     OW15184   1.692   5.816   2.721
 4762SOL    HW115185   1.617   5.867   2.763
 4762SOL    HW215186   1.675   5.718   2.730
 4763SOL     OW15187   6.319   6.395   3.486
 4763SOL    HW115188   6.335   6.358   3.394
 4763SOL    HW215189   6.249   6.466   3.481
 4764SOL     OW15190   4.910   3.848   5.002
 4764SOL    HW115191   4.876   3.890   4.918
 4764SOL    HW215192   4.880   3.753   5.007
 4765SOL     OW15193   4.569   1.101   4.394
 4765SOL    HW115194   4.601   1.188   4.355
 4765SOL    HW215195   4.636   1.030   4.376
 4766SOL     OW15196   4.892   5.725   4.287
 4766SOL    HW115197   4.874   5.799   4.352
 4766SOL    HW215198   4.920   5.764   4.199
 4767SOL     OW15199   3.893   5.199   5.709
 4767SOL    HW115200   3.796   5.196   5.734
 4767SOL    HW215201   3.949   5.174   5.789
 4768SOL     OW15202   4.565   1.761   5.629
 4768SOL    HW115203   4.602   1.810   5.708
 4768SOL    HW215204   4.631   1.760   5.555
 4769SOL     OW15205   5.273   4.617   0.307
 4769SOL    HW115206   5.334   4.626   0.229
 4769SOL    HW215207   5.211   4.695   0.311
 4770SOL     OW15208   1.151   0.929   4.647
 4770SOL    HW115209   1.143   0.869   4.726
 4770SOL    HW215210   1.245   0.926   4.613
 4771SOL     OW15211   3.040   5.409   5.752
 4771SOL    HW115212   2.967   5.455   5.804
 4771SOL    HW215213   3.104   5.478   5.718
 4772SOL     OW15214   3.192   4.546   1.247
 4772SOL    HW115215   3.134   4.493   1.309
 4772SOL    HW215216   3.288   4.530   1.269
 4773SOL     OW15217   6.863   5.729   5.010
 4773SOL    HW115218   6.920   5.648   4.998
 4773SOL    HW215219   6.781   5.720   4.953
 4774SOL     OW15220   1.129   2.304   1.947
 4774SOL    HW115221   1.211   2.361   1.942
 4774SOL    HW215222   1.131   2.238   1.872
 4775SOL     OW15223   5.254   6.841   2.566
 4775SOL    HW115224   5.177   6.899   2.594
 4775SOL    HW215225   5.248   6.822   2.468
 4776SOL     OW15226   1.351   5.952   5.517
 4776SOL    HW115227   1.320   6.030   5.571
 4776SOL    HW215228   1.429   5.909   5.562
 4777SOL     OW15229   2.596   4.972   1.426
 4777SOL    HW115230   2.519   4.992   1.366
 4777SOL    HW215231   2.660   5.049   1.425
 4778SOL     OW15232   6.686   2.815   3.128
 4778SOL    HW115233   6.649   2.856   3.044
 4778SOL    HW215234   6.784   2.797   3.116
 4779SOL     OW15235   6.013   6.369   2.328
 4779SOL    HW115236   6.018   6.271   2.347
 4779SOL    HW215237   6.044   6.387   2.235
 4780SOL     OW15238   6.714   0.647   0.589
 4780SOL    HW115239   6.637   0.605   0.637
 4780SOL    HW215240   6.786   0.579   0.575
 4781SOL     OW15241   2.020   6.072   1.974
 4781SOL    HW115242   2.006   5.983   1.930
 4781SOL    HW215243   2.118   6.091   1.979
 4782SOL     OW15244   4.182   6.217   6.927
 4782SOL    HW115245   4.132   6.176   7.003
 4782SOL    HW215246   4.220   6.145   6.869
 4783SOL     OW15247   4.978   4.771   0.106
 4783SOL    HW115248   4.940   4.690   0.060
 4783SOL    HW215249   4.957   4.852   0.052
 4784SOL     OW15250   5.860   3.878   0.336
 4784SOL    HW115251   5.881   3.930   0.254
 4784SOL    HW215252   5.854   3.780   0.313
 4785SOL     OW15253   6.512   5.775   1.919
 4785SOL    HW115254   6.605   5.810   1.930
 4785SOL    HW215255   6.509   5.713   1.840
 4786SOL     OW15256   2.671   1.787   0.404
 4786SOL    HW115257   2.687   1.742   0.316
 4786SOL    HW215258   2.752   1.777   0.462
 4787SOL     OW15259   4.543   1.337   2.561
 4787SOL    HW115260   4.560   1.436   2.560
 4787SOL    HW215261   4.449   1.320   2.531
 4788SOL     OW15262   0.982   5.252   6.049
 4788SOL    HW115263   1.054   5.304   6.095
 4788SOL    HW215264   0.895   5.268   6.095
 4789SOL     OW15265   5.397   1.155   0.878
 4789SOL    HW115266   5.407   1.056   0.876
 4789SOL    HW215267   5.414   1.188   0.971
 4790SOL     OW15268   6.637   2.616   4.978
 4790SOL    HW115269   6.544   2.603   4.943
 4790SOL    HW215270   6.652   2.713   4.998
 4791SOL     OW15271   6.055   2.402   1.403
 4791SOL    HW115272   6.117   2.360   1.470
 4791SOL    HW215273   6.069   2.360   1.313
 4792SOL     OW15274   2.118   3.521   3.232
 4792SOL    HW115275   2.078   3.597   3.180
 4792SOL    HW215276   2.151   3.451   3.168
 4793SOL     OW15277   2.051   2.754   5.846
 4793SOL    HW115278   1.962   2.710   5.862
 4793SOL    HW215279   2.081   2.734   5.753
 4794SOL     OW15280   4.236   0.381   3.413
 4794SOL    HW115281   4.167   0.373   3.484
 4794SOL    HW215282   4.200   0.342   3.328
 4795SOL     OW15283   6.543   2.154   4.441
 4795SOL    HW115284   6.454   2.123   4.406
 4795SOL    HW215285   6.537   2.252   4.463
 4796SOL     OW15286   4.899   1.573   5.621
 4796SOL    HW115287   4.918   1.623   5.706
 4796SOL    HW215288   4.972   1.507   5.604
 4797SOL     OW15289   1.813   6.613   6.256
 4797SOL    HW115290   1.817   6.660   6.344
 4797SOL    HW215291   1.741   6.653   6.200
 4798SOL     OW15292   0.080   3.194   4.852
 4798SOL    HW115293   0.094   3.168   4.947
 4798SOL    HW215294   0.131   3.133   4.792
 4799SOL     OW15295   5.019   2.497   6.698
 4799SOL    HW115296   4.959   2.427   6.738
 4799SOL    HW215297   5.072   2.456   6.624
 4800SOL     OW15298   3.053   3.417   6.032
 4800SOL    HW115299   3.090   3.364   5.956
 4800SOL    HW215300   3.084   3.512   6.024
 4801SOL     OW15301   2.894   2.226   0.506
 4801SOL    HW115302   2.903   2.132   0.471
 4801SOL    HW215303   2.971   2.247   0.566
 4802SOL     OW15304   1.171   6.454   2.006
 4802SOL    HW115305   1.148   6.390   2.079
 4802SOL    HW215306   1.088   6.498   1.972
 4803SOL     OW15307   1.007   5.140   1.097
 4803SOL    HW115308   0.974   5.120   1.004
 4803SOL    HW215309   0.986   5.062   1.157
 4804SOL     OW15310   5.158   5.606   6.584
 4804SOL    HW115311   5.242   5.641   6.543
 4804SOL    HW215312   5.141   5.654   6.670
 4805SOL     OW15313   5.862   0.858   1.943
 4805SOL    HW115314   5.777   0.877   1.994
 4805SOL    HW215315   5.881   0.760   1.945
 4806SOL     OW15316   0.599   4.629   3.428
 4806SOL    HW115317   0.536   4.686   3.376
 4806SOL    HW215318   0.594   4.653   3.525
 4807SOL     OW15319   1.007   4.511   0.491
 4807SOL    HW115320   0.918   4.499   0.447
 4807SOL    HW215321   0.998   4.571   0.570
 4808SOL     OW15322   5.762   3.391   6.386
 4808SOL    HW115323   5.846   3.346   6.415
 4808SOL    HW215324   5.764   3.487   6.414
 4809SOL     OW15325   3.665   4.223   6.905
 4809SOL    HW115326   3.723   4.295   6.865
 4809SOL    HW215327   3.709   4.187   6.987
 4810SOL     OW15328   1.174   5.313   2.307
 4810SOL    HW115329   1.191   5.300   2.209
 4810SOL    HW215330   1.102   5.382   2.319
 4811SOL     OW15331   2.228   4.410   1.593
 4811SOL    HW115332   2.260   4.463   1.514
 4811SOL    HW215333   2.231   4.313   1.570
 4812SOL     OW15334   6.499   5.452   4.289
 4812SOL    HW115335   6.493   5.412   4.380
 4812SOL    HW215336   6.450   5.395   4.224
 4813SOL     OW15337   4.909   1.730   1.003
 4813SOL    HW115338   4.890   1.648   1.056
 4813SOL    HW215339   4.838   1.743   0.933
 4814SOL     OW15340   6.419   3.608   0.525
 4814SOL    HW115341   6.499   3.665   0.543
 4814SOL    HW215342   6.358   3.654   0.461
 4815SOL     OW15343   5.487   4.768   2.962
 4815SOL    HW115344   5.413   4.702   2.972
 4815SOL    HW215345   5.557   4.730   2.901
 4816SOL     OW15346   1.301   5.611   1.142
 4816SOL    HW115347   1.303   5.571   1.233
 4816SOL    HW215348   1.365   5.688   1.137
 4817SOL     OW15349   0.521   2.234   6.688
 4817SOL    HW115350   0.617   2.222   6.663
 4817SOL    HW215351   0.480   2.303   6.629
 4818SOL     OW15352   1.358   0.287   5.025
 4818SOL    HW115353   1.387   0.333   5.109
 4818SOL    HW215354   1.258   0.282   5.023
 4819SOL     OW15355   1.095   2.108   0.467
 4819SOL    HW115356   1.043   2.024   0.454
 4819SOL    HW215357   1.071   2.150   0.554
 4820SOL     OW15358   5.892   2.851   1.646
 4820SOL    HW115359   5.936   2.818   1.729
 4820SOL    HW215360   5.950   2.831   1.567
 4821SOL     OW15361   0.513   5.692   2.915
 4821SOL    HW115362   0.503   5.786   2.882
 4821SOL    HW215363   0.545   5.693   3.010
 4822SOL     OW15364   2.655   1.949   4.860
 4822SOL    HW115365   2.584   1.968   4.928
 4822SOL    HW215366   2.701   2.034   4.835
 4823SOL     OW15367   2.139   0.916   4.324
 4823SOL    HW115368   2.058   0.902   4.382
 4823SOL    HW215369   2.135   1.007   4.283
 4824SOL     OW15370   5.051   2.731   5.246
 4824SOL    HW115371   4.975   2.666   5.253
 4824SOL    HW215372   5.037   2.790   5.166
 4825SOL     OW15373   1.966   3.030   4.683
 4825SOL    HW115374   1.991   2.937   4.657
 4825SOL    HW215375   1.969   3.038   4.783
 4826SOL     OW15376   5.484   1.149   0.261
 4826SOL    HW115377   5.530   1.166   0.348
 4826SOL    HW215378   5.547   1.169   0.186
 4827SOL     OW15379   6.189   1.553   0.593
 4827SOL    HW115380   6.137   1.615   0.534
 4827SOL    HW215381   6.136   1.534   0.676
 4828SOL     OW15382   4.998   2.064   1.096
 4828SOL    HW115383   5.055   2.022   1.025
 4828SOL    HW215384   4.927   2.120   1.053
 4829SOL     OW15385   3.932   0.001   5.075
 4829SOL    HW115386   3.947   0.087   5.026
 4829SOL    HW215387   4.015   6.996   5.122
 4830SOL     OW15388   3.871   5.744   4.642
 4830SOL    HW115389   3.778   5.715   4.620
 4830SOL    HW215390   3.936   5.692   4.586
 4831SOL     OW15391   1.275   4.344   6.060
 4831SOL    HW115392   1.241   4.436   6.081
 4831SOL    HW215393   1.234   4.313   5.974
 4832SOL     OW15394   3.599   3.904   3.641
 4832SOL    HW115395   3.599   3.886   3.740
 4832SOL    HW215396   3.651   3.988   3.623
 4833SOL     OW15397   5.733   1.098   2.747
 4833SOL    HW115398   5.747   1.158   2.667
 4833SOL    HW215399   5.738   1.003   2.718
 4834SOL     OW15400   2.830   6.575   1.485
 4834SOL    HW115401   2.927   6.600   1.487
 4834SOL    HW215402   2.811   6.508   1.556
 4835SOL     OW15403   5.885   1.882   6.423
 4835SOL    HW115404   5.879   1.973   6.464
 4835SOL    HW215405   5.827   1.878   6.342
 4836SOL     OW15406   5.081   2.166   4.873
 4836SOL    HW115407   5.157   2.139   4.932
 4836SOL    HW215408   5.034   2.085   4.840
 4837SOL     OW15409   0.268   3.762   2.971
 4837SOL    HW115410   0.340   3.710   2.924
 4837SOL    HW215411   0.207   3.698   3.019
 4838SOL     OW15412   1.310   5.460   0.175
 4838SOL    HW115413   1.358   5.538   0.215
 4838SOL    HW215414   1.363   5.377   0.192
 4839SOL     OW15415   1.149   3.769   0.048
 4839SOL    HW115416   1.152   3.835   6.995
 4839SOL    HW215417   1.110   3.683   0.016
 4840SOL     OW15418   6.845   4.909   6.301
 4840SOL    HW115419   6.909   4.833   6.293
 4840SOL    HW215420   6.887   4.992   6.264
 4841SOL     OW15421   2.419   5.291   2.871
 4841SOL    HW115422   2.358   5.294   2.791
 4841SOL    HW215423   2.499   5.349   2.854
 4842SOL     OW15424   3.653   4.984   2.241
 4842SOL    HW115425   3.598   5.009   2.161
 4842SOL    HW215426   3.717   4.911   2.217
 4843SOL     OW15427   6.091   2.684   1.549
 4843SOL    HW115428   6.132   2.623   1.616
 4843SOL    HW215429   6.018   2.636   1.500
 4844SOL     OW15430   0.203   3.271   6.390
 4844SOL    HW115431   0.113   3.273   6.435
 4844SOL    HW215432   0.197   3.316   6.301
 4845SOL     OW15433   5.852   4.848   6.458
 4845SOL    HW115434   5.816   4.755   6.454
 4845SOL    HW215435   5.950   4.845   6.480
 4846SOL     OW15436   6.892   2.177   3.743
 4846SOL    HW115437   6.978   2.199   3.788
 4846SOL    HW215438   6.897   2.085   3.704
 4847SOL     OW15439   2.314   1.063   6.301
 4847SOL    HW115440   2.245   0.992   6.309
 4847SOL    HW215441   2.279   1.149   6.339
 4848SOL     OW15442   2.121   0.729   4.700
 4848SOL    HW115443   2.107   0.653   4.636
 4848SOL    HW215444   2.049   0.728   4.770
 4849SOL     OW15445   1.435   5.810   0.191
 4849SOL    HW115446   1.457   5.836   0.286
 4849SOL    HW215447   1.486   5.868   0.128
 4850SOL     OW15448   4.168   1.211   1.548
 4850SOL    HW115449   4.197   1.117   1.527
 4850SOL    HW215450   4.075   1.226   1.514
 4851SOL     OW15451   3.278   6.684   5.735
 4851SOL    HW115452   3.342   6.691   5.811
 4851SOL    HW215453   3.258   6.775   5.699
 4852SOL     OW15454   2.047   5.767   4.449
 4852SOL    HW115455   2.059   5.813   4.361
 4852SOL    HW215456   2.134   5.767   4.499
 4853SOL     OW15457   3.786   1.571   3.766
 4853SOL    HW115458   3.718   1.637   3.734
 4853SOL    HW215459   3.877   1.598   3.735
 4854SOL     OW15460   4.387   6.778   2.168
 4854SOL    HW115461   4.325   6.833   2.223
 4854SOL    HW215462   4.475   6.770   2.215
 4855SOL     OW15463   6.038   2.496   4.877
 4855SOL    HW115464   5.955   2.544   4.906
 4855SOL    HW215465   6.013   2.429   4.807
 4856SOL     OW15466   1.658   3.571   3.204
 4856SOL    HW115467   1.694   3.478   3.213
 4856SOL    HW215468   1.566   3.576   3.243
 4857SOL     OW15469   2.740   2.379   3.493
 4857SOL    HW115470   2.717   2.467   3.536
 4857SOL    HW215471   2.717   2.305   3.557
 4858SOL     OW15472   0.123   6.667   5.191
 4858SOL    HW115473   0.093   6.645   5.284
 4858SOL    HW215474   0.111   6.765   5.175
 4859SOL     OW15475   0.656   5.373   2.660
 4859SOL    HW115476   0.577   5.383   2.600
 4859SOL    HW215477   0.627   5.332   2.747
 4860SOL     OW15478   4.258   3.804   0.462
 4860SOL    HW115479   4.326   3.734   0.483
 4860SOL    HW215480   4.282   3.849   0.376
 4861SOL     OW15481   6.182   5.071   6.663
 4861SOL    HW115482   6.094   5.117   6.659
 4861SOL    HW215483   6.220   5.080   6.755
 4862SOL     OW15484   2.145   4.478   5.126
 4862SOL    HW115485   2.129   4.384   5.096
 4862SOL    HW215486   2.239   4.505   5.105
 4863SOL     OW15487   5.257   3.358   2.104
 4863SOL    HW115488   5.212   3.316   2.183
 4863SOL    HW215489   5.200   3.347   2.023
 4864SOL     OW15490   3.219   1.189   2.070
 4864SOL    HW115491   3.232   1.283   2.041
 4864SOL    HW215492   3.277   1.171   2.150
 4865SOL     OW15493   1.890   6.155   4.621
 4865SOL    HW115494   1.837   6.155   4.706
 4865SOL    HW215495   1.987   6.148   4.643
 4866SOL     OW15496   6.010   5.011   1.732
 4866SOL    HW115497   5.979   4.917   1.721
 4866SOL    HW215498   6.025   5.031   1.828
 4867SOL     OW15499   4.904   5.758   3.015
 4867SOL    HW115500   4.828   5.695   3.029
 4867SOL    HW215501   4.948   5.739   2.927
 4868SOL     OW15502   0.185   5.230   1.935
 4868SOL    HW115503   0.272   5.189   1.964
 4868SOL    HW215504   0.197   5.328   1.922
 4869SOL     OW15505   0.578   1.934   1.844
 4869SOL    HW115506   0.536   2.024   1.834
 4869SOL    HW215507   0.589   1.912   1.941
 4870SOL     OW15508   6.198   5.752   1.917
 4870SOL    HW115509   6.295   5.767   1.936
 4870SOL    HW215510   6.155   5.711   1.997
 4871SOL     OW15511   0.565   1.597   4.678
 4871SOL    HW115512   0.571   1.543   4.595
 4871SOL    HW215513   0.639   1.572   4.741
 4872SOL     OW15514   0.371   6.433   4.373
 4872SOL    HW115515   0.336   6.422   4.466
 4872SOL    HW215516   0.420   6.350   4.346
 4873SOL     OW15517   6.705   4.734   3.833
 4873SOL    HW115518   6.629   4.795   3.855
 4873SOL    HW215519   6.772   4.783   3.778
 4874SOL     OW15520   6.195   3.670   2.826
 4874SOL    HW115521   6.202   3.747   2.889
 4874SOL    HW215522   6.233   3.588   2.868
 4875SOL     OW15523   4.945   2.548   1.060
 4875SOL    HW115524   4.953   2.508   1.151
 4875SOL    HW215525   4.984   2.486   0.993
 4876SOL     OW15526   5.912   0.915   4.486
 4876SOL    HW115527   5.862   0.847   4.539
 4876SOL    HW215528   5.990   0.948   4.540
 4877SOL     OW15529   6.756   1.772   0.195
 4877SOL    HW115530   6.676   1.794   0.140
 4877SOL    HW215531   6.741   1.685   0.243
 4878SOL     OW15532   6.476   1.330   2.786
 4878SOL    HW115533   6.443   1.329   2.880
 4878SOL    HW215534   6.572   1.360   2.784
 4879SOL     OW15535   4.334   4.953   3.534
 4879SOL    HW115536   4.395   4.875   3.527
 4879SOL    HW215537   4.375   5.023   3.592
 4880SOL     OW15538   6.215   3.368   6.578
 4880SOL    HW115539   6.185   3.280   6.614
 4880SOL    HW215540   6.172   3.384   6.488
 4881SOL     OW15541   2.051   6.835   6.412
 4881SOL    HW115542   2.133   6.848   6.356
 4881SOL    HW215543   2.039   6.738   6.432
 4882SOL     OW15544   5.500   1.392   4.303
 4882SOL    HW115545   5.597   1.394   4.325
 4882SOL    HW215546   5.461   1.483   4.317
 4883SOL     OW15547   4.977   4.983   2.163
 4883SOL    HW115548   5.059   5.026   2.200
 4883SOL    HW215549   4.977   4.885   2.184
 4884SOL     OW15550   4.398   0.252   1.292
 4884SOL    HW115551   4.455   0.170   1.294
 4884SOL    HW215552   4.313   0.235   1.343
 4885SOL     OW15553   2.837   6.296   1.913
 4885SOL    HW115554   2.803   6.385   1.946
 4885SOL    HW215555   2.937   6.295   1.917
 4886SOL     OW15556   6.664   5.465   5.947
 4886SOL    HW115557   6.658   5.377   5.994
 4886SOL    HW215558   6.756   5.476   5.909
 4887SOL     OW15559   0.108   0.610   2.934
 4887SOL    HW115560   0.195   0.659   2.932
 4887SOL    HW215561   0.120   0.523   2.983
 4888SOL     OW15562   1.956   6.794   4.319
 4888SOL    HW115563   1.858   6.778   4.329
 4888SOL    HW215564   2.004   6.762   4.401
 4889SOL     OW15565   6.277   0.635   6.488
 4889SOL    HW115566   6.248   0.700   6.419
 4889SOL    HW215567   6.196   0.598   6.535
 4890SOL     OW15568   0.994   2.038   5.506
 4890SOL    HW115569   0.966   1.961   5.449
 4890SOL    HW215570   0.938   2.117   5.485
 4891SOL     OW15571   1.250   5.698   0.587
 4891SOL    HW115572   1.275   5.694   0.684
 4891SOL    HW215573   1.253   5.606   0.548
 4892SOL     OW15574   2.459   6.503   1.913
 4892SOL    HW115575   2.557   6.521   1.925
 4892SOL    HW215576   2.420   6.571   1.852
 4893SOL     OW15577   6.449   4.264   0.374
 4893SOL    HW115578   6.440   4.358   0.408
 4893SOL    HW215579   6.542   4.251   0.340
 4894SOL     OW15580   2.195   1.565   2.017
 4894SOL    HW115581   2.286   1.589   2.049
 4894SOL    HW215582   2.135   1.549   2.096
 4895SOL     OW15583   0.458   4.684   2.551
 4895SOL    HW115584   0.387   4.728   2.495
 4895SOL    HW215585   0.472   4.590   2.520
 4896SOL     OW15586   2.303   5.484   1.800
 4896SOL    HW115587   2.372   5.547   1.766
 4896SOL    HW215588   2.313   5.473   1.899
 4897SOL     OW15589   2.389   5.006   5.725
 4897SOL    HW115590   2.397   4.953   5.810
 4897SOL    HW215591   2.306   4.979   5.676
 4898SOL     OW15592   5.306   1.128   4.949
 4898SOL    HW115593   5.295   1.030   4.934
 4898SOL    HW215594   5.367   1.143   5.027
 4899SOL     OW15595   6.175   4.687   3.653
 4899SOL    HW115596   6.099   4.638   3.696
 4899SOL    HW215597   6.140   4.751   3.585
 4900SOL     OW15598   1.857   5.923   5.457
 4900SOL    HW115599   1.930   5.934   5.524
 4900SOL    HW215600   1.886   5.858   5.387
 4901SOL     OW15601   2.825   6.683   5.195
 4901SOL    HW115602   2.778   6.769   5.215
 4901SOL    HW215603   2.864   6.687   5.103
 4902SOL     OW15604   2.956   2.172   5.047
 4902SOL    HW115605   3.048   2.209   5.063
 4902SOL    HW215606   2.953   2.076   5.074
 4903SOL     OW15607   2.976   6.681   6.549
 4903SOL    HW115608   3.074   6.664   6.543
 4903SOL    HW215609   2.942   6.719   6.463
 4904SOL     OW15610   0.857   0.476   3.769
 4904SOL    HW115611   0.899   0.484   3.679
 4904SOL    HW215612   0.929   0.475   3.839
 4905SOL     OW15613   4.496   1.727   2.384
 4905SOL    HW115614   4.564   1.673   2.435
 4905SOL    HW215615   4.465   1.674   2.305
 4906SOL     OW15616   3.747   1.609   6.350
 4906SOL    HW115617   3.694   1.530   6.380
 4906SOL    HW215618   3.692   1.664   6.287
 4907SOL     OW15619   4.927   6.421   1.167
 4907SOL    HW115620   4.836   6.381   1.167
 4907SOL    HW215621   4.941   6.473   1.083
 4908SOL     OW15622   4.682   4.787   6.497
 4908SOL    HW115623   4.656   4.713   6.558
 4908SOL    HW215624   4.650   4.874   6.534
 4909SOL     OW15625   6.576   0.297   5.277
 4909SOL    HW115626   6.481   0.290   5.306
 4909SOL    HW215627   6.604   0.211   5.234
 4910SOL     OW15628   5.711   6.805   4.455
 4910SOL    HW115629   5.808   6.822   4.471
 4910SOL    HW215630   5.658   6.835   4.535
 4911SOL     OW15631   6.524   2.677   5.698
 4911SOL    HW115632   6.442   2.714   5.741
 4911SOL    HW215633   6.604   2.705   5.750
 4912SOL     OW15634   5.610   2.232   1.336
 4912SOL    HW115635   5.562   2.318   1.326
 4912SOL    HW215636   5.546   2.156   1.324
 4913SOL     OW15637   3.720   3.695   3.472
 4913SOL    HW115638   3.625   3.726   3.463
 4913SOL    HW215639   3.744   3.637   3.394
 4914SOL     OW15640   3.109   6.925   4.807
 4914SOL    HW115641   3.126   6.914   4.905
 4914SOL    HW215642   3.014   6.901   4.786
 4915SOL     OW15643   4.429   0.395   4.753
 4915SOL    HW115644   4.430   0.409   4.654
 4915SOL    HW215645   4.522   0.395   4.789
 4916SOL     OW15646   2.147   1.636   3.523
 4916SOL    HW115647   2.224   1.596   3.472
 4916SOL    HW215648   2.174   1.648   3.619
 4917SOL     OW15649   1.534   4.969   0.604
 4917SOL    HW115650   1.627   4.992   0.631
 4917SOL    HW215651   1.521   4.870   0.608
 4918SOL     OW15652   3.285   6.874   2.838
 4918SOL    HW115653   3.297   6.786   2.884
 4918SOL    HW215654   3.324   6.946   2.894
 4919SOL     OW15655   1.927   1.710   0.862
 4919SOL    HW115656   1.903   1.696   0.958
 4919SOL    HW215657   1.969   1.800   0.850
 4920SOL     OW15658   4.861   0.366   6.236
 4920SOL    HW115659   4.880   0.427   6.159
 4920SOL    HW215660   4.946   0.341   6.281
 4921SOL     OW15661   1.859   4.385   1.108
 4921SOL    HW115662   1.791   4.392   1.035
 4921SOL    HW215663   1.832   4.314   1.173
 4922SOL     OW15664   1.876   3.316   4.771
 4922SOL    HW115665   1.861   3.219   4.786
 4922SOL    HW215666   1.821   3.369   4.836
 4923SOL     OW15667   3.536   1.313   1.012
 4923SOL    HW115668   3.493   1.224   1.028
 4923SOL    HW215669   3.478   1.385   1.051
 4924SOL     OW15670   2.073   2.552   6.173
 4924SOL    HW115671   2.146   2.540   6.105
 4924SOL    HW215672   2.013   2.627   6.144
 4925SOL     OW15673   5.837   6.315   0.676
 4925SOL    HW115674   5.769   6.375   0.719
 4925SOL    HW215675   5.929   6.343   0.702
 4926SOL     OW15676   4.720   2.266   1.217
 4926SOL    HW115677   4.697   2.363   1.228
 4926SOL    HW215678   4.650   2.210   1.261
 4927SOL     OW15679   3.955   4.006   4.075
 4927SOL    HW115680   3.959   3.945   4.154
 4927SOL    HW215681   3.996   4.094   4.099
 4928SOL     OW15682   0.098   0.428   6.845
 4928SOL    HW115683   0.195   0.420   6.869
 4928SOL    HW215684   0.077   0.522   6.819
 4929SOL     OW15685   1.298   4.365   4.467
 4929SOL    HW115686   1.314   4.456   4.429
 4929SOL    HW215687   1.372   4.342   4.530
 4930SOL     OW15688   6.520   0.557   1.800
 4930SOL    HW115689   6.558   0.628   1.740
 4930SOL    HW215690   6.424   0.541   1.775
 4931SOL     OW15691   0.111   0.082   0.962
 4931SOL    HW115692   0.080   0.149   0.895
 4931SOL    HW215693   0.094   0.115   1.055
 4932SOL     OW15694   2.338   2.801   1.746
 4932SOL    HW115695   2.436   2.795   1.762
 4932SOL    HW215696   2.288   2.769   1.826
 4933SOL     OW15697   2.960   6.911   4.278
 4933SOL    HW115698   2.998   6.821   4.258
 4933SOL    HW215699   2.947   6.961   4.192
 4934SOL     OW15700   1.596   5.094   2.830
 4934SOL    HW115701   1.572   5.031   2.757
 4934SOL    HW215702   1.514   5.143   2.860
 4935SOL     OW15703   1.020   1.478   0.151
 4935SOL    HW115704   1.085   1.427   0.207
 4935SOL    HW215705   1.069   1.519   0.073
 4936SOL     OW15706   2.227   5.375   2.237
 4936SOL    HW115707   2.210   5.442   2.310
 4936SOL    HW215708   2.317   5.393   2.196
 4937SOL     OW15709   6.794   2.985   5.957
 4937SOL    HW115710   6.833   3.071   5.925
 4937SOL    HW215711   6.841   2.956   6.040
 4938SOL     OW15712   3.039   5.472   0.912
 4938SOL    HW115713   2.981   5.432   0.841
 4938SOL    HW215714   3.005   5.563   0.935
 4939SOL     OW15715   1.128   1.613   3.968
 4939SOL    HW115716   1.146   1.558   3.886
 4939SOL    HW215717   1.204   1.603   4.032
 4940SOL     OW15718   0.947   1.390   6.133
 4940SOL    HW115719   0.887   1.429   6.064
 4940SOL    HW215720   1.010   1.326   6.090
 4941SOL     OW15721   4.455   2.506   5.199
 4941SOL    HW115722   4.470   2.491   5.296
 4941SOL    HW215723   4.363   2.476   5.174
 4942SOL     OW15724   5.481   3.643   4.938
 4942SOL    HW115725   5.477   3.583   5.017
 4942SOL    HW215726   5.400   3.702   4.937
 4943SOL     OW15727   4.763   4.276   5.261
 4943SOL    HW115728   4.817   4.285   5.345
 4943SOL    HW215729   4.820   4.236   5.189
 4944SOL     OW15730   2.402   4.535   1.786
 4944SOL    HW115731   2.472   4.579   1.730
 4944SOL    HW215732   2.339   4.484   1.726
 4945SOL     OW15733   1.171   6.954   5.400
 4945SOL    HW115734   1.182   7.003   5.314
 4945SOL    HW215735   1.154   6.857   5.381
 4946SOL     OW15736   0.702   5.310   0.050
 4946SOL    HW115737   0.709   5.210   0.056
 4946SOL    HW215738   0.736   5.340   6.983
 4947SOL     OW15739   2.422   0.800   0.955
 4947SOL    HW115740   2.369   0.781   1.038
 4947SOL    HW215741   2.390   0.740   0.881
 4948SOL     OW15742   2.344   2.616   2.418
 4948SOL    HW115743   2.419   2.550   2.413
 4948SOL    HW215744   2.331   2.659   2.329
 4949SOL     OW15745   6.419   4.021   5.520
 4949SOL    HW115746   6.479   3.983   5.449
 4949SOL    HW215747   6.382   3.946   5.575
 4950SOL     OW15748   1.668   4.147   5.357
 4950SOL    HW115749   1.663   4.206   5.438
 4950SOL    HW215750   1.750   4.090   5.361
 4951SOL     OW15751   6.333   0.880   4.082
 4951SOL    HW115752   6.380   0.906   3.997
 4951SOL    HW215753   6.259   0.816   4.061
 4952SOL     OW15754   0.244   6.680   6.079
 4952SOL    HW115755   0.237   6.729   5.992
 4952SOL    HW215756   0.233   6.745   6.155
 4953SOL     OW15757   1.113   6.953   3.640
 4953SOL    HW115758   1.023   6.938   3.600
 4953SOL    HW215759   1.102   6.976   3.737
 4954SOL     OW15760   3.080   3.110   0.185
 4954SOL    HW115761   3.177   3.085   0.188
 4954SOL    HW215762   3.066   3.196   0.234
 4955SOL     OW15763   2.706   6.922   6.929
 4955SOL    HW115764   2.749   6.898   6.842
 4955SOL    HW215765   2.607   6.928   6.916
 4956SOL     OW15766   3.028   0.121   5.118
 4956SOL    HW115767   3.063   0.195   5.060
 4956SOL    HW215768   2.951   0.154   5.172
 4957SOL     OW15769   5.687   2.752   1.393
 4957SOL    HW115770   5.634   2.799   1.464
 4957SOL    HW215771   5.732   2.821   1.336
 4958SOL     OW15772   0.821   5.326   6.412
 4958SOL    HW115773   0.808   5.415   6.455
 4958SOL    HW215774   0.813   5.335   6.312
 4959SOL     OW15775   5.765   1.640   0.416
 4959SOL    HW115776   5.673   1.673   0.395
 4959SOL    HW215777   5.808   1.606   0.332
 4960SOL     OW15778   4.193   4.712   3.975
 4960SOL    HW115779   4.215   4.758   4.061
 4960SOL    HW215780   4.145   4.775   3.915
 4961SOL     OW15781   3.283   0.767   6.011
 4961SOL    HW115782   3.252   0.679   6.046
 4961SOL    HW215783   3.268   0.838   6.080
 4962SOL     OW15784   5.844   2.767   0.580
 4962SOL    HW115785   5.931   2.723   0.560
 4962SOL    HW215786   5.853   2.823   0.663
 4963SOL     OW15787   0.520   5.719   0.280
 4963SOL    HW115788   0.462   5.713   0.199
 4963SOL    HW215789   0.602   5.664   0.266
 4964SOL     OW15790   2.307   6.958   4.927
 4964SOL    HW115791   2.317   0.036   4.922
 4964SOL    HW215792   2.301   6.921   4.834
 4965SOL     OW15793   0.659   6.864   1.856
 4965SOL    HW115794   0.607   6.790   1.814
 4965SOL    HW215795   0.743   6.827   1.897
 4966SOL     OW15796   2.934   6.687   4.937
 4966SOL    HW115797   2.899   6.740   4.860
 4966SOL    HW215798   3.005   6.739   4.984
 4967SOL     OW15799   3.503   4.860   5.310
 4967SOL    HW115800   3.554   4.897   5.232
 4967SOL    HW215801   3.565   4.805   5.367
 4968SOL     OW15802   0.290   1.022   3.371
 4968SOL    HW115803   0.250   1.011   3.462
 4968SOL    HW215804   0.390   1.016   3.378
 4969SOL     OW15805   2.330   6.238   2.670
 4969SOL    HW115806   2.260   6.211   2.605
 4969SOL    HW215807   2.327   6.337   2.684
 4970SOL     OW15808   2.674   1.829   1.524
 4970SOL    HW115809   2.653   1.767   1.448
 4970SOL    HW215810   2.610   1.812   1.599
 4971SOL     OW15811   5.769   5.482   3.130
 4971SOL    HW115812   5.742   5.393   3.093
 4971SOL    HW215813   5.799   5.541   3.056
 4972SOL     OW15814   0.945   3.853   1.386
 4972SOL    HW115815   0.868   3.790   1.398
 4972SOL    HW215816   0.946   3.887   1.292
 4973SOL     OW15817   1.511   0.042   1.963
 4973SOL    HW115818   1.552   0.118   2.013
 4973SOL    HW215819   1.584   7.009   1.922
 4974SOL     OW15820   6.409   4.734   0.671
 4974SOL    HW115821   6.377   4.819   0.713
 4974SOL    HW215822   6.332   4.686   0.629
 4975SOL     OW15823   5.702   4.034   6.181
 4975SOL    HW115824   5.649   3.959   6.141
 4975SOL    HW215825   5.767   4.069   6.114
 4976SOL     OW15826   2.045   2.029   3.910
 4976SOL    HW115827   2.059   1.991   3.818
 4976SOL    HW215828   2.085   1.967   3.978
 4977SOL     OW15829   4.628   5.004   0.114
 4977SOL    HW115830   4.546   4.982   0.061
 4977SOL    HW215831   4.610   5.083   0.173
 4978SOL     OW15832   6.195   4.517   5.091
 4978SOL    HW115833   6.274   4.552   5.142
 4978SOL    HW215834   6.217   4.427   5.052
 4979SOL     OW15835   6.622   6.661   6.147
 4979SOL    HW115836   6.663   6.678   6.236
 4979SOL    HW215837   6.604   6.748   6.101
 4980SOL     OW15838   5.391   5.384   3.694
 4980SOL    HW115839   5.343   5.423   3.772
 4980SOL    HW215840   5.461   5.321   3.726
 4981SOL     OW15841   4.258   5.024   0.785
 4981SOL    HW115842   4.209   4.994   0.704
 4981SOL    HW215843   4.265   5.124   0.786
 4982SOL     OW15844   3.391   1.789   5.876
 4982SOL    HW115845   3.415   1.869   5.931
 4982SOL    HW215846   3.362   1.819   5.785
 4983SOL     OW15847   6.041   3.232   5.750
 4983SOL    HW115848   6.079   3.282   5.673
 4983SOL    HW215849   5.972   3.167   5.717
 4984SOL     OW15850   5.547   4.239   3.106
 4984SOL    HW115851   5.545   4.269   3.201
 4984SOL    HW215852   5.617   4.169   3.094
 4985SOL     OW15853   6.156   6.880   3.080
 4985SOL    HW115854   6.060   6.900   3.101
 4985SOL    HW215855   6.202   6.965   3.053
 4986SOL     OW15856   0.026   4.838   0.606
 4986SOL    HW115857   0.014   4.932   0.575
 4986SOL    HW215858   0.047   4.838   0.704
 4987SOL     OW15859   0.267   6.441   2.362
 4987SOL    HW115860   0.367   6.436   2.361
 4987SOL    HW215861   0.234   6.442   2.456
 4988SOL     OW15862   5.317   0.919   2.208
 4988SOL    HW115863   5.283   0.826   2.191
 4988SOL    HW215864   5.416   0.920   2.192
 4989SOL     OW15865   5.493   6.598   0.987
 4989SOL    HW115866   5.427   6.670   1.008
 4989SOL    HW215867   5.453   6.509   1.004
 4990SOL     OW15868   2.402   1.834   5.782
 4990SOL    HW115869   2.431   1.858   5.874
 4990SOL    HW215870   2.462   1.878   5.715
 4991SOL     OW15871   6.672   5.668   4.354
 4991SOL    HW115872   6.604   5.741   4.351
 4991SOL    HW215873   6.625   5.579   4.359
 4992SOL     OW15874   4.785   0.494   2.105
 4992SOL    HW115875   4.809   0.447   2.020
 4992SOL    HW215876   4.834   0.580   2.111
 4993SOL     OW15877   3.145   6.199   4.967
 4993SOL    HW115878   3.110   6.292   4.985
 4993SOL    HW215879   3.209   6.174   5.039
 4994SOL     OW15880   2.018   0.053   4.756
 4994SOL    HW115881   2.046   0.011   4.842
 4994SOL    HW215882   2.082   0.027   4.684
 4995SOL     OW15883   1.191   1.951   5.304
 4995SOL    HW115884   1.185   1.852   5.300
 4995SOL    HW215885   1.141   1.991   5.227
 4996SOL     OW15886   0.305   1.561   3.331
 4996SOL    HW115887   0.376   1.607   3.276
 4996SOL    HW215888   0.269   1.625   3.398
 4997SOL     OW15889   4.453   2.275   2.614
 4997SOL    HW115890   4.550   2.278   2.639
 4997SOL    HW215891   4.444   2.282   2.514
 4998SOL     OW15892   2.129   3.268   5.030
 4998SOL    HW115893   2.164   3.247   5.121
 4998SOL    HW215894   2.062   3.199   5.003
 4999SOL     OW15895   6.699   3.571   5.743
 4999SOL    HW115896   6.614   3.518   5.744
 4999SOL    HW215897   6.735   3.573   5.650
 5000SOL     OW15898   3.712   6.844   3.157
 5000SOL    HW115899   3.632   6.787   3.140
 5000SOL    HW215900   3.761   6.810   3.237
 5001SOL     OW15901   1.267   4.703   2.041
 5001SOL    HW115902   1.302   4.642   1.970
 5001SOL    HW215903   1.172   4.680   2.061
 5002SOL     OW15904   0.944   3.534   2.170
 5002SOL    HW115905   0.921   3.557   2.075
 5002SOL    HW215906   0.886   3.588   2.232
 5003SOL     OW15907   3.371   5.280   2.973
 5003SOL    HW115908   3.291   5.339   2.967
 5003SOL    HW215909   3.420   5.300   3.059
 5004SOL     OW15910   2.405   4.828   5.035
 5004SOL    HW115911   2.354   4.750   5.000
 5004SOL    HW215912   2.498   4.827   4.998
 5005SOL     OW15913   3.568   3.325   0.903
 5005SOL    HW115914   3.548   3.353   0.809
 5005SOL    HW215915   3.516   3.381   0.967
 5006SOL     OW15916   5.016   0.707   1.589
 5006SOL    HW115917   5.100   0.742   1.632
 5006SOL    HW215918   4.937   0.735   1.644
 5007SOL     OW15919   0.796   6.434   0.759
 5007SOL    HW115920   0.772   6.369   0.687
 5007SOL    HW215921   0.870   6.494   0.727
 5008SOL     OW15922   5.325   6.532   1.303
 5008SOL    HW115923   5.411   6.521   1.353
 5008SOL    HW215924   5.342   6.528   1.205
 5009SOL     OW15925   0.003   1.641   0.453
 5009SOL    HW115926   6.974   1.659   0.537
 5009SOL    HW215927   6.974   1.574   0.398
 5010SOL     OW15928   4.148   3.201   1.883
 5010SOL    HW115929   4.128   3.277   1.945
 5010SOL    HW215930   4.247   3.184   1.884
 5011SOL     OW15931   1.487   4.456   2.138
 5011SOL    HW115932   1.578   4.475   2.100
 5011SOL    HW215933   1.467   4.359   2.128
 5012SOL     OW15934   5.514   3.591   5.728
 5012SOL    HW115935   5.491   3.669   5.671
 5012SOL    HW215936   5.459   3.512   5.701
 5013SOL     OW15937   5.246   1.514   6.790
 5013SOL    HW115938   5.217   1.439   6.850
 5013SOL    HW215939   5.346   1.521   6.793
 5014SOL     OW15940   6.107   4.717   1.174
 5014SOL    HW115941   6.130   4.704   1.271
 5014SOL    HW215942   6.183   4.763   1.128
 5015SOL     OW15943   4.948   1.840   5.127
 5015SOL    HW115944   4.960   1.741   5.116
 5015SOL    HW215945   4.850   1.862   5.124
 5016SOL     OW15946   1.962   3.030   6.241
 5016SOL    HW115947   1.969   3.089   6.321
 5016SOL    HW215948   1.899   3.071   6.175
 5017SOL     OW15949   2.552   2.718   1.394
 5017SOL    HW115950   2.493   2.655   1.445
 5017SOL    HW215951   2.518   2.811   1.404
 5018SOL     OW15952   1.125   4.308   2.823
 5018SOL    HW115953   1.193   4.333   2.893
 5018SOL    HW215954   1.054   4.378   2.820
 5019SOL     OW15955   1.366   5.226   6.007
 5019SOL    HW115956   1.354   5.134   5.970
 5019SOL    HW215957   1.344   5.293   5.937
 5020SOL     OW15958   5.516   0.243   0.009
 5020SOL    HW115959   5.610   0.277   0.000
 5020SOL    HW215960   5.514   0.168   0.075
 5021SOL     OW15961   0.538   1.507   0.076
 5021SOL    HW115962   0.632   1.482   0.053
 5021SOL    HW215963   0.493   1.430   0.122
 5022SOL     OW15964   1.619   1.202   1.035
 5022SOL    HW115965   1.534   1.165   1.073
 5022SOL    HW215966   1.599   1.252   0.951
 5023SOL     OW15967   0.265   3.283   1.831
 5023SOL    HW115968   0.242   3.208   1.768
 5023SOL    HW215969   0.223   3.265   1.920
 5024SOL     OW15970   6.211   5.250   1.607
 5024SOL    HW115971   6.165   5.230   1.521
 5024SOL    HW215972   6.142   5.275   1.676
 5025SOL     OW15973   4.209   1.489   2.750
 5025SOL    HW115974   4.253   1.467   2.837
 5025SOL    HW215975   4.236   1.582   2.723
 5026SOL     OW15976   6.268   6.343   5.376
 5026SOL    HW115977   6.280   6.283   5.297
 5026SOL    HW215978   6.171   6.346   5.401
 5027SOL     OW15979   0.031   6.097   1.615
 5027SOL    HW115980   0.019   6.052   1.526
 5027SOL    HW215981   0.041   6.196   1.601
 5028SOL     OW15982   0.417   1.900   2.303
 5028SOL    HW115983   0.424   1.858   2.394
 5028SOL    HW215984   0.353   1.976   2.307
 5029SOL     OW15985   6.578   2.014   2.401
 5029SOL    HW115986   6.615   2.001   2.493
 5029SOL    HW215987   6.544   2.108   2.392
 5030SOL     OW15988   6.810   6.321   6.840
 5030SOL    HW115989   6.714   6.334   6.864
 5030SOL    HW215990   6.819   6.244   6.777
 5031SOL     OW15991   6.566   0.508   6.119
 5031SOL    HW115992   6.477   0.553   6.108
 5031SOL    HW215993   6.631   0.548   6.055
 5032SOL     OW15994   1.635   2.147   0.222
 5032SOL    HW115995   1.661   2.112   0.312
 5032SOL    HW215996   1.604   2.242   0.231
 5033SOL     OW15997   2.364   6.588   5.695
 5033SOL    HW115998   2.423   6.669   5.687
 5033SOL    HW215999   2.369   6.536   5.611
 5034SOL     OW16000   5.826   0.488   3.511
 5034SOL    HW116001   5.876   0.411   3.473
 5034SOL    HW216002   5.890   0.554   3.551
 5035SOL     OW16003   0.529   3.558   6.725
 5035SOL    HW116004   0.463   3.567   6.800
 5035SOL    HW216005   0.496   3.489   6.660
 5036SOL     OW16006   0.659   5.009   6.954
 5036SOL    HW116007   0.588   4.939   6.945
 5036SOL    HW216008   0.722   5.003   6.876
 5037SOL     OW16009   5.642   3.861   1.819
 5037SOL    HW116010   5.555   3.896   1.854
 5037SOL    HW216011   5.716   3.888   1.881
 5038SOL     OW16012   3.690   3.814   6.008
 5038SOL    HW116013   3.683   3.881   6.082
 5038SOL    HW216014   3.684   3.861   5.920
 5039SOL     OW16015   2.839   4.202   6.081
 5039SOL    HW116016   2.902   4.125   6.086
 5039SOL    HW216017   2.750   4.170   6.049
 5040SOL     OW16018   1.651   6.166   5.617
 5040SOL    HW116019   1.629   6.178   5.714
 5040SOL    HW216020   1.632   6.071   5.590
 5041SOL     OW16021   1.961   1.704   2.585
 5041SOL    HW116022   2.060   1.694   2.594
 5041SOL    HW216023   1.928   1.774   2.648
 5042SOL     OW16024   6.655   3.071   0.474
 5042SOL    HW116025   6.628   3.001   0.407
 5042SOL    HW216026   6.586   3.144   0.475
 5043SOL     OW16027   3.016   0.292   6.140
 5043SOL    HW116028   2.995   0.198   6.166
 5043SOL    HW216029   3.058   0.340   6.217
 5044SOL     OW16030   0.585   6.692   6.825
 5044SOL    HW116031   0.657   6.665   6.889
 5044SOL    HW216032   0.500   6.646   6.848
 5045SOL     OW16033   5.113   0.359   6.333
 5045SOL    HW116034   5.128   0.356   6.432
 5045SOL    HW216035   5.156   0.442   6.296
 5046SOL     OW16036   3.214   4.110   2.556
 5046SOL    HW116037   3.291   4.132   2.497
 5046SOL    HW216038   3.244   4.108   2.651
 5047SOL     OW16039   1.287   4.331   2.596
 5047SOL    HW116040   1.274   4.277   2.514
 5047SOL    HW216041   1.210   4.316   2.659
 5048SOL     OW16042   1.042   1.748   2.616
 5048SOL    HW116043   0.971   1.747   2.546
 5048SOL    HW216044   1.010   1.700   2.697
 5049SOL     OW16045   5.573   2.071   6.553
 5049SOL    HW116046   5.595   2.021   6.637
 5049SOL    HW216047   5.474   2.068   6.537
 5050SOL     OW16048   1.707   1.388   1.563
 5050SOL    HW116049   1.764   1.468   1.582
 5050SOL    HW216050   1.616   1.402   1.601
 5051SOL     OW16051   4.218   4.192   0.872
 5051SOL    HW116052   4.174   4.266   0.820
 5051SOL    HW216053   4.228   4.112   0.813
 5052SOL     OW16054   2.309   0.992   5.948
 5052SOL    HW116055   2.340   1.062   6.013
 5052SOL    HW216056   2.238   0.936   5.992
 5053SOL     OW16057   2.149   3.782   3.746
 5053SOL    HW116058   2.196   3.864   3.712
 5053SOL    HW216059   2.135   3.719   3.670
 5054SOL     OW16060   3.374   5.746   5.057
 5054SOL    HW116061   3.381   5.761   4.959
 5054SOL    HW216062   3.422   5.662   5.082
 5055SOL     OW16063   2.080   2.081   5.835
 5055SOL    HW116064   2.159   2.114   5.785
 5055SOL    HW216065   2.068   2.135   5.919
 5056SOL     OW16066   6.181   4.116   6.880
 5056SOL    HW116067   6.229   4.133   6.967
 5056SOL    HW216068   6.085   4.141   6.890
 5057SOL     OW16069   6.830   5.853   3.858
 5057SOL    HW116070   6.891   5.809   3.924
 5057SOL    HW216071   6.775   5.923   3.904
 5058SOL     OW16072   2.649   3.205   5.597
 5058SOL    HW116073   2.626   3.214   5.500
 5058SOL    HW216074   2.609   3.121   5.634
 5059SOL     OW16075   6.152   1.337   3.628
 5059SOL    HW116076   6.091   1.375   3.558
 5059SOL    HW216077   6.102   1.326   3.713
 5060SOL     OW16078   0.700   2.154   5.692
 5060SOL    HW116079   0.764   2.122   5.762
 5060SOL    HW216080   0.751   2.191   5.614
 5061SOL     OW16081   4.326   2.557   1.789
 5061SOL    HW116082   4.337   2.628   1.719
 5061SOL    HW216083   4.267   2.484   1.754
 5062SOL     OW16084   5.328   0.643   3.200
 5062SOL    HW116085   5.397   0.580   3.234
 5062SOL    HW216086   5.341   0.656   3.101
 5063SOL     OW16087   1.111   6.731   1.896
 5063SOL    HW116088   1.176   6.801   1.925
 5063SOL    HW216089   1.030   6.735   1.955
 5064SOL     OW16090   4.922   3.948   1.326
 5064SOL    HW116091   4.919   3.959   1.425
 5064SOL    HW216092   4.846   3.891   1.296
 5065SOL     OW16093   1.902   0.278   3.521
 5065SOL    HW116094   1.848   0.349   3.477
 5065SOL    HW216095   1.998   0.306   3.522
 5066SOL     OW16096   4.821   5.157   1.902
 5066SOL    HW116097   4.738   5.204   1.932
 5066SOL    HW216098   4.898   5.183   1.961
 5067SOL     OW16099   4.758   0.848   1.502
 5067SOL    HW116100   4.764   0.797   1.587
 5067SOL    HW216101   4.756   0.946   1.522
 5068SOL     OW16102   3.637   4.604   0.524
 5068SOL    HW116103   3.578   4.524   0.516
 5068SOL    HW216104   3.710   4.585   0.591
 5069SOL     OW16105   1.968   3.582   5.679
 5069SOL    HW116106   1.873   3.598   5.704
 5069SOL    HW216107   1.983   3.608   5.584
 5070SOL     OW16108   4.853   4.158   4.004
 5070SOL    HW116109   4.855   4.073   4.056
 5070SOL    HW216110   4.760   4.194   4.001
 5071SOL     OW16111   4.168   2.176   3.172
 5071SOL    HW116112   4.251   2.219   3.207
 5071SOL    HW216113   4.095   2.185   3.239
 5072SOL     OW16114   1.081   0.303   1.189
 5072SOL    HW116115   1.005   0.368   1.186
 5072SOL    HW216116   1.167   0.353   1.204
 5073SOL     OW16117   0.159   5.871   2.024
 5073SOL    HW116118   0.193   5.862   1.931
 5073SOL    HW216119   0.190   5.957   2.063
 5074SOL     OW16120   3.363   2.939   1.284
 5074SOL    HW116121   3.453   2.927   1.325
 5074SOL    HW216122   3.314   2.852   1.286
 5075SOL     OW16123   0.990   2.233   6.753
 5075SOL    HW116124   0.975   2.204   6.848
 5075SOL    HW216125   0.903   2.243   6.707
 5076SOL     OW16126   4.018   1.055   0.650
 5076SOL    HW116127   3.964   1.131   0.613
 5076SOL    HW216128   4.113   1.084   0.661
 5077SOL     OW16129   1.296   4.646   5.410
 5077SOL    HW116130   1.377   4.588   5.401
 5077SOL    HW216131   1.301   4.720   5.342
 5078SOL     OW16132   1.361   0.629   4.088
 5078SOL    HW116133   1.265   0.656   4.082
 5078SOL    HW216134   1.368   0.531   4.070
 5079SOL     OW16135   2.486   3.181   6.233
 5079SOL    HW116136   2.444   3.144   6.150
 5079SOL    HW216137   2.567   3.128   6.256
 5080SOL     OW16138   6.331   6.591   6.271
 5080SOL    HW116139   6.387   6.646   6.334
 5080SOL    HW216140   6.380   6.509   6.245
 5081SOL     OW16141   3.294   3.072   4.254
 5081SOL    HW116142   3.249   3.135   4.317
 5081SOL    HW216143   3.312   2.985   4.301
 5082SOL     OW16144   4.709   6.019   7.005
 5082SOL    HW116145   4.806   6.020   6.980
 5082SOL    HW216146   4.687   6.104   0.031
 5083SOL     OW16147   2.228   6.968   2.724
 5083SOL    HW116148   2.257   0.039   2.747
 5083SOL    HW216149   2.232   6.910   2.805
 5084SOL     OW16150   0.201   4.828   4.536
 5084SOL    HW116151   0.108   4.858   4.515
 5084SOL    HW216152   0.262   4.856   4.462
 5085SOL     OW16153   5.084   3.300   6.792
 5085SOL    HW116154   5.043   3.234   6.730
 5085SOL    HW216155   5.025   3.380   6.801
 5086SOL     OW16156   0.324   5.299   3.301
 5086SOL    HW116157   0.310   5.277   3.397
 5086SOL    HW216158   0.236   5.292   3.253
 5087SOL     OW16159   1.295   4.970   1.995
 5087SOL    HW116160   1.273   4.874   2.012
 5087SOL    HW216161   1.275   5.024   2.077
 5088SOL     OW16162   6.704   1.169   5.305
 5088SOL    HW116163   6.638   1.204   5.239
 5088SOL    HW216164   6.796   1.198   5.278
 5089SOL     OW16165   4.951   3.689   4.304
 5089SOL    HW116166   4.928   3.626   4.230
 5089SOL    HW216167   5.049   3.683   4.323
 5090SOL     OW16168   2.141   3.734   3.064
 5090SOL    HW116169   2.086   3.690   2.993
 5090SOL    HW216170   2.189   3.813   3.026
 5091SOL     OW16171   0.673   6.992   2.193
 5091SOL    HW116172   0.676   6.954   2.101
 5091SOL    HW216173   0.586   6.968   2.236
 5092SOL     OW16174   3.950   3.095   1.746
 5092SOL    HW116175   3.945   2.997   1.769
 5092SOL    HW216176   4.033   3.134   1.786
 5093SOL     OW16177   2.874   1.381   1.686
 5093SOL    HW116178   2.878   1.480   1.686
 5093SOL    HW216179   2.795   1.351   1.633
 5094SOL     OW16180   2.106   5.852   5.503
 5094SOL    HW116181   2.109   5.779   5.435
 5094SOL    HW216182   2.188   5.908   5.496
 5095SOL     OW16183   6.228   2.290   5.009
 5095SOL    HW116184   6.303   2.335   5.057
 5095SOL    HW216185   6.172   2.359   4.963
 5096SOL     OW16186   4.231   3.913   0.704
 5096SOL    HW116187   4.235   3.854   0.623
 5096SOL    HW216188   4.303   3.887   0.767
 5097SOL     OW16189   1.201   0.643   6.554
 5097SOL    HW116190   1.175   0.707   6.481
 5097SOL    HW216191   1.238   0.560   6.514
 5098SOL     OW16192   1.366   0.914   1.777
 5098SOL    HW116193   1.412   0.833   1.813
 5098SOL    HW216194   1.281   0.887   1.733
 5099SOL     OW16195   0.540   6.431   7.018
 5099SOL    HW116196   0.631   6.418   6.978
 5099SOL    HW216197   0.474   6.374   6.969
 5100SOL     OW16198   4.024   5.394   5.551
 5100SOL    HW116199   4.064   5.333   5.484
 5100SOL    HW216200   3.985   5.340   5.626
 5101SOL     OW16201   4.875   6.581   0.379
 5101SOL    HW116202   4.788   6.539   0.353
 5101SOL    HW216203   4.863   6.680   0.383
 5102SOL     OW16204   5.527   0.747   4.018
 5102SOL    HW116205   5.512   0.694   4.102
 5102SOL    HW216206   5.549   0.686   3.943
 5103SOL     OW16207   0.254   1.699   4.155
 5103SOL    HW116208   0.259   1.791   4.116
 5103SOL    HW216209   0.248   1.705   4.255
 5104SOL     OW16210   1.398   6.705   2.993
 5104SOL    HW116211   1.359   6.613   3.000
 5104SOL    HW216212   1.498   6.697   2.984
 5105SOL     OW16213   3.681   2.728   0.522
 5105SOL    HW116214   3.641   2.815   0.493
 5105SOL    HW216215   3.642   2.653   0.468
 5106SOL     OW16216   3.237   0.898   0.420
 5106SOL    HW116217   3.243   0.807   0.461
 5106SOL    HW216218   3.263   0.893   0.323
 5107SOL     OW16219   3.613   0.679   0.331
 5107SOL    HW116220   3.708   0.650   0.342
 5107SOL    HW216221   3.592   0.688   0.234
 5108SOL     OW16222   2.934   3.808   4.774
 5108SOL    HW116223   2.972   3.857   4.695
 5108SOL    HW216224   2.840   3.839   4.790
 5109SOL     OW16225   1.235   0.787   0.658
 5109SOL    HW116226   1.330   0.769   0.633
 5109SOL    HW216227   1.174   0.757   0.584
 5110SOL     OW16228   0.462   0.670   6.625
 5110SOL    HW116229   0.558   0.646   6.611
 5110SOL    HW216230   0.456   0.756   6.676
 5111SOL     OW16231   2.585   1.169   5.092
 5111SOL    HW116232   2.490   1.195   5.108
 5111SOL    HW216233   2.635   1.168   5.179
 5112SOL     OW16234   0.660   6.502   2.624
 5112SOL    HW116235   0.621   6.462   2.707
 5112SOL    HW216236   0.754   6.531   2.641
 5113SOL     OW16237   2.290   6.896   1.694
 5113SOL    HW116238   2.259   6.801   1.691
 5113SOL    HW216239   2.357   6.911   1.621
 5114SOL     OW16240   3.132   2.149   0.943
 5114SOL    HW116241   3.143   2.072   0.880
 5114SOL    HW216242   3.046   2.140   0.993
 5115SOL     OW16243   2.152   5.059   4.835
 5115SOL    HW116244   2.240   5.101   4.810
 5115SOL    HW216245   2.104   5.119   4.899
 5116SOL     OW16246   5.842   6.812   6.749
 5116SOL    HW116247   5.935   6.777   6.738
 5116SOL    HW216248   5.838   6.873   6.829
 5117SOL     OW16249   2.994   4.852   4.937
 5117SOL    HW116250   2.952   4.770   4.974
 5117SOL    HW216251   2.996   4.846   4.837
 5118SOL     OW16252   4.898   0.525   0.464
 5118SOL    HW116253   4.960   0.554   0.390
 5118SOL    HW216254   4.804   0.543   0.437
 5119SOL     OW16255   5.419   0.981   1.826
 5119SOL    HW116256   5.418   0.930   1.912
 5119SOL    HW216257   5.504   1.032   1.818
 5120SOL     OW16258   3.975   1.482   3.965
 5120SOL    HW116259   4.050   1.451   3.907
 5120SOL    HW216260   3.897   1.506   3.907
 5121SOL     OW16261   2.582   1.988   0.590
 5121SOL    HW116262   2.582   1.920   0.518
 5121SOL    HW216263   2.610   2.077   0.553
 5122SOL     OW16264   3.095   6.993   3.317
 5122SOL    HW116265   3.027   0.007   3.382
 5122SOL    HW216266   3.134   6.908   3.352
 5123SOL     OW16267   5.577   1.812   5.238
 5123SOL    HW116268   5.533   1.800   5.149
 5123SOL    HW216269   5.670   1.845   5.225
 5124SOL     OW16270   3.122   5.365   5.006
 5124SOL    HW116271   3.030   5.327   5.016
 5124SOL    HW216272   3.121   5.462   5.030
 5125SOL     OW16273   6.279   2.865   4.041
 5125SOL    HW116274   6.269   2.773   4.002
 5125SOL    HW216275   6.193   2.893   4.083
 5126SOL     OW16276   6.195   5.321   5.884
 5126SOL    HW116277   6.125   5.250   5.877
 5126SOL    HW216278   6.285   5.278   5.890
 5127SOL     OW16279   0.155   4.071   0.164
 5127SOL    HW116280   0.137   4.017   0.081
 5127SOL    HW216281   0.166   4.009   0.242
 5128SOL     OW16282   0.137   0.717   6.717
 5128SOL    HW116283   0.172   0.701   6.810
 5128SOL    HW216284   0.207   0.692   6.651
 5129SOL     OW16285   4.700   6.987   3.066
 5129SOL    HW116286   4.702   6.911   3.001
 5129SOL    HW216287   4.780   0.024   3.052
 5130SOL     OW16288   1.341   5.790   4.269
 5130SOL    HW116289   1.368   5.771   4.363
 5130SOL    HW216290   1.303   5.882   4.263
 5131SOL     OW16291   2.815   4.969   3.607
 5131SOL    HW116292   2.720   4.973   3.640
 5131SOL    HW216293   2.878   4.969   3.684
 5132SOL     OW16294   3.598   1.788   6.181
 5132SOL    HW116295   3.501   1.766   6.166
 5132SOL    HW216296   3.644   1.795   6.093
 5133SOL     OW16297   2.460   5.225   6.569
 5133SOL    HW116298   2.447   5.214   6.668
 5133SOL    HW216299   2.532   5.164   6.537
 5134SOL     OW16300   6.455   0.836   2.142
 5134SOL    HW116301   6.492   0.748   2.173
 5134SOL    HW216302   6.470   0.905   2.212
 5135SOL     OW16303   4.894   3.325   3.860
 5135SOL    HW116304   4.906   3.423   3.872
 5135SOL    HW216305   4.978   3.286   3.821
 5136SOL     OW16306   5.390   0.696   6.518
 5136SOL    HW116307   5.378   0.777   6.575
 5136SOL    HW216308   5.402   0.616   6.577
 5137SOL     OW16309   5.151   3.375   5.124
 5137SOL    HW116310   5.077   3.383   5.057
 5137SOL    HW216311   5.136   3.293   5.179
 5138SOL     OW16312   3.444   4.067   4.514
 5138SOL    HW116313   3.428   3.970   4.495
 5138SOL    HW216314   3.432   4.084   4.612
 5139SOL     OW16315   0.730   6.913   4.618
 5139SOL    HW116316   0.711   6.981   4.547
 5139SOL    HW216317   0.645   6.871   4.647
 5140SOL     OW16318   3.985   1.481   5.578
 5140SOL    HW116319   3.887   1.494   5.559
 5140SOL    HW216320   4.035   1.561   5.546
 5141SOL     OW16321   6.846   3.792   1.585
 5141SOL    HW116322   6.885   3.841   1.663
 5141SOL    HW216323   6.747   3.779   1.599
 5142SOL     OW16324   5.427   6.745   4.360
 5142SOL    HW116325   5.447   6.660   4.311
 5142SOL    HW216326   5.513   6.788   4.388
 5143SOL     OW16327   0.320   4.035   4.239
 5143SOL    HW116328   0.223   4.036   4.265
 5143SOL    HW216329   0.335   3.962   4.171
 5144SOL     OW16330   1.539   4.978   5.437
 5144SOL    HW116331   1.452   5.013   5.403
 5144SOL    HW216332   1.527   4.947   5.532
 5145SOL     OW16333   3.424   5.951   6.022
 5145SOL    HW116334   3.454   6.001   5.941
 5145SOL    HW216335   3.490   5.965   6.096
 5146SOL     OW16336   3.339   3.816   5.352
 5146SOL    HW116337   3.302   3.838   5.262
 5146SOL    HW216338   3.431   3.778   5.342
 5147SOL     OW16339   6.373   5.631   4.062
 5147SOL    HW116340   6.473   5.635   4.058
 5147SOL    HW216341   6.338   5.578   3.985
 5148SOL     OW16342   6.858   1.103   2.404
 5148SOL    HW116343   6.935   1.124   2.464
 5148SOL    HW216344   6.885   1.111   2.309
 5149SOL     OW16345   6.138   5.712   4.769
 5149SOL    HW116346   6.210   5.645   4.785
 5149SOL    HW216347   6.096   5.696   4.680
 5150SOL     OW16348   2.272   4.697   4.278
 5150SOL    HW116349   2.202   4.646   4.226
 5150SOL    HW216350   2.356   4.643   4.281
 5151SOL     OW16351   0.567   4.058   2.039
 5151SOL    HW116352   0.617   3.971   2.034
 5151SOL    HW216353   0.628   4.129   2.073
 5152SOL     OW16354   1.844   5.555   0.089
 5152SOL    HW116355   1.775   5.532   0.157
 5152SOL    HW216356   1.822   5.644   0.049
 5153SOL     OW16357   0.254   1.998   1.099
 5153SOL    HW116358   0.326   2.026   1.162
 5153SOL    HW216359   0.223   2.077   1.045
 5154SOL     OW16360   1.126   2.743   5.868
 5154SOL    HW116361   1.214   2.747   5.820
 5154SOL    HW216362   1.065   2.813   5.830
 5155SOL     OW16363   3.917   0.101   2.108
 5155SOL    HW116364   4.016   0.098   2.123
 5155SOL    HW216365   3.871   0.128   2.192
 5156SOL     OW16366   5.571   4.664   5.166
 5156SOL    HW116367   5.492   4.715   5.200
 5156SOL    HW216368   5.655   4.702   5.205
 5157SOL     OW16369   3.091   1.912   2.705
 5157SOL    HW116370   3.158   1.986   2.709
 5157SOL    HW216371   3.002   1.946   2.735
 5158SOL     OW16372   4.351   2.165   1.135
 5158SOL    HW116373   4.412   2.086   1.138
 5158SOL    HW216374   4.295   2.167   1.218
 5159SOL     OW16375   5.936   3.178   5.441
 5159SOL    HW116376   5.931   3.101   5.505
 5159SOL    HW216377   5.870   3.248   5.469
 5160SOL     OW16378   6.927   4.618   3.053
 5160SOL    HW116379   6.864   4.602   2.977
 5160SOL    HW216380   6.913   4.549   3.124
 5161SOL     OW16381   1.876   3.707   0.211
 5161SOL    HW116382   1.845   3.668   0.297
 5161SOL    HW216383   1.890   3.633   0.144
 5162SOL     OW16384   0.941   5.263   2.849
 5162SOL    HW116385   0.945   5.163   2.850
 5162SOL    HW216386   0.914   5.294   2.758
 5163SOL     OW16387   3.256   6.495   0.350
 5163SOL    HW116388   3.313   6.572   0.377
 5163SOL    HW216389   3.254   6.427   0.423
 5164SOL     OW16390   3.523   2.948   0.392
 5164SOL    HW116391   3.436   2.947   0.344
 5164SOL    HW216392   3.571   3.034   0.372
 5165SOL     OW16393   0.682   4.178   6.215
 5165SOL    HW116394   0.769   4.224   6.197
 5165SOL    HW216395   0.610   4.245   6.229
 5166SOL     OW16396   2.267   5.304   2.643
 5166SOL    HW116397   2.247   5.393   2.600
 5166SOL    HW216398   2.356   5.271   2.609
 5167SOL     OW16399   6.091   4.333   5.684
 5167SOL    HW116400   6.149   4.366   5.759
 5167SOL    HW216401   6.149   4.290   5.614
 5168SOL     OW16402   5.228   3.337   2.747
 5168SOL    HW116403   5.208   3.397   2.669
 5168SOL    HW216404   5.143   3.302   2.786
 5169SOL     OW16405   3.923   2.154   3.294
 5169SOL    HW116406   3.855   2.123   3.228
 5169SOL    HW216407   3.882   2.156   3.386
 5170SOL     OW16408   1.242   3.628   4.868
 5170SOL    HW116409   1.202   3.580   4.790
 5170SOL    HW216410   1.262   3.723   4.842
 5171SOL     OW16411   0.144   3.959   6.074
 5171SOL    HW116412   0.078   4.000   6.011
 5171SOL    HW216413   0.194   4.032   6.121
 5172SOL     OW16414   1.822   3.664   2.993
 5172SOL    HW116415   1.727   3.650   2.965
 5172SOL    HW216416   1.829   3.653   3.092
 5173SOL     OW16417   4.001   5.348   5.225
 5173SOL    HW116418   4.062   5.402   5.283
 5173SOL    HW216419   3.906   5.359   5.256
 5174SOL     OW16420   2.353   4.956   3.371
 5174SOL    HW116421   2.286   5.021   3.407
 5174SOL    HW216422   2.439   5.003   3.354
 5175SOL     OW16423   2.822   3.800   6.344
 5175SOL    HW116424   2.751   3.794   6.415
 5175SOL    HW216425   2.796   3.741   6.268
 5176SOL     OW16426   5.146   4.021   6.889
 5176SOL    HW116427   5.104   4.003   6.800
 5176SOL    HW216428   5.079   4.066   6.949
 5177SOL     OW16429   5.352   6.854   0.553
 5177SOL    HW116430   5.306   6.817   0.472
 5177SOL    HW216431   5.323   6.948   0.567
 5178SOL     OW16432   1.324   3.951   2.405
 5178SOL    HW116433   1.308   4.045   2.434
 5178SOL    HW216434   1.237   3.911   2.373
 5179SOL     OW16435   4.615   4.330   3.963
 5179SOL    HW116436   4.559   4.407   3.995
 5179SOL    HW216437   4.671   4.361   3.885
 5180SOL     OW16438   3.570   1.522   1.554
 5180SOL    HW116439   3.524   1.464   1.621
 5180SOL    HW216440   3.554   1.618   1.576
 5181SOL     OW16441   5.858   0.574   2.026
 5181SOL    HW116442   5.775   0.582   2.081
 5181SOL    HW216443   5.841   0.514   1.948
 5182SOL     OW16444   4.378   4.603   2.259
 5182SOL    HW116445   4.314   4.597   2.182
 5182SOL    HW216446   4.439   4.524   2.259
 5183SOL     OW16447   3.338   1.746   3.230
 5183SOL    HW116448   3.347   1.753   3.329
 5183SOL    HW216449   3.402   1.809   3.186
 5184SOL     OW16450   1.608   2.545   3.606
 5184SOL    HW116451   1.522   2.576   3.567
 5184SOL    HW216452   1.654   2.621   3.652
 5185SOL     OW16453   4.980   1.345   2.786
 5185SOL    HW116454   4.979   1.329   2.687
 5185SOL    HW216455   4.947   1.437   2.806
 5186SOL     OW16456   6.250   1.910   6.222
 5186SOL    HW116457   6.300   1.933   6.138
 5186SOL    HW216458   6.315   1.881   6.292
 5187SOL     OW16459   1.317   5.699   5.369
 5187SOL    HW116460   1.365   5.706   5.282
 5187SOL    HW216461   1.341   5.777   5.427
 5188SOL     OW16462   6.481   6.193   1.331
 5188SOL    HW116463   6.566   6.246   1.333
 5188SOL    HW216464   6.403   6.255   1.317
 5189SOL     OW16465   4.694   5.838   0.188
 5189SOL    HW116466   4.789   5.811   0.206
 5189SOL    HW216467   4.692   5.899   0.108
 5190SOL     OW16468   0.637   3.331   4.346
 5190SOL    HW116469   0.665   3.265   4.276
 5190SOL    HW216470   0.622   3.421   4.304
 5191SOL     OW16471   3.261   6.389   2.161
 5191SOL    HW116472   3.265   6.476   2.112
 5191SOL    HW216473   3.348   6.340   2.149
 5192SOL     OW16474   1.475   6.134   1.393
 5192SOL    HW116475   1.513   6.173   1.309
 5192SOL    HW216476   1.543   6.075   1.437
 5193SOL     OW16477   5.306   5.628   5.615
 5193SOL    HW116478   5.235   5.681   5.568
 5193SOL    HW216479   5.291   5.631   5.713
 5194SOL     OW16480   3.660   2.823   0.143
 5194SOL    HW116481   3.676   2.725   0.136
 5194SOL    HW216482   3.614   2.843   0.230
 5195SOL     OW16483   0.283   0.627   4.128
 5195SOL    HW116484   0.375   0.623   4.090
 5195SOL    HW216485   0.255   0.536   4.159
 5196SOL     OW16486   5.009   0.131   2.090
 5196SOL    HW116487   5.069   0.051   2.096
 5196SOL    HW216488   4.941   0.128   2.163
 5197SOL     OW16489   2.573   3.796   6.465
 5197SOL    HW116490   2.495   3.777   6.404
 5197SOL    HW216491   2.541   3.849   6.544
 5198SOL     OW16492   4.447   5.762   2.882
 5198SOL    HW116493   4.515   5.729   2.948
 5198SOL    HW216494   4.381   5.690   2.863
 5199SOL     OW16495   1.120   5.961   0.488
 5199SOL    HW116496   1.106   5.910   0.403
 5199SOL    HW216497   1.153   5.898   0.559
 5200SOL     OW16498   6.834   4.001   5.285
 5200SOL    HW116499   6.739   3.974   5.270
 5200SOL    HW216500   6.875   4.029   5.198
 5201SOL     OW16501   0.556   6.560   2.899
 5201SOL    HW116502   0.485   6.616   2.942
 5201SOL    HW216503   0.646   6.590   2.929
 5202SOL     OW16504   4.633   2.670   6.145
 5202SOL    HW116505   4.607   2.767   6.154
 5202SOL    HW216506   4.722   2.656   6.188
 5203SOL     OW16507   1.940   2.106   6.553
 5203SOL    HW116508   1.965   2.184   6.610
 5203SOL    HW216509   1.843   2.083   6.568
 5204SOL     OW16510   3.580   5.001   6.882
 5204SOL    HW116511   3.642   5.079   6.876
 5204SOL    HW216512   3.624   4.920   6.843
 5205SOL     OW16513   0.815   6.649   0.410
 5205SOL    HW116514   0.879   6.583   0.449
 5205SOL    HW216515   0.865   6.731   0.382
 5206SOL     OW16516   6.737   4.407   5.116
 5206SOL    HW116517   6.745   4.360   5.028
 5206SOL    HW216518   6.828   4.419   5.155
 5207SOL     OW16519   1.111   6.127   3.692
 5207SOL    HW116520   1.170   6.205   3.669
 5207SOL    HW216521   1.078   6.137   3.786
 5208SOL     OW16522   3.283   1.758   6.588
 5208SOL    HW116523   3.234   1.832   6.635
 5208SOL    HW216524   3.344   1.797   6.519
 5209SOL     OW16525   5.934   6.096   3.598
 5209SOL    HW116526   5.901   6.034   3.669
 5209SOL    HW216527   5.958   6.044   3.516
 5210SOL     OW16528   5.445   2.256   5.407
 5210SOL    HW116529   5.535   2.293   5.432
 5210SOL    HW216530   5.448   2.156   5.409
 5211SOL     OW16531   3.446   2.964   4.474
 5211SOL    HW116532   3.391   2.926   4.548
 5211SOL    HW216533   3.496   3.043   4.508
 5212SOL     OW16534   5.997   1.795   0.477
 5212SOL    HW116535   5.920   1.733   0.466
 5212SOL    HW216536   5.964   1.885   0.507
 5213SOL     OW16537   4.336   3.893   6.762
 5213SOL    HW116538   4.260   3.884   6.697
 5213SOL    HW216539   4.385   3.978   6.744
 5214SOL     OW16540   4.935   1.683   5.877
 5214SOL    HW116541   5.022   1.730   5.865
 5214SOL    HW216542   4.946   1.607   5.942
 5215SOL     OW16543   5.932   5.010   3.228
 5215SOL    HW116544   5.966   5.104   3.223
 5215SOL    HW216545   5.851   5.007   3.287
 5216SOL     OW16546   4.438   5.279   1.617
 5216SOL    HW116547   4.390   5.225   1.548
 5216SOL    HW216548   4.375   5.346   1.656
 5217SOL     OW16549   3.237   5.034   4.086
 5217SOL    HW116550   3.238   5.087   4.171
 5217SOL    HW216551   3.183   4.951   4.100
 5218SOL     OW16552   0.819   0.731   3.806
 5218SOL    HW116553   0.913   0.766   3.801
 5218SOL    HW216554   0.821   0.631   3.810
 5219SOL     OW16555   4.389   0.497   5.678
 5219SOL    HW116556   4.293   0.518   5.661
 5219SOL    HW216557   4.435   0.481   5.590
 5220SOL     OW16558   1.292   5.790   2.435
 5220SOL    HW116559   1.377   5.782   2.384
 5220SOL    HW216560   1.248   5.877   2.413
 5221SOL     OW16561   5.558   1.958   3.763
 5221SOL    HW116562   5.622   2.034   3.747
 5221SOL    HW216563   5.476   1.992   3.809
 5222SOL     OW16564   3.297   6.023   3.447
 5222SOL    HW116565   3.358   5.979   3.383
 5222SOL    HW216566   3.204   6.023   3.411
 5223SOL     OW16567   5.561   1.440   0.626
 5223SOL    HW116568   5.498   1.509   0.591
 5223SOL    HW216569   5.602   1.472   0.711
 5224SOL     OW16570   0.153   2.394   4.089
 5224SOL    HW116571   0.144   2.493   4.074
 5224SOL    HW216572   0.143   2.373   4.186
 5225SOL     OW16573   0.468   0.120   2.859
 5225SOL    HW116574   0.401   0.166   2.801
 5225SOL    HW216575   0.478   0.025   2.830
 5226SOL     OW16576   0.132   5.626   4.912
 5226SOL    HW116577   0.099   5.565   4.984
 5226SOL    HW216578   0.142   5.718   4.950
 5227SOL     OW16579   1.337   4.110   3.987
 5227SOL    HW116580   1.415   4.096   3.927
 5227SOL    HW216581   1.298   4.201   3.971
 5228SOL     OW16582   6.743   1.883   1.415
 5228SOL    HW116583   6.674   1.897   1.344
 5228SOL    HW216584   6.793   1.969   1.429
 5229SOL     OW16585   2.099   4.729   0.179
 5229SOL    HW116586   2.169   4.751   0.110
 5229SOL    HW216587   2.009   4.753   0.143
 5230SOL     OW16588   0.522   6.071   0.788
 5230SOL    HW116589   0.571   6.073   0.701
 5230SOL    HW216590   0.438   6.125   0.780
 5231SOL     OW16591   4.086   3.359   5.074
 5231SOL    HW116592   4.015   3.416   5.116
 5231SOL    HW216593   4.097   3.275   5.127
 5232SOL     OW16594   3.063   1.963   5.992
 5232SOL    HW116595   3.064   1.900   5.914
 5232SOL    HW216596   3.150   2.011   5.997
 5233SOL     OW16597   5.998   0.430   1.749
 5233SOL    HW116598   6.064   0.355   1.756
 5233SOL    HW216599   5.908   0.398   1.779
 5234SOL     OW16600   2.454   0.648   0.048
 5234SOL    HW116601   2.420   0.713   0.116
 5234SOL    HW216602   2.520   0.693   7.010
 5235SOL     OW16603   1.803   2.913   1.178
 5235SOL    HW116604   1.732   2.968   1.134
 5235SOL    HW216605   1.806   2.934   1.275
 5236SOL     OW16606   6.053   4.065   2.378
 5236SOL    HW116607   5.972   4.018   2.413
 5236SOL    HW216608   6.031   4.106   2.289
 5237SOL     OW16609   1.998   0.495   5.330
 5237SOL    HW116610   2.028   0.560   5.260
 5237SOL    HW216611   1.949   0.543   5.402
 5238SOL     OW16612   1.475   4.681   0.728
 5238SOL    HW116613   1.427   4.724   0.805
 5238SOL    HW216614   1.546   4.620   0.764
 5239SOL     OW16615   4.072   3.753   4.648
 5239SOL    HW116616   4.144   3.692   4.682
 5239SOL    HW216617   3.986   3.702   4.641
 5240SOL     OW16618   3.169   2.023   6.617
 5240SOL    HW116619   3.249   2.074   6.588
 5240SOL    HW216620   3.090   2.050   6.562
 5241SOL     OW16621   0.574   5.429   5.708
 5241SOL    HW116622   0.496   5.390   5.758
 5241SOL    HW216623   0.620   5.357   5.656
 5242SOL     OW16624   6.648   6.244   5.947
 5242SOL    HW116625   6.690   6.247   6.038
 5242SOL    HW216626   6.658   6.334   5.903
 5243SOL     OW16627   1.233   5.698   1.794
 5243SOL    HW116628   1.183   5.612   1.783
 5243SOL    HW216629   1.331   5.682   1.780
 5244SOL     OW16630   3.182   4.108   5.914
 5244SOL    HW116631   3.183   4.063   6.004
 5244SOL    HW216632   3.097   4.086   5.867
 5245SOL     OW16633   4.835   4.477   0.257
 5245SOL    HW116634   4.877   4.557   0.301
 5245SOL    HW216635   4.736   4.485   0.260
 5246SOL     OW16636   5.662   4.183   2.552
 5246SOL    HW116637   5.580   4.165   2.498
 5246SOL    HW216638   5.702   4.270   2.524
 5247SOL     OW16639   1.176   6.603   0.380
 5247SOL    HW116640   1.194   6.555   0.466
 5247SOL    HW216641   1.093   6.567   0.338
 5248SOL     OW16642   5.830   0.507   4.403
 5248SOL    HW116643   5.921   0.548   4.409
 5248SOL    HW216644   5.819   0.463   4.313
 5249SOL     OW16645   6.939   4.900   4.797
 5249SOL    HW116646   6.903   4.948   4.717
 5249SOL    HW216647   6.960   4.805   4.773
 5250SOL     OW16648   0.843   1.117   5.489
 5250SOL    HW116649   0.801   1.102   5.579
 5250SOL    HW216650   0.825   1.039   5.430
 5251SOL     OW16651   0.540   3.555   0.366
 5251SOL    HW116652   0.572   3.640   0.408
 5251SOL    HW216653   0.446   3.537   0.396
 5252SOL     OW16654   2.415   5.839   0.932
 5252SOL    HW116655   2.406   5.740   0.923
 5252SOL    HW216656   2.476   5.873   0.860
 5253SOL     OW16657   5.512   3.757   4.631
 5253SOL    HW116658   5.527   3.727   4.725
 5253SOL    HW216659   5.414   3.764   4.613
 5254SOL     OW16660   4.857   1.030   3.246
 5254SOL    HW116661   4.875   0.947   3.193
 5254SOL    HW216662   4.822   1.101   3.185
 5255SOL     OW16663   4.396   0.520   5.981
 5255SOL    HW116664   4.419   0.527   5.884
 5255SOL    HW216665   4.472   0.555   6.036
 5256SOL     OW16666   4.252   0.786   3.700
 5256SOL    HW116667   4.318   0.763   3.628
 5256SOL    HW216668   4.298   0.786   3.788
 5257SOL     OW16669   4.580   7.010   2.303
 5257SOL    HW116670   4.634   6.928   2.320
 5257SOL    HW216671   4.493   7.002   2.353
 5258SOL     OW16672   5.091   3.125   1.254
 5258SOL    HW116673   5.169   3.102   1.311
 5258SOL    HW216674   5.089   3.224   1.238
 5259SOL     OW16675   4.625   5.784   0.939
 5259SOL    HW116676   4.609   5.820   0.846
 5259SOL    HW216677   4.539   5.784   0.990
 5260SOL     OW16678   5.471   3.555   0.986
 5260SOL    HW116679   5.376   3.551   0.954
 5260SOL    HW216680   5.522   3.477   0.949
 5261SOL     OW16681   1.832   3.313   6.738
 5261SOL    HW116682   1.740   3.332   6.704
 5261SOL    HW216683   1.843   3.357   6.828
 5262SOL     OW16684   2.438   0.336   2.662
 5262SOL    HW116685   2.475   0.408   2.722
 5262SOL    HW216686   2.481   0.342   2.572
 5263SOL     OW16687   1.132   1.172   5.546
 5263SOL    HW116688   1.135   1.127   5.636
 5263SOL    HW216689   1.043   1.153   5.503
 5264SOL     OW16690   6.267   1.109   2.483
 5264SOL    HW116691   6.200   1.183   2.488
 5264SOL    HW216692   6.314   1.101   2.571
 5265SOL     OW16693   5.386   4.512   3.320
 5265SOL    HW116694   5.322   4.491   3.394
 5265SOL    HW216695   5.476   4.473   3.341
 5266SOL     OW16696   2.833   0.266   2.260
 5266SOL    HW116697   2.793   0.293   2.173
 5266SOL    HW216698   2.912   0.207   2.244
 5267SOL     OW16699   4.868   4.640   5.980
 5267SOL    HW116700   4.906   4.731   5.993
 5267SOL    HW216701   4.768   4.643   5.992
 5268SOL     OW16702   6.162   6.764   6.169
 5268SOL    HW116703   6.218   6.689   6.206
 5268SOL    HW216704   6.215   6.848   6.167
 5269SOL     OW16705   2.302   0.000   4.308
 5269SOL    HW116706   2.350   0.084   4.281
 5269SOL    HW216707   2.366   6.963   4.357
 5270SOL     OW16708   5.569   1.654   2.533
 5270SOL    HW116709   5.590   1.572   2.479
 5270SOL    HW216710   5.513   1.628   2.612
 5271SOL     OW16711   5.464   5.163   5.163
 5271SOL    HW116712   5.422   5.075   5.142
 5271SOL    HW216713   5.465   5.220   5.080
 5272SOL     OW16714   1.866   6.316   2.284
 5272SOL    HW116715   1.931   6.370   2.231
 5272SOL    HW216716   1.848   6.230   2.235
 5273SOL     OW16717   6.968   3.039   3.079
 5273SOL    HW116718   7.004   2.946   3.082
 5273SOL    HW216719   6.978   3.082   3.169
 5274SOL     OW16720   6.254   6.060   2.476
 5274SOL    HW116721   6.155   6.077   2.478
 5274SOL    HW216722   6.277   6.010   2.393
 5275SOL     OW16723   3.428   2.102   6.487
 5275SOL    HW116724   3.501   2.035   6.475
 5275SOL    HW216725   3.438   2.146   6.577
 5276SOL     OW16726   1.272   0.878   1.360
 5276SOL    HW116727   1.270   0.784   1.392
 5276SOL    HW216728   1.255   0.940   1.436
 5277SOL     OW16729   1.825   2.609   3.055
 5277SOL    HW116730   1.904   2.604   3.116
 5277SOL    HW216731   1.820   2.526   3.000
 5278SOL     OW16732   4.610   0.240   4.319
 5278SOL    HW116733   4.706   0.214   4.330
 5278SOL    HW216734   4.605   0.340   4.308
 5279SOL     OW16735   1.601   5.335   6.853
 5279SOL    HW116736   1.670   5.270   6.884
 5279SOL    HW216737   1.612   5.349   6.754
 5280SOL     OW16738   2.946   6.330   5.604
 5280SOL    HW116739   2.999   6.414   5.599
 5280SOL    HW216740   3.004   6.252   5.579
 5281SOL     OW16741   0.922   1.485   3.094
 5281SOL    HW116742   1.021   1.495   3.093
 5281SOL    HW216743   0.879   1.571   3.120
 5282SOL     OW16744   2.015   1.644   3.264
 5282SOL    HW116745   2.045   1.667   3.357
 5282SOL    HW216746   2.091   1.656   3.201
 5283SOL     OW16747   3.093   0.107   2.001
 5283SOL    HW116748   3.022   0.037   2.011
 5283SOL    HW216749   3.182   0.062   1.989
 5284SOL     OW16750   5.168   2.703   3.082
 5284SOL    HW116751   5.153   2.779   3.018
 5284SOL    HW216752   5.081   2.659   3.102
 5285SOL     OW16753   1.337   4.048   4.373
 5285SOL    HW116754   1.354   4.069   4.470
 5285SOL    HW216755   1.422   4.020   4.330
 5286SOL     OW16756   0.296   4.102   1.428
 5286SOL    HW116757   0.265   4.087   1.335
 5286SOL    HW216758   0.369   4.172   1.429
 5287SOL     OW16759   1.658   6.029   1.551
 5287SOL    HW116760   1.681   5.971   1.629
 5287SOL    HW216761   1.731   6.096   1.537
 5288SOL     OW16762   4.012   0.864   2.626
 5288SOL    HW116763   4.083   0.805   2.586
 5288SOL    HW216764   4.042   0.895   2.716
 5289SOL     OW16765   1.448   5.531   6.496
 5289SOL    HW116766   1.422   5.602   6.430
 5289SOL    HW216767   1.408   5.444   6.468
 5290SOL     OW16768   1.459   4.441   5.330
 5290SOL    HW116769   1.512   4.486   5.259
 5290SOL    HW216770   1.520   4.403   5.400
 5291SOL     OW16771   3.045   5.099   5.686
 5291SOL    HW116772   2.980   5.061   5.751
 5291SOL    HW216773   3.057   5.196   5.703
 5292SOL     OW16774   6.582   5.197   6.936
 5292SOL    HW116775   6.519   5.240   6.872
 5292SOL    HW216776   6.555   5.221   0.008
 5293SOL     OW16777   1.255   0.242   4.377
 5293SOL    HW116778   1.248   0.337   4.348
 5293SOL    HW216779   1.297   0.188   4.303
 5294SOL     OW16780   6.051   2.908   4.171
 5294SOL    HW116781   6.002   2.834   4.125
 5294SOL    HW216782   6.000   2.936   4.253
 5295SOL     OW16783   4.443   0.682   2.726
 5295SOL    HW116784   4.418   0.767   2.681
 5295SOL    HW216785   4.511   0.701   2.797
 5296SOL     OW16786   2.375   4.847   0.325
 5296SOL    HW116787   2.379   4.933   0.376
 5296SOL    HW216788   2.321   4.861   0.241
 5297SOL     OW16789   2.883   2.428   0.952
 5297SOL    HW116790   2.793   2.472   0.961
 5297SOL    HW216791   2.936   2.475   0.882
 5298SOL     OW16792   1.058   5.521   0.005
 5298SOL    HW116793   1.065   5.509   6.928
 5298SOL    HW216794   1.145   5.495   0.047
 5299SOL     OW16795   2.159   2.662   0.853
 5299SOL    HW116796   2.068   2.653   0.814
 5299SOL    HW216797   2.211   2.731   0.802
 5300SOL     OW16798   0.845   6.229   1.101
 5300SOL    HW116799   0.745   6.230   1.110
 5300SOL    HW216800   0.886   6.285   1.173
 5301SOL     OW16801   3.650   2.600   6.540
 5301SOL    HW116802   3.664   2.699   6.538
 5301SOL    HW216803   3.564   2.579   6.587
 5302SOL     OW16804   5.752   5.630   3.901
 5302SOL    HW116805   5.680   5.699   3.895
 5302SOL    HW216806   5.767   5.590   3.811
 5303SOL     OW16807   6.616   5.626   3.141
 5303SOL    HW116808   6.571   5.713   3.163
 5303SOL    HW216809   6.679   5.640   3.065
 5304SOL     OW16810   5.449   1.269   6.513
 5304SOL    HW116811   5.358   1.240   6.485
 5304SOL    HW216812   5.455   1.369   6.513
 5305SOL     OW16813   0.866   5.322   3.119
 5305SOL    HW116814   0.766   5.324   3.120
 5305SOL    HW216815   0.897   5.287   3.030
 5306SOL     OW16816   0.623   4.263   4.785
 5306SOL    HW116817   0.630   4.354   4.744
 5306SOL    HW216818   0.689   4.202   4.742
 5307SOL     OW16819   4.366   0.693   0.373
 5307SOL    HW116820   4.331   0.772   0.423
 5307SOL    HW216821   4.293   0.654   0.317
 5308SOL     OW16822   0.675   6.118   3.679
 5308SOL    HW116823   0.592   6.084   3.634
 5308SOL    HW216824   0.686   6.073   3.768
 5309SOL     OW16825   4.079   4.678   1.385
 5309SOL    HW116826   4.042   4.646   1.298
 5309SOL    HW216827   4.004   4.711   1.443
 5310SOL     OW16828   6.183   3.600   2.555
 5310SOL    HW116829   6.187   3.632   2.650
 5310SOL    HW216830   6.098   3.629   2.514
 5311SOL     OW16831   6.249   5.885   0.351
 5311SOL    HW116832   6.287   5.884   0.443
 5311SOL    HW216833   6.280   5.968   0.304
 5312SOL     OW16834   0.461   5.178   1.988
 5312SOL    HW116835   0.492   5.084   2.005
 5312SOL    HW216836   0.505   5.213   1.905
 5313SOL     OW16837   1.958   4.287   6.319
 5313SOL    HW116838   1.995   4.346   6.247
 5313SOL    HW216839   2.032   4.230   6.356
 5314SOL     OW16840   3.108   6.447   6.853
 5314SOL    HW116841   3.079   6.539   6.880
 5314SOL    HW216842   3.062   6.380   6.911
 5315SOL     OW16843   4.892   3.241   1.537
 5315SOL    HW116844   4.822   3.174   1.563
 5315SOL    HW216845   4.957   3.200   1.474
 5316SOL     OW16846   0.318   4.204   4.821
 5316SOL    HW116847   0.323   4.284   4.881
 5316SOL    HW216848   0.409   4.180   4.788
 5317SOL     OW16849   6.925   0.075   5.191
 5317SOL    HW116850   6.838   0.025   5.193
 5317SOL    HW216851   7.001   0.010   5.196
 5318SOL     OW16852   6.821   2.626   6.300
 5318SOL    HW116853   6.729   2.641   6.262
 5318SOL    HW216854   6.887   2.682   6.250
 5319SOL     OW16855   4.013   6.800   6.599
 5319SOL    HW116856   3.951   6.792   6.677
 5319SOL    HW216857   3.960   6.807   6.515
 5320SOL     OW16858   6.256   5.182   0.063
 5320SOL    HW116859   6.306   5.219   7.007
 5320SOL    HW216860   6.268   5.242   0.143
 5321SOL     OW16861   0.789   4.015   3.620
 5321SOL    HW116862   0.884   4.047   3.624
 5321SOL    HW216863   0.781   3.931   3.673
 5322SOL     OW16864   4.453   6.208   6.565
 5322SOL    HW116865   4.381   6.160   6.615
 5322SOL    HW216866   4.412   6.264   6.494
 5323SOL     OW16867   3.437   2.420   7.008
 5323SOL    HW116868   3.376   2.440   0.062
 5323SOL    HW216869   3.481   2.505   6.977
 5324SOL     OW16870   4.362   2.092   0.785
 5324SOL    HW116871   4.309   2.120   0.865
 5324SOL    HW216872   4.302   2.090   0.705
 5325SOL     OW16873   4.408   0.720   4.752
 5325SOL    HW116874   4.462   0.638   4.764
 5325SOL    HW216875   4.468   0.799   4.742
 5326SOL     OW16876   0.187   5.437   3.988
 5326SOL    HW116877   0.169   5.491   4.070
 5326SOL    HW216878   0.141   5.349   3.995
 5327SOL     OW16879   5.429   3.467   5.146
 5327SOL    HW116880   5.336   3.432   5.129
 5327SOL    HW216881   5.480   3.399   5.199
 5328SOL     OW16882   4.563   2.692   5.533
 5328SOL    HW116883   4.488   2.756   5.517
 5328SOL    HW216884   4.534   2.600   5.506
 5329SOL     OW16885   6.855   4.671   6.617
 5329SOL    HW116886   6.784   4.652   6.549
 5329SOL    HW216887   6.859   4.595   6.682
 5330SOL     OW16888   3.678   4.151   5.428
 5330SOL    HW116889   3.581   4.128   5.442
 5330SOL    HW216890   3.688   4.200   5.342
 5331SOL     OW16891   4.944   1.354   0.633
 5331SOL    HW116892   4.886   1.306   0.699
 5331SOL    HW216893   5.040   1.344   0.660
 5332SOL     OW16894   0.570   3.966   1.404
 5332SOL    HW116895   0.587   4.035   1.474
 5332SOL    HW216896   0.492   3.995   1.347
 5333SOL     OW16897   1.281   0.984   3.248
 5333SOL    HW116898   1.290   1.018   3.342
 5333SOL    HW216899   1.358   0.925   3.226
 5334SOL     OW16900   3.831   6.669   4.245
 5334SOL    HW116901   3.898   6.743   4.240
 5334SOL    HW216902   3.739   6.708   4.242
 5335SOL     OW16903   6.116   5.656   2.151
 5335SOL    HW116904   6.149   5.667   2.245
 5335SOL    HW216905   6.018   5.678   2.147
 5336SOL     OW16906   2.241   2.013   3.324
 5336SOL    HW116907   2.280   1.980   3.409
 5336SOL    HW216908   2.284   1.967   3.246
 5337SOL     OW16909   5.523   4.493   2.235
 5337SOL    HW116910   5.485   4.580   2.205
 5337SOL    HW216911   5.553   4.441   2.155
 5338SOL     OW16912   5.861   0.584   5.494
 5338SOL    HW116913   5.939   0.566   5.554
 5338SOL    HW216914   5.893   0.623   5.408
 5339SOL     OW16915   6.589   2.093   3.708
 5339SOL    HW116916   6.558   2.156   3.637
 5339SOL    HW216917   6.689   2.092   3.710
 5340SOL     OW16918   5.325   2.688   1.008
 5340SOL    HW116919   5.318   2.784   1.036
 5340SOL    HW216920   5.285   2.630   1.079
 5341SOL     OW16921   3.628   4.516   6.134
 5341SOL    HW116922   3.650   4.589   6.199
 5341SOL    HW216923   3.578   4.554   6.056
 5342SOL     OW16924   4.140   6.528   4.163
 5342SOL    HW116925   4.101   6.476   4.087
 5342SOL    HW216926   4.074   6.597   4.193
 5343SOL     OW16927   3.634   3.147   4.597
 5343SOL    HW116928   3.700   3.208   4.555
 5343SOL    HW216929   3.588   3.193   4.673
 5344SOL     OW16930   1.973   1.902   1.317
 5344SOL    HW116931   2.061   1.930   1.355
 5344SOL    HW216932   1.907   1.976   1.328
 5345SOL     OW16933   3.427   6.667   0.609
 5345SOL    HW116934   3.479   6.752   0.620
 5345SOL    HW216935   3.330   6.686   0.624
 5346SOL     OW16936   3.199   5.732   4.023
 5346SOL    HW116937   3.137   5.810   4.009
 5346SOL    HW216938   3.278   5.741   3.962
 5347SOL     OW16939   7.004   2.806   1.777
 5347SOL    HW116940   7.020   2.895   1.820
 5347SOL    HW216941   6.906   2.790   1.769
 5348SOL     OW16942   6.477   1.867   0.970
 5348SOL    HW116943   6.422   1.805   0.913
 5348SOL    HW216944   6.439   1.959   0.964
 5349SOL     OW16945   2.229   2.789   0.587
 5349SOL    HW116946   2.264   2.841   0.509
 5349SOL    HW216947   2.140   2.826   0.614
 5350SOL     OW16948   1.537   6.867   5.216
 5350SOL    HW116949   1.481   6.896   5.139
 5350SOL    HW216950   1.530   6.768   5.227
 5351SOL     OW16951   6.592   4.951   2.219
 5351SOL    HW116952   6.582   5.024   2.287
 5351SOL    HW216953   6.635   4.988   2.137
 5352SOL     OW16954   1.834   5.406   3.406
 5352SOL    HW116955   1.834   5.473   3.333
 5352SOL    HW216956   1.781   5.326   3.378
 5353SOL     OW16957   3.734   5.225   4.060
 5353SOL    HW116958   3.764   5.224   3.965
 5353SOL    HW216959   3.665   5.153   4.074
 5354SOL     OW16960   2.264   5.058   1.419
 5354SOL    HW116961   2.262   4.966   1.456
 5354SOL    HW216962   2.283   5.123   1.492
 5355SOL     OW16963   6.316   4.475   4.608
 5355SOL    HW116964   6.382   4.441   4.675
 5355SOL    HW216965   6.235   4.509   4.655
 5356SOL     OW16966   6.180   4.221   2.763
 5356SOL    HW116967   6.188   4.278   2.845
 5356SOL    HW216968   6.090   4.179   2.760
 5357SOL     OW16969   3.245   6.247   0.166
 5357SOL    HW116970   3.161   6.237   0.112
 5357SOL    HW216971   3.258   6.343   0.190
 5358SOL     OW16972   4.862   1.226   0.042
 5358SOL    HW116973   4.766   1.227   0.012
 5358SOL    HW216974   4.869   1.170   0.125
 5359SOL     OW16975   1.618   0.853   5.730
 5359SOL    HW116976   1.675   0.854   5.812
 5359SOL    HW216977   1.638   0.934   5.675
 5360SOL     OW16978   3.329   5.980   3.719
 5360SOL    HW116979   3.375   5.894   3.743
 5360SOL    HW216980   3.327   5.990   3.619
 5361SOL     OW16981   3.134   1.300   4.692
 5361SOL    HW116982   3.064   1.347   4.746
 5361SOL    HW216983   3.097   1.278   4.602
 5362SOL     OW16984   6.480   6.302   2.772
 5362SOL    HW116985   6.487   6.349   2.684
 5362SOL    HW216986   6.428   6.217   2.760
 5363SOL     OW16987   6.886   0.164   5.794
 5363SOL    HW116988   6.881   0.193   5.890
 5363SOL    HW216989   6.794   0.144   5.760
 5364SOL     OW16990   6.969   6.850   2.299
 5364SOL    HW116991   6.929   6.941   2.310
 5364SOL    HW216992   6.909   6.794   2.242
 5365SOL     OW16993   3.990   2.821   0.776
 5365SOL    HW116994   4.038   2.908   0.766
 5365SOL    HW216995   3.959   2.809   0.870
 5366SOL     OW16996   5.881   6.138   1.511
 5366SOL    HW116997   5.939   6.079   1.568
 5366SOL    HW216998   5.922   6.148   1.421
 5367SOL     OW16999   0.682   6.847   0.599
 5367SOL    HW117000   0.767   6.874   0.644
 5367SOL    HW217001   0.701   6.814   0.507
 5368SOL     OW17002   5.680   0.223   2.655
 5368SOL    HW117003   5.701   0.202   2.751
 5368SOL    HW217004   5.732   0.161   2.595
 5369SOL     OW17005   2.657   6.732   0.802
 5369SOL    HW117006   2.678   6.806   0.866
 5369SOL    HW217007   2.625   6.771   0.715
 5370SOL     OW17008   4.650   2.205   1.570
 5370SOL    HW117009   4.678   2.186   1.664
 5370SOL    HW217010   4.603   2.126   1.532
 5371SOL     OW17011   0.339   3.780   5.087
 5371SOL    HW117012   0.304   3.693   5.121
 5371SOL    HW217013   0.299   3.855   5.140
 5372SOL     OW17014   1.691   6.202   3.364
 5372SOL    HW117015   1.705   6.106   3.388
 5372SOL    HW217016   1.740   6.223   3.280
 5373SOL     OW17017   3.397   6.472   4.281
 5373SOL    HW117018   3.344   6.391   4.307
 5373SOL    HW217019   3.475   6.482   4.343
 5374SOL     OW17020   2.098   4.588   0.803
 5374SOL    HW117021   2.092   4.491   0.779
 5374SOL    HW217022   2.037   4.607   0.880
 5375SOL     OW17023   0.397   5.495   4.306
 5375SOL    HW117024   0.330   5.559   4.267
 5375SOL    HW217025   0.431   5.531   4.393
 5376SOL     OW17026   1.857   2.656   1.154
 5376SOL    HW117027   1.896   2.618   1.238
 5376SOL    HW217028   1.843   2.754   1.166
 5377SOL     OW17029   0.139   6.810   2.084
 5377SOL    HW117030   0.221   6.861   2.057
 5377SOL    HW217031   0.117   6.832   2.179
 5378SOL     OW17032   0.017   0.554   2.456
 5378SOL    HW117033   6.989   0.473   2.485
 5378SOL    HW217034   7.010   0.632   2.512
 5379SOL     OW17035   0.767   4.919   4.668
 5379SOL    HW117036   0.832   4.860   4.621
 5379SOL    HW217037   0.732   4.871   4.749
 5380SOL     OW17038   2.815   1.136   2.937
 5380SOL    HW117039   2.910   1.106   2.934
 5380SOL    HW217040   2.756   1.056   2.951
 5381SOL     OW17041   6.566   4.755   2.400
 5381SOL    HW117042   6.501   4.682   2.380
 5381SOL    HW217043   6.568   4.821   2.324
 5382SOL     OW17044   2.787   1.265   2.167
 5382SOL    HW117045   2.779   1.330   2.091
 5382SOL    HW217046   2.874   1.280   2.214
 5383SOL     OW17047   2.140   2.067   5.211
 5383SOL    HW117048   2.196   2.117   5.277
 5383SOL    HW217049   2.180   1.977   5.195
 5384SOL     OW17050   5.926   6.888   5.424
 5384SOL    HW117051   5.888   6.835   5.348
 5384SOL    HW217052   5.875   6.973   5.434
 5385SOL     OW17053   3.539   3.396   3.979
 5385SOL    HW117054   3.602   3.470   4.000
 5385SOL    HW217055   3.526   3.340   4.060
 5386SOL     OW17056   4.833   1.264   4.105
 5386SOL    HW117057   4.860   1.232   4.196
 5386SOL    HW217058   4.770   1.341   4.114
 5387SOL     OW17059   2.032   6.909   3.324
 5387SOL    HW117060   2.066   6.816   3.315
 5387SOL    HW217061   2.007   6.926   3.420
 5388SOL     OW17062   0.279   1.739   3.529
 5388SOL    HW117063   0.372   1.774   3.538
 5388SOL    HW217064   0.263   1.669   3.599
 5389SOL     OW17065   3.866   1.640   3.386
 5389SOL    HW117066   3.808   1.560   3.399
 5389SOL    HW217067   3.812   1.714   3.346
 5390SOL     OW17068   4.897   4.316   3.115
 5390SOL    HW117069   4.896   4.303   3.214
 5390SOL    HW217070   4.961   4.251   3.074
 5391SOL     OW17071   2.607   1.303   1.121
 5391SOL    HW117072   2.584   1.365   1.046
 5391SOL    HW217073   2.553   1.220   1.114
 5392SOL     OW17074   5.334   3.645   1.201
 5392SOL    HW117075   5.247   3.600   1.183
 5392SOL    HW217076   5.401   3.619   1.131
 5393SOL     OW17077   4.975   0.026   5.448
 5393SOL    HW117078   5.040   0.000   5.520
 5393SOL    HW217079   4.982   6.983   5.372
 5394SOL     OW17080   0.490   5.317   0.960
 5394SOL    HW117081   0.449   5.226   0.965
 5394SOL    HW217082   0.419   5.384   0.941
 5395SOL     OW17083   4.542   0.887   1.296
 5395SOL    HW117084   4.618   0.860   1.355
 5395SOL    HW217085   4.485   0.954   1.343
 5396SOL     OW17086   5.197   4.282   1.761
 5396SOL    HW117087   5.104   4.301   1.793
 5396SOL    HW217088   5.226   4.354   1.698
 5397SOL     OW17089   0.760   2.754   1.333
 5397SOL    HW117090   0.734   2.658   1.342
 5397SOL    HW217091   0.858   2.763   1.354
 5398SOL     OW17092   2.956   2.191   3.780
 5398SOL    HW117093   2.982   2.206   3.685
 5398SOL    HW217094   2.933   2.095   3.795
 5399SOL     OW17095   2.556   6.493   0.941
 5399SOL    HW117096   2.618   6.567   0.916
 5399SOL    HW217097   2.488   6.526   1.006
 5400SOL     OW17098   3.452   3.604   6.917
 5400SOL    HW117099   3.500   3.691   6.903
 5400SOL    HW217100   3.363   3.622   6.959
 5401SOL     OW17101   6.058   4.179   2.115
 5401SOL    HW117102   6.103   4.188   2.026
 5401SOL    HW217103   6.069   4.263   2.167
 5402SOL     OW17104   2.175   6.055   1.539
 5402SOL    HW117105   2.256   6.019   1.494
 5402SOL    HW217106   2.102   5.986   1.539
 5403SOL     OW17107   5.880   2.783   5.385
 5403SOL    HW117108   5.871   2.812   5.289
 5403SOL    HW217109   5.858   2.686   5.392
 5404SOL     OW17110   0.858   6.995   2.968
 5404SOL    HW117111   0.784   0.024   3.011
 5404SOL    HW217112   0.881   0.015   2.880
 5405SOL     OW17113   5.631   5.912   0.269
 5405SOL    HW117114   5.555   5.945   0.212
 5405SOL    HW217115   5.717   5.944   0.230
 5406SOL     OW17116   1.978   0.131   5.599
 5406SOL    HW117117   1.892   0.133   5.547
 5406SOL    HW217118   2.018   0.039   5.592
 5407SOL     OW17119   3.685   1.666   1.939
 5407SOL    HW117120   3.689   1.588   2.001
 5407SOL    HW217121   3.614   1.650   1.870
 5408SOL     OW17122   2.993   0.896   5.606
 5408SOL    HW117123   3.009   0.983   5.652
 5408SOL    HW217124   2.938   0.837   5.665
 5409SOL     OW17125   6.968   1.928   3.138
 5409SOL    HW117126   6.966   1.828   3.134
 5409SOL    HW217127   6.923   1.959   3.222
 5410SOL     OW17128   1.470   2.585   6.768
 5410SOL    HW117129   1.392   2.537   6.809
 5410SOL    HW217130   1.439   2.636   6.687
 5411SOL     OW17131   6.108   4.907   5.625
 5411SOL    HW117132   6.172   4.881   5.553
 5411SOL    HW217133   6.130   4.856   5.708
 5412SOL     OW17134   4.004   1.263   6.808
 5412SOL    HW117135   3.965   1.173   6.793
 5412SOL    HW217136   4.076   1.280   6.740
 5413SOL     OW17137   0.418   0.221   1.053
 5413SOL    HW117138   0.392   0.175   0.968
 5413SOL    HW217139   0.518   0.219   1.062
 5414SOL     OW17140   6.389   3.239   5.213
 5414SOL    HW117141   6.476   3.272   5.176
 5414SOL    HW217142   6.313   3.287   5.170
 5415SOL     OW17143   0.889   5.936   1.520
 5415SOL    HW117144   0.817   5.914   1.586
 5415SOL    HW217145   0.977   5.937   1.566
 5416SOL     OW17146   3.516   4.861   6.198
 5416SOL    HW117147   3.486   4.877   6.104
 5416SOL    HW217148   3.451   4.801   6.245
 5417SOL     OW17149   4.193   6.528   4.436
 5417SOL    HW117150   4.144   6.447   4.467
 5417SOL    HW217151   4.187   6.535   4.336
 5418SOL     OW17152   5.066   0.964   4.487
 5418SOL    HW117153   5.012   0.976   4.404
 5418SOL    HW217154   5.135   1.036   4.493
 5419SOL     OW17155   3.776   5.196   6.864
 5419SOL    HW117156   3.700   5.250   6.828
 5419SOL    HW217157   3.850   5.193   6.797
 5420SOL     OW17158   1.947   3.119   1.566
 5420SOL    HW117159   1.940   3.165   1.477
 5420SOL    HW217160   2.043   3.107   1.590
 5421SOL     OW17161   2.426   4.671   3.212
 5421SOL    HW117162   2.467   4.693   3.300
 5421SOL    HW217163   2.348   4.731   3.195
 5422SOL     OW17164   1.045   5.694   5.222
 5422SOL    HW117165   0.952   5.723   5.246
 5422SOL    HW217166   1.081   5.634   5.293
 5423SOL     OW17167   6.126   3.628   6.844
 5423SOL    HW117168   6.148   3.723   6.823
 5423SOL    HW217169   6.032   3.608   6.814
 5424SOL     OW17170   6.079   3.589   4.298
 5424SOL    HW117171   6.009   3.579   4.228
 5424SOL    HW217172   6.128   3.502   4.308
 5425SOL     OW17173   5.114   2.235   4.309
 5425SOL    HW117174   5.024   2.212   4.347
 5425SOL    HW217175   5.183   2.230   4.381
 5426SOL     OW17176   5.983   5.040   3.702
 5426SOL    HW117177   6.003   5.010   3.795
 5426SOL    HW217178   5.893   5.006   3.675
 5427SOL     OW17179   5.210   4.796   0.605
 5427SOL    HW117180   5.159   4.796   0.520
 5427SOL    HW217181   5.165   4.854   0.672
 5428SOL     OW17182   6.197   6.890   2.026
 5428SOL    HW117183   6.153   6.968   2.070
 5428SOL    HW217184   6.248   6.921   1.945
 5429SOL     OW17185   1.336   0.906   4.975
 5429SOL    HW117186   1.316   0.809   4.984
 5429SOL    HW217187   1.372   0.941   5.061
 5430SOL     OW17188   2.391   2.247   6.486
 5430SOL    HW117189   2.338   2.282   6.563
 5430SOL    HW217190   2.331   2.231   6.408
 5431SOL     OW17191   3.085   4.464   6.405
 5431SOL    HW117192   3.063   4.536   6.471
 5431SOL    HW217193   3.062   4.496   6.313
 5432SOL     OW17194   3.650   5.768   5.857
 5432SOL    HW117195   3.610   5.851   5.818
 5432SOL    HW217196   3.661   5.779   5.956
 5433SOL     OW17197   0.300   1.069   2.813
 5433SOL    HW117198   0.261   0.977   2.808
 5433SOL    HW217199   0.357   1.077   2.894
 5434SOL     OW17200   4.428   1.591   4.855
 5434SOL    HW117201   4.490   1.639   4.917
 5434SOL    HW217202   4.338   1.633   4.859
 5435SOL     OW17203   6.398   2.052   1.517
 5435SOL    HW117204   6.454   2.058   1.434
 5435SOL    HW217205   6.377   1.956   1.536
 5436SOL     OW17206   5.585   4.334   4.462
 5436SOL    HW117207   5.555   4.389   4.384
 5436SOL    HW217208   5.682   4.311   4.451
 5437SOL     OW17209   2.862   4.950   5.802
 5437SOL    HW117210   2.819   5.029   5.845
 5437SOL    HW217211   2.799   4.873   5.802
 5438SOL     OW17212   6.434   3.807   2.482
 5438SOL    HW117213   6.374   3.829   2.558
 5438SOL    HW217214   6.379   3.789   2.400
 5439SOL     OW17215   6.908   2.548   0.082
 5439SOL    HW117216   6.836   2.592   0.136
 5439SOL    HW217217   6.879   2.455   0.060
 5440SOL     OW17218   6.704   0.152   3.030
 5440SOL    HW117219   6.696   0.142   2.931
 5440SOL    HW217220   6.710   0.249   3.054
 5441SOL     OW17221   4.751   2.811   3.539
 5441SOL    HW117222   4.741   2.732   3.599
 5441SOL    HW217223   4.670   2.820   3.481
 5442SOL     OW17224   3.174   6.713   3.415
 5442SOL    HW117225   3.157   6.652   3.492
 5442SOL    HW217226   3.258   6.765   3.432
 5443SOL     OW17227   3.030   5.712   4.324
 5443SOL    HW117228   3.034   5.796   4.271
 5443SOL    HW217229   3.115   5.700   4.376
 5444SOL     OW17230   6.987   0.752   3.307
 5444SOL    HW117231   6.926   0.768   3.229
 5444SOL    HW217232   0.056   0.787   3.286
 5445SOL     OW17233   6.522   4.075   4.095
 5445SOL    HW117234   6.581   4.049   4.172
 5445SOL    HW217235   6.523   4.174   4.083
 5446SOL     OW17236   5.821   5.183   4.917
 5446SOL    HW117237   5.918   5.200   4.939
 5446SOL    HW217238   5.789   5.253   4.853
 5447SOL     OW17239   1.263   1.870   0.671
 5447SOL    HW117240   1.229   1.944   0.728
 5447SOL    HW217241   1.203   1.790   0.680
 5448SOL     OW17242   5.852   4.232   4.384
 5448SOL    HW117243   5.931   4.178   4.412
 5448SOL    HW217244   5.834   4.217   4.287
 5449SOL     OW17245   1.754   1.365   0.695
 5449SOL    HW117246   1.656   1.383   0.688
 5449SOL    HW217247   1.806   1.446   0.667
 5450SOL     OW17248   3.111   0.155   0.888
 5450SOL    HW117249   3.103   0.208   0.973
 5450SOL    HW217250   3.027   0.165   0.834
 5451SOL     OW17251   2.231   5.883   3.875
 5451SOL    HW117252   2.160   5.864   3.807
 5451SOL    HW217253   2.321   5.885   3.830
 5452SOL     OW17254   2.966   4.022   0.013
 5452SOL    HW117255   2.890   3.957   0.005
 5452SOL    HW217256   3.019   4.022   6.950
 5453SOL     OW17257   5.493   4.195   1.678
 5453SOL    HW117258   5.464   4.120   1.619
 5453SOL    HW217259   5.453   4.281   1.645
 5454SOL     OW17260   5.458   5.114   5.829
 5454SOL    HW117261   5.517   5.101   5.749
 5454SOL    HW217262   5.398   5.035   5.839
 5455SOL     OW17263   0.159   2.117   2.946
 5455SOL    HW117264   0.073   2.067   2.958
 5455SOL    HW217265   0.215   2.106   3.028
 5456SOL     OW17266   2.627   0.127   0.481
 5456SOL    HW117267   2.645   0.184   0.402
 5456SOL    HW217268   2.607   0.034   0.451
 5457SOL     OW17269   0.189   2.199   1.774
 5457SOL    HW117270   0.209   2.146   1.691
 5457SOL    HW217271   0.143   2.284   1.749
 5458SOL     OW17272   0.530   4.846   0.326
 5458SOL    HW117273   0.439   4.866   0.289
 5458SOL    HW217274   0.600   4.871   0.259
 5459SOL     OW17275   3.424   3.604   6.615
 5459SOL    HW117276   3.445   3.515   6.573
 5459SOL    HW217277   3.394   3.590   6.709
 5460SOL     OW17278   3.841   6.323   2.956
 5460SOL    HW117279   3.813   6.390   3.024
 5460SOL    HW217280   3.917   6.360   2.903
 5461SOL     OW17281   0.363   0.901   5.600
 5461SOL    HW117282   0.324   0.827   5.654
 5461SOL    HW217283   0.289   0.951   5.553
 5462SOL     OW17284   5.966   6.919   1.093
 5462SOL    HW117285   5.934   6.829   1.122
 5462SOL    HW217286   5.898   6.988   1.115
 5463SOL     OW17287   0.372   1.351   6.826
 5463SOL    HW117288   0.347   1.448   6.817
 5463SOL    HW217289   0.444   1.329   6.759
 5464SOL     OW17290   6.730   0.312   4.560
 5464SOL    HW117291   6.679   0.230   4.535
 5464SOL    HW217292   6.681   0.362   4.631
 5465SOL     OW17293   4.865   0.664   4.787
 5465SOL    HW117294   4.864   0.588   4.851
 5465SOL    HW217295   4.814   0.639   4.705
 5466SOL     OW17296   5.162   3.068   4.988
 5466SOL    HW117297   5.242   3.045   5.044
 5466SOL    HW217298   5.104   2.987   4.979
 5467SOL     OW17299   5.205   4.209   3.258
 5467SOL    HW117300   5.223   4.115   3.228
 5467SOL    HW217301   5.245   4.273   3.193
 5468SOL     OW17302   6.901   2.617   3.929
 5468SOL    HW117303   6.877   2.654   3.839
 5468SOL    HW217304   6.850   2.533   3.946
 5469SOL     OW17305   2.762   6.677   5.881
 5469SOL    HW117306   2.764   6.592   5.827
 5469SOL    HW217307   2.743   6.754   5.820
 5470SOL     OW17308   3.669   5.375   3.040
 5470SOL    HW117309   3.616   5.352   3.122
 5470SOL    HW217310   3.661   5.301   2.973
 5471SOL     OW17311   6.012   0.163   3.216
 5471SOL    HW117312   6.107   0.150   3.244
 5471SOL    HW217313   5.970   0.073   3.201
 5472SOL     OW17314   2.543   3.845   6.845
 5472SOL    HW117315   2.534   3.853   6.944
 5472SOL    HW217316   2.467   3.790   6.809
 5473SOL     OW17317   1.347   3.250   1.814
 5473SOL    HW117318   1.331   3.302   1.899
 5473SOL    HW217319   1.430   3.284   1.770
 5474SOL     OW17320   0.912   4.505   3.962
 5474SOL    HW117321   0.884   4.547   3.876
 5474SOL    HW217322   0.980   4.434   3.945
 5475SOL     OW17323   1.958   2.439   0.990
 5475SOL    HW117324   2.055   2.446   0.965
 5475SOL    HW217325   1.933   2.516   1.048
 5476SOL     OW17326   2.214   4.188   5.215
 5476SOL    HW117327   2.226   4.130   5.135
 5476SOL    HW217328   2.215   4.132   5.298
 5477SOL     OW17329   2.312   4.694   2.435
 5477SOL    HW117330   2.299   4.670   2.531
 5477SOL    HW217331   2.266   4.781   2.417
 5478SOL     OW17332   3.016   6.120   4.137
 5478SOL    HW117333   2.925   6.091   4.167
 5478SOL    HW217334   3.008   6.191   4.068
 5479SOL     OW17335   5.685   0.985   6.210
 5479SOL    HW117336   5.759   0.991   6.142
 5479SOL    HW217337   5.606   0.940   6.169
 5480SOL     OW17338   5.865   5.418   4.034
 5480SOL    HW117339   5.890   5.449   4.126
 5480SOL    HW217340   5.825   5.495   3.983
 5481SOL     OW17341   4.561   1.648   4.596
 5481SOL    HW117342   4.526   1.564   4.639
 5481SOL    HW217343   4.625   1.623   4.523
 5482SOL     OW17344   3.626   4.593   1.557
 5482SOL    HW117345   3.590   4.585   1.650
 5482SOL    HW217346   3.565   4.651   1.502
 5483SOL     OW17347   6.966   1.998   5.315
 5483SOL    HW117348   6.872   2.029   5.309
 5483SOL    HW217349   7.021   2.044   5.245
 5484SOL     OW17350   4.074   1.320   3.519
 5484SOL    HW117351   4.050   1.417   3.525
 5484SOL    HW217352   3.997   1.269   3.480
 5485SOL     OW17353   3.867   0.020   4.238
 5485SOL    HW117354   3.805   6.998   4.303
 5485SOL    HW217355   3.942   0.064   4.287
 5486SOL     OW17356   2.116   6.299   4.985
 5486SOL    HW117357   2.128   6.246   4.901
 5486SOL    HW217358   2.184   6.373   4.987
 5487SOL     OW17359   5.712   3.054   6.841
 5487SOL    HW117360   5.800   3.020   6.875
 5487SOL    HW217361   5.727   3.140   6.792
 5488SOL     OW17362   5.985   0.255   1.411
 5488SOL    HW117363   5.898   0.211   1.428
 5488SOL    HW217364   5.970   0.353   1.395
 5489SOL     OW17365   0.339   4.208   2.055
 5489SOL    HW117366   0.295   4.195   2.144
 5489SOL    HW217367   0.413   4.141   2.044
 5490SOL     OW17368   3.086   0.113   1.454
 5490SOL    HW117369   3.079   0.061   1.369
 5490SOL    HW217370   3.177   0.100   1.493
 5491SOL     OW17371   1.390   4.357   0.885
 5491SOL    HW117372   1.354   4.450   0.874
 5491SOL    HW217373   1.347   4.313   0.964
 5492SOL     OW17374   0.249   3.369   5.779
 5492SOL    HW117375   0.173   3.313   5.745
 5492SOL    HW217376   0.216   3.461   5.797
 5493SOL     OW17377   3.000   3.714   4.448
 5493SOL    HW117378   2.988   3.622   4.485
 5493SOL    HW217379   3.000   3.710   4.348
 5494SOL     OW17380   0.121   2.994   6.092
 5494SOL    HW117381   0.213   3.027   6.113
 5494SOL    HW217382   0.055   3.069   6.099
 5495SOL     OW17383   3.990   1.161   1.305
 5495SOL    HW117384   4.019   1.096   1.235
 5495SOL    HW217385   3.909   1.210   1.274
 5496SOL     OW17386   3.779   1.053   3.630
 5496SOL    HW117387   3.799   1.136   3.682
 5496SOL    HW217388   3.685   1.024   3.648
 5497SOL     OW17389   7.013   1.505   4.838
 5497SOL    HW117390   6.935   1.558   4.874
 5497SOL    HW217391   0.071   1.522   4.895
 5498SOL     OW17392   6.523   5.936   0.932
 5498SOL    HW117393   6.430   5.955   0.962
 5498SOL    HW217394   6.578   6.020   0.939
 5499SOL     OW17395   0.242   0.674   5.066
 5499SOL    HW117396   0.298   0.746   5.105
 5499SOL    HW217397   0.301   0.598   5.037
 5500SOL     OW17398   1.011   0.641   0.752
 5500SOL    HW117399   1.096   0.692   0.754
 5500SOL    HW217400   0.942   0.688   0.807
 5501SOL     OW17401   3.349   1.497   0.407
 5501SOL    HW117402   3.427   1.510   0.346
 5501SOL    HW217403   3.268   1.474   0.353
 5502SOL     OW17404   5.258   3.851   0.037
 5502SOL    HW117405   5.222   3.942   0.018
 5502SOL    HW217406   5.247   3.793   6.978
 5503SOL     OW17407   0.234   4.797   2.128
 5503SOL    HW117408   0.161   4.847   2.080
 5503SOL    HW217409   0.299   4.762   2.061
 5504SOL     OW17410   4.808   1.312   5.678
 5504SOL    HW117411   4.853   1.400   5.669
 5504SOL    HW217412   4.713   1.325   5.706
 5505SOL     OW17413   2.107   5.280   4.505
 5505SOL    HW117414   2.199   5.249   4.483
 5505SOL    HW217415   2.042   5.206   4.488
 5506SOL     OW17416   0.946   3.276   0.219
 5506SOL    HW117417   1.032   3.259   0.266
 5506SOL    HW217418   0.917   3.192   0.172
 5507SOL     OW17419   3.733   1.053   4.947
 5507SOL    HW117420   3.672   1.023   4.874
 5507SOL    HW217421   3.734   1.153   4.951
 5508SOL     OW17422   1.441   1.416   0.538
 5508SOL    HW117423   1.369   1.426   0.608
 5508SOL    HW217424   1.458   1.505   0.495
 5509SOL     OW17425   0.052   6.302   6.839
 5509SOL    HW117426   6.977   6.317   6.854
 5509SOL    HW217427   0.073   6.204   6.848
 5510SOL     OW17428   4.961   5.374   0.353
 5510SOL    HW117429   5.022   5.452   0.366
 5510SOL    HW217430   4.964   5.315   0.434
 5511SOL     OW17431   1.669   1.003   3.460
 5511SOL    HW117432   1.621   0.978   3.544
 5511SOL    HW217433   1.743   0.938   3.444
 5512SOL     OW17434   5.000   2.327   0.878
 5512SOL    HW117435   4.928   2.258   0.875
 5512SOL    HW217436   5.089   2.281   0.888
 5513SOL     OW17437   3.918   4.745   5.965
 5513SOL    HW117438   3.953   4.653   5.948
 5513SOL    HW217439   3.989   4.812   5.945
 5514SOL     OW17440   3.691   6.939   4.417
 5514SOL    HW117441   3.721   7.001   4.489
 5514SOL    HW217442   3.685   6.846   4.453
 5515SOL     OW17443   0.881   6.061   2.201
 5515SOL    HW117444   0.951   6.015   2.145
 5515SOL    HW217445   0.874   6.014   2.289
 5516SOL     OW17446   1.751   4.059   6.269
 5516SOL    HW117447   1.677   4.039   6.332
 5516SOL    HW217448   1.795   4.145   6.295
 5517SOL     OW17449   2.067   3.262   1.919
 5517SOL    HW117450   2.117   3.223   1.842
 5517SOL    HW217451   2.125   3.331   1.964
 5518SOL     OW17452   5.704   6.372   6.350
 5518SOL    HW117453   5.741   6.296   6.296
 5518SOL    HW217454   5.610   6.352   6.376
 5519SOL     OW17455   5.759   3.807   3.145
 5519SOL    HW117456   5.674   3.756   3.133
 5519SOL    HW217457   5.739   3.897   3.182
 5520SOL     OW17458   6.443   6.966   2.395
 5520SOL    HW117459   6.502   6.923   2.463
 5520SOL    HW217460   6.445   6.913   2.310
 5521SOL     OW17461   5.410   6.463   1.880
 5521SOL    HW117462   5.421   6.439   1.783
 5521SOL    HW217463   5.370   6.386   1.929
 5522SOL     OW17464   6.042   5.034   1.108
 5522SOL    HW117465   6.083   4.943   1.119
 5522SOL    HW217466   6.045   5.060   1.012
 5523SOL     OW17467   3.810   1.023   1.831
 5523SOL    HW117468   3.743   1.072   1.776
 5523SOL    HW217469   3.877   0.978   1.772
 5524SOL     OW17470   4.967   0.560   4.318
 5524SOL    HW117471   4.990   0.608   4.403
 5524SOL    HW217472   4.938   0.626   4.249
 5525SOL     OW17473   0.354   2.353   1.044
 5525SOL    HW117474   0.263   2.314   1.054
 5525SOL    HW217475   0.396   2.364   1.134
 5526SOL     OW17476   4.876   5.809   3.604
 5526SOL    HW117477   4.777   5.820   3.591
 5526SOL    HW217478   4.915   5.895   3.638
 5527SOL     OW17479   5.204   3.329   3.874
 5527SOL    HW117480   5.204   3.248   3.933
 5527SOL    HW217481   5.228   3.410   3.929
 5528SOL     OW17482   1.140   0.734   0.017
 5528SOL    HW117483   1.185   0.673   0.083
 5528SOL    HW217484   1.045   0.748   0.044
 5529SOL     OW17485   3.525   6.839   3.781
 5529SOL    HW117486   3.466   6.760   3.767
 5529SOL    HW217487   3.581   6.825   3.863
 5530SOL     OW17488   5.544   2.413   1.007
 5530SOL    HW117489   5.501   2.463   0.932
 5530SOL    HW217490   5.615   2.352   0.971
 5531SOL     OW17491   3.656   3.629   1.914
 5531SOL    HW117492   3.736   3.664   1.964
 5531SOL    HW217493   3.596   3.580   1.976
 5532SOL     OW17494   1.245   3.698   1.036
 5532SOL    HW117495   1.246   3.630   0.963
 5532SOL    HW217496   1.252   3.652   1.124
 5533SOL     OW17497   3.488   1.937   3.072
 5533SOL    HW117498   3.497   1.866   3.002
 5533SOL    HW217499   3.398   1.980   3.065
 5534SOL     OW17500   0.653   1.613   6.758
 5534SOL    HW117501   0.667   1.543   6.829
 5534SOL    HW217502   0.728   1.609   6.692
 5535SOL     OW17503   0.559   2.920   3.129
 5535SOL    HW117504   0.554   2.862   3.210
 5535SOL    HW217505   0.626   2.883   3.065
 5536SOL     OW17506   3.292   1.085   4.235
 5536SOL    HW117507   3.343   1.169   4.217
 5536SOL    HW217508   3.221   1.103   4.303
 5537SOL     OW17509   2.700   1.101   2.645
 5537SOL    HW117510   2.791   1.142   2.652
 5537SOL    HW217511   2.665   1.082   2.737
 5538SOL     OW17512   2.594   5.892   5.400
 5538SOL    HW117513   2.685   5.911   5.363
 5538SOL    HW217514   2.569   5.798   5.378
 5539SOL     OW17515   1.296   3.616   1.278
 5539SOL    HW117516   1.300   3.699   1.333
 5539SOL    HW217517   1.279   3.537   1.337
 5540SOL     OW17518   4.600   4.319   3.629
 5540SOL    HW117519   4.556   4.236   3.593
 5540SOL    HW217520   4.695   4.298   3.654
 5541SOL     OW17521   4.992   6.927   6.385
 5541SOL    HW117522   4.950   6.836   6.380
 5541SOL    HW217523   5.010   6.960   6.292
 5542SOL     OW17524   4.595   3.658   6.201
 5542SOL    HW117525   4.595   3.560   6.223
 5542SOL    HW217526   4.650   3.707   6.268
 5543SOL     OW17527   3.215   5.086   5.940
 5543SOL    HW117528   3.289   5.018   5.942
 5543SOL    HW217529   3.170   5.083   5.851
 5544SOL     OW17530   4.878   5.719   6.537
 5544SOL    HW117531   4.972   5.688   6.551
 5544SOL    HW217532   4.875   5.819   6.535
 5545SOL     OW17533   4.725   1.239   2.326
 5545SOL    HW117534   4.820   1.225   2.355
 5545SOL    HW217535   4.667   1.250   2.406
 5546SOL     OW17536   0.360   4.908   4.298
 5546SOL    HW117537   0.404   4.988   4.257
 5546SOL    HW217538   0.408   4.825   4.270
 5547SOL     OW17539   2.573   6.559   5.260
 5547SOL    HW117540   2.669   6.578   5.277
 5547SOL    HW217541   2.564   6.473   5.209
 5548SOL     OW17542   6.702   1.773   5.168
 5548SOL    HW117543   6.696   1.871   5.188
 5548SOL    HW217544   6.616   1.741   5.130
 5549SOL     OW17545   4.904   4.405   6.600
 5549SOL    HW117546   4.981   4.440   6.653
 5549SOL    HW217547   4.906   4.445   6.508
 5550SOL     OW17548   2.540   5.925   2.190
 5550SOL    HW117549   2.535   5.977   2.275
 5550SOL    HW217550   2.596   5.975   2.124
 5551SOL     OW17551   2.212   0.468   2.984
 5551SOL    HW117552   2.252   0.385   3.024
 5551SOL    HW217553   2.274   0.545   3.000
 5552SOL     OW17554   6.747   0.526   6.799
 5552SOL    HW117555   6.652   0.519   6.768
 5552SOL    HW217556   6.791   0.603   6.753
 5553SOL     OW17557   3.952   6.366   6.958
 5553SOL    HW117558   4.028   6.309   6.927
 5553SOL    HW217559   3.979   6.414   0.020
 5554SOL     OW17560   3.357   1.649   5.407
 5554SOL    HW117561   3.412   1.569   5.381
 5554SOL    HW217562   3.376   1.724   5.344
 5555SOL     OW17563   0.113   4.727   4.033
 5555SOL    HW117564   0.173   4.669   4.088
 5555SOL    HW217565   0.078   4.802   4.089
 5556SOL     OW17566   0.444   2.586   4.299
 5556SOL    HW117567   0.348   2.576   4.324
 5556SOL    HW217568   0.501   2.581   4.381
 5557SOL     OW17569   3.754   5.596   2.707
 5557SOL    HW117570   3.702   5.610   2.792
 5557SOL    HW217571   3.726   5.510   2.664
 5558SOL     OW17572   5.178   3.528   6.458
 5558SOL    HW117573   5.087   3.548   6.424
 5558SOL    HW217574   5.213   3.606   6.510
 5559SOL     OW17575   2.573   6.737   2.161
 5559SOL    HW117576   2.545   6.664   2.224
 5559SOL    HW217577   2.568   6.825   2.207
 5560SOL     OW17578   0.386   6.963   3.613
 5560SOL    HW117579   0.317   6.976   3.541
 5560SOL    HW217580   0.361   7.015   3.694
 5561SOL     OW17581   2.383   1.970   3.833
 5561SOL    HW117582   2.325   1.889   3.828
 5561SOL    HW217583   2.464   1.949   3.888
 5562SOL     OW17584   2.413   2.806   0.088
 5562SOL    HW117585   2.372   2.815   0.179
 5562SOL    HW217586   2.363   2.737   0.036
 5563SOL     OW17587   4.931   6.345   2.542
 5563SOL    HW117588   4.891   6.257   2.517
 5563SOL    HW217589   5.006   6.367   2.480
 5564SOL     OW17590   4.657   1.829   1.723
 5564SOL    HW117591   4.742   1.857   1.679
 5564SOL    HW217592   4.659   1.730   1.739
 5565SOL     OW17593   4.705   1.308   6.366
 5565SOL    HW117594   4.754   1.227   6.335
 5565SOL    HW217595   4.629   1.281   6.426
 5566SOL     OW17596   1.707   5.304   0.919
 5566SOL    HW117597   1.650   5.242   0.865
 5566SOL    HW217598   1.671   5.397   0.912
 5567SOL     OW17599   1.148   4.546   1.726
 5567SOL    HW117600   1.235   4.581   1.762
 5567SOL    HW217601   1.078   4.550   1.797
 5568SOL     OW17602   4.986   2.495   2.638
 5568SOL    HW117603   4.899   2.463   2.677
 5568SOL    HW217604   4.977   2.503   2.539
 5569SOL     OW17605   3.600   1.845   1.614
 5569SOL    HW117606   3.509   1.869   1.580
 5569SOL    HW217607   3.630   1.914   1.680
 5570SOL     OW17608   5.870   4.554   4.542
 5570SOL    HW117609   5.825   4.642   4.553
 5570SOL    HW217610   5.816   4.483   4.589
 5571SOL     OW17611   0.410   6.911   6.796
 5571SOL    HW117612   0.443   6.987   6.740
 5571SOL    HW217613   0.472   6.833   6.788
 5572SOL     OW17614   2.238   2.878   6.326
 5572SOL    HW117615   2.323   2.920   6.358
 5572SOL    HW217616   2.190   2.942   6.265
 5573SOL     OW17617   1.773   3.222   0.037
 5573SOL    HW117618   1.808   3.133   0.067
 5573SOL    HW217619   1.675   3.216   0.021
 5574SOL     OW17620   0.127   1.097   3.877
 5574SOL    HW117621   0.138   1.178   3.934
 5574SOL    HW217622   0.033   1.092   3.843
 5575SOL     OW17623   1.052   1.155   1.939
 5575SOL    HW117624   1.077   1.058   1.935
 5575SOL    HW217625   0.971   1.171   1.883
 5576SOL     OW17626   6.487   5.947   1.588
 5576SOL    HW117627   6.407   6.006   1.599
 5576SOL    HW217628   6.568   6.002   1.569
 5577SOL     OW17629   2.827   2.708   6.300
 5577SOL    HW117630   2.842   2.678   6.394
 5577SOL    HW217631   2.892   2.663   6.239
 5578SOL     OW17632   4.457   3.148   0.925
 5578SOL    HW117633   4.452   3.118   1.020
 5578SOL    HW217634   4.536   3.208   0.913
 5579SOL     OW17635   6.330   3.579   6.234
 5579SOL    HW117636   6.400   3.607   6.168
 5579SOL    HW217637   6.256   3.645   6.234
 5580SOL     OW17638   4.623   1.650   6.723
 5580SOL    HW117639   4.621   1.741   6.764
 5580SOL    HW217640   4.682   1.590   6.778
 5581SOL     OW17641   2.398   0.310   0.955
 5581SOL    HW117642   2.311   0.261   0.942
 5581SOL    HW217643   2.449   0.266   1.029
 5582SOL     OW17644   3.294   3.239   3.657
 5582SOL    HW117645   3.390   3.240   3.627
 5582SOL    HW217646   3.275   3.151   3.701
 5583SOL     OW17647   3.795   6.592   2.707
 5583SOL    HW117648   3.793   6.564   2.611
 5583SOL    HW217649   3.879   6.560   2.750
 5584SOL     OW17650   5.509   3.869   4.135
 5584SOL    HW117651   5.491   3.777   4.170
 5584SOL    HW217652   5.508   3.934   4.211
 5585SOL     OW17653   5.005   0.905   3.807
 5585SOL    HW117654   4.949   0.982   3.838
 5585SOL    HW217655   4.982   0.882   3.713
 5586SOL     OW17656   1.309   2.594   0.195
 5586SOL    HW117657   1.305   2.563   0.101
 5586SOL    HW217658   1.222   2.574   0.241
 5587SOL     OW17659   4.240   6.906   2.342
 5587SOL    HW117660   4.271   6.969   2.413
 5587SOL    HW217661   4.180   6.837   2.382
 5588SOL     OW17662   0.954   6.788   4.373
 5588SOL    HW117663   0.885   6.720   4.351
 5588SOL    HW217664   1.042   6.744   4.389
 5589SOL     OW17665   5.049   3.126   6.554
 5589SOL    HW117666   4.975   3.134   6.487
 5589SOL    HW217667   5.134   3.159   6.513
 5590SOL     OW17668   6.828   5.392   2.840
 5590SOL    HW117669   6.815   5.448   2.922
 5590SOL    HW217670   6.739   5.360   2.807
 5591SOL     OW17671   5.819   0.414   6.759
 5591SOL    HW117672   5.915   0.436   6.737
 5591SOL    HW217673   5.792   0.332   6.709
 5592SOL     OW17674   2.596   4.588   3.018
 5592SOL    HW117675   2.511   4.605   3.067
 5592SOL    HW217676   2.632   4.674   2.982
 5593SOL     OW17677   6.983   2.775   5.353
 5593SOL    HW117678   0.034   2.821   5.304
 5593SOL    HW217679   6.954   2.830   5.432
 5594SOL     OW17680   2.410   1.345   6.845
 5594SOL    HW117681   2.416   1.303   6.935
 5594SOL    HW217682   2.315   1.344   6.813
 5595SOL     OW17683   6.254   0.688   5.039
 5595SOL    HW117684   6.339   0.635   5.038
 5595SOL    HW217685   6.261   0.761   5.107
 5596SOL     OW17686   5.388   0.158   3.179
 5596SOL    HW117687   5.482   0.189   3.170
 5596SOL    HW217688   5.380   0.098   3.259
 5597SOL     OW17689   5.145   2.829   5.493
 5597SOL    HW117690   5.163   2.738   5.530
 5597SOL    HW217691   5.123   2.822   5.396
 5598SOL     OW17692   4.872   2.446   4.004
 5598SOL    HW117693   4.841   2.420   3.912
 5598SOL    HW217694   4.959   2.402   4.023
 5599SOL     OW17695   5.896   3.965   1.922
 5599SOL    HW117696   5.978   3.978   1.866
 5599SOL    HW217697   5.897   4.030   1.998
 5600SOL     OW17698   2.602   0.420   2.370
 5600SOL    HW117699   2.690   0.379   2.348
 5600SOL    HW217700   2.530   0.352   2.356
 5601SOL     OW17701   4.754   2.311   5.694
 5601SOL    HW117702   4.791   2.392   5.738
 5601SOL    HW217703   4.725   2.245   5.763
 5602SOL     OW17704   6.765   1.122   3.069
 5602SOL    HW117705   6.825   1.188   3.113
 5602SOL    HW217706   6.670   1.151   3.079
 5603SOL     OW17707   4.635   2.713   5.171
 5603SOL    HW117708   4.721   2.664   5.187
 5603SOL    HW217709   4.562   2.648   5.153
 5604SOL     OW17710   1.179   1.934   4.419
 5604SOL    HW117711   1.141   1.917   4.509
 5604SOL    HW217712   1.143   1.866   4.354
 5605SOL     OW17713   1.147   0.098   5.170
 5605SOL    HW117714   1.063   0.150   5.187
 5605SOL    HW217715   1.124   0.011   5.128
 5606SOL     OW17716   4.383   1.022   0.342
 5606SOL    HW117717   4.303   1.042   0.286
 5606SOL    HW217718   4.433   0.945   0.304
 5607SOL     OW17719   5.981   2.386   3.540
 5607SOL    HW117720   5.983   2.377   3.441
 5607SOL    HW217721   5.992   2.296   3.582
 5608SOL     OW17722   6.186   1.114   2.914
 5608SOL    HW117723   6.151   1.043   2.974
 5608SOL    HW217724   6.264   1.079   2.862
 5609SOL     OW17725   4.686   6.418   0.267
 5609SOL    HW117726   4.656   6.325   0.291
 5609SOL    HW217727   4.637   6.449   0.186
 5610SOL     OW17728   5.432   4.027   0.686
 5610SOL    HW117729   5.404   3.934   0.662
 5610SOL    HW217730   5.522   4.024   0.729
 5611SOL     OW17731   0.808   5.121   1.994
 5611SOL    HW117732   0.801   5.097   2.091
 5611SOL    HW217733   0.900   5.156   1.975
 5612SOL     OW17734   2.939   2.785   0.780
 5612SOL    HW117735   2.890   2.793   0.866
 5612SOL    HW217736   3.031   2.823   0.790
 5613SOL     OW17737   6.509   4.328   4.829
 5613SOL    HW117738   6.513   4.427   4.846
 5613SOL    HW217739   6.595   4.286   4.857
 5614SOL     OW17740   6.346   1.949   4.583
 5614SOL    HW117741   6.411   2.009   4.629
 5614SOL    HW217742   6.381   1.927   4.492
 5615SOL     OW17743   6.889   1.486   2.653
 5615SOL    HW117744   6.950   1.542   2.709
 5615SOL    HW217745   6.809   1.539   2.625
 5616SOL     OW17746   2.554   1.906   5.328
 5616SOL    HW117747   2.608   1.845   5.271
 5616SOL    HW217748   2.460   1.910   5.292
 5617SOL     OW17749   1.450   4.251   4.206
 5617SOL    HW117750   1.419   4.186   4.137
 5617SOL    HW217751   1.384   4.253   4.281
 5618SOL     OW17752   6.493   5.217   3.237
 5618SOL    HW117753   6.481   5.196   3.140
 5618SOL    HW217754   6.448   5.146   3.292
 5619SOL     OW17755   3.836   2.967   3.614
 5619SOL    HW117756   3.859   2.941   3.521
 5619SOL    HW217757   3.896   3.042   3.643
 5620SOL     OW17758   4.534   4.195   5.680
 5620SOL    HW117759   4.577   4.117   5.636
 5620SOL    HW217760   4.461   4.163   5.741
 5621SOL     OW17761   1.304   3.288   6.418
 5621SOL    HW117762   1.349   3.368   6.376
 5621SOL    HW217763   1.276   3.225   6.346
 5622SOL     OW17764   4.432   6.394   5.398
 5622SOL    HW117765   4.393   6.482   5.372
 5622SOL    HW217766   4.361   6.324   5.395
 5623SOL     OW17767   4.672   6.788   5.259
 5623SOL    HW117768   4.679   6.882   5.225
 5623SOL    HW217769   4.622   6.787   5.345
 5624SOL     OW17770   0.915   5.146   3.577
 5624SOL    HW117771   0.931   5.223   3.514
 5624SOL    HW217772   1.003   5.104   3.600
 5625SOL     OW17773   0.591   5.100   4.604
 5625SOL    HW117774   0.508   5.053   4.633
 5625SOL    HW217775   0.670   5.042   4.620
 5626SOL     OW17776   2.261   4.539   4.556
 5626SOL    HW117777   2.226   4.602   4.625
 5626SOL    HW217778   2.220   4.561   4.467
 5627SOL     OW17779   6.950   5.866   5.925
 5627SOL    HW117780   6.919   5.847   6.019
 5627SOL    HW217781   7.021   5.936   5.927
 5628SOL     OW17782   3.047   2.846   1.157
 5628SOL    HW117783   3.078   2.941   1.163
 5628SOL    HW217784   3.102   2.790   1.219
 5629SOL     OW17785   3.951   3.092   1.452
 5629SOL    HW117786   3.945   2.992   1.455
 5629SOL    HW217787   3.944   3.128   1.545
 5630SOL     OW17788   1.759   3.939   6.035
 5630SOL    HW117789   1.839   3.976   5.987
 5630SOL    HW217790   1.745   3.989   6.120
 5631SOL     OW17791   5.186   0.898   1.714
 5631SOL    HW117792   5.268   0.927   1.764
 5631SOL    HW217793   5.206   0.894   1.616
 5632SOL     OW17794   5.203   1.689   5.971
 5632SOL    HW117795   5.291   1.726   6.001
 5632SOL    HW217796   5.218   1.606   5.918
 5633SOL     OW17797   0.171   4.997   4.875
 5633SOL    HW117798   0.159   5.027   4.969
 5633SOL    HW217799   0.081   4.976   4.835
 5634SOL     OW17800   1.887   4.776   4.205
 5634SOL    HW117801   1.920   4.870   4.194
 5634SOL    HW217802   1.878   4.756   4.302
 5635SOL     OW17803   2.827   6.686   6.787
 5635SOL    HW117804   2.884   6.710   6.865
 5635SOL    HW217805   2.884   6.681   6.704
 5636SOL     OW17806   5.876   0.799   5.279
 5636SOL    HW117807   5.876   0.897   5.297
 5636SOL    HW217808   5.970   0.768   5.262
 5637SOL     OW17809   4.963   0.197   3.941
 5637SOL    HW117810   4.991   0.108   3.905
 5637SOL    HW217811   4.868   0.214   3.918
 5638SOL     OW17812   5.574   5.710   1.258
 5638SOL    HW117813   5.645   5.735   1.192
 5638SOL    HW217814   5.490   5.685   1.211
 5639SOL     OW17815   1.092   0.877   2.007
 5639SOL    HW117816   1.105   0.790   1.959
 5639SOL    HW217817   1.003   0.877   2.052
 5640SOL     OW17818   2.876   6.947   2.121
 5640SOL    HW117819   2.776   6.956   2.117
 5640SOL    HW217820   2.900   6.878   2.189
 5641SOL     OW17821   0.500   4.707   6.024
 5641SOL    HW117822   0.497   4.684   5.927
 5641SOL    HW217823   0.455   4.635   6.076
 5642SOL     OW17824   1.297   5.032   5.829
 5642SOL    HW117825   1.290   5.044   5.730
 5642SOL    HW217826   1.293   4.934   5.851
 5643SOL     OW17827   3.439   0.987   5.069
 5643SOL    HW117828   3.486   1.056   5.014
 5643SOL    HW217829   3.340   0.996   5.055
 5644SOL     OW17830   4.588   0.660   3.772
 5644SOL    HW117831   4.669   0.607   3.797
 5644SOL    HW217832   4.552   0.706   3.853
 5645SOL     OW17833   6.778   4.285   3.002
 5645SOL    HW117834   6.799   4.336   3.085
 5645SOL    HW217835   6.679   4.288   2.985
 5646SOL     OW17836   2.044   5.509   3.542
 5646SOL    HW117837   1.957   5.470   3.511
 5646SOL    HW217838   2.052   5.500   3.641
 5647SOL     OW17839   6.506   6.804   0.148
 5647SOL    HW117840   6.600   6.774   0.129
 5647SOL    HW217841   6.464   6.835   0.062
 5648SOL     OW17842   1.792   1.123   2.891
 5648SOL    HW117843   1.721   1.164   2.948
 5648SOL    HW217844   1.763   1.032   2.861
 5649SOL     OW17845   1.092   6.328   5.891
 5649SOL    HW117846   1.079   6.248   5.950
 5649SOL    HW217847   1.008   6.382   5.887
 5650SOL     OW17848   0.767   5.622   1.414
 5650SOL    HW117849   0.706   5.681   1.363
 5650SOL    HW217850   0.747   5.629   1.512
 5651SOL     OW17851   0.144   1.306   1.810
 5651SOL    HW117852   0.187   1.356   1.735
 5651SOL    HW217853   0.045   1.314   1.803
 5652SOL     OW17854   5.774   6.408   1.685
 5652SOL    HW117855   5.774   6.347   1.764
 5652SOL    HW217856   5.705   6.378   1.619
 5653SOL     OW17857   0.387   6.454   6.409
 5653SOL    HW117858   0.428   6.531   6.459
 5653SOL    HW217859   0.420   6.368   6.449
 5654SOL     OW17860   6.648   5.988   5.560
 5654SOL    HW117861   6.652   5.982   5.660
 5654SOL    HW217862   6.584   6.060   5.533
 5655SOL     OW17863   1.537   3.311   4.225
 5655SOL    HW117864   1.497   3.337   4.313
 5655SOL    HW217865   1.465   3.279   4.163
 5656SOL     OW17866   2.010   4.767   0.620
 5656SOL    HW117867   2.047   4.701   0.684
 5656SOL    HW217868   2.038   4.743   0.527
 5657SOL     OW17869   5.577   0.323   0.978
 5657SOL    HW117870   5.545   0.228   0.981
 5657SOL    HW217871   5.554   0.368   1.064
 5658SOL     OW17872   3.230   5.746   5.913
 5658SOL    HW117873   3.254   5.669   5.854
 5658SOL    HW217874   3.308   5.808   5.920
 5659SOL     OW17875   3.107   4.019   3.356
 5659SOL    HW117876   3.104   4.016   3.256
 5659SOL    HW217877   3.057   3.941   3.393
 5660SOL     OW17878   5.781   0.277   5.973
 5660SOL    HW117879   5.723   0.208   6.015
 5660SOL    HW217880   5.869   0.237   5.948
 5661SOL     OW17881   6.954   4.690   6.148
 5661SOL    HW117882   6.988   4.609   6.100
 5661SOL    HW217883   6.948   4.766   6.083
 5662SOL     OW17884   2.613   5.008   4.022
 5662SOL    HW117885   2.660   4.934   4.071
 5662SOL    HW217886   2.516   5.007   4.046
 5663SOL     OW17887   1.899   4.072   6.968
 5663SOL    HW117888   1.959   4.016   6.911
 5663SOL    HW217889   1.943   4.160   6.987
 5664SOL     OW17890   6.854   4.033   4.412
 5664SOL    HW117891   6.906   4.043   4.327
 5664SOL    HW217892   6.909   4.067   4.488
 5665SOL     OW17893   1.648   1.808   0.081
 5665SOL    HW117894   1.591   1.801   0.162
 5665SOL    HW217895   1.665   1.905   0.060
 5666SOL     OW17896   5.552   6.006   0.759
 5666SOL    HW117897   5.550   5.940   0.835
 5666SOL    HW217898   5.643   6.006   0.717
 5667SOL     OW17899   1.118   4.264   3.689
 5667SOL    HW117900   1.181   4.246   3.612
 5667SOL    HW217901   1.030   4.294   3.653
 5668SOL     OW17902   5.567   1.886   5.921
 5668SOL    HW117903   5.623   1.829   5.982
 5668SOL    HW217904   5.519   1.955   5.975
 5669SOL     OW17905   0.579   3.308   6.416
 5669SOL    HW117906   0.515   3.303   6.492
 5669SOL    HW217907   0.615   3.401   6.409
 5670SOL     OW17908   0.309   3.020   3.948
 5670SOL    HW117909   0.281   2.940   3.894
 5670SOL    HW217910   0.409   3.027   3.946
 5671SOL     OW17911   0.789   6.543   6.397
 5671SOL    HW117912   0.831   6.485   6.467
 5671SOL    HW217913   0.832   6.526   6.309
 5672SOL     OW17914   4.340   4.760   6.660
 5672SOL    HW117915   4.399   4.680   6.672
 5672SOL    HW217916   4.394   4.844   6.668
 5673SOL     OW17917   0.939   6.096   1.871
 5673SOL    HW117918   1.024   6.074   1.823
 5673SOL    HW217919   0.931   6.195   1.880
 5674SOL     OW17920   6.987   4.054   3.527
 5674SOL    HW117921   0.050   4.003   3.540
 5674SOL    HW217922   6.933   4.052   3.611
 5675SOL     OW17923   4.336   1.931   6.227
 5675SOL    HW117924   4.267   1.873   6.183
 5675SOL    HW217925   4.335   2.021   6.185
 5676SOL     OW17926   1.948   1.946   1.938
 5676SOL    HW117927   1.918   2.036   1.968
 5676SOL    HW217928   1.996   1.900   2.012
 5677SOL     OW17929   0.796   2.411   2.800
 5677SOL    HW117930   0.893   2.433   2.803
 5677SOL    HW217931   0.773   2.376   2.709
 5678SOL     OW17932   2.793   6.764   2.970
 5678SOL    HW117933   2.875   6.806   2.931
 5678SOL    HW217934   2.799   6.767   3.070
 5679SOL     OW17935   1.196   0.537   3.178
 5679SOL    HW117936   1.221   0.482   3.099
 5679SOL    HW217937   1.241   0.502   3.260
 5680SOL     OW17938   1.257   5.450   0.510
 5680SOL    HW117939   1.262   5.402   0.422
 5680SOL    HW217940   1.227   5.387   0.581
 5681SOL     OW17941   0.193   3.554   6.591
 5681SOL    HW117942   0.180   3.477   6.654
 5681SOL    HW217943   0.175   3.640   6.639
 5682SOL     OW17944   1.997   4.809   5.406
 5682SOL    HW117945   2.049   4.772   5.328
 5682SOL    HW217946   1.902   4.823   5.379
 5683SOL     OW17947   4.023   1.577   6.864
 5683SOL    HW117948   4.102   1.626   6.900
 5683SOL    HW217949   4.051   1.483   6.841
 5684SOL     OW17950   3.810   3.335   4.556
 5684SOL    HW117951   3.910   3.344   4.555
 5684SOL    HW217952   3.777   3.342   4.650
 5685SOL     OW17953   1.865   3.572   1.968
 5685SOL    HW117954   1.859   3.478   2.002
 5685SOL    HW217955   1.956   3.588   1.931
 5686SOL     OW17956   3.002   0.010   6.324
 5686SOL    HW117957   2.941   6.956   6.298
 5686SOL    HW217958   3.080   6.996   6.375
 5687SOL     OW17959   6.987   3.698   4.959
 5687SOL    HW117960   6.892   3.673   4.943
 5687SOL    HW217961   6.990   3.784   5.011
 5688SOL     OW17962   6.549   1.835   0.012
 5688SOL    HW117963   6.526   1.756   6.977
 5688SOL    HW217964   6.473   1.854   0.075
 5689SOL     OW17965   4.343   0.537   6.975
 5689SOL    HW117966   4.410   0.465   6.993
 5689SOL    HW217967   4.285   0.510   6.899
 5690SOL     OW17968   2.479   6.716   0.517
 5690SOL    HW117969   2.446   6.638   0.571
 5690SOL    HW217970   2.416   6.793   0.527
 5691SOL     OW17971   2.730   6.423   1.694
 5691SOL    HW117972   2.783   6.380   1.767
 5691SOL    HW217973   2.651   6.365   1.672
 5692SOL     OW17974   0.004   3.247   5.964
 5692SOL    HW117975   6.933   3.276   5.985
 5692SOL    HW217976   0.020   3.254   5.865
 5693SOL     OW17977   6.036   2.729   2.891
 5693SOL    HW117978   5.982   2.743   2.808
 5693SOL    HW217979   6.116   2.788   2.889
 5694SOL     OW17980   1.018   1.709   3.521
 5694SOL    HW117981   1.097   1.652   3.496
 5694SOL    HW217982   1.000   1.700   3.619
 5695SOL     OW17983   1.226   2.761   2.718
 5695SOL    HW117984   1.309   2.780   2.771
 5695SOL    HW217985   1.251   2.716   2.632
 5696SOL     OW17986   1.093   0.010   3.158
 5696SOL    HW117987   1.088   0.072   3.236
 5696SOL    HW217988   1.037   0.046   3.084
 5697SOL     OW17989   6.108   2.301   1.155
 5697SOL    HW117990   6.122   2.215   1.107
 5697SOL    HW217991   6.056   2.364   1.097
 5698SOL     OW17992   0.464   3.024   2.248
 5698SOL    HW117993   0.422   3.115   2.252
 5698SOL    HW217994   0.419   2.971   2.177
 5699SOL     OW17995   6.168   2.168   3.245
 5699SOL    HW117996   6.128   2.255   3.273
 5699SOL    HW217997   6.217   2.127   3.323
 5700SOL     OW17998   6.556   6.671   4.566
 5700SOL    HW117999   6.471   6.688   4.517
 5700SOL    HW218000   6.554   6.579   4.605
 5701SOL     OW18001   1.097   6.197   3.148
 5701SOL    HW118002   1.171   6.135   3.174
 5701SOL    HW218003   1.062   6.244   3.229
 5702SOL     OW18004   1.238   0.660   5.298
 5702SOL    HW118005   1.178   0.605   5.356
 5702SOL    HW218006   1.332   0.626   5.305
 5703SOL     OW18007   5.259   4.257   1.293
 5703SOL    HW118008   5.323   4.211   1.354
 5703SOL    HW218009   5.304   4.279   1.207
 5704SOL     OW18010   4.362   5.351   1.933
 5704SOL    HW118011   4.278   5.324   1.980
 5704SOL    HW218012   4.339   5.404   1.851
 5705SOL     OW18013   4.964   1.137   0.297
 5705SOL    HW118014   4.914   1.219   0.324
 5705SOL    HW218015   5.054   1.137   0.341
 5706SOL     OW18016   0.720   2.203   0.515
 5706SOL    HW118017   0.757   2.246   0.597
 5706SOL    HW218018   0.729   2.103   0.522
 5707SOL     OW18019   0.628   0.029   0.305
 5707SOL    HW118020   0.676   0.102   0.256
 5707SOL    HW218021   0.633   6.967   0.251
 5708SOL     OW18022   4.999   6.578   0.917
 5708SOL    HW118023   5.072   6.610   0.857
 5708SOL    HW218024   4.911   6.585   0.870
 5709SOL     OW18025   0.628   0.052   3.676
 5709SOL    HW118026   0.542   0.005   3.654
 5709SOL    HW218027   0.650   0.037   3.772
 5710SOL     OW18028   2.783   3.051   6.065
 5710SOL    HW118029   2.749   2.991   6.137
 5710SOL    HW218030   2.802   3.142   6.103
 5711SOL     OW18031   4.498   0.595   3.242
 5711SOL    HW118032   4.466   0.620   3.333
 5711SOL    HW218033   4.484   0.671   3.179
 5712SOL     OW18034   0.905   5.547   6.095
 5712SOL    HW118035   0.995   5.509   6.119
 5712SOL    HW218036   0.868   5.498   6.016
 5713SOL     OW18037   1.153   2.297   1.469
 5713SOL    HW118038   1.116   2.230   1.404
 5713SOL    HW218039   1.205   2.366   1.420
 5714SOL     OW18040   0.757   6.200   6.628
 5714SOL    HW118041   0.773   6.259   6.707
 5714SOL    HW218042   0.828   6.217   6.559
 5715SOL     OW18043   0.976   6.258   3.400
 5715SOL    HW118044   0.920   6.311   3.463
 5715SOL    HW218045   0.973   6.161   3.426
 5716SOL     OW18046   1.699   4.411   6.538
 5716SOL    HW118047   1.664   4.320   6.561
 5716SOL    HW218048   1.726   4.412   6.442
 5717SOL     OW18049   2.034   6.214   0.587
 5717SOL    HW118050   2.011   6.215   0.685
 5717SOL    HW218051   2.071   6.304   0.562
 5718SOL     OW18052   0.740   3.828   6.165
 5718SOL    HW118053   0.680   3.789   6.234
 5718SOL    HW218054   0.703   3.811   6.074
 5719SOL     OW18055   2.071   1.486   6.154
 5719SOL    HW118056   2.144   1.447   6.098
 5719SOL    HW218057   2.111   1.538   6.229
 5720SOL     OW18058   0.850   4.936   4.382
 5720SOL    HW118059   0.924   4.894   4.434
 5720SOL    HW218060   0.811   5.011   4.436
 5721SOL     OW18061   0.135   3.551   0.720
 5721SOL    HW118062   0.067   3.523   0.788
 5721SOL    HW218063   0.226   3.545   0.761
 5722SOL     OW18064   5.818   1.810   4.819
 5722SOL    HW118065   5.805   1.719   4.780
 5722SOL    HW218066   5.839   1.875   4.746
 5723SOL     OW18067   4.076   3.407   0.175
 5723SOL    HW118068   4.138   3.485   0.166
 5723SOL    HW218069   4.010   3.425   0.248
 5724SOL     OW18070   4.057   2.594   5.364
 5724SOL    HW118071   3.961   2.622   5.366
 5724SOL    HW218072   4.079   2.558   5.274
 5725SOL     OW18073   6.283   5.475   3.847
 5725SOL    HW118074   6.204   5.420   3.818
 5725SOL    HW218075   6.314   5.530   3.770
 5726SOL     OW18076   6.603   3.422   4.281
 5726SOL    HW118077   6.589   3.455   4.188
 5726SOL    HW218078   6.535   3.463   4.342
 5727SOL     OW18079   0.983   2.375   4.149
 5727SOL    HW118080   0.940   2.387   4.059
 5727SOL    HW218081   0.921   2.407   4.220
 5728SOL     OW18082   4.948   1.321   6.513
 5728SOL    HW118083   4.947   1.405   6.568
 5728SOL    HW218084   4.858   1.308   6.472
 5729SOL     OW18085   0.714   1.709   0.398
 5729SOL    HW118086   0.615   1.701   0.405
 5729SOL    HW218087   0.756   1.687   0.486
 5730SOL     OW18088   4.111   5.130   5.441
 5730SOL    HW118089   4.012   5.112   5.438
 5730SOL    HW218090   4.147   5.132   5.349
 5731SOL     OW18091   1.803   6.676   4.001
 5731SOL    HW118092   1.892   6.717   3.980
 5731SOL    HW218093   1.760   6.726   4.076
 5732SOL     OW18094   6.946   4.687   5.604
 5732SOL    HW118095   6.880   4.614   5.590
 5732SOL    HW218096   6.898   4.769   5.636
 5733SOL     OW18097   3.090   0.562   5.602
 5733SOL    HW118098   3.139   0.618   5.669
 5733SOL    HW218099   3.011   0.519   5.645
 5734SOL     OW18100   1.670   6.345   6.259
 5734SOL    HW118101   1.732   6.419   6.286
 5734SOL    HW218102   1.718   6.257   6.266
 5735SOL     OW18103   3.955   1.644   2.725
 5735SOL    HW118104   4.042   1.604   2.752
 5735SOL    HW218105   3.962   1.679   2.631
 5736SOL     OW18106   5.612   4.289   0.884
 5736SOL    HW118107   5.659   4.202   0.899
 5736SOL    HW218108   5.616   4.313   0.787
 5737SOL     OW18109   5.453   6.228   6.402
 5737SOL    HW118110   5.445   6.171   6.484
 5737SOL    HW218111   5.429   6.173   6.322
 5738SOL     OW18112   3.418   2.532   6.695
 5738SOL    HW118113   3.337   2.568   6.647
 5738SOL    HW218114   3.411   2.433   6.703
 5739SOL     OW18115   1.236   6.158   5.678
 5739SOL    HW118116   1.205   6.184   5.769
 5739SOL    HW218117   1.244   6.240   5.621
 5740SOL     OW18118   4.061   4.169   1.088
 5740SOL    HW118119   4.033   4.073   1.086
 5740SOL    HW218120   4.134   4.184   1.022
 5741SOL     OW18121   6.586   3.995   4.348
 5741SOL    HW118122   6.542   4.082   4.370
 5741SOL    HW218123   6.682   3.998   4.375
 5742SOL     OW18124   4.475   6.116   2.260
 5742SOL    HW118125   4.413   6.188   2.291
 5742SOL    HW218126   4.455   6.093   2.165
 5743SOL     OW18127   1.983   5.815   5.750
 5743SOL    HW118128   2.005   5.738   5.809
 5743SOL    HW218129   2.033   5.808   5.664
 5744SOL     OW18130   4.916   1.316   1.520
 5744SOL    HW118131   4.971   1.320   1.603
 5744SOL    HW218132   4.966   1.359   1.445
 5745SOL     OW18133   1.982   0.994   3.126
 5745SOL    HW118134   1.927   0.960   3.049
 5745SOL    HW218135   2.003   0.917   3.187
 5746SOL     OW18136   4.815   0.282   1.936
 5746SOL    HW118137   4.891   0.232   1.978
 5746SOL    HW218138   4.830   0.287   1.837
 5747SOL     OW18139   1.595   5.264   1.753
 5747SOL    HW118140   1.535   5.337   1.785
 5747SOL    HW218141   1.591   5.259   1.654
 5748SOL     OW18142   1.076   0.139   1.417
 5748SOL    HW118143   1.080   0.200   1.338
 5748SOL    HW218144   0.980   0.113   1.433
 5749SOL     OW18145   1.750   6.318   5.203
 5749SOL    HW118146   1.793   6.289   5.289
 5749SOL    HW218147   1.662   6.272   5.192
 5750SOL     OW18148   6.147   6.248   4.700
 5750SOL    HW118149   6.113   6.195   4.623
 5750SOL    HW218150   6.130   6.199   4.786
 5751SOL     OW18151   2.431   2.695   5.076
 5751SOL    HW118152   2.367   2.626   5.044
 5751SOL    HW218153   2.395   2.786   5.055
 5752SOL     OW18154   5.242   0.461   0.417
 5752SOL    HW118155   5.269   0.502   0.504
 5752SOL    HW218156   5.190   0.526   0.363
 5753SOL     OW18157   3.697   4.165   4.060
 5753SOL    HW118158   3.635   4.177   4.137
 5753SOL    HW218159   3.772   4.104   4.086
 5754SOL     OW18160   0.152   5.526   1.952
 5754SOL    HW118161   0.091   5.566   2.021
 5754SOL    HW218162   0.223   5.592   1.928
 5755SOL     OW18163   1.609   2.287   6.621
 5755SOL    HW118164   1.597   2.193   6.590
 5755SOL    HW218165   1.587   2.349   6.546
 5756SOL     OW18166   0.031   0.076   2.767
 5756SOL    HW118167   0.013   0.129   2.850
 5756SOL    HW218168   6.968   0.030   2.738
 5757SOL     OW18169   6.894   5.208   3.333
 5757SOL    HW118170   6.826   5.135   3.336
 5757SOL    HW218171   6.849   5.296   3.317
 5758SOL     OW18172   2.136   1.243   3.366
 5758SOL    HW118173   2.154   1.275   3.273
 5758SOL    HW218174   2.066   1.301   3.408
 5759SOL     OW18175   4.899   0.456   6.569
 5759SOL    HW118176   4.978   0.394   6.563
 5759SOL    HW218177   4.884   0.482   6.664
 5760SOL     OW18178   6.732   2.225   1.011
 5760SOL    HW118179   6.658   2.242   0.946
 5760SOL    HW218180   6.746   2.305   1.068
 5761SOL     OW18181   6.127   4.797   5.878
 5761SOL    HW118182   6.080   4.837   5.956
 5761SOL    HW218183   6.147   4.701   5.896
 5762SOL     OW18184   5.014   4.172   1.208
 5762SOL    HW118185   4.979   4.091   1.254
 5762SOL    HW218186   5.111   4.184   1.231
 5763SOL     OW18187   6.515   5.609   0.614
 5763SOL    HW118188   6.425   5.604   0.572
 5763SOL    HW218189   6.579   5.553   0.562
 5764SOL     OW18190   5.171   4.970   5.076
 5764SOL    HW118191   5.140   4.891   5.128
 5764SOL    HW218192   5.177   5.050   5.136
 5765SOL     OW18193   6.666   2.778   0.581
 5765SOL    HW118194   6.684   2.729   0.496
 5765SOL    HW218195   6.654   2.875   0.562
 5766SOL     OW18196   1.599   1.830   6.049
 5766SOL    HW118197   1.591   1.910   5.989
 5766SOL    HW218198   1.692   1.824   6.085
 5767SOL     OW18199   1.934   0.305   0.960
 5767SOL    HW118200   1.839   0.274   0.971
 5767SOL    HW218201   1.940   0.402   0.984
 5768SOL     OW18202   1.029   6.434   4.313
 5768SOL    HW118203   1.104   6.479   4.266
 5768SOL    HW218204   0.990   6.363   4.255
 5769SOL     OW18205   2.197   5.717   4.204
 5769SOL    HW118206   2.101   5.703   4.181
 5769SOL    HW218207   2.253   5.696   4.124
 5770SOL     OW18208   6.329   6.009   6.453
 5770SOL    HW118209   6.265   6.015   6.377
 5770SOL    HW218210   6.324   5.919   6.495
 5771SOL     OW18211   0.986   6.907   4.630
 5771SOL    HW118212   0.887   6.899   4.626
 5771SOL    HW218213   1.026   6.876   4.544
 5772SOL     OW18214   5.675   1.101   1.882
 5772SOL    HW118215   5.741   1.041   1.837
 5772SOL    HW218216   5.709   1.125   1.973
 5773SOL     OW18217   4.049   0.554   3.123
 5773SOL    HW118218   4.065   0.463   3.163
 5773SOL    HW218219   4.037   0.546   3.025
 5774SOL     OW18220   3.013   6.333   3.925
 5774SOL    HW118221   3.095   6.364   3.973
 5774SOL    HW218222   3.037   6.303   3.833
 5775SOL     OW18223   1.528   0.254   2.758
 5775SOL    HW118224   1.585   0.217   2.832
 5775SOL    HW218225   1.481   0.179   2.712
 5776SOL     OW18226   0.371   0.919   4.253
 5776SOL    HW118227   0.307   0.931   4.178
 5776SOL    HW218228   0.457   0.882   4.218
 5777SOL     OW18229   0.016   0.365   4.828
 5777SOL    HW118230   7.015   0.447   4.879
 5777SOL    HW218231   6.970   0.294   4.846
 5778SOL     OW18232   1.460   0.219   0.216
 5778SOL    HW118233   1.497   0.300   0.170
 5778SOL    HW218234   1.479   0.225   0.314
 5779SOL     OW18235   4.409   2.766   1.107
 5779SOL    HW118236   4.359   2.687   1.072
 5779SOL    HW218237   4.398   2.772   1.206
 5780SOL     OW18238   6.475   5.859   4.360
 5780SOL    HW118239   6.390   5.808   4.374
 5780SOL    HW218240   6.458   5.956   4.374
 5781SOL     OW18241   6.523   5.307   4.521
 5781SOL    HW118242   6.480   5.217   4.513
 5781SOL    HW218243   6.459   5.372   4.562
 5782SOL     OW18244   1.209   1.485   0.711
 5782SOL    HW118245   1.178   1.557   0.650
 5782SOL    HW218246   1.141   1.472   0.784
 5783SOL     OW18247   1.133   0.646   1.878
 5783SOL    HW118248   1.224   0.611   1.857
 5783SOL    HW218249   1.090   0.588   1.947
 5784SOL     OW18250   7.005   5.801   6.247
 5784SOL    HW118251   0.039   5.793   6.329
 5784SOL    HW218252   6.909   5.810   6.273
 5785SOL     OW18253   2.110   1.677   0.488
 5785SOL    HW118254   2.137   1.600   0.431
 5785SOL    HW218255   2.161   1.673   0.575
 5786SOL     OW18256   1.089   3.902   0.666
 5786SOL    HW118257   1.178   3.898   0.711
 5786SOL    HW218258   1.089   3.978   0.601
 5787SOL     OW18259   3.476   2.093   4.902
 5787SOL    HW118260   3.409   2.121   4.833
 5787SOL    HW218261   3.459   2.142   4.987
 5788SOL     OW18262   2.919   1.316   1.353
 5788SOL    HW118263   2.958   1.253   1.421
 5788SOL    HW218264   2.821   1.299   1.345
 5789SOL     OW18265   3.408   4.536   6.892
 5789SOL    HW118266   3.441   4.611   6.835
 5789SOL    HW218267   3.309   4.544   6.903
 5790SOL     OW18268   0.972   4.766   4.582
 5790SOL    HW118269   0.988   4.691   4.647
 5790SOL    HW218270   1.060   4.798   4.547
 5791SOL     OW18271   3.653   1.450   2.951
 5791SOL    HW118272   3.676   1.391   2.874
 5791SOL    HW218273   3.591   1.401   3.013
 5792SOL     OW18274   5.899   3.352   2.403
 5792SOL    HW118275   5.867   3.315   2.316
 5792SOL    HW218276   5.950   3.437   2.386
 5793SOL     OW18277   4.824   1.112   3.890
 5793SOL    HW118278   4.798   1.167   3.811
 5793SOL    HW218279   4.844   1.172   3.967
 5794SOL     OW18280   2.492   0.778   0.332
 5794SOL    HW118281   2.481   0.842   0.256
 5794SOL    HW218282   2.538   0.823   0.408
 5795SOL     OW18283   6.542   0.088   6.934
 5795SOL    HW118284   6.617   0.024   6.918
 5795SOL    HW218285   6.519   0.134   6.848
 5796SOL     OW18286   4.952   1.489   6.090
 5796SOL    HW118287   4.858   1.503   6.120
 5796SOL    HW218288   5.012   1.485   6.170
 5797SOL     OW18289   4.731   2.156   6.354
 5797SOL    HW118290   4.676   2.228   6.396
 5797SOL    HW218291   4.797   2.197   6.291
 5798SOL     OW18292   1.112   4.613   4.993
 5798SOL    HW118293   1.019   4.602   4.958
 5798SOL    HW218294   1.133   4.539   5.056
 5799SOL     OW18295   0.518   0.600   3.329
 5799SOL    HW118296   0.597   0.631   3.381
 5799SOL    HW218297   0.458   0.546   3.389
 5800SOL     OW18298   5.992   6.262   1.859
 5800SOL    HW118299   6.016   6.186   1.919
 5800SOL    HW218300   6.046   6.257   1.775
 5801SOL     OW18301   2.038   2.536   3.399
 5801SOL    HW118302   2.054   2.543   3.300
 5801SOL    HW218303   2.106   2.475   3.439
 5802SOL     OW18304   0.867   4.070   2.492
 5802SOL    HW118305   0.806   4.022   2.556
 5802SOL    HW218306   0.901   4.006   2.424
 5803SOL     OW18307   2.428   5.464   2.078
 5803SOL    HW118308   2.523   5.445   2.052
 5803SOL    HW218309   2.414   5.562   2.084
 5804SOL     OW18310   0.146   6.004   3.971
 5804SOL    HW118311   0.072   6.071   3.965
 5804SOL    HW218312   0.209   6.017   3.894
 5805SOL     OW18313   2.223   3.312   0.073
 5805SOL    HW118314   2.321   3.306   0.093
 5805SOL    HW218315   2.210   3.324   6.997
 5806SOL     OW18316   6.650   5.232   5.086
 5806SOL    HW118317   6.658   5.170   5.164
 5806SOL    HW218318   6.590   5.192   5.017
 5807SOL     OW18319   0.492   3.749   1.721
 5807SOL    HW118320   0.585   3.786   1.726
 5807SOL    HW218321   0.484   3.690   1.640
 5808SOL     OW18322   6.090   6.015   4.875
 5808SOL    HW118323   6.019   5.967   4.823
 5808SOL    HW218324   6.165   5.952   4.895
 5809SOL     OW18325   5.582   2.028   4.701
 5809SOL    HW118326   5.486   2.045   4.678
 5809SOL    HW218327   5.588   1.976   4.786
 5810SOL     OW18328   3.926   1.265   4.830
 5810SOL    HW118329   3.982   1.183   4.838
 5810SOL    HW218330   3.860   1.253   4.756
 5811SOL     OW18331   3.233   1.055   4.788
 5811SOL    HW118332   3.190   1.140   4.760
 5811SOL    HW218333   3.332   1.068   4.793
 5812SOL     OW18334   6.393   2.471   4.382
 5812SOL    HW118335   6.440   2.456   4.469
 5812SOL    HW218336   6.455   2.517   4.319
 5813SOL     OW18337   1.626   1.898   1.051
 5813SOL    HW118338   1.551   1.924   0.990
 5813SOL    HW218339   1.601   1.918   1.145
 5814SOL     OW18340   6.375   4.485   1.853
 5814SOL    HW118341   6.308   4.442   1.793
 5814SOL    HW218342   6.438   4.416   1.888
 5815SOL     OW18343   3.923   1.821   4.427
 5815SOL    HW118344   3.859   1.787   4.358
 5815SOL    HW218345   4.007   1.767   4.424
 5816SOL     OW18346   4.541   5.235   0.223
 5816SOL    HW118347   4.617   5.277   0.274
 5816SOL    HW218348   4.454   5.266   0.262
 5817SOL     OW18349   5.357   3.868   5.946
 5817SOL    HW118350   5.440   3.848   6.000
 5817SOL    HW218351   5.281   3.815   5.982
 5818SOL     OW18352   6.533   5.963   4.823
 5818SOL    HW118353   6.596   5.887   4.809
 5818SOL    HW218354   6.562   6.016   4.903
 5819SOL     OW18355   3.693   6.424   6.495
 5819SOL    HW118356   3.723   6.452   6.587
 5819SOL    HW218357   3.762   6.364   6.455
 5820SOL     OW18358   4.648   5.053   3.628
 5820SOL    HW118359   4.615   5.104   3.707
 5820SOL    HW218360   4.678   4.962   3.657
 5821SOL     OW18361   0.145   6.703   1.360
 5821SOL    HW118362   0.058   6.754   1.363
 5821SOL    HW218363   0.166   6.667   1.451
 5822SOL     OW18364   2.099   2.245   1.352
 5822SOL    HW118365   2.083   2.167   1.290
 5822SOL    HW218366   2.069   2.221   1.444
 5823SOL     OW18367   1.571   0.566   5.651
 5823SOL    HW118368   1.571   0.658   5.691
 5823SOL    HW218369   1.502   0.561   5.579
 5824SOL     OW18370   6.950   5.572   2.191
 5824SOL    HW118371   0.013   5.558   2.243
 5824SOL    HW218372   6.936   5.670   2.175
 5825SOL     OW18373   0.812   1.718   5.585
 5825SOL    HW118374   0.765   1.799   5.622
 5825SOL    HW218375   0.750   1.640   5.588
 5826SOL     OW18376   6.959   4.860   5.947
 5826SOL    HW118377   6.957   4.959   5.960
 5826SOL    HW218378   6.929   4.839   5.854
 5827SOL     OW18379   2.121   4.286   4.946
 5827SOL    HW118380   2.188   4.294   4.872
 5827SOL    HW218381   2.105   4.189   4.966
 5828SOL     OW18382   6.569   1.771   1.607
 5828SOL    HW118383   6.648   1.792   1.550
 5828SOL    HW218384   6.599   1.755   1.701
 5829SOL     OW18385   1.461   0.709   3.175
 5829SOL    HW118386   1.373   0.663   3.162
 5829SOL    HW218387   1.536   0.644   3.159
 5830SOL     OW18388   5.500   6.405   5.711
 5830SOL    HW118389   5.551   6.348   5.646
 5830SOL    HW218390   5.515   6.502   5.689
 5831SOL     OW18391   1.061   1.601   5.625
 5831SOL    HW118392   0.990   1.645   5.570
 5831SOL    HW218393   1.024   1.577   5.715
 5832SOL     OW18394   2.946   4.803   6.890
 5832SOL    HW118395   2.895   4.719   6.874
 5832SOL    HW218396   3.041   4.780   6.911
 5833SOL     OW18397   3.502   3.681   4.655
 5833SOL    HW118398   3.422   3.728   4.619
 5833SOL    HW218399   3.523   3.716   4.747
 5834SOL     OW18400   0.078   3.070   0.148
 5834SOL    HW118401   0.017   3.056   0.226
 5834SOL    HW218402   0.035   3.132   0.082
 5835SOL     OW18403   5.035   3.174   3.577
 5835SOL    HW118404   5.120   3.215   3.608
 5835SOL    HW218405   4.976   3.245   3.538
 5836SOL     OW18406   2.754   6.531   2.010
 5836SOL    HW118407   2.779   6.557   2.103
 5836SOL    HW218408   2.691   6.600   1.972
 5837SOL     OW18409   4.031   3.937   5.909
 5837SOL    HW118410   4.021   3.923   5.810
 5837SOL    HW218411   3.986   4.022   5.935
 5838SOL     OW18412   2.608   1.994   0.870
 5838SOL    HW118413   2.621   1.982   0.771
 5838SOL    HW218414   2.562   2.081   0.887
 5839SOL     OW18415   0.685   1.703   2.582
 5839SOL    HW118416   0.677   1.605   2.565
 5839SOL    HW218417   0.714   1.749   2.498
 5840SOL     OW18418   0.344   5.580   6.239
 5840SOL    HW118419   0.297   5.520   6.303
 5840SOL    HW218420   0.429   5.537   6.209
 5841SOL     OW18421   5.121   1.899   2.419
 5841SOL    HW118422   5.109   1.961   2.341
 5841SOL    HW218423   5.211   1.857   2.415
 5842SOL     OW18424   4.873   2.986   1.178
 5842SOL    HW118425   4.822   3.019   1.099
 5842SOL    HW218426   4.954   3.043   1.193
 5843SOL     OW18427   1.664   4.223   3.176
 5843SOL    HW118428   1.586   4.168   3.146
 5843SOL    HW218429   1.636   4.286   3.248
 5844SOL     OW18430   2.049   6.101   5.729
 5844SOL    HW118431   2.017   6.006   5.731
 5844SOL    HW218432   2.037   6.142   5.819
 5845SOL     OW18433   0.447   0.608   2.522
 5845SOL    HW118434   0.433   0.513   2.553
 5845SOL    HW218435   0.391   0.625   2.441
 5846SOL     OW18436   6.992   2.699   4.762
 5846SOL    HW118437   6.935   2.775   4.731
 5846SOL    HW218438   6.969   2.677   4.856
 5847SOL     OW18439   2.456   2.215   1.798
 5847SOL    HW118440   2.555   2.225   1.784
 5847SOL    HW218441   2.426   2.128   1.760
 5848SOL     OW18442   2.042   6.294   3.096
 5848SOL    HW118443   2.131   6.279   3.051
 5848SOL    HW218444   2.050   6.271   3.193
 5849SOL     OW18445   0.742   0.417   6.172
 5849SOL    HW118446   0.676   0.453   6.237
 5849SOL    HW218447   0.694   0.380   6.092
 5850SOL     OW18448   6.890   3.423   2.291
 5850SOL    HW118449   6.916   3.404   2.386
 5850SOL    HW218450   6.966   3.400   2.230
 5851SOL     OW18451   4.956   3.532   2.852
 5851SOL    HW118452   4.955   3.452   2.912
 5851SOL    HW218453   4.944   3.615   2.906
 5852SOL     OW18454   6.125   5.715   2.978
 5852SOL    HW118455   6.027   5.731   2.974
 5852SOL    HW218456   6.163   5.716   2.886
 5853SOL     OW18457   3.548   6.012   4.049
 5853SOL    HW118458   3.572   5.944   3.980
 5853SOL    HW218459   3.496   6.086   4.006
 5854SOL     OW18460   5.169   4.371   6.332
 5854SOL    HW118461   5.170   4.421   6.245
 5854SOL    HW218462   5.080   4.382   6.376
 5855SOL     OW18463   0.784   1.546   4.832
 5855SOL    HW118464   0.881   1.558   4.810
 5855SOL    HW218465   0.770   1.558   4.930
 5856SOL     OW18466   2.083   5.562   3.801
 5856SOL    HW118467   1.997   5.609   3.822
 5856SOL    HW218468   2.116   5.516   3.883
 5857SOL     OW18469   6.400   1.936   6.006
 5857SOL    HW118470   6.485   1.884   6.016
 5857SOL    HW218471   6.391   1.968   5.912
 5858SOL     OW18472   2.558   2.076   2.347
 5858SOL    HW118473   2.592   2.126   2.267
 5858SOL    HW218474   2.475   2.121   2.381
 5859SOL     OW18475   5.794   6.419   1.399
 5859SOL    HW118476   5.765   6.392   1.307
 5859SOL    HW218477   5.837   6.341   1.444
 5860SOL     OW18478   1.109   3.460   1.723
 5860SOL    HW118479   1.045   3.395   1.762
 5860SOL    HW218480   1.187   3.471   1.784
 5861SOL     OW18481   4.354   1.723   4.279
 5861SOL    HW118482   4.328   1.631   4.306
 5861SOL    HW218483   4.307   1.789   4.337
 5862SOL     OW18484   5.619   5.158   1.269
 5862SOL    HW118485   5.578   5.138   1.358
 5862SOL    HW218486   5.590   5.090   1.202
 5863SOL     OW18487   3.487   1.670   5.054
 5863SOL    HW118488   3.547   1.741   5.089
 5863SOL    HW218489   3.460   1.691   4.960
 5864SOL     OW18490   4.238   3.649   1.726
 5864SOL    HW118491   4.221   3.575   1.660
 5864SOL    HW218492   4.299   3.616   1.797
 5865SOL     OW18493   5.842   0.235   4.741
 5865SOL    HW118494   5.938   0.209   4.739
 5865SOL    HW218495   5.802   0.213   4.830
 5866SOL     OW18496   4.367   4.716   0.009
 5866SOL    HW118497   4.461   4.685   0.002
 5866SOL    HW218498   4.305   4.639   7.012
 5867SOL     OW18499   1.666   3.729   0.648
 5867SOL    HW118500   1.738   3.669   0.613
 5867SOL    HW218501   1.579   3.707   0.603
 5868SOL     OW18502   1.027   1.531   5.883
 5868SOL    HW118503   1.070   1.448   5.918
 5868SOL    HW218504   1.078   1.611   5.914
 5869SOL     OW18505   1.295   6.020   3.236
 5869SOL    HW118506   1.314   5.937   3.184
 5869SOL    HW218507   1.281   5.997   3.332
 5870SOL     OW18508   5.109   5.733   4.892
 5870SOL    HW118509   5.206   5.754   4.880
 5870SOL    HW218510   5.065   5.723   4.803
 5871SOL     OW18511   4.046   2.444   1.432
 5871SOL    HW118512   4.125   2.461   1.374
 5871SOL    HW218513   4.064   2.478   1.525
 5872SOL     OW18514   4.098   6.329   1.134
 5872SOL    HW118515   4.097   6.258   1.064
 5872SOL    HW218516   4.014   6.324   1.188
 5873SOL     OW18517   3.100   2.016   1.740
 5873SOL    HW118518   3.028   2.009   1.671
 5873SOL    HW218519   3.063   2.057   1.823
 5874SOL     OW18520   3.122   3.963   6.813
 5874SOL    HW118521   3.207   4.014   6.803
 5874SOL    HW218522   3.098   3.920   6.726
 5875SOL     OW18523   4.489   0.935   6.633
 5875SOL    HW118524   4.427   0.963   6.559
 5875SOL    HW218525   4.574   0.901   6.593
 5876SOL     OW18526   3.410   3.839   0.928
 5876SOL    HW118527   3.349   3.764   0.953
 5876SOL    HW218528   3.489   3.839   0.989
 5877SOL     OW18529   0.244   0.422   1.120
 5877SOL    HW118530   0.282   0.484   1.189
 5877SOL    HW218531   0.308   0.347   1.103
 5878SOL     OW18532   6.074   5.050   4.123
 5878SOL    HW118533   6.072   4.974   4.059
 5878SOL    HW218534   6.107   5.018   4.212
 5879SOL     OW18535   2.058   3.897   6.843
 5879SOL    HW118536   2.145   3.933   6.810
 5879SOL    HW218537   2.072   3.805   6.880
 5880SOL     OW18538   5.598   4.388   6.652
 5880SOL    HW118539   5.510   4.394   6.699
 5880SOL    HW218540   5.635   4.296   6.661
 5881SOL     OW18541   0.800   6.308   2.315
 5881SOL    HW118542   0.819   6.232   2.252
 5881SOL    HW218543   0.863   6.383   2.297
 5882SOL     OW18544   0.143   5.444   6.363
 5882SOL    HW118545   0.060   5.415   6.315
 5882SOL    HW218546   0.117   5.495   6.445
 5883SOL     OW18547   0.740   1.908   6.661
 5883SOL    HW118548   0.764   1.879   6.754
 5883SOL    HW218549   0.640   1.912   6.652
 5884SOL     OW18550   4.601   1.444   4.126
 5884SOL    HW118551   4.602   1.502   4.208
 5884SOL    HW218552   4.631   1.498   4.047
 5885SOL     OW18553   0.219   5.958   2.355
 5885SOL    HW118554   0.200   6.046   2.311
 5885SOL    HW218555   0.185   5.960   2.449
 5886SOL     OW18556   0.368   2.179   3.850
 5886SOL    HW118557   0.366   2.090   3.896
 5886SOL    HW218558   0.399   2.249   3.915
 5887SOL     OW18559   2.274   2.406   1.656
 5887SOL    HW118560   2.363   2.366   1.676
 5887SOL    HW218561   2.287   2.494   1.611
 5888SOL     OW18562   1.695   0.267   1.334
 5888SOL    HW118563   1.792   0.257   1.313
 5888SOL    HW218564   1.680   0.355   1.379
 5889SOL     OW18565   6.803   1.213   0.062
 5889SOL    HW118566   6.760   1.127   0.090
 5889SOL    HW218567   6.839   1.203   6.991
 5890SOL     OW18568   2.089   0.872   2.383
 5890SOL    HW118569   2.025   0.910   2.450
 5890SOL    HW218570   2.177   0.920   2.391
 5891SOL     OW18571   3.430   4.072   6.846
 5891SOL    HW118572   3.516   4.124   6.847
 5891SOL    HW218573   3.414   4.033   6.937
 5892SOL     OW18574   1.084   5.240   1.949
 5892SOL    HW118575   1.143   5.196   1.881
 5892SOL    HW218576   1.104   5.338   1.953
 5893SOL     OW18577   2.307   4.204   2.301
 5893SOL    HW118578   2.299   4.161   2.390
 5893SOL    HW218579   2.291   4.136   2.229
 5894SOL     OW18580   0.471   5.568   4.589
 5894SOL    HW118581   0.431   5.514   4.663
 5894SOL    HW218582   0.499   5.657   4.625
 5895SOL     OW18583   5.180   3.435   3.626
 5895SOL    HW118584   5.176   3.383   3.712
 5895SOL    HW218585   5.260   3.407   3.574
 5896SOL     OW18586   4.169   1.587   1.418
 5896SOL    HW118587   4.100   1.611   1.486
 5896SOL    HW218588   4.124   1.570   1.330
 5897SOL     OW18589   4.211   0.772   1.690
 5897SOL    HW118590   4.253   0.698   1.637
 5897SOL    HW218591   4.277   0.804   1.759
 5898SOL     OW18592   2.622   0.744   4.713
 5898SOL    HW118593   2.639   0.804   4.635
 5898SOL    HW218594   2.684   0.767   4.788
 5899SOL     OW18595   6.064   5.450   6.957
 5899SOL    HW118596   6.077   5.413   0.027
 5899SOL    HW218597   6.149   5.493   6.926
 5900SOL     OW18598   6.726   4.431   3.369
 5900SOL    HW118599   6.689   4.472   3.285
 5900SOL    HW218600   6.691   4.480   3.448
 5901SOL     OW18601   3.388   0.724   0.971
 5901SOL    HW118602   3.297   0.736   1.012
 5901SOL    HW218603   3.458   0.730   1.042
 5902SOL     OW18604   6.135   3.380   5.534
 5902SOL    HW118605   6.098   3.467   5.499
 5902SOL    HW218606   6.098   3.305   5.480
 5903SOL     OW18607   5.046   4.442   5.656
 5903SOL    HW118608   4.978   4.423   5.586
 5903SOL    HW218609   5.050   4.366   5.721
 5904SOL     OW18610   1.153   4.980   0.778
 5904SOL    HW118611   1.196   4.974   0.868
 5904SOL    HW218612   1.184   4.904   0.721
 5905SOL     OW18613   6.610   0.278   3.757
 5905SOL    HW118614   6.540   0.272   3.685
 5905SOL    HW218615   6.606   0.196   3.814
 5906SOL     OW18616   4.372   1.904   3.648
 5906SOL    HW118617   4.330   1.943   3.730
 5906SOL    HW218618   4.302   1.889   3.578
 5907SOL     OW18619   0.767   6.014   0.639
 5907SOL    HW118620   0.817   6.056   0.714
 5907SOL    HW218621   0.797   5.919   0.628
 5908SOL     OW18622   6.334   3.257   0.729
 5908SOL    HW118623   6.236   3.277   0.731
 5908SOL    HW218624   6.375   3.282   0.817
 5909SOL     OW18625   6.466   4.807   6.598
 5909SOL    HW118626   6.502   4.858   6.676
 5909SOL    HW218627   6.532   4.735   6.573
 5910SOL     OW18628   0.485   4.415   2.194
 5910SOL    HW118629   0.415   4.353   2.160
 5910SOL    HW218630   0.467   4.438   2.290
 5911SOL     OW18631   6.352   4.341   6.683
 5911SOL    HW118632   6.319   4.382   6.768
 5911SOL    HW218633   6.306   4.253   6.668
 5912SOL     OW18634   5.903   3.071   6.566
 5912SOL    HW118635   5.945   2.981   6.557
 5912SOL    HW218636   5.872   3.102   6.476
 5913SOL     OW18637   3.480   3.350   6.439
 5913SOL    HW118638   3.407   3.309   6.384
 5913SOL    HW218639   3.568   3.332   6.396
 5914SOL     OW18640   2.545   5.412   6.416
 5914SOL    HW118641   2.523   5.333   6.473
 5914SOL    HW218642   2.619   5.465   6.457
 5915SOL     OW18643   5.447   4.590   1.745
 5915SOL    HW118644   5.508   4.562   1.819
 5915SOL    HW218645   5.443   4.517   1.676
 5916SOL     OW18646   4.178   6.006   5.118
 5916SOL    HW118647   4.213   5.916   5.091
 5916SOL    HW218648   4.190   6.071   5.043
 5917SOL     OW18649   3.395   3.732   3.646
 5917SOL    HW118650   3.407   3.675   3.726
 5917SOL    HW218651   3.455   3.812   3.653
 5918SOL     OW18652   1.829   2.957   5.302
 5918SOL    HW118653   1.837   3.009   5.218
 5918SOL    HW218654   1.910   2.899   5.315
 5919SOL     OW18655   4.510   2.840   0.839
 5919SOL    HW118656   4.471   2.821   0.930
 5919SOL    HW218657   4.528   2.938   0.831
 5920SOL     OW18658   3.519   0.343   0.332
 5920SOL    HW118659   3.525   0.379   0.425
 5920SOL    HW218660   3.491   0.416   0.270
 5921SOL     OW18661   3.661   5.419   5.925
 5921SOL    HW118662   3.639   5.343   5.863
 5921SOL    HW218663   3.657   5.505   5.874
 5922SOL     OW18664   6.690   5.385   3.281
 5922SOL    HW118665   6.632   5.306   3.258
 5922SOL    HW218666   6.653   5.467   3.237
 5923SOL     OW18667   5.631   0.961   0.976
 5923SOL    HW118668   5.548   0.908   0.961
 5923SOL    HW218669   5.687   0.917   1.046
 5924SOL     OW18670   0.178   1.572   3.712
 5924SOL    HW118671   0.161   1.534   3.803
 5924SOL    HW218672   0.123   1.522   3.644
 5925SOL     OW18673   4.033   5.539   2.133
 5925SOL    HW118674   4.072   5.606   2.196
 5925SOL    HW218675   3.977   5.473   2.184
 5926SOL     OW18676   3.787   5.147   1.848
 5926SOL    HW118677   3.846   5.219   1.882
 5926SOL    HW218678   3.691   5.177   1.852
 5927SOL     OW18679   1.673   4.524   3.043
 5927SOL    HW118680   1.643   4.460   3.114
 5927SOL    HW218681   1.708   4.473   2.965
 5928SOL     OW18682   3.361   0.272   0.899
 5928SOL    HW118683   3.427   0.235   0.833
 5928SOL    HW218684   3.270   0.234   0.880
 5929SOL     OW18685   0.996   6.106   6.001
 5929SOL    HW118686   0.919   6.118   6.063
 5929SOL    HW218687   1.032   6.014   6.009
 5930SOL     OW18688   6.721   2.339   3.613
 5930SOL    HW118689   6.638   2.387   3.641
 5930SOL    HW218690   6.753   2.282   3.688
 5931SOL     OW18691   6.765   5.469   3.814
 5931SOL    HW118692   6.766   5.567   3.795
 5931SOL    HW218693   6.815   5.451   3.898
 5932SOL     OW18694   1.870   0.059   0.387
 5932SOL    HW118695   1.927   0.110   0.323
 5932SOL    HW218696   1.857   6.988   0.352
 5933SOL     OW18697   0.335   6.087   3.785
 5933SOL    HW118698   0.390   6.109   3.704
 5933SOL    HW218699   0.385   6.115   3.867
 5934SOL     OW18700   3.969   3.968   4.362
 5934SOL    HW118701   3.871   3.990   4.359
 5934SOL    HW218702   4.014   4.026   4.430
 5935SOL     OW18703   4.454   3.899   5.808
 5935SOL    HW118704   4.413   3.915   5.898
 5935SOL    HW218705   4.386   3.858   5.747
 5936SOL     OW18706   4.159   3.687   0.917
 5936SOL    HW118707   4.192   3.593   0.904
 5936SOL    HW218708   4.062   3.684   0.941
 5937SOL     OW18709   0.752   4.615   2.848
 5937SOL    HW118710   0.696   4.552   2.794
 5937SOL    HW218711   0.752   4.585   2.944
 5938SOL     OW18712   0.942   4.886   4.135
 5938SOL    HW118713   1.005   4.959   4.107
 5938SOL    HW218714   0.892   4.915   4.216
 5939SOL     OW18715   2.949   0.048   3.092
 5939SOL    HW118716   3.014   0.007   3.156
 5939SOL    HW218717   2.872   0.085   3.143
 5940SOL     OW18718   4.310   5.562   1.118
 5940SOL    HW118719   4.292   5.661   1.114
 5940SOL    HW218720   4.285   5.527   1.208
 5941SOL     OW18721   5.890   3.378   1.713
 5941SOL    HW118722   5.889   3.459   1.655
 5941SOL    HW218723   5.837   3.396   1.796
 5942SOL     OW18724   5.397   2.914   0.182
 5942SOL    HW118725   5.491   2.916   0.148
 5942SOL    HW218726   5.334   2.896   0.106
 5943SOL     OW18727   3.956   5.365   0.026
 5943SOL    HW118728   3.895   5.327   6.978
 5943SOL    HW218729   3.986   5.292   0.087
 5944SOL     OW18730   6.344   2.488   1.305
 5944SOL    HW118731   6.251   2.501   1.340
 5944SOL    HW218732   6.383   2.576   1.281
 5945SOL     OW18733   6.284   5.240   5.070
 5945SOL    HW118734   6.272   5.323   5.124
 5945SOL    HW218735   6.281   5.262   4.972
 5946SOL     OW18736   3.039   3.452   5.577
 5946SOL    HW118737   3.073   3.388   5.508
 5946SOL    HW218738   3.104   3.528   5.587
 5947SOL     OW18739   3.869   3.654   2.110
 5947SOL    HW118740   3.969   3.661   2.121
 5947SOL    HW218741   3.833   3.590   2.177
 5948SOL     OW18742   4.350   5.421   2.572
 5948SOL    HW118743   4.301   5.356   2.631
 5948SOL    HW218744   4.287   5.492   2.541
 5949SOL     OW18745   4.519   3.424   1.569
 5949SOL    HW118746   4.617   3.434   1.586
 5949SOL    HW218747   4.505   3.391   1.475
 5950SOL     OW18748   4.776   2.723   5.692
 5950SOL    HW118749   4.835   2.790   5.646
 5950SOL    HW218750   4.693   2.709   5.637
 5951SOL     OW18751   0.202   5.635   4.664
 5951SOL    HW118752   0.149   5.629   4.749
 5951SOL    HW218753   0.272   5.705   4.674
 5952SOL     OW18754   5.445   4.715   4.083
 5952SOL    HW118755   5.512   4.751   4.148
 5952SOL    HW218756   5.355   4.755   4.103
 5953SOL     OW18757   6.150   2.594   5.112
 5953SOL    HW118758   6.101   2.549   5.037
 5953SOL    HW218759   6.236   2.632   5.078
 5954SOL     OW18760   0.362   4.412   5.694
 5954SOL    HW118761   0.363   4.341   5.764
 5954SOL    HW218762   0.425   4.485   5.721
 5955SOL     OW18763   5.227   5.735   2.609
 5955SOL    HW118764   5.178   5.754   2.524
 5955SOL    HW218765   5.264   5.820   2.647
 5956SOL     OW18766   3.669   1.083   5.766
 5956SOL    HW118767   3.720   1.130   5.838
 5956SOL    HW218768   3.722   1.006   5.732
 5957SOL     OW18769   4.311   0.778   5.444
 5957SOL    HW118770   4.308   0.876   5.466
 5957SOL    HW218771   4.244   0.730   5.501
 5958SOL     OW18772   6.237   6.109   2.772
 5958SOL    HW118773   6.273   6.086   2.682
 5958SOL    HW218774   6.192   6.029   2.811
 5959SOL     OW18775   4.012   2.134   5.522
 5959SOL    HW118776   3.936   2.072   5.543
 5959SOL    HW218777   4.088   2.116   5.584
 5960SOL     OW18778   3.895   5.372   4.193
 5960SOL    HW118779   3.836   5.450   4.214
 5960SOL    HW218780   3.841   5.301   4.149
 5961SOL     OW18781   5.156   1.102   3.331
 5961SOL    HW118782   5.078   1.042   3.311
 5961SOL    HW218783   5.237   1.068   3.283
 5962SOL     OW18784   4.956   6.115   1.088
 5962SOL    HW118785   5.002   6.199   1.117
 5962SOL    HW218786   4.873   6.102   1.142
 5963SOL     OW18787   3.551   3.233   4.848
 5963SOL    HW118788   3.571   3.300   4.920
 5963SOL    HW218789   3.497   3.158   4.886
 5964SOL     OW18790   0.142   5.229   5.542
 5964SOL    HW118791   0.141   5.179   5.628
 5964SOL    HW218792   0.143   5.165   5.466
 5965SOL     OW18793   1.106   2.299   0.055
 5965SOL    HW118794   1.006   2.304   0.066
 5965SOL    HW218795   1.149   2.295   0.146
 5966SOL     OW18796   2.155   5.733   5.263
 5966SOL    HW118797   2.223   5.686   5.207
 5966SOL    HW218798   2.167   5.832   5.254
 5967SOL     OW18799   4.188   6.396   0.285
 5967SOL    HW118800   4.091   6.379   0.267
 5967SOL    HW218801   4.243   6.335   0.228
 5968SOL     OW18802   4.998   0.872   1.322
 5968SOL    HW118803   4.912   0.864   1.372
 5968SOL    HW218804   5.071   0.901   1.384
 5969SOL     OW18805   0.212   0.674   7.010
 5969SOL    HW118806   0.308   0.684   0.015
 5969SOL    HW218807   0.155   0.660   0.069
 5970SOL     OW18808   0.688   4.226   2.726
 5970SOL    HW118809   0.608   4.168   2.713
 5970SOL    HW218810   0.762   4.172   2.765
 5971SOL     OW18811   1.015   1.120   2.465
 5971SOL    HW118812   0.943   1.097   2.399
 5971SOL    HW218813   1.030   1.043   2.527
 5972SOL     OW18814   5.230   6.386   6.437
 5972SOL    HW118815   5.217   6.448   6.514
 5972SOL    HW218816   5.318   6.340   6.445
 5973SOL     OW18817   2.102   3.396   2.512
 5973SOL    HW118818   2.025   3.340   2.541
 5973SOL    HW218819   2.139   3.362   2.425
 5974SOL     OW18820   5.765   4.581   6.538
 5974SOL    HW118821   5.786   4.532   6.454
 5974SOL    HW218822   5.692   4.533   6.587
 5975SOL     OW18823   3.461   1.862   0.804
 5975SOL    HW118824   3.520   1.789   0.840
 5975SOL    HW218825   3.507   1.907   0.728
 5976SOL     OW18826   2.879   3.306   5.000
 5976SOL    HW118827   2.829   3.258   4.928
 5976SOL    HW218828   2.905   3.397   4.968
 5977SOL     OW18829   2.816   5.544   0.629
 5977SOL    HW118830   2.862   5.469   0.676
 5977SOL    HW218831   2.723   5.516   0.605
 5978SOL     OW18832   5.290   5.612   3.385
 5978SOL    HW118833   5.279   5.515   3.366
 5978SOL    HW218834   5.388   5.633   3.392
 5979SOL     OW18835   6.282   0.159   2.625
 5979SOL    HW118836   6.303   0.099   2.548
 5979SOL    HW218837   6.336   0.130   2.705
 5980SOL     OW18838   3.544   3.354   0.462
 5980SOL    HW118839   3.597   3.306   0.392
 5980SOL    HW218840   3.523   3.291   0.537
 5981SOL     OW18841   6.298   1.418   1.687
 5981SOL    HW118842   6.378   1.371   1.652
 5981SOL    HW218843   6.234   1.437   1.612
 5982SOL     OW18844   6.400   2.759   1.203
 5982SOL    HW118845   6.382   2.790   1.109
 5982SOL    HW218846   6.497   2.739   1.213
 5983SOL     OW18847   1.903   0.947   4.489
 5983SOL    HW118848   1.950   1.031   4.517
 5983SOL    HW218849   1.847   0.914   4.565
 5984SOL     OW18850   6.298   6.341   4.998
 5984SOL    HW118851   6.277   6.379   4.908
 5984SOL    HW218852   6.352   6.408   5.050
 5985SOL     OW18853   6.796   2.879   4.302
 5985SOL    HW118854   6.844   2.940   4.366
 5985SOL    HW218855   6.806   2.785   4.333
 5986SOL     OW18856   3.379   3.397   4.403
 5986SOL    HW118857   3.457   3.365   4.349
 5986SOL    HW218858   3.409   3.426   4.493
 5987SOL     OW18859   4.247   0.182   4.862
 5987SOL    HW118860   4.323   0.246   4.851
 5987SOL    HW218861   4.268   0.097   4.814
 5988SOL     OW18862   5.296   6.748   5.205
 5988SOL    HW118863   5.250   6.712   5.124
 5988SOL    HW218864   5.340   6.673   5.254
 5989SOL     OW18865   2.659   5.855   0.139
 5989SOL    HW118866   2.673   5.758   0.158
 5989SOL    HW218867   2.585   5.866   0.073
 5990SOL     OW18868   4.140   4.675   0.587
 5990SOL    HW118869   4.139   4.775   0.585
 5990SOL    HW218870   4.131   4.640   0.494
 5991SOL     OW18871   3.683   5.807   6.133
 5991SOL    HW118872   3.623   5.746   6.184
 5991SOL    HW218873   3.686   5.896   6.178
 5992SOL     OW18874   3.430   0.342   3.094
 5992SOL    HW118875   3.507   0.382   3.142
 5992SOL    HW218876   3.390   0.269   3.149
 5993SOL     OW18877   2.975   5.824   5.898
 5993SOL    HW118878   3.070   5.796   5.909
 5993SOL    HW218879   2.956   5.902   5.958
 5994SOL     OW18880   6.856   2.578   2.382
 5994SOL    HW118881   6.903   2.532   2.457
 5994SOL    HW218882   6.837   2.673   2.407
 5995SOL     OW18883   5.841   5.000   2.716
 5995SOL    HW118884   5.764   5.060   2.692
 5995SOL    HW218885   5.821   4.951   2.801
 5996SOL     OW18886   1.179   6.218   0.401
 5996SOL    HW118887   1.254   6.189   0.342
 5996SOL    HW218888   1.138   6.137   0.444
 5997SOL     OW18889   0.738   5.630   2.711
 5997SOL    HW118890   0.728   5.533   2.691
 5997SOL    HW218891   0.671   5.657   2.781
 5998SOL     OW18892   6.378   2.252   2.319
 5998SOL    HW118893   6.334   2.212   2.239
 5998SOL    HW218894   6.309   2.297   2.377
 5999SOL     OW18895   1.592   1.606   2.354
 5999SOL    HW118896   1.679   1.579   2.313
 5999SOL    HW218897   1.539   1.525   2.379
 6000SOL     OW18898   4.077   6.755   1.350
 6000SOL    HW118899   4.167   6.778   1.314
 6000SOL    HW218900   4.008   6.764   1.278
 6001SOL     OW18901   0.559   3.948   6.634
 6001SOL    HW118902   0.637   3.889   6.654
 6001SOL    HW218903   0.476   3.909   6.673
 6002SOL     OW18904   6.488   0.260   1.152
 6002SOL    HW118905   6.403   0.239   1.200
 6002SOL    HW218906   6.531   0.175   1.122
 6003SOL     OW18907   0.322   2.159   4.128
 6003SOL    HW118908   0.270   2.244   4.122
 6003SOL    HW218909   0.260   2.081   4.128
 6004SOL     OW18910   0.318   4.602   3.646
 6004SOL    HW118911   0.281   4.512   3.623
 6004SOL    HW218912   0.290   4.668   3.577
 6005SOL     OW18913   4.970   5.193   4.669
 6005SOL    HW118914   4.905   5.155   4.602
 6005SOL    HW218915   5.058   5.147   4.659
 6006SOL     OW18916   2.693   0.523   6.881
 6006SOL    HW118917   2.615   0.488   6.829
 6006SOL    HW218918   2.695   0.623   6.877
 6007SOL     OW18919   4.998   3.567   5.242
 6007SOL    HW118920   5.064   3.499   5.209
 6007SOL    HW218921   4.925   3.578   5.174
 6008SOL     OW18922   1.816   5.074   5.144
 6008SOL    HW118923   1.779   5.069   5.051
 6008SOL    HW218924   1.783   4.996   5.197
 6009SOL     OW18925   3.638   0.958   4.021
 6009SOL    HW118926   3.560   0.919   4.071
 6009SOL    HW218927   3.723   0.915   4.052
 6010SOL     OW18928   1.594   4.203   3.571
 6010SOL    HW118929   1.683   4.175   3.535
 6010SOL    HW218930   1.597   4.300   3.594
 6011SOL     OW18931   5.242   2.799   3.327
 6011SOL    HW118932   5.209   2.745   3.249
 6011SOL    HW218933   5.166   2.852   3.365
 6012SOL     OW18934   5.288   0.966   6.962
 6012SOL    HW118935   5.290   1.049   7.016
 6012SOL    HW218936   5.276   0.887   0.001
 6013SOL     OW18937   5.729   2.662   2.975
 6013SOL    HW118938   5.821   2.682   2.941
 6013SOL    HW218939   5.668   2.738   2.952
 6014SOL     OW18940   4.163   3.256   1.083
 6014SOL    HW118941   4.231   3.183   1.098
 6014SOL    HW218942   4.155   3.311   1.166
 6015SOL     OW18943   6.060   2.292   4.669
 6015SOL    HW118944   5.963   2.267   4.677
 6015SOL    HW218945   6.114   2.210   4.652
 6016SOL     OW18946   6.701   1.452   5.961
 6016SOL    HW118947   6.729   1.451   5.865
 6016SOL    HW218948   6.747   1.528   6.008
 6017SOL     OW18949   0.277   4.220   2.886
 6017SOL    HW118950   0.257   4.135   2.935
 6017SOL    HW218951   0.191   4.262   2.855
 6018SOL     OW18952   2.686   0.773   6.428
 6018SOL    HW118953   2.749   0.700   6.453
 6018SOL    HW218954   2.617   0.784   6.499
 6019SOL     OW18955   6.515   1.671   3.979
 6019SOL    HW118956   6.534   1.754   3.927
 6019SOL    HW218957   6.451   1.613   3.927
 6020SOL     OW18958   2.147   5.473   1.356
 6020SOL    HW118959   2.231   5.520   1.383
 6020SOL    HW218960   2.099   5.442   1.438
 6021SOL     OW18961   4.253   0.773   2.514
 6021SOL    HW118962   4.310   0.726   2.446
 6021SOL    HW218963   4.282   0.868   2.522
 6022SOL     OW18964   4.817   2.000   3.714
 6022SOL    HW118965   4.902   1.974   3.668
 6022SOL    HW218966   4.787   1.925   3.773
 6023SOL     OW18967   6.206   0.952   1.832
 6023SOL    HW118968   6.165   0.959   1.740
 6023SOL    HW218969   6.242   0.860   1.845
 6024SOL     OW18970   0.603   5.188   3.028
 6024SOL    HW118971   0.510   5.162   3.002
 6024SOL    HW218972   0.602   5.229   3.119
 6025SOL     OW18973   3.506   1.688   2.889
 6025SOL    HW118974   3.428   1.627   2.874
 6025SOL    HW218975   3.581   1.638   2.931
 6026SOL     OW18976   6.727   3.961   4.894
 6026SOL    HW118977   6.752   3.865   4.881
 6026SOL    HW218978   6.628   3.970   4.894
 6027SOL     OW18979   1.457   4.023   6.358
 6027SOL    HW118980   1.451   3.935   6.405
 6027SOL    HW218981   1.368   4.047   6.320
 6028SOL     OW18982   0.884   4.323   0.207
 6028SOL    HW118983   0.941   4.398   0.174
 6028SOL    HW218984   0.788   4.347   0.196
 6029SOL     OW18985   2.479   6.397   4.779
 6029SOL    HW118986   2.491   6.341   4.697
 6029SOL    HW218987   2.567   6.408   4.825
 6030SOL     OW18988   4.247   6.206   2.611
 6030SOL    HW118989   4.157   6.211   2.569
 6030SOL    HW218990   4.250   6.129   2.675
 6031SOL     OW18991   3.604   5.193   2.826
 6031SOL    HW118992   3.614   5.094   2.813
 6031SOL    HW218993   3.511   5.213   2.856
 6032SOL     OW18994   2.446   4.352   2.885
 6032SOL    HW118995   2.403   4.441   2.904
 6032SOL    HW218996   2.539   4.352   2.920
 6033SOL     OW18997   2.667   1.532   2.465
 6033SOL    HW118998   2.733   1.491   2.528
 6033SOL    HW218999   2.643   1.465   2.394
 6034SOL     OW19000   0.626   5.398   4.195
 6034SOL    HW119001   0.677   5.364   4.275
 6034SOL    HW219002   0.528   5.401   4.218
 6035SOL     OW19003   6.772   0.388   2.733
 6035SOL    HW119004   6.848   0.346   2.683
 6035SOL    HW219005   6.807   0.444   2.807
 6036SOL     OW19006   5.978   6.091   4.507
 6036SOL    HW119007   5.989   6.092   4.408
 6036SOL    HW219008   5.898   6.036   4.531
 6037SOL     OW19009   4.483   4.920   6.259
 6037SOL    HW119010   4.450   5.010   6.233
 6037SOL    HW219011   4.569   4.929   6.309
 6038SOL     OW19012   1.286   2.857   6.130
 6038SOL    HW119013   1.351   2.808   6.187
 6038SOL    HW219014   1.320   2.862   6.036
 6039SOL     OW19015   3.194   3.081   2.648
 6039SOL    HW119016   3.219   2.999   2.596
 6039SOL    HW219017   3.115   3.124   2.606
 6040SOL     OW19018   0.465   2.370   6.248
 6040SOL    HW119019   0.462   2.278   6.287
 6040SOL    HW219020   0.507   2.433   6.312
 6041SOL     OW19021   2.135   0.477   4.905
 6041SOL    HW119022   2.190   0.476   4.822
 6041SOL    HW219023   2.065   0.548   4.899
 6042SOL     OW19024   5.307   6.026   2.391
 6042SOL    HW119025   5.341   5.932   2.395
 6042SOL    HW219026   5.213   6.026   2.358
 6043SOL     OW19027   0.796   4.844   5.759
 6043SOL    HW119028   0.810   4.904   5.680
 6043SOL    HW219029   0.870   4.777   5.763
 6044SOL     OW19030   1.520   1.970   1.296
 6044SOL    HW119031   1.447   1.925   1.243
 6044SOL    HW219032   1.540   1.916   1.378
 6045SOL     OW19033   6.599   5.076   1.347
 6045SOL    HW119034   6.523   5.065   1.411
 6045SOL    HW219035   6.657   4.994   1.352
 6046SOL     OW19036   3.401   1.697   6.827
 6046SOL    HW119037   3.413   1.781   6.880
 6046SOL    HW219038   3.346   1.716   6.746
 6047SOL     OW19039   6.017   2.416   2.125
 6047SOL    HW119040   5.938   2.453   2.174
 6047SOL    HW219041   6.034   2.322   2.155
 6048SOL     OW19042   4.630   5.936   4.112
 6048SOL    HW119043   4.716   5.971   4.150
 6048SOL    HW219044   4.566   5.919   4.186
 6049SOL     OW19045   5.784   3.007   5.858
 6049SOL    HW119046   5.806   2.993   5.761
 6049SOL    HW219047   5.761   3.103   5.873
 6050SOL     OW19048   3.135   5.126   4.556
 6050SOL    HW119049   3.186   5.191   4.611
 6050SOL    HW219050   3.123   5.162   4.463
 6051SOL     OW19051   2.688   1.758   4.449
 6051SOL    HW119052   2.612   1.693   4.447
 6051SOL    HW219053   2.755   1.733   4.379
 6052SOL     OW19054   6.107   0.038   0.866
 6052SOL    HW119055   6.073   6.996   0.935
 6052SOL    HW219056   6.192   0.002   0.826
 6053SOL     OW19057   3.308   0.954   6.565
 6053SOL    HW119058   3.284   0.873   6.512
 6053SOL    HW219059   3.238   1.025   6.552
 6054SOL     OW19060   2.935   3.855   0.294
 6054SOL    HW119061   3.032   3.833   0.287
 6054SOL    HW219062   2.918   3.906   0.379
 6055SOL     OW19063   4.820   1.294   5.394
 6055SOL    HW119064   4.885   1.360   5.432
 6055SOL    HW219065   4.780   1.240   5.469
 6056SOL     OW19066   5.094   3.027   4.532
 6056SOL    HW119067   5.059   3.100   4.591
 6056SOL    HW219068   5.185   3.052   4.498
 6057SOL     OW19069   5.041   2.776   4.448
 6057SOL    HW119070   5.051   2.873   4.469
 6057SOL    HW219071   4.998   2.729   4.526
 6058SOL     OW19072   4.985   2.380   1.794
 6058SOL    HW119073   4.915   2.322   1.835
 6058SOL    HW219074   4.997   2.354   1.698
 6059SOL     OW19075   5.079   4.911   4.812
 6059SOL    HW119076   5.175   4.929   4.794
 6059SOL    HW219077   5.055   4.947   4.902
 6060SOL     OW19078   3.425   4.153   6.114
 6060SOL    HW119079   3.342   4.098   6.129
 6060SOL    HW219080   3.478   4.113   6.040
 6061SOL     OW19081   4.007   2.049   1.622
 6061SOL    HW119082   3.993   2.097   1.709
 6061SOL    HW219083   4.021   1.952   1.640
 6062SOL     OW19084   2.132   1.689   4.794
 6062SOL    HW119085   2.091   1.643   4.715
 6062SOL    HW219086   2.155   1.783   4.769
 6063SOL     OW19087   3.632   1.344   6.562
 6063SOL    HW119088   3.580   1.425   6.536
 6063SOL    HW219089   3.573   1.279   6.610
 6064SOL     OW19090   2.496   6.202   1.030
 6064SOL    HW119091   2.595   6.209   1.036
 6064SOL    HW219092   2.472   6.128   0.967
 6065SOL     OW19093   5.494   6.892   2.371
 6065SOL    HW119094   5.560   6.963   2.346
 6065SOL    HW219095   5.403   6.918   2.339
 6066SOL     OW19096   4.652   1.999   6.565
 6066SOL    HW119097   4.668   2.028   6.470
 6066SOL    HW219098   4.583   1.927   6.567
 6067SOL     OW19099   5.549   1.528   5.992
 6067SOL    HW119100   5.577   1.528   5.896
 6067SOL    HW219101   5.538   1.434   6.024
 6068SOL     OW19102   5.488   2.867   4.812
 6068SOL    HW119103   5.431   2.949   4.806
 6068SOL    HW219104   5.584   2.893   4.805
 6069SOL     OW19105   6.815   3.037   4.893
 6069SOL    HW119106   6.806   3.127   4.850
 6069SOL    HW219107   6.912   3.021   4.915
 6070SOL     OW19108   2.092   2.552   0.423
 6070SOL    HW119109   2.017   2.614   0.399
 6070SOL    HW219110   2.173   2.606   0.448
 6071SOL     OW19111   5.834   5.032   4.684
 6071SOL    HW119112   5.841   5.097   4.760
 6071SOL    HW219113   5.819   4.940   4.720
 6072SOL     OW19114   0.185   6.592   1.654
 6072SOL    HW119115   0.130   6.669   1.686
 6072SOL    HW219116   0.241   6.558   1.730
 6073SOL     OW19117   6.552   4.155   0.669
 6073SOL    HW119118   6.470   4.117   0.628
 6073SOL    HW219119   6.540   4.253   0.684
 6074SOL     OW19120   1.211   6.161   4.350
 6074SOL    HW119121   1.300   6.171   4.306
 6074SOL    HW219122   1.192   6.242   4.405
 6075SOL     OW19123   0.018   2.116   6.787
 6075SOL    HW119124   0.011   2.114   6.886
 6075SOL    HW219125   6.950   2.137   6.748
 6076SOL     OW19126   1.870   6.283   4.280
 6076SOL    HW119127   1.865   6.273   4.379
 6076SOL    HW219128   1.797   6.345   4.250
 6077SOL     OW19129   5.084   5.824   1.810
 6077SOL    HW119130   5.117   5.749   1.752
 6077SOL    HW219131   5.040   5.787   1.891
 6078SOL     OW19132   3.764   5.240   1.058
 6078SOL    HW119133   3.818   5.189   1.125
 6078SOL    HW219134   3.720   5.318   1.103
 6079SOL     OW19135   3.183   2.836   6.328
 6079SOL    HW119136   3.271   2.823   6.283
 6079SOL    HW219137   3.162   2.934   6.331
 6080SOL     OW19138   0.183   0.597   1.676
 6080SOL    HW119139   0.177   0.647   1.763
 6080SOL    HW219140   0.139   0.650   1.604
 6081SOL     OW19141   6.154   3.087   4.548
 6081SOL    HW119142   6.239   3.039   4.526
 6081SOL    HW219143   6.162   3.129   4.639
 6082SOL     OW19144   2.353   1.881   3.520
 6082SOL    HW119145   2.387   1.796   3.479
 6082SOL    HW219146   2.413   1.908   3.595
 6083SOL     OW19147   0.222   4.883   0.011
 6083SOL    HW119148   0.277   4.803   7.010
 6083SOL    HW219149   0.283   4.961   0.028
 6084SOL     OW19150   0.077   5.472   3.703
 6084SOL    HW119151   0.065   5.474   3.803
 6084SOL    HW219152   0.000   5.519   3.660
 6085SOL     OW19153   0.523   4.069   0.185
 6085SOL    HW119154   0.548   4.165   0.196
 6085SOL    HW219155   0.582   4.011   0.242
 6086SOL     OW19156   3.223   1.428   5.581
 6086SOL    HW119157   3.288   1.372   5.633
 6086SOL    HW219158   3.272   1.505   5.540
 6087SOL     OW19159   4.495   5.897   0.395
 6087SOL    HW119160   4.573   5.863   0.341
 6087SOL    HW219161   4.421   5.830   0.391
 6088SOL     OW19162   5.925   6.426   4.624
 6088SOL    HW119163   5.937   6.334   4.663
 6088SOL    HW219164   5.836   6.431   4.578
 6089SOL     OW19165   6.468   3.288   1.498
 6089SOL    HW119166   6.383   3.332   1.467
 6089SOL    HW219167   6.478   3.200   1.453
 6090SOL     OW19168   2.373   6.259   5.272
 6090SOL    HW119169   2.464   6.240   5.234
 6090SOL    HW219170   2.323   6.173   5.286
 6091SOL     OW19171   1.937   1.719   2.168
 6091SOL    HW119172   1.879   1.762   2.237
 6091SOL    HW219173   2.032   1.745   2.184
 6092SOL     OW19174   3.507   0.066   3.462
 6092SOL    HW119175   3.591   0.033   3.505
 6092SOL    HW219176   3.476   0.150   3.506
 6093SOL     OW19177   1.752   3.473   2.468
 6093SOL    HW119178   1.677   3.476   2.402
 6093SOL    HW219179   1.749   3.386   2.518
 6094SOL     OW19180   3.875   0.833   1.271
 6094SOL    HW119181   3.863   0.883   1.185
 6094SOL    HW219182   3.803   0.859   1.335
 6095SOL     OW19183   3.966   3.654   6.479
 6095SOL    HW119184   4.020   3.582   6.435
 6095SOL    HW219185   3.880   3.666   6.430
 6096SOL     OW19186   5.905   0.739   3.861
 6096SOL    HW119187   5.838   0.758   3.789
 6096SOL    HW219188   5.858   0.729   3.949
 6097SOL     OW19189   1.849   0.269   2.333
 6097SOL    HW119190   1.836   0.350   2.277
 6097SOL    HW219191   1.764   0.216   2.337
 6098SOL     OW19192   1.346   2.798   6.543
 6098SOL    HW119193   1.316   2.708   6.513
 6098SOL    HW219194   1.425   2.827   6.488
 6099SOL     OW19195   0.037   5.938   0.417
 6099SOL    HW119196   7.009   6.006   0.362
 6099SOL    HW219197   0.130   5.970   0.433
 6100SOL     OW19198   4.958   3.555   0.100
 6100SOL    HW119199   4.933   3.634   0.045
 6100SOL    HW219200   5.046   3.519   0.069
 6101SOL     OW19201   6.090   2.012   4.694
 6101SOL    HW119202   6.041   1.938   4.647
 6101SOL    HW219203   6.188   1.992   4.695
 6102SOL     OW19204   3.447   6.677   3.256
 6102SOL    HW119205   3.450   6.754   3.320
 6102SOL    HW219206   3.471   6.593   3.304
 6103SOL     OW19207   0.718   2.302   2.551
 6103SOL    HW119208   0.655   2.226   2.565
 6103SOL    HW219209   0.678   2.368   2.487
 6104SOL     OW19210   5.814   1.240   5.344
 6104SOL    HW119211   5.903   1.202   5.368
 6104SOL    HW219212   5.752   1.232   5.423
 6105SOL     OW19213   1.505   0.764   5.361
 6105SOL    HW119214   1.563   0.694   5.320
 6105SOL    HW219215   1.536   0.854   5.331
 6106SOL     OW19216   1.508   4.013   5.548
 6106SOL    HW119217   1.550   3.963   5.623
 6106SOL    HW219218   1.580   4.057   5.493
 6107SOL     OW19219   2.660   4.672   4.351
 6107SOL    HW119220   2.599   4.599   4.322
 6107SOL    HW219221   2.682   4.661   4.448
 6108SOL     OW19222   0.927   2.509   1.898
 6108SOL    HW119223   0.828   2.498   1.898
 6108SOL    HW219224   0.970   2.423   1.924
 6109SOL     OW19225   4.852   3.101   6.374
 6109SOL    HW119226   4.759   3.131   6.393
 6109SOL    HW219227   4.854   3.002   6.364
 6110SOL     OW19228   3.763   3.015   6.981
 6110SOL    HW119229   3.702   3.030   6.903
 6110SOL    HW219230   3.728   2.939   0.015
 6111SOL     OW19231   2.429   4.411   2.192
 6111SOL    HW119232   2.449   4.390   2.096
 6111SOL    HW219233   2.357   4.349   2.226
 6112SOL     OW19234   3.332   0.148   3.281
 6112SOL    HW119235   3.258   0.085   3.258
 6112SOL    HW219236   3.391   0.106   3.351
 6113SOL     OW19237   1.392   0.912   6.085
 6113SOL    HW119238   1.343   0.921   6.172
 6113SOL    HW219239   1.487   0.885   6.103
 6114SOL     OW19240   4.733   5.091   0.906
 6114SOL    HW119241   4.736   5.076   1.005
 6114SOL    HW219242   4.671   5.167   0.886
 6115SOL     OW19243   4.869   7.016   3.653
 6115SOL    HW119244   4.885   6.918   3.659
 6115SOL    HW219245   4.785   0.018   3.703
 6116SOL     OW19246   2.867   0.586   0.420
 6116SOL    HW119247   2.882   0.680   0.390
 6116SOL    HW219248   2.824   0.534   0.346
 6117SOL     OW19249   6.986   0.618   5.792
 6117SOL    HW119250   6.933   0.685   5.740
 6117SOL    HW219251   7.002   0.537   5.735
 6118SOL     OW19252   6.223   0.615   1.732
 6118SOL    HW119253   6.165   0.534   1.730
 6118SOL    HW219254   6.216   0.659   1.822
 6119SOL     OW19255   0.619   3.597   5.295
 6119SOL    HW119256   0.570   3.666   5.348
 6119SOL    HW219257   0.627   3.513   5.349
 6120SOL     OW19258   4.316   6.805   4.306
 6120SOL    HW119259   4.347   6.752   4.384
 6120SOL    HW219260   4.373   6.784   4.226
 6121SOL     OW19261   0.810   3.374   5.114
 6121SOL    HW119262   0.885   3.430   5.078
 6121SOL    HW219263   0.827   3.353   5.210
 6122SOL     OW19264   3.806   7.017   1.498
 6122SOL    HW119265   3.844   6.933   1.535
 6122SOL    HW219266   3.860   0.073   1.530
 6123SOL     OW19267   6.499   0.507   6.647
 6123SOL    HW119268   6.418   0.531   6.593
 6123SOL    HW219269   6.477   0.431   6.708
 6124SOL     OW19270   2.169   1.318   6.724
 6124SOL    HW119271   2.108   1.397   6.724
 6124SOL    HW219272   2.115   1.234   6.719
 6125SOL     OW19273   2.209   5.900   0.269
 6125SOL    HW119274   2.162   5.855   0.193
 6125SOL    HW219275   2.158   5.982   0.297
 6126SOL     OW19276   6.953   6.726   4.365
 6126SOL    HW119277   6.872   6.727   4.307
 6126SOL    HW219278   0.009   6.760   4.313
 6127SOL     OW19279   3.067   0.172   2.283
 6127SOL    HW119280   3.109   0.171   2.192
 6127SOL    HW219281   3.138   0.186   2.352
 6128SOL     OW19282   6.339   3.576   0.800
 6128SOL    HW119283   6.386   3.604   0.716
 6128SOL    HW219284   6.392   3.505   0.845
 6129SOL     OW19285   6.674   3.390   2.764
 6129SOL    HW119286   6.763   3.346   2.752
 6129SOL    HW219287   6.661   3.413   2.860
 6130SOL     OW19288   6.531   2.090   4.053
 6130SOL    HW119289   6.520   2.036   3.970
 6130SOL    HW219290   6.629   2.109   4.067
 6131SOL     OW19291   0.260   1.903   5.270
 6131SOL    HW119292   0.202   1.878   5.347
 6131SOL    HW219293   0.293   1.997   5.283
 6132SOL     OW19294   4.846   1.357   0.386
 6132SOL    HW119295   4.878   1.371   0.480
 6132SOL    HW219296   4.764   1.300   0.387
 6133SOL     OW19297   0.984   2.344   2.480
 6133SOL    HW119298   1.002   2.356   2.382
 6133SOL    HW219299   0.890   2.314   2.493
 6134SOL     OW19300   3.852   4.301   6.531
 6134SOL    HW119301   3.818   4.277   6.440
 6134SOL    HW219302   3.944   4.341   6.524
 6135SOL     OW19303   0.479   0.074   1.877
 6135SOL    HW119304   0.512   0.158   1.835
 6135SOL    HW219305   0.550   0.004   1.870
 6136SOL     OW19306   1.033   2.694   2.048
 6136SOL    HW119307   1.011   2.633   1.971
 6136SOL    HW219308   0.964   2.765   2.055
 6137SOL     OW19309   5.393   2.126   3.901
 6137SOL    HW119310   5.401   2.225   3.892
 6137SOL    HW219311   5.482   2.089   3.928
 6138SOL     OW19312   4.572   6.407   1.855
 6138SOL    HW119313   4.531   6.493   1.886
 6138SOL    HW219314   4.595   6.414   1.758
 6139SOL     OW19315   2.192   1.917   5.488
 6139SOL    HW119316   2.093   1.901   5.490
 6139SOL    HW219317   2.237   1.855   5.552
 6140SOL     OW19318   0.494   6.183   1.557
 6140SOL    HW119319   0.425   6.139   1.614
 6140SOL    HW219320   0.460   6.272   1.526
 6141SOL     OW19321   5.947   5.394   6.488
 6141SOL    HW119322   5.881   5.450   6.438
 6141SOL    HW219323   5.942   5.300   6.454
 6142SOL     OW19324   0.129   5.122   0.934
 6142SOL    HW119325   0.041   5.141   0.979
 6142SOL    HW219326   0.148   5.024   0.937
 6143SOL     OW19327   6.230   4.614   0.441
 6143SOL    HW119328   6.314   4.643   0.395
 6143SOL    HW219329   6.155   4.608   0.374
 6144SOL     OW19330   6.469   4.748   3.096
 6144SOL    HW119331   6.371   4.735   3.082
 6144SOL    HW219332   6.483   4.823   3.161
 6145SOL     OW19333   4.549   5.208   3.850
 6145SOL    HW119334   4.611   5.286   3.852
 6145SOL    HW219335   4.542   5.169   3.942
 6146SOL     OW19336   3.608   0.442   3.554
 6146SOL    HW119337   3.580   0.531   3.590
 6146SOL    HW219338   3.541   0.372   3.579
 6147SOL     OW19339   1.558   3.800   4.515
 6147SOL    HW119340   1.556   3.844   4.425
 6147SOL    HW219341   1.651   3.770   4.535
 6148SOL     OW19342   0.094   0.046   4.927
 6148SOL    HW119343   0.163   0.106   4.888
 6148SOL    HW219344   0.005   0.091   4.924
 6149SOL     OW19345   3.467   5.145   1.540
 6149SOL    HW119346   3.444   5.077   1.611
 6149SOL    HW219347   3.432   5.234   1.568
 6150SOL     OW19348   4.087   4.840   6.653
 6150SOL    HW119349   4.180   4.805   6.664
 6150SOL    HW219350   4.031   4.772   6.606
 6151SOL     OW19351   6.025   3.910   5.597
 6151SOL    HW119352   5.959   3.936   5.668
 6151SOL    HW219353   6.047   3.989   5.541
 6152SOL     OW19354   5.854   5.784   5.233
 6152SOL    HW119355   5.830   5.782   5.136
 6152SOL    HW219356   5.954   5.777   5.243
 6153SOL     OW19357   4.809   3.978   1.958
 6153SOL    HW119358   4.847   3.907   1.899
 6153SOL    HW219359   4.753   3.937   2.029
 6154SOL     OW19360   5.641   1.504   2.838
 6154SOL    HW119361   5.703   1.577   2.866
 6154SOL    HW219362   5.553   1.542   2.812
 6155SOL     OW19363   1.690   2.377   4.695
 6155SOL    HW119364   1.744   2.395   4.777
 6155SOL    HW219365   1.706   2.449   4.628
 6156SOL     OW19366   4.578   4.897   1.984
 6156SOL    HW119367   4.579   4.866   1.889
 6156SOL    HW219368   4.491   4.943   2.003
 6157SOL     OW19369   1.082   1.325   4.479
 6157SOL    HW119370   1.025   1.250   4.443
 6157SOL    HW219371   1.147   1.288   4.545
 6158SOL     OW19372   4.656   0.766   5.782
 6158SOL    HW119373   4.641   0.698   5.711
 6158SOL    HW219374   4.682   0.720   5.867
 6159SOL     OW19375   4.909   1.949   1.517
 6159SOL    HW119376   4.942   1.996   1.599
 6159SOL    HW219377   4.976   1.960   1.444
 6160SOL     OW19378   4.494   6.843   6.229
 6160SOL    HW119379   4.563   6.801   6.288
 6160SOL    HW219380   4.535   6.915   6.174
 6161SOL     OW19381   5.638   1.174   4.833
 6161SOL    HW119382   5.580   1.095   4.811
 6161SOL    HW219383   5.688   1.156   4.918
 6162SOL     OW19384   1.257   6.349   3.585
 6162SOL    HW119385   1.291   6.311   3.500
 6162SOL    HW219386   1.329   6.346   3.655
 6163SOL     OW19387   5.627   6.065   1.576
 6163SOL    HW119388   5.720   6.070   1.540
 6163SOL    HW219389   5.618   6.127   1.653
 6164SOL     OW19390   2.927   2.661   1.722
 6164SOL    HW119391   2.922   2.645   1.624
 6164SOL    HW219392   2.942   2.574   1.770
 6165SOL     OW19393   4.750   0.220   6.490
 6165SOL    HW119394   4.780   0.266   6.406
 6165SOL    HW219395   4.735   0.288   6.562
 6166SOL     OW19396   4.313   1.086   6.488
 6166SOL    HW119397   4.237   1.152   6.487
 6166SOL    HW219398   4.372   1.102   6.409
 6167SOL     OW19399   0.940   3.732   3.395
 6167SOL    HW119400   0.997   3.808   3.426
 6167SOL    HW219401   0.936   3.662   3.467
 6168SOL     OW19402   0.861   3.631   0.934
 6168SOL    HW119403   0.912   3.626   0.848
 6168SOL    HW219404   0.847   3.538   0.970
 6169SOL     OW19405   1.796   2.936   1.443
 6169SOL    HW119406   1.834   3.001   1.509
 6169SOL    HW219407   1.786   2.846   1.487
 6170SOL     OW19408   1.223   3.631   5.477
 6170SOL    HW119409   1.192   3.600   5.387
 6170SOL    HW219410   1.209   3.730   5.484
 6171SOL     OW19411   0.078   2.476   0.288
 6171SOL    HW119412   0.174   2.456   0.271
 6171SOL    HW219413   0.039   2.521   0.207
 6172SOL     OW19414   1.717   3.132   2.298
 6172SOL    HW119415   1.808   3.091   2.305
 6172SOL    HW219416   1.653   3.067   2.257
 6173SOL     OW19417   6.727   5.034   2.617
 6173SOL    HW119418   6.730   5.002   2.712
 6173SOL    HW219419   6.816   5.072   2.593
 6174SOL     OW19420   5.476   5.952   4.144
 6174SOL    HW119421   5.502   6.024   4.080
 6174SOL    HW219422   5.401   5.898   4.106
 6175SOL     OW19423   3.891   0.807   4.072
 6175SOL    HW119424   3.898   0.707   4.067
 6175SOL    HW219425   3.888   0.845   3.979
 6176SOL     OW19426   5.462   4.588   5.697
 6176SOL    HW119427   5.533   4.658   5.686
 6176SOL    HW219428   5.387   4.607   5.634
 6177SOL     OW19429   5.494   1.746   1.888
 6177SOL    HW119430   5.557   1.675   1.858
 6177SOL    HW219431   5.511   1.830   1.836
 6178SOL     OW19432   5.398   5.090   1.969
 6178SOL    HW119433   5.466   5.019   1.947
 6178SOL    HW219434   5.396   5.104   2.067
 6179SOL     OW19435   6.934   4.412   3.203
 6179SOL    HW119436   6.977   4.322   3.210
 6179SOL    HW219437   6.883   4.431   3.286
 6180SOL     OW19438   2.448   4.966   1.180
 6180SOL    HW119439   2.417   4.916   1.100
 6180SOL    HW219440   2.371   5.014   1.221
 6181SOL     OW19441   4.722   6.265   5.947
 6181SOL    HW119442   4.820   6.248   5.946
 6181SOL    HW219443   4.678   6.211   5.875
 6182SOL     OW19444   4.264   2.974   5.876
 6182SOL    HW119445   4.283   2.883   5.839
 6182SOL    HW219446   4.189   3.016   5.825
 6183SOL     OW19447   1.732   2.169   3.561
 6183SOL    HW119448   1.824   2.172   3.600
 6183SOL    HW219449   1.721   2.244   3.496
 6184SOL     OW19450   2.884   6.417   6.500
 6184SOL    HW119451   2.908   6.512   6.520
 6184SOL    HW219452   2.857   6.409   6.405
 6185SOL     OW19453   0.044   3.794   6.645
 6185SOL    HW119454   0.023   3.888   6.672
 6185SOL    HW219455   6.992   3.734   6.673
 6186SOL     OW19456   6.238   1.390   0.383
 6186SOL    HW119457   6.233   1.445   0.466
 6186SOL    HW219458   6.312   1.423   0.325
 6187SOL     OW19459   5.188   3.417   4.200
 6187SOL    HW119460   5.231   3.456   4.281
 6187SOL    HW219461   5.144   3.331   4.223
 6188SOL     OW19462   1.603   1.381   6.163
 6188SOL    HW119463   1.598   1.339   6.254
 6188SOL    HW219464   1.692   1.424   6.151
 6189SOL     OW19465   4.201   5.257   2.721
 6189SOL    HW119466   4.120   5.281   2.775
 6189SOL    HW219467   4.188   5.169   2.677
 6190SOL     OW19468   0.106   4.052   4.798
 6190SOL    HW119469   0.189   4.101   4.827
 6190SOL    HW219470   0.124   3.954   4.797
 6191SOL     OW19471   2.813   2.642   6.599
 6191SOL    HW119472   2.742   2.575   6.579
 6191SOL    HW219473   2.890   2.597   6.644
 6192SOL     OW19474   2.486   1.810   6.516
 6192SOL    HW119475   2.419   1.883   6.504
 6192SOL    HW219476   2.502   1.795   6.613
 6193SOL     OW19477   4.809   6.020   1.319
 6193SOL    HW119478   4.751   6.013   1.401
 6193SOL    HW219479   4.816   5.931   1.275
 6194SOL     OW19480   0.018   0.425   6.444
 6194SOL    HW119481   7.017   0.328   6.435
 6194SOL    HW219482   6.958   0.476   6.471
 6195SOL     OW19483   4.735   5.392   4.430
 6195SOL    HW119484   4.803   5.351   4.369
 6195SOL    HW219485   4.752   5.490   4.437
 6196SOL     OW19486   5.046   4.141   2.019
 6196SOL    HW119487   4.967   4.083   1.999
 6196SOL    HW219488   5.120   4.119   1.956
 6197SOL     OW19489   2.425   5.970   1.431
 6197SOL    HW119490   2.522   5.971   1.455
 6197SOL    HW219491   2.415   5.943   1.336
 6198SOL     OW19492   4.542   0.262   1.042
 6198SOL    HW119493   4.486   0.248   1.124
 6198SOL    HW219494   4.605   0.185   1.031
 6199SOL     OW19495   0.354   1.049   0.275
 6199SOL    HW119496   0.395   1.140   0.278
 6199SOL    HW219497   0.315   1.032   0.185
 6200SOL     OW19498   0.679   1.479   5.585
 6200SOL    HW119499   0.584   1.457   5.604
 6200SOL    HW219500   0.691   1.498   5.488
 6201SOL     OW19501   0.749   3.279   5.717
 6201SOL    HW119502   0.704   3.355   5.670
 6201SOL    HW219503   0.762   3.303   5.813
 6202SOL     OW19504   5.225   1.150   2.046
 6202SOL    HW119505   5.200   1.175   2.139
 6202SOL    HW219506   5.287   1.072   2.048
 6203SOL     OW19507   6.085   6.046   2.017
 6203SOL    HW119508   6.095   5.966   1.957
 6203SOL    HW219509   6.132   6.028   2.103
 6204SOL     OW19510   0.933   5.948   4.671
 6204SOL    HW119511   1.023   5.986   4.694
 6204SOL    HW219512   0.932   5.850   4.693
 6205SOL     OW19513   6.391   5.021   1.500
 6205SOL    HW119514   6.351   4.996   1.588
 6205SOL    HW219515   6.326   5.077   1.449
 6206SOL     OW19516   5.965   1.473   2.125
 6206SOL    HW119517   6.029   1.412   2.078
 6206SOL    HW219518   6.000   1.493   2.217
 6207SOL     OW19519   2.350   6.003   5.459
 6207SOL    HW119520   2.304   5.995   5.371
 6207SOL    HW219521   2.438   5.954   5.456
 6208SOL     OW19522   3.758   2.444   5.446
 6208SOL    HW119523   3.812   2.412   5.524
 6208SOL    HW219524   3.663   2.413   5.455
 6209SOL     OW19525   3.020   5.703   6.737
 6209SOL    HW119526   3.101   5.731   6.686
 6209SOL    HW219527   2.964   5.783   6.759
 6210SOL     OW19528   4.828   3.879   2.786
 6210SOL    HW119529   4.847   3.833   2.873
 6210SOL    HW219530   4.858   3.821   2.710
 6211SOL     OW19531   2.673   6.634   5.529
 6211SOL    HW119532   2.760   6.681   5.540
 6211SOL    HW219533   2.671   6.553   5.588
 6212SOL     OW19534   2.732   4.673   4.611
 6212SOL    HW119535   2.726   4.590   4.667
 6212SOL    HW219536   2.754   4.751   4.669
 6213SOL     OW19537   4.827   6.737   6.990
 6213SOL    HW119538   4.909   6.699   0.010
 6213SOL    HW219539   4.746   6.687   0.000
 6214SOL     OW19540   5.514   5.789   5.546
 6214SOL    HW119541   5.576   5.815   5.620
 6214SOL    HW219542   5.447   5.722   5.580
 6215SOL     OW19543   3.517   3.000   6.737
 6215SOL    HW119544   3.520   2.939   6.658
 6215SOL    HW219545   3.546   3.092   6.710
 6216SOL     OW19546   6.256   2.437   2.504
 6216SOL    HW119547   6.316   2.516   2.521
 6216SOL    HW219548   6.161   2.465   2.514
 6217SOL     OW19549   0.848   4.275   3.029
 6217SOL    HW119550   0.838   4.216   3.109
 6217SOL    HW219551   0.913   4.234   2.965
 6218SOL     OW19552   3.615   6.980   6.896
 6218SOL    HW119553   3.672   6.979   6.814
 6218SOL    HW219554   3.640   6.904   6.956
 6219SOL     OW19555   0.983   1.116   4.784
 6219SOL    HW119556   1.036   1.072   4.712
 6219SOL    HW219557   1.041   1.134   4.863
 6220SOL     OW19558   3.000   1.349   5.455
 6220SOL    HW119559   3.080   1.389   5.501
 6220SOL    HW219560   2.938   1.311   5.524
 6221SOL     OW19561   6.011   0.445   0.085
 6221SOL    HW119562   6.088   0.381   0.088
 6221SOL    HW219563   6.041   0.532   0.047
 6222SOL     OW19564   0.845   0.530   2.384
 6222SOL    HW119565   0.900   0.565   2.308
 6222SOL    HW219566   0.759   0.492   2.348
 6223SOL     OW19567   1.349   5.219   2.915
 6223SOL    HW119568   1.299   5.152   2.861
 6223SOL    HW219569   1.316   5.218   3.009
 6224SOL     OW19570   3.932   0.945   5.954
 6224SOL    HW119571   4.004   0.973   6.017
 6224SOL    HW219572   3.962   0.962   5.860
 6225SOL     OW19573   3.536   2.656   6.923
 6225SOL    HW119574   3.493   2.744   6.940
 6225SOL    HW219575   3.499   2.616   6.839
 6226SOL     OW19576   1.270   1.622   4.207
 6226SOL    HW119577   1.340   1.691   4.218
 6226SOL    HW219578   1.211   1.620   4.288
 6227SOL     OW19579   3.581   5.293   5.507
 6227SOL    HW119580   3.652   5.274   5.440
 6227SOL    HW219581   3.499   5.241   5.484
 6228SOL     OW19582   1.070   2.700   2.325
 6228SOL    HW119583   1.082   2.689   2.226
 6228SOL    HW219584   0.972   2.706   2.345
 6229SOL     OW19585   0.960   3.049   5.160
 6229SOL    HW119586   0.947   3.013   5.068
 6229SOL    HW219587   0.943   2.977   5.227
 6230SOL     OW19588   0.948   2.224   3.478
 6230SOL    HW119589   0.892   2.176   3.411
 6230SOL    HW219590   1.042   2.189   3.475
 6231SOL     OW19591   5.601   4.858   0.298
 6231SOL    HW119592   5.596   4.812   0.386
 6231SOL    HW219593   5.694   4.891   0.283
 6232SOL     OW19594   6.240   1.582   0.036
 6232SOL    HW119595   6.304   1.563   6.984
 6232SOL    HW219596   6.290   1.587   0.123
 6233SOL     OW19597   5.865   2.536   1.743
 6233SOL    HW119598   5.840   2.528   1.647
 6233SOL    HW219599   5.890   2.446   1.778
 6234SOL     OW19600   0.125   0.053   5.737
 6234SOL    HW119601   0.048   0.072   5.797
 6234SOL    HW219602   0.100   7.002   5.672
 6235SOL     OW19603   0.349   0.405   1.526
 6235SOL    HW119604   0.261   0.363   1.502
 6235SOL    HW219605   0.335   0.473   1.597
 6236SOL     OW19606   0.390   4.327   0.887
 6236SOL    HW119607   0.407   4.284   0.976
 6236SOL    HW219608   0.316   4.279   0.840
 6237SOL     OW19609   3.725   0.180   0.216
 6237SOL    HW119610   3.641   0.219   0.254
 6237SOL    HW219611   3.721   0.080   0.221
 6238SOL     OW19612   4.672   6.481   2.831
 6238SOL    HW119613   4.627   6.530   2.905
 6238SOL    HW219614   4.754   6.435   2.866
 6239SOL     OW19615   3.765   1.006   1.081
 6239SOL    HW119616   3.786   1.103   1.066
 6239SOL    HW219617   3.673   0.986   1.047
 6240SOL     OW19618   3.158   3.712   5.502
 6240SOL    HW119619   3.174   3.754   5.591
 6240SOL    HW219620   3.231   3.738   5.439
 6241SOL     OW19621   3.729   0.656   3.314
 6241SOL    HW119622   3.717   0.627   3.219
 6241SOL    HW219623   3.791   0.593   3.360
 6242SOL     OW19624   3.766   0.156   3.231
 6242SOL    HW119625   3.845   0.101   3.258
 6242SOL    HW219626   3.697   0.096   3.189
 6243SOL     OW19627   0.081   0.095   6.104
 6243SOL    HW119628   0.051   7.022   6.092
 6243SOL    HW219629   0.006   0.156   6.079
 6244SOL     OW19630   5.398   3.596   3.442
 6244SOL    HW119631   5.387   3.501   3.412
 6244SOL    HW219632   5.493   3.611   3.470
 6245SOL     OW19633   1.590   4.224   1.877
 6245SOL    HW119634   1.659   4.256   1.942
 6245SOL    HW219635   1.622   4.241   1.783
 6246SOL     OW19636   1.116   1.157   5.010
 6246SOL    HW119637   1.196   1.210   5.038
 6246SOL    HW219638   1.134   1.060   5.024
 6247SOL     OW19639   1.816   6.369   3.542
 6247SOL    HW119640   1.747   6.398   3.608
 6247SOL    HW219641   1.774   6.308   3.475
 6248SOL     OW19642   3.502   3.778   0.192
 6248SOL    HW119643   3.453   3.729   0.264
 6248SOL    HW219644   3.595   3.743   0.185
 6249SOL     OW19645   6.950   2.836   0.874
 6249SOL    HW119646   6.860   2.794   0.863
 6249SOL    HW219647   6.964   2.904   0.801
 6250SOL     OW19648   6.560   6.776   0.846
 6250SOL    HW119649   6.638   6.793   0.785
 6250SOL    HW219650   6.487   6.840   0.825
 6251SOL     OW19651   4.078   6.010   4.711
 6251SOL    HW119652   3.981   5.996   4.729
 6251SOL    HW219653   4.118   6.067   4.782
 6252SOL     OW19654   2.580   4.416   6.765
 6252SOL    HW119655   2.652   4.368   6.714
 6252SOL    HW219656   2.567   4.372   6.853
 6253SOL     OW19657   2.637   5.024   4.453
 6253SOL    HW119658   2.636   5.094   4.381
 6253SOL    HW219659   2.550   4.974   4.451
 6254SOL     OW19660   6.555   0.305   0.866
 6254SOL    HW119661   6.490   0.321   0.940
 6254SOL    HW219662   6.554   0.208   0.841
 6255SOL     OW19663   2.517   1.466   0.901
 6255SOL    HW119664   2.546   1.503   0.812
 6255SOL    HW219665   2.419   1.481   0.913
 6256SOL     OW19666   4.230   5.247   2.376
 6256SOL    HW119667   4.143   5.296   2.372
 6256SOL    HW219668   4.284   5.282   2.452
 6257SOL     OW19669   4.288   2.975   0.484
 6257SOL    HW119670   4.303   2.886   0.526
 6257SOL    HW219671   4.189   2.991   0.473
 6258SOL     OW19672   3.194   6.643   4.604
 6258SOL    HW119673   3.224   6.716   4.543
 6258SOL    HW219674   3.275   6.598   4.643
 6259SOL     OW19675   2.088   0.864   6.281
 6259SOL    HW119676   2.119   0.824   6.195
 6259SOL    HW219677   2.071   0.791   6.347
 6260SOL     OW19678   3.700   6.965   0.338
 6260SOL    HW119679   3.685   6.870   0.309
 6260SOL    HW219680   3.798   6.982   0.346
 6261SOL     OW19681   4.755   6.935   0.597
 6261SOL    HW119682   4.826   6.997   0.629
 6261SOL    HW219683   4.681   6.931   0.665
 6262SOL     OW19684   1.563   6.025   2.065
 6262SOL    HW119685   1.509   5.968   2.127
 6262SOL    HW219686   1.654   6.039   2.103
 6263SOL     OW19687   0.824   6.558   5.358
 6263SOL    HW119688   0.802   6.577   5.262
 6263SOL    HW219689   0.760   6.608   5.417
 6264SOL     OW19690   2.055   0.347   1.737
 6264SOL    HW119691   2.113   0.266   1.748
 6264SOL    HW219692   2.110   0.429   1.753
 6265SOL     OW19693   4.614   3.377   0.464
 6265SOL    HW119694   4.569   3.290   0.441
 6265SOL    HW219695   4.675   3.404   0.390
 6266SOL     OW19696   4.552   6.598   3.105
 6266SOL    HW119697   4.597   6.675   3.150
 6266SOL    HW219698   4.477   6.631   3.048
 6267SOL     OW19699   2.058   6.907   4.950
 6267SOL    HW119700   2.157   6.915   4.959
 6267SOL    HW219701   2.016   6.909   5.042
 6268SOL     OW19702   3.102   0.659   1.846
 6268SOL    HW119703   3.136   0.732   1.904
 6268SOL    HW219704   3.149   0.573   1.868
 6269SOL     OW19705   5.997   0.084   2.314
 6269SOL    HW119706   6.012   0.153   2.385
 6269SOL    HW219707   6.038   0.114   2.229
 6270SOL     OW19708   0.331   7.017   0.003
 6270SOL    HW119709   0.240   7.001   0.042
 6270SOL    HW219710   0.335   6.978   6.933
 6271SOL     OW19711   6.246   2.566   5.742
 6271SOL    HW119712   6.180   2.521   5.682
 6271SOL    HW219713   6.310   2.497   5.778
 6272SOL     OW19714   0.633   1.767   0.132
 6272SOL    HW119715   0.665   1.772   0.227
 6272SOL    HW219716   0.599   1.674   0.114
 6273SOL     OW19717   0.075   5.591   2.684
 6273SOL    HW119718   0.028   5.504   2.671
 6273SOL    HW219719   0.157   5.577   2.739
 6274SOL     OW19720   3.020   0.099   4.462
 6274SOL    HW119721   3.082   0.153   4.405
 6274SOL    HW219722   2.991   0.017   4.412
 6275SOL     OW19723   1.850   6.031   0.469
 6275SOL    HW119724   1.877   5.941   0.434
 6275SOL    HW219725   1.928   6.072   0.518
 6276SOL     OW19726   2.939   5.575   3.571
 6276SOL    HW119727   2.906   5.518   3.646
 6276SOL    HW219728   2.917   5.531   3.484
 6277SOL     OW19729   4.773   2.168   0.969
 6277SOL    HW119730   4.771   2.189   1.067
 6277SOL    HW219731   4.680   2.171   0.932
 6278SOL     OW19732   3.723   0.625   5.106
 6278SOL    HW119733   3.816   0.624   5.142
 6278SOL    HW219734   3.705   0.539   5.058
 6279SOL     OW19735   3.994   6.047   0.664
 6279SOL    HW119736   3.965   6.136   0.627
 6279SOL    HW219737   4.083   6.023   0.625
 6280SOL     OW19738   0.378   1.508   6.544
 6280SOL    HW119739   0.282   1.478   6.537
 6280SOL    HW219740   0.389   1.565   6.624
 6281SOL     OW19741   6.650   4.753   4.242
 6281SOL    HW119742   6.642   4.707   4.330
 6281SOL    HW219743   6.690   4.690   4.175
 6282SOL     OW19744   5.842   3.176   4.681
 6282SOL    HW119745   5.930   3.224   4.675
 6282SOL    HW219746   5.769   3.236   4.650
 6283SOL     OW19747   0.840   4.133   4.339
 6283SOL    HW119748   0.750   4.102   4.307
 6283SOL    HW219749   0.901   4.142   4.261
 6284SOL     OW19750   1.291   5.523   6.716
 6284SOL    HW119751   1.343   5.542   6.632
 6284SOL    HW219752   1.341   5.559   6.795
 6285SOL     OW19753   0.996   3.164   2.999
 6285SOL    HW119754   1.012   3.174   3.097
 6285SOL    HW219755   1.058   3.095   2.962
 6286SOL     OW19756   0.659   3.434   4.582
 6286SOL    HW119757   0.643   3.396   4.491
 6286SOL    HW219758   0.738   3.494   4.580
 6287SOL     OW19759   3.354   5.125   5.128
 6287SOL    HW119760   3.393   5.110   5.219
 6287SOL    HW219761   3.296   5.047   5.103
 6288SOL     OW19762   5.316   4.902   1.333
 6288SOL    HW119763   5.224   4.870   1.309
 6288SOL    HW219764   5.310   4.988   1.383
 6289SOL     OW19765   2.253   4.717   6.634
 6289SOL    HW119766   2.262   4.815   6.616
 6289SOL    HW219767   2.331   4.685   6.687
 6290SOL     OW19768   6.226   5.524   6.171
 6290SOL    HW119769   6.179   5.538   6.084
 6290SOL    HW219770   6.219   5.428   6.198
 6291SOL     OW19771   3.374   3.681   3.374
 6291SOL    HW119772   3.371   3.686   3.473
 6291SOL    HW219773   3.395   3.587   3.346
 6292SOL     OW19774   2.732   2.118   5.386
 6292SOL    HW119775   2.734   2.170   5.301
 6292SOL    HW219776   2.687   2.030   5.371
 6293SOL     OW19777   4.517   1.882   0.904
 6293SOL    HW119778   4.499   1.784   0.897
 6293SOL    HW219779   4.441   1.933   0.862
 6294SOL     OW19780   4.285   0.117   3.683
 6294SOL    HW119781   4.202   0.089   3.635
 6294SOL    HW219782   4.289   0.217   3.689
 6295SOL     OW19783   5.349   4.914   4.722
 6295SOL    HW119784   5.400   4.897   4.806
 6295SOL    HW219785   5.412   4.920   4.645
 6296SOL     OW19786   0.181   4.307   5.268
 6296SOL    HW119787   0.091   4.342   5.291
 6296SOL    HW219788   0.244   4.322   5.344
 6297SOL     OW19789   6.300   0.406   5.233
 6297SOL    HW119790   6.209   0.366   5.245
 6297SOL    HW219791   6.311   0.482   5.297
 6298SOL     OW19792   0.094   3.848   6.331
 6298SOL    HW119793   0.069   3.755   6.358
 6298SOL    HW219794   0.100   3.854   6.231
 6299SOL     OW19795   5.673   2.718   1.825
 6299SOL    HW119796   5.742   2.646   1.825
 6299SOL    HW219797   5.699   2.789   1.760
 6300SOL     OW19798   6.178   0.786   6.748
 6300SOL    HW119799   6.114   0.766   6.674
 6300SOL    HW219800   6.216   0.877   6.735
 6301SOL     OW19801   3.104   6.033   6.540
 6301SOL    HW119802   3.161   6.102   6.585
 6301SOL    HW219803   3.007   6.057   6.553
 6302SOL     OW19804   2.046   1.592   5.315
 6302SOL    HW119805   1.997   1.628   5.395
 6302SOL    HW219806   2.141   1.575   5.340
 6303SOL     OW19807   0.347   6.298   6.171
 6303SOL    HW119808   0.249   6.284   6.180
 6303SOL    HW219809   0.379   6.360   6.242
 6304SOL     OW19810   3.303   1.463   3.228
 6304SOL    HW119811   3.308   1.456   3.327
 6304SOL    HW219812   3.290   1.558   3.202
 6305SOL     OW19813   5.802   6.056   0.627
 6305SOL    HW119814   5.832   6.150   0.644
 6305SOL    HW219815   5.849   6.020   0.546
 6306SOL     OW19816   0.406   3.807   4.082
 6306SOL    HW119817   0.357   3.758   4.009
 6306SOL    HW219818   0.504   3.793   4.071
 6307SOL     OW19819   3.301   3.027   3.981
 6307SOL    HW119820   3.295   3.028   4.081
 6307SOL    HW219821   3.395   3.048   3.953
 6308SOL     OW19822   1.170   2.086   5.727
 6308SOL    HW119823   1.108   2.062   5.653
 6308SOL    HW219824   1.241   2.148   5.693
 6309SOL     OW19825   0.298   0.002   4.238
 6309SOL    HW119826   0.254   0.025   4.325
 6309SOL    HW219827   0.346   0.082   4.203
 6310SOL     OW19828   2.108   6.615   2.508
 6310SOL    HW119829   2.090   6.663   2.422
 6310SOL    HW219830   2.024   6.607   2.561
 6311SOL     OW19831   5.061   1.885   6.104
 6311SOL    HW119832   4.977   1.847   6.142
 6311SOL    HW219833   5.118   1.812   6.068
 6312SOL     OW19834   0.662   6.449   6.004
 6312SOL    HW119835   0.653   6.350   6.012
 6312SOL    HW219836   0.605   6.494   6.072
 6313SOL     OW19837   6.117   6.782   2.820
 6313SOL    HW119838   6.027   6.764   2.780
 6313SOL    HW219839   6.110   6.781   2.920
 6314SOL     OW19840   3.145   6.803   2.193
 6314SOL    HW119841   3.155   6.899   2.169
 6314SOL    HW219842   3.058   6.789   2.240
 6315SOL     OW19843   3.077   1.958   4.739
 6315SOL    HW119844   3.005   2.027   4.734
 6315SOL    HW219845   3.037   1.867   4.744
 6316SOL     OW19846   4.377   2.057   5.407
 6316SOL    HW119847   4.327   2.105   5.479
 6316SOL    HW219848   4.465   2.102   5.392
 6317SOL     OW19849   4.843   3.766   2.440
 6317SOL    HW119850   4.815   3.858   2.467
 6317SOL    HW219851   4.895   3.770   2.355
 6318SOL     OW19852   4.570   0.066   6.112
 6318SOL    HW119853   4.502   0.137   6.096
 6318SOL    HW219854   4.661   0.103   6.093
 6319SOL     OW19855   6.667   2.018   5.253
 6319SOL    HW119856   6.604   2.048   5.324
 6319SOL    HW219857   6.686   2.094   5.191
 6320SOL     OW19858   0.021   6.559   4.925
 6320SOL    HW119859   0.060   6.641   4.883
 6320SOL    HW219860   0.042   6.559   5.023
 6321SOL     OW19861   5.208   3.112   0.260
 6321SOL    HW119862   5.256   3.024   0.266
 6321SOL    HW219863   5.146   3.111   0.182
 6322SOL     OW19864   2.867   2.890   0.486
 6322SOL    HW119865   2.940   2.877   0.554
 6322SOL    HW219866   2.790   2.938   0.528
 6323SOL     OW19867   1.412   2.194   1.526
 6323SOL    HW119868   1.458   2.142   1.454
 6323SOL    HW219869   1.321   2.222   1.494
 6324SOL     OW19870   4.320   1.479   0.267
 6324SOL    HW119871   4.317   1.478   0.367
 6324SOL    HW219872   4.412   1.454   0.237
 6325SOL     OW19873   1.921   3.408   2.923
 6325SOL    HW119874   1.983   3.381   2.997
 6325SOL    HW219875   1.867   3.487   2.952
 6326SOL     OW19876   5.975   5.161   6.987
 6326SOL    HW119877   5.986   5.215   6.903
 6326SOL    HW219878   6.065   5.134   7.021
 6327SOL     OW19879   0.097   1.895   3.848
 6327SOL    HW119880   0.069   1.948   3.768
 6327SOL    HW219881   0.192   1.865   3.837
 6328SOL     OW19882   4.328   3.472   6.771
 6328SOL    HW119883   4.324   3.428   6.681
 6328SOL    HW219884   4.251   3.536   6.781
 6329SOL     OW19885   1.397   2.864   5.209
 6329SOL    HW119886   1.323   2.923   5.242
 6329SOL    HW219887   1.409   2.878   5.111
 6330SOL     OW19888   5.958   6.905   1.621
 6330SOL    HW119889   6.036   6.948   1.576
 6330SOL    HW219890   5.885   6.972   1.634
 6331SOL     OW19891   6.712   3.653   4.883
 6331SOL    HW119892   6.682   3.600   4.804
 6331SOL    HW219893   6.634   3.667   4.945
 6332SOL     OW19894   0.989   2.908   1.109
 6332SOL    HW119895   0.974   2.860   1.195
 6332SOL    HW219896   1.015   3.003   1.128
 6333SOL     OW19897   4.480   0.208   5.471
 6333SOL    HW119898   4.418   0.196   5.548
 6333SOL    HW219899   4.543   0.130   5.467
 6334SOL     OW19900   3.033   1.364   2.260
 6334SOL    HW119901   3.114   1.309   2.239
 6334SOL    HW219902   3.050   1.459   2.233
 6335SOL     OW19903   4.173   0.632   0.181
 6335SOL    HW119904   4.244   0.625   0.110
 6335SOL    HW219905   4.086   0.655   0.139
 6336SOL     OW19906   0.349   2.864   6.490
 6336SOL    HW119907   0.358   2.829   6.397
 6336SOL    HW219908   0.297   2.949   6.489
 6337SOL     OW19909   4.153   5.348   4.799
 6337SOL    HW119910   4.230   5.340   4.735
 6337SOL    HW219911   4.160   5.433   4.850
 6338SOL     OW19912   2.807   2.372   4.326
 6338SOL    HW119913   2.805   2.419   4.414
 6338SOL    HW219914   2.799   2.273   4.341
 6339SOL     OW19915   0.876   3.463   4.077
 6339SOL    HW119916   0.969   3.452   4.113
 6339SOL    HW219917   0.829   3.374   4.079
 6340SOL     OW19918   2.370   4.167   1.481
 6340SOL    HW119919   2.271   4.173   1.472
 6340SOL    HW219920   2.409   4.130   1.397
 6341SOL     OW19921   6.733   3.764   4.546
 6341SOL    HW119922   6.717   3.792   4.452
 6341SOL    HW219923   6.831   3.758   4.564
 6342SOL     OW19924   3.239   1.435   0.802
 6342SOL    HW119925   3.240   1.480   0.891
 6342SOL    HW219926   3.253   1.503   0.730
 6343SOL     OW19927   3.899   0.305   0.017
 6343SOL    HW119928   3.993   0.272   0.023
 6343SOL    HW219929   3.841   0.254   0.080
 6344SOL     OW19930   5.678   1.883   4.506
 6344SOL    HW119931   5.645   1.951   4.571
 6344SOL    HW219932   5.698   1.927   4.419
 6345SOL     OW19933   4.696   3.063   1.622
 6345SOL    HW119934   4.698   2.963   1.620
 6345SOL    HW219935   4.636   3.093   1.696
 6346SOL     OW19936   0.062   5.359   4.579
 6346SOL    HW119937   0.041   5.454   4.603
 6346SOL    HW219938   0.160   5.348   4.565
 6347SOL     OW19939   1.862   1.241   1.356
 6347SOL    HW119940   1.783   1.264   1.413
 6347SOL    HW219941   1.901   1.154   1.385
 6348SOL     OW19942   1.177   3.260   6.058
 6348SOL    HW119943   1.147   3.344   6.103
 6348SOL    HW219944   1.116   3.239   5.982
 6349SOL     OW19945   1.861   0.771   0.773
 6349SOL    HW119946   1.777   0.811   0.811
 6349SOL    HW219947   1.934   0.839   0.777
 6350SOL     OW19948   0.587   4.901   3.947
 6350SOL    HW119949   0.667   4.843   3.961
 6350SOL    HW219950   0.512   4.845   3.910
 6351SOL     OW19951   6.480   3.796   3.316
 6351SOL    HW119952   6.515   3.855   3.390
 6351SOL    HW219953   6.543   3.720   3.302
 6352SOL     OW19954   2.345   0.226   4.882
 6352SOL    HW119955   2.312   0.256   4.792
 6352SOL    HW219956   2.395   0.301   4.925
 6353SOL     OW19957   1.758   6.225   6.907
 6353SOL    HW119958   1.724   6.150   6.850
 6353SOL    HW219959   1.853   6.207   6.933
 6354SOL     OW19960   3.484   5.998   2.883
 6354SOL    HW119961   3.428   6.058   2.940
 6354SOL    HW219962   3.556   6.052   2.839
 6355SOL     OW19963   2.820   5.535   0.127
 6355SOL    HW119964   2.856   5.506   0.038
 6355SOL    HW219965   2.891   5.582   0.179
 6356SOL     OW19966   5.508   4.760   0.519
 6356SOL    HW119967   5.411   4.784   0.517
 6356SOL    HW219968   5.535   4.739   0.613
 6357SOL     OW19969   6.469   3.085   2.368
 6357SOL    HW119970   6.507   3.011   2.313
 6357SOL    HW219971   6.389   3.051   2.419
 6358SOL     OW19972   0.161   1.862   6.333
 6358SOL    HW119973   0.114   1.775   6.349
 6358SOL    HW219974   0.229   1.877   6.405
 6359SOL     OW19975   6.336   6.546   0.655
 6359SOL    HW119976   6.414   6.499   0.696
 6359SOL    HW219977   6.253   6.521   0.705
 6360SOL     OW19978   1.061   3.476   4.412
 6360SOL    HW119979   1.099   3.485   4.320
 6360SOL    HW219980   1.126   3.512   4.479
 6361SOL     OW19981   1.129   0.848   1.088
 6361SOL    HW119982   1.191   0.863   1.165
 6361SOL    HW219983   1.153   0.908   1.012
 6362SOL     OW19984   1.125   6.066   6.400
 6362SOL    HW119985   1.154   6.006   6.476
 6362SOL    HW219986   1.199   6.071   6.333
 6363SOL     OW19987   2.963   5.426   4.254
 6363SOL    HW119988   2.962   5.513   4.303
 6363SOL    HW219989   2.879   5.416   4.201
 6364SOL     OW19990   2.971   2.691   5.735
 6364SOL    HW119991   2.936   2.707   5.827
 6364SOL    HW219992   2.925   2.753   5.671
 6365SOL     OW19993   5.562   6.526   4.262
 6365SOL    HW119994   5.632   6.588   4.227
 6365SOL    HW219995   5.543   6.456   4.193
 6366SOL     OW19996   0.555   5.809   5.402
 6366SOL    HW119997   0.501   5.739   5.356
 6366SOL    HW219998   0.562   5.788   5.499
 6367SOL     OW19999   3.282   2.073   2.984
 6367SOL    HW120000   3.277   2.099   2.887
 6367SOL    HW220001   3.227   2.135   3.038
 6368SOL     OW20002   4.294   4.664   4.452
 6368SOL    HW120003   4.284   4.699   4.545
 6368SOL    HW220004   4.232   4.713   4.391
 6369SOL     OW20005   1.745   0.498   4.338
 6369SOL    HW120006   1.675   0.557   4.297
 6369SOL    HW220007   1.720   0.478   4.433
 6370SOL     OW20008   5.160   4.250   3.507
 6370SOL    HW120009   5.222   4.187   3.553
 6370SOL    HW220010   5.173   4.245   3.408
 6371SOL     OW20011   5.485   4.198   2.292
 6371SOL    HW120012   5.395   4.156   2.279
 6371SOL    HW220013   5.474   4.290   2.329
 6372SOL     OW20014   1.156   1.386   2.458
 6372SOL    HW120015   1.209   1.316   2.411
 6372SOL    HW220016   1.058   1.368   2.446
 6373SOL     OW20017   5.682   4.443   2.963
 6373SOL    HW120018   5.632   4.448   2.877
 6373SOL    HW220019   5.633   4.384   3.027
 6374SOL     OW20020   4.865   3.406   1.077
 6374SOL    HW120021   4.867   3.487   1.018
 6374SOL    HW220022   4.770   3.386   1.103
 6375SOL     OW20023   0.406   2.358   2.167
 6375SOL    HW120024   0.495   2.314   2.153
 6375SOL    HW220025   0.345   2.295   2.214
 6376SOL     OW20026   3.887   1.850   6.113
 6376SOL    HW120027   3.866   1.907   6.193
 6376SOL    HW220028   3.821   1.869   6.040
 6377SOL     OW20029   0.138   1.756   5.477
 6377SOL    HW120030   0.138   1.814   5.559
 6377SOL    HW220031   0.129   1.660   5.503
 6378SOL     OW20032   5.786   5.192   3.525
 6378SOL    HW120033   5.743   5.115   3.570
 6378SOL    HW220034   5.805   5.264   3.593
 6379SOL     OW20035   0.455   5.133   5.713
 6379SOL    HW120036   0.458   5.108   5.616
 6379SOL    HW220037   0.546   5.120   5.753
 6380SOL     OW20038   0.049   2.215   4.603
 6380SOL    HW120039   6.989   2.266   4.628
 6380SOL    HW220040   0.109   2.207   4.683
 6381SOL     OW20041   4.185   3.053   0.783
 6381SOL    HW120042   4.258   3.051   0.852
 6381SOL    HW220043   4.195   3.134   0.726
 6382SOL     OW20044   3.357   2.296   0.910
 6382SOL    HW120045   3.277   2.239   0.926
 6382SOL    HW220046   3.415   2.253   0.840
 6383SOL     OW20047   1.957   2.980   2.290
 6383SOL    HW120048   1.967   2.893   2.339
 6383SOL    HW220049   2.033   2.991   2.226
 6384SOL     OW20050   5.922   3.020   2.486
 6384SOL    HW120051   5.833   2.975   2.489
 6384SOL    HW220052   5.915   3.105   2.434
 6385SOL     OW20053   6.428   4.134   2.755
 6385SOL    HW120054   6.331   4.156   2.746
 6385SOL    HW220055   6.483   4.216   2.738
 6386SOL     OW20056   2.153   3.375   6.836
 6386SOL    HW120057   2.249   3.376   6.807
 6386SOL    HW220058   2.094   3.366   6.756
 6387SOL     OW20059   6.048   1.787   7.005
 6387SOL    HW120060   6.111   1.712   0.003
 6387SOL    HW220061   6.090   1.848   6.938
 6388SOL     OW20062   5.682   5.492   1.753
 6388SOL    HW120063   5.737   5.496   1.837
 6388SOL    HW220064   5.651   5.585   1.730
 6389SOL     OW20065   1.259   0.205   0.789
 6389SOL    HW120066   1.166   0.242   0.789
 6389SOL    HW220067   1.254   0.105   0.786
 6390SOL     OW20068   6.490   0.171   5.807
 6390SOL    HW120069   6.464   0.264   5.782
 6390SOL    HW220070   6.564   0.140   5.747
 6391SOL     OW20071   1.751   0.841   5.980
 6391SOL    HW120072   1.848   0.862   5.969
 6391SOL    HW220073   1.719   0.872   6.069
 6392SOL     OW20074   2.956   5.759   3.066
 6392SOL    HW120075   2.908   5.740   3.152
 6392SOL    HW220076   2.987   5.854   3.066
 6393SOL     OW20077   6.078   5.742   1.696
 6393SOL    HW120078   6.114   5.753   1.789
 6393SOL    HW220079   6.113   5.657   1.657
 6394SOL     OW20080   2.117   5.749   0.750
 6394SOL    HW120081   2.045   5.797   0.800
 6394SOL    HW220082   2.104   5.650   0.758
 6395SOL     OW20083   6.750   3.559   1.828
 6395SOL    HW120084   6.784   3.479   1.878
 6395SOL    HW220085   6.827   3.605   1.783
 6396SOL     OW20086   6.573   3.607   6.094
 6396SOL    HW120087   6.670   3.606   6.070
 6396SOL    HW220088   6.532   3.519   6.068
 6397SOL     OW20089   6.180   1.215   2.158
 6397SOL    HW120090   6.241   1.212   2.078
 6397SOL    HW220091   6.119   1.136   2.156
 6398SOL     OW20092   1.930   6.920   1.865
 6398SOL    HW120093   1.973   6.914   1.775
 6398SOL    HW220094   1.831   6.915   1.855
 6399SOL     OW20095   1.214   0.423   6.370
 6399SOL    HW120096   1.200   0.342   6.314
 6399SOL    HW220097   1.275   0.486   6.323
 6400SOL     OW20098   1.911   4.915   2.625
 6400SOL    HW120099   1.998   4.964   2.622
 6400SOL    HW220100   1.843   4.963   2.570
 6401SOL     OW20101   5.845   5.205   3.017
 6401SOL    HW120102   5.894   5.263   2.952
 6401SOL    HW220103   5.859   5.109   2.993
 6402SOL     OW20104   2.254   2.904   4.131
 6402SOL    HW120105   2.274   2.863   4.042
 6402SOL    HW220106   2.268   2.835   4.202
 6403SOL     OW20107   5.966   5.867   5.642
 6403SOL    HW120108   5.991   5.909   5.554
 6403SOL    HW220109   6.049   5.852   5.696
 6404SOL     OW20110   4.701   1.126   2.668
 6404SOL    HW120111   4.639   1.202   2.648
 6404SOL    HW220112   4.790   1.144   2.626
 6405SOL     OW20113   4.552   0.961   4.651
 6405SOL    HW120114   4.502   1.027   4.708
 6405SOL    HW220115   4.554   0.992   4.557
 6406SOL     OW20116   1.325   2.831   2.008
 6406SOL    HW120117   1.240   2.780   2.019
 6406SOL    HW220118   1.317   2.892   1.930
 6407SOL     OW20119   2.261   6.889   4.641
 6407SOL    HW120120   2.330   6.863   4.573
 6407SOL    HW220121   2.179   6.833   4.630
 6408SOL     OW20122   5.439   1.179   1.162
 6408SOL    HW120123   5.379   1.179   1.243
 6408SOL    HW220124   5.506   1.105   1.170
 6409SOL     OW20125   0.127   4.908   2.743
 6409SOL    HW120126   0.200   4.839   2.742
 6409SOL    HW220127   0.043   4.868   2.706
 6410SOL     OW20128   1.945   1.113   6.026
 6410SOL    HW120129   1.994   1.031   5.996
 6410SOL    HW220130   1.891   1.092   6.107
 6411SOL     OW20131   1.308   2.680   2.454
 6411SOL    HW120132   1.217   2.674   2.413
 6411SOL    HW220133   1.335   2.777   2.461
 6412SOL     OW20134   2.196   0.760   6.061
 6412SOL    HW120135   2.291   0.732   6.052
 6412SOL    HW220136   2.141   0.684   6.096
 6413SOL     OW20137   3.685   4.880   4.219
 6413SOL    HW120138   3.758   4.867   4.152
 6413SOL    HW220139   3.608   4.926   4.174
 6414SOL     OW20140   5.856   0.045   6.900
 6414SOL    HW120141   5.953   0.035   6.876
 6414SOL    HW220142   5.846   0.117   6.968
 6415SOL     OW20143   1.339   3.476   3.774
 6415SOL    HW120144   1.293   3.540   3.714
 6415SOL    HW220145   1.346   3.514   3.866
 6416SOL     OW20146   2.316   6.508   5.993
 6416SOL    HW120147   2.373   6.426   5.993
 6416SOL    HW220148   2.335   6.562   5.911
 6417SOL     OW20149   5.584   3.089   0.626
 6417SOL    HW120150   5.501   3.142   0.609
 6417SOL    HW220151   5.563   3.016   0.691
 6418SOL     OW20152   5.010   4.236   2.806
 6418SOL    HW120153   4.933   4.201   2.753
 6418SOL    HW220154   5.007   4.197   2.898
 6419SOL     OW20155   1.540   5.742   3.349
 6419SOL    HW120156   1.519   5.656   3.395
 6419SOL    HW220157   1.463   5.769   3.292
 6420SOL     OW20158   2.244   1.437   4.254
 6420SOL    HW120159   2.208   1.429   4.161
 6420SOL    HW220160   2.190   1.379   4.316
 6421SOL     OW20161   4.040   0.409   0.731
 6421SOL    HW120162   3.995   0.338   0.678
 6421SOL    HW220163   4.016   0.399   0.827
 6422SOL     OW20164   6.482   1.701   5.046
 6422SOL    HW120165   6.502   1.668   4.954
 6422SOL    HW220166   6.410   1.770   5.042
 6423SOL     OW20167   4.860   5.580   4.916
 6423SOL    HW120168   4.849   5.544   4.823
 6423SOL    HW220169   4.956   5.602   4.932
 6424SOL     OW20170   1.188   4.257   4.967
 6424SOL    HW120171   1.158   4.203   4.889
 6424SOL    HW220172   1.281   4.291   4.951
 6425SOL     OW20173   6.882   5.598   3.303
 6425SOL    HW120174   6.827   5.515   3.312
 6425SOL    HW220175   6.897   5.619   3.207
 6426SOL     OW20176   6.173   5.378   3.580
 6426SOL    HW120177   6.105   5.317   3.539
 6426SOL    HW220178   6.241   5.404   3.511
 6427SOL     OW20179   2.998   3.786   3.428
 6427SOL    HW120180   2.980   3.736   3.513
 6427SOL    HW220181   3.003   3.722   3.352
 6428SOL     OW20182   5.656   3.231   0.377
 6428SOL    HW120183   5.656   3.159   0.446
 6428SOL    HW220184   5.561   3.258   0.356
 6429SOL     OW20185   0.497   1.078   5.861
 6429SOL    HW120186   0.489   1.134   5.944
 6429SOL    HW220187   0.454   1.127   5.784
 6430SOL     OW20188   6.590   1.101   4.234
 6430SOL    HW120189   6.502   1.110   4.280
 6430SOL    HW220190   6.585   1.141   4.143
 6431SOL     OW20191   4.531   6.088   3.233
 6431SOL    HW120192   4.467   6.118   3.162
 6431SOL    HW220193   4.512   5.992   3.256
 6432SOL     OW20194   4.041   4.499   5.932
 6432SOL    HW120195   4.139   4.485   5.941
 6432SOL    HW220196   3.997   4.414   5.903
 6433SOL     OW20197   3.192   4.797   0.333
 6433SOL    HW120198   3.258   4.735   0.291
 6433SOL    HW220199   3.109   4.800   0.277
 6434SOL     OW20200   2.658   0.357   6.516
 6434SOL    HW120201   2.638   0.388   6.423
 6434SOL    HW220202   2.738   0.297   6.514
 6435SOL     OW20203   5.833   6.885   0.583
 6435SOL    HW120204   5.902   6.815   0.598
 6435SOL    HW220205   5.750   6.863   0.635
 6436SOL     OW20206   1.571   3.798   3.053
 6436SOL    HW120207   1.577   3.711   3.102
 6436SOL    HW220208   1.577   3.873   3.118
 6437SOL     OW20209   1.725   2.890   0.043
 6437SOL    HW120210   1.663   2.850   0.110
 6437SOL    HW220211   1.672   2.915   6.983
 6438SOL     OW20212   0.378   4.911   6.145
 6438SOL    HW120213   0.425   4.833   6.104
 6438SOL    HW220214   0.445   4.980   6.173
 6439SOL     OW20215   5.282   0.635   2.198
 6439SOL    HW120216   5.336   0.578   2.259
 6439SOL    HW220217   5.185   0.627   2.221
 6440SOL     OW20218   2.959   1.068   5.892
 6440SOL    HW120219   2.913   0.986   5.924
 6440SOL    HW220220   3.056   1.048   5.876
 6441SOL     OW20221   0.942   0.851   1.729
 6441SOL    HW120222   0.852   0.808   1.726
 6441SOL    HW220223   1.007   0.789   1.773
 6442SOL     OW20224   3.115   1.662   4.407
 6442SOL    HW120225   3.131   1.575   4.362
 6442SOL    HW220226   3.085   1.646   4.501
 6443SOL     OW20227   3.306   3.078   5.730
 6443SOL    HW120228   3.344   2.990   5.759
 6443SOL    HW220229   3.238   3.063   5.659
 6444SOL     OW20230   6.193   2.304   4.353
 6444SOL    HW120231   6.278   2.357   4.355
 6444SOL    HW220232   6.144   2.316   4.439
 6445SOL     OW20233   3.806   3.328   3.282
 6445SOL    HW120234   3.745   3.249   3.283
 6445SOL    HW220235   3.875   3.317   3.354
 6446SOL     OW20236   0.401   1.770   0.347
 6446SOL    HW120237   0.445   1.784   0.258
 6446SOL    HW220238   0.313   1.818   0.349
 6447SOL     OW20239   6.665   4.266   2.209
 6447SOL    HW120240   6.609   4.236   2.286
 6447SOL    HW220241   6.609   4.320   2.146
 6448SOL     OW20242   5.451   4.840   1.685
 6448SOL    HW120243   5.437   4.741   1.691
 6448SOL    HW220244   5.362   4.886   1.677
 6449SOL     OW20245   3.113   5.467   1.756
 6449SOL    HW120246   3.094   5.548   1.700
 6449SOL    HW220247   3.117   5.386   1.698
 6450SOL     OW20248   1.033   3.997   0.407
 6450SOL    HW120249   0.948   3.945   0.414
 6450SOL    HW220250   1.014   4.094   0.427
 6451SOL     OW20251   2.325   1.061   5.516
 6451SOL    HW120252   2.289   0.972   5.488
 6451SOL    HW220253   2.296   1.081   5.610
 6452SOL     OW20254   4.773   4.097   2.397
 6452SOL    HW120255   4.743   4.129   2.307
 6452SOL    HW220256   4.873   4.104   2.404
 6453SOL     OW20257   2.713   0.594   1.402
 6453SOL    HW120258   2.789   0.614   1.464
 6453SOL    HW220259   2.652   0.674   1.397
 6454SOL     OW20260   0.700   1.124   2.621
 6454SOL    HW120261   0.671   1.029   2.634
 6454SOL    HW220262   0.622   1.185   2.635
 6455SOL     OW20263   6.677   3.095   3.710
 6455SOL    HW120264   6.618   3.079   3.789
 6455SOL    HW220265   6.771   3.070   3.734
 6456SOL     OW20266   1.742   0.597   2.876
 6456SOL    HW120267   1.711   0.548   2.958
 6456SOL    HW220268   1.718   0.544   2.795
 6457SOL     OW20269   5.314   0.328   1.550
 6457SOL    HW120270   5.280   0.330   1.456
 6457SOL    HW220271   5.256   0.269   1.605
 6458SOL     OW20272   1.436   5.379   4.387
 6458SOL    HW120273   1.393   5.316   4.452
 6458SOL    HW220274   1.471   5.459   4.436
 6459SOL     OW20275   6.250   2.728   2.580
 6459SOL    HW120276   6.257   2.825   2.605
 6459SOL    HW220277   6.189   2.718   2.501
 6460SOL     OW20278   6.106   5.554   5.927
 6460SOL    HW120279   6.148   5.467   5.904
 6460SOL    HW220280   6.010   5.554   5.897
 6461SOL     OW20281   2.994   4.369   6.921
 6461SOL    HW120282   3.069   4.361   6.986
 6461SOL    HW220283   2.969   4.279   6.887
 6462SOL     OW20284   1.230   3.242   4.514
 6462SOL    HW120285   1.136   3.240   4.481
 6462SOL    HW220286   1.248   3.160   4.568
 6463SOL     OW20287   5.522   0.154   0.420
 6463SOL    HW120288   5.555   0.248   0.424
 6463SOL    HW220289   5.422   0.154   0.428
 6464SOL     OW20290   1.873   5.709   5.262
 6464SOL    HW120291   1.777   5.714   5.233
 6464SOL    HW220292   1.932   5.702   5.182
 6465SOL     OW20293   0.293   2.972   2.869
 6465SOL    HW120294   0.351   2.961   2.788
 6465SOL    HW220295   0.270   3.068   2.880
 6466SOL     OW20296   6.512   0.808   6.602
 6466SOL    HW120297   6.463   0.732   6.645
 6466SOL    HW220298   6.514   0.795   6.503
 6467SOL     OW20299   4.113   0.007   1.184
 6467SOL    HW120300   4.076   6.937   1.172
 6467SOL    HW220301   4.211   0.006   1.163
 6468SOL     OW20302   3.310   6.967   1.971
 6468SOL    HW120303   3.318   6.910   1.889
 6468SOL    HW220304   3.396   6.965   2.022
 6469SOL     OW20305   3.726   2.155   3.601
 6469SOL    HW120306   3.793   2.170   3.674
 6469SOL    HW220307   3.733   2.061   3.567
 6470SOL     OW20308   5.896   2.442   0.996
 6470SOL    HW120309   5.869   2.353   0.959
 6470SOL    HW220310   5.864   2.515   0.936
 6471SOL     OW20311   0.846   6.281   5.598
 6471SOL    HW120312   0.914   6.352   5.619
 6471SOL    HW220313   0.796   6.258   5.682
 6472SOL     OW20314   6.466   5.753   2.712
 6472SOL    HW120315   6.525   5.674   2.726
 6472SOL    HW220316   6.371   5.723   2.706
 6473SOL     OW20317   1.985   1.606   5.020
 6473SOL    HW120318   2.050   1.618   5.095
 6473SOL    HW220319   2.015   1.663   4.942
 6474SOL     OW20320   4.519   5.606   5.685
 6474SOL    HW120321   4.465   5.664   5.747
 6474SOL    HW220322   4.472   5.599   5.597
 6475SOL     OW20323   5.970   4.035   3.810
 6475SOL    HW120324   5.958   4.133   3.826
 6475SOL    HW220325   6.038   4.021   3.738
 6476SOL     OW20326   4.767   2.759   6.961
 6476SOL    HW120327   4.757   2.858   6.972
 6476SOL    HW220328   4.846   2.727   7.013
 6477SOL     OW20329   6.457   5.364   1.174
 6477SOL    HW120330   6.483   5.457   1.151
 6477SOL    HW220331   6.392   5.365   1.250
 6478SOL     OW20332   3.157   6.502   2.716
 6478SOL    HW120333   3.075   6.543   2.758
 6478SOL    HW220334   3.223   6.481   2.788
 6479SOL     OW20335   3.637   5.806   4.266
 6479SOL    HW120336   3.578   5.836   4.191
 6479SOL    HW220337   3.706   5.876   4.285
 6480SOL     OW20338   2.428   0.939   0.116
 6480SOL    HW120339   2.429   0.922   0.018
 6480SOL    HW220340   2.363   1.012   0.137
 6481SOL     OW20341   3.545   2.343   1.669
 6481SOL    HW120342   3.470   2.293   1.712
 6481SOL    HW220343   3.621   2.352   1.734
 6482SOL     OW20344   6.370   1.991   6.581
 6482SOL    HW120345   6.299   2.055   6.552
 6482SOL    HW220346   6.430   2.036   6.648
 6483SOL     OW20347   0.095   6.426   2.899
 6483SOL    HW120348   0.183   6.383   2.882
 6483SOL    HW220349   0.099   6.478   2.984
 6484SOL     OW20350   2.916   1.414   2.622
 6484SOL    HW120351   2.983   1.489   2.623
 6484SOL    HW220352   2.951   1.340   2.564
 6485SOL     OW20353   2.063   5.405   4.108
 6485SOL    HW120354   2.010   5.320   4.101
 6485SOL    HW220355   2.159   5.383   4.128
 6486SOL     OW20356   1.238   5.051   2.272
 6486SOL    HW120357   1.252   5.144   2.307
 6486SOL    HW220358   1.312   4.992   2.304
 6487SOL     OW20359   1.314   6.703   5.591
 6487SOL    HW120360   1.233   6.756   5.566
 6487SOL    HW220361   1.290   6.635   5.660
 6488SOL     OW20362   3.941   5.390   4.634
 6488SOL    HW120363   3.981   5.449   4.564
 6488SOL    HW220364   4.009   5.373   4.706
 6489SOL     OW20365   3.340   3.388   6.153
 6489SOL    HW120366   3.265   3.423   6.097
 6489SOL    HW220367   3.395   3.464   6.189
 6490SOL     OW20368   3.205   0.916   6.234
 6490SOL    HW120369   3.157   0.828   6.235
 6490SOL    HW220370   3.168   0.974   6.306
 6491SOL     OW20371   3.386   0.851   1.282
 6491SOL    HW120372   3.350   0.807   1.364
 6491SOL    HW220373   3.320   0.845   1.208
 6492SOL     OW20374   3.651   3.835   5.146
 6492SOL    HW120375   3.726   3.820   5.211
 6492SOL    HW220376   3.614   3.927   5.159
 6493SOL     OW20377   1.213   4.308   6.450
 6493SOL    HW120378   1.227   4.229   6.391
 6493SOL    HW220379   1.148   4.371   6.407
 6494SOL     OW20380   6.827   6.938   2.702
 6494SOL    HW120381   6.728   6.938   2.689
 6494SOL    HW220382   6.861   6.845   2.698
 6495SOL     OW20383   0.019   0.862   4.495
 6495SOL    HW120384   6.970   0.865   4.425
 6495SOL    HW220385   0.082   0.787   4.475
 6496SOL     OW20386   5.781   0.613   2.351
 6496SOL    HW120387   5.700   0.597   2.294
 6496SOL    HW220388   5.790   0.537   2.416
 6497SOL     OW20389   0.736   0.490   1.367
 6497SOL    HW120390   0.831   0.465   1.347
 6497SOL    HW220391   0.732   0.584   1.400
 6498SOL     OW20392   0.870   3.606   4.551
 6498SOL    HW120393   0.931   3.569   4.481
 6498SOL    HW220394   0.923   3.659   4.617
 6499SOL     OW20395   5.531   3.598   5.399
 6499SOL    HW120396   5.515   3.601   5.300
 6499SOL    HW220397   5.495   3.513   5.436
 6500SOL     OW20398   0.130   3.988   3.016
 6500SOL    HW120399   0.171   3.900   2.992
 6500SOL    HW220400   0.084   4.027   2.936
 6501SOL     OW20401   6.778   1.408   0.912
 6501SOL    HW120402   6.727   1.362   0.984
 6501SOL    HW220403   6.729   1.399   0.825
 6502SOL     OW20404   0.171   3.738   1.985
 6502SOL    HW120405   0.104   3.762   2.056
 6502SOL    HW220406   0.150   3.789   1.902
 6503SOL     OW20407   5.710   1.066   3.754
 6503SOL    HW120408   5.672   1.050   3.844
 6503SOL    HW220409   5.809   1.049   3.756
 6504SOL     OW20410   3.422   6.556   6.204
 6504SOL    HW120411   3.493   6.610   6.249
 6504SOL    HW220412   3.429   6.461   6.235
 6505SOL     OW20413   5.406   6.056   6.186
 6505SOL    HW120414   5.395   5.972   6.133
 6505SOL    HW220415   5.387   6.135   6.128
 6506SOL     OW20416   6.947   2.728   3.451
 6506SOL    HW120417   6.959   2.769   3.360
 6506SOL    HW220418   7.021   2.663   3.468
 6507SOL     OW20419   2.789   5.957   6.390
 6507SOL    HW120420   2.856   6.013   6.343
 6507SOL    HW220421   2.804   5.861   6.367
 6508SOL     OW20422   1.952   0.386   3.077
 6508SOL    HW120423   2.023   0.430   3.022
 6508SOL    HW220424   1.966   0.287   3.076
 6509SOL     OW20425   4.910   1.932   4.842
 6509SOL    HW120426   4.866   1.851   4.803
 6509SOL    HW220427   4.923   1.920   4.940
 6510SOL     OW20428   5.543   5.012   6.901
 6510SOL    HW120429   5.464   5.003   6.963
 6510SOL    HW220430   5.528   4.957   6.819
 6511SOL     OW20431   4.381   1.165   4.785
 6511SOL    HW120432   4.387   1.143   4.882
 6511SOL    HW220433   4.435   1.247   4.766
 6512SOL     OW20434   3.517   6.932   2.149
 6512SOL    HW120435   3.534   6.952   2.245
 6512SOL    HW220436   3.525   6.834   2.132
 6513SOL     OW20437   1.855   5.690   3.871
 6513SOL    HW120438   1.770   5.646   3.841
 6513SOL    HW220439   1.855   5.785   3.841
 6514SOL     OW20440   6.020   0.979   3.973
 6514SOL    HW120441   5.975   0.916   3.909
 6514SOL    HW220442   6.060   0.927   4.048
 6515SOL     OW20443   1.472   3.288   3.421
 6515SOL    HW120444   1.483   3.383   3.391
 6515SOL    HW220445   1.561   3.245   3.430
 6516SOL     OW20446   0.471   3.106   1.232
 6516SOL    HW120447   0.515   3.066   1.313
 6516SOL    HW220448   0.474   3.039   1.157
 6517SOL     OW20449   6.824   2.114   2.052
 6517SOL    HW120450   6.727   2.118   2.027
 6517SOL    HW220451   6.840   2.037   2.114
 6518SOL     OW20452   0.611   0.301   1.506
 6518SOL    HW120453   0.660   0.367   1.448
 6518SOL    HW220454   0.516   0.331   1.516
 6519SOL     OW20455   0.233   1.441   2.771
 6519SOL    HW120456   0.200   1.535   2.766
 6519SOL    HW220457   0.161   1.378   2.741
 6520SOL     OW20458   6.948   4.831   7.005
 6520SOL    HW120459   6.905   4.894   0.047
 6520SOL    HW220460   0.025   4.850   7.001
 6521SOL     OW20461   2.330   2.840   4.504
 6521SOL    HW120462   2.305   2.806   4.595
 6521SOL    HW220463   2.324   2.939   4.503
 6522SOL     OW20464   2.598   4.513   5.503
 6522SOL    HW120465   2.535   4.507   5.580
 6522SOL    HW220466   2.656   4.594   5.514
 6523SOL     OW20467   4.140   0.709   6.666
 6523SOL    HW120468   4.044   0.728   6.683
 6523SOL    HW220469   4.186   0.791   6.632
 6524SOL     OW20470   2.713   3.156   1.336
 6524SOL    HW120471   2.666   3.080   1.380
 6524SOL    HW220472   2.763   3.209   1.406
 6525SOL     OW20473   1.986   4.993   3.001
 6525SOL    HW120474   2.018   5.037   3.085
 6525SOL    HW220475   1.901   5.036   2.971
 6526SOL     OW20476   0.950   0.389   1.680
 6526SOL    HW120477   0.876   0.328   1.711
 6526SOL    HW220478   1.027   0.383   1.744
 6527SOL     OW20479   6.491   2.142   6.782
 6527SOL    HW120480   6.545   2.096   6.853
 6527SOL    HW220481   6.502   2.241   6.791
 6528SOL     OW20482   6.098   1.266   5.381
 6528SOL    HW120483   6.071   1.350   5.429
 6528SOL    HW220484   6.163   1.288   5.308
 6529SOL     OW20485   2.244   0.205   2.784
 6529SOL    HW120486   2.304   0.250   2.718
 6529SOL    HW220487   2.276   0.223   2.877
 6530SOL     OW20488   6.909   2.085   1.162
 6530SOL    HW120489   6.910   2.140   1.245
 6530SOL    HW220490   6.845   2.126   1.096
 6531SOL     OW20491   4.904   3.340   4.992
 6531SOL    HW120492   4.873   3.263   5.048
 6531SOL    HW220493   4.853   3.422   5.017
 6532SOL     OW20494   1.295   1.563   1.279
 6532SOL    HW120495   1.259   1.620   1.205
 6532SOL    HW220496   1.395   1.558   1.270
 6533SOL     OW20497   4.250   6.036   0.553
 6533SOL    HW120498   4.314   5.961   0.566
 6533SOL    HW220499   4.301   6.120   0.532
 6534SOL     OW20500   4.835   5.063   1.186
 6534SOL    HW120501   4.851   5.154   1.226
 6534SOL    HW220502   4.748   5.027   1.221
 6535SOL     OW20503   6.726   4.362   4.336
 6535SOL    HW120504   6.675   4.361   4.422
 6535SOL    HW220505   6.662   4.370   4.260
 6536SOL     OW20506   0.403   2.126   5.216
 6536SOL    HW120507   0.442   2.187   5.285
 6536SOL    HW220508   0.475   2.064   5.183
 6537SOL     OW20509   6.795   4.529   6.279
 6537SOL    HW120510   6.766   4.462   6.211
 6537SOL    HW220511   6.863   4.590   6.239
 6538SOL     OW20512   1.641   3.929   5.752
 6538SOL    HW120513   1.733   3.955   5.725
 6538SOL    HW220514   1.619   3.968   5.842
 6539SOL     OW20515   5.191   0.634   6.851
 6539SOL    HW120516   5.211   0.692   6.930
 6539SOL    HW220517   5.119   0.676   6.796
 6540SOL     OW20518   3.671   2.788   6.228
 6540SOL    HW120519   3.750   2.810   6.172
 6540SOL    HW220520   3.633   2.872   6.267
 6541SOL     OW20521   5.036   1.559   5.051
 6541SOL    HW120522   4.964   1.503   5.091
 6541SOL    HW220523   5.124   1.533   5.092
 6542SOL     OW20524   0.993   2.910   3.501
 6542SOL    HW120525   1.060   2.851   3.547
 6542SOL    HW220526   1.017   3.006   3.517
 6543SOL     OW20527   4.369   3.016   5.591
 6543SOL    HW120528   4.374   2.930   5.642
 6543SOL    HW220529   4.425   3.010   5.509
 6544SOL     OW20530   1.250   6.453   3.314
 6544SOL    HW120531   1.171   6.458   3.375
 6544SOL    HW220532   1.302   6.370   3.333
 6545SOL     OW20533   3.982   0.665   0.558
 6545SOL    HW120534   4.048   0.724   0.605
 6545SOL    HW220535   4.003   0.569   0.578
 6546SOL     OW20536   2.574   4.090   5.954
 6546SOL    HW120537   2.604   4.132   5.869
 6546SOL    HW220538   2.483   4.051   5.942
 6547SOL     OW20539   4.915   0.986   6.427
 6547SOL    HW120540   4.889   0.990   6.330
 6547SOL    HW220541   5.000   1.037   6.441
 6548SOL     OW20542   1.653   3.868   0.927
 6548SOL    HW120543   1.619   3.789   0.876
 6548SOL    HW220544   1.689   3.936   0.862
 6549SOL     OW20545   4.438   0.779   2.286
 6549SOL    HW120546   4.502   0.746   2.355
 6549SOL    HW220547   4.471   0.755   2.195
 6550SOL     OW20548   0.062   6.628   4.626
 6550SOL    HW120549   7.011   6.588   4.570
 6550SOL    HW220550   0.141   6.566   4.626
 6551SOL     OW20551   2.097   3.563   1.783
 6551SOL    HW120552   2.136   3.515   1.862
 6551SOL    HW220553   2.169   3.614   1.736
 6552SOL     OW20554   1.676   0.267   0.425
 6552SOL    HW120555   1.735   0.190   0.448
 6552SOL    HW220556   1.657   0.320   0.507
 6553SOL     OW20557   0.506   2.507   3.216
 6553SOL    HW120558   0.581   2.482   3.277
 6553SOL    HW220559   0.543   2.527   3.125
 6554SOL     OW20560   1.313   6.971   4.548
 6554SOL    HW120561   1.271   0.039   4.536
 6554SOL    HW220562   1.368   6.970   4.632
 6555SOL     OW20563   5.082   2.015   2.821
 6555SOL    HW120564   5.014   2.075   2.863
 6555SOL    HW220565   5.172   2.056   2.830
 6556SOL     OW20566   5.843   4.589   3.370
 6556SOL    HW120567   5.932   4.549   3.391
 6556SOL    HW220568   5.846   4.630   3.278
 6557SOL     OW20569   2.580   0.620   3.213
 6557SOL    HW120570   2.582   0.608   3.114
 6557SOL    HW220571   2.596   0.532   3.258
 6558SOL     OW20572   6.567   4.937   6.843
 6558SOL    HW120573   6.621   5.019   6.826
 6558SOL    HW220574   6.582   4.906   6.937
 6559SOL     OW20575   0.468   4.040   6.954
 6559SOL    HW120576   0.475   4.024   0.030
 6559SOL    HW220577   0.559   4.034   6.913
 6560SOL     OW20578   3.882   4.731   1.604
 6560SOL    HW120579   3.795   4.689   1.577
 6560SOL    HW220580   3.873   4.770   1.695
 6561SOL     OW20581   3.460   4.014   1.412
 6561SOL    HW120582   3.432   4.047   1.321
 6561SOL    HW220583   3.560   4.009   1.416
 6562SOL     OW20584   6.063   2.055   1.316
 6562SOL    HW120585   6.079   2.135   1.259
 6562SOL    HW220586   6.007   2.079   1.395
 6563SOL     OW20587   5.334   5.311   6.165
 6563SOL    HW120588   5.325   5.407   6.140
 6563SOL    HW220589   5.413   5.271   6.119
 6564SOL     OW20590   6.287   3.931   2.281
 6564SOL    HW120591   6.216   3.966   2.341
 6564SOL    HW220592   6.361   3.998   2.273
 6565SOL     OW20593   5.925   1.194   2.947
 6565SOL    HW120594   5.851   1.152   2.895
 6565SOL    HW220595   6.013   1.159   2.914
 6566SOL     OW20596   4.099   6.654   2.360
 6566SOL    HW120597   4.020   6.595   2.375
 6566SOL    HW220598   4.145   6.627   2.276
 6567SOL     OW20599   4.974   0.676   2.028
 6567SOL    HW120600   4.945   0.762   1.988
 6567SOL    HW220601   5.019   0.620   1.957
 6568SOL     OW20602   3.251   1.777   3.787
 6568SOL    HW120603   3.279   1.855   3.733
 6568SOL    HW220604   3.223   1.808   3.878
 6569SOL     OW20605   2.922   2.878   0.227
 6569SOL    HW120606   2.903   2.868   0.325
 6569SOL    HW220607   2.963   2.968   0.211
 6570SOL     OW20608   3.240   1.133   2.333
 6570SOL    HW120609   3.323   1.133   2.389
 6570SOL    HW220610   3.159   1.134   2.391
 6571SOL     OW20611   2.922   4.835   2.422
 6571SOL    HW120612   2.889   4.798   2.335
 6571SOL    HW220613   2.874   4.789   2.498
 6572SOL     OW20614   7.015   3.777   4.518
 6572SOL    HW120615   0.046   3.778   4.603
 6572SOL    HW220616   7.002   3.871   4.485
 6573SOL     OW20617   0.404   1.796   2.552
 6573SOL    HW120618   0.488   1.748   2.579
 6573SOL    HW220619   0.374   1.856   2.626
 6574SOL     OW20620   2.413   5.814   3.049
 6574SOL    HW120621   2.344   5.864   2.996
 6574SOL    HW220622   2.367   5.761   3.120
 6575SOL     OW20623   0.622   0.085   3.991
 6575SOL    HW120624   0.682   0.157   3.958
 6575SOL    HW220625   0.668   7.019   3.984
 6576SOL     OW20626   2.826   6.233   0.414
 6576SOL    HW120627   2.834   6.184   0.327
 6576SOL    HW220628   2.879   6.317   0.409
 6577SOL     OW20629   1.337   1.921   3.340
 6577SOL    HW120630   1.239   1.922   3.322
 6577SOL    HW220631   1.384   1.979   3.274
 6578SOL     OW20632   0.421   6.222   2.559
 6578SOL    HW120633   0.504   6.176   2.590
 6578SOL    HW220634   0.442   6.279   2.479
 6579SOL     OW20635   0.105   3.105   3.379
 6579SOL    HW120636   0.011   3.077   3.402
 6579SOL    HW220637   0.160   3.024   3.358
 6580SOL     OW20638   0.469   1.681   0.592
 6580SOL    HW120639   0.473   1.583   0.572
 6580SOL    HW220640   0.446   1.731   0.508
 6581SOL     OW20641   2.479   0.768   0.657
 6581SOL    HW120642   2.402   0.776   0.594
 6581SOL    HW220643   2.462   0.693   0.721
 6582SOL     OW20644   0.070   1.160   3.279
 6582SOL    HW120645   0.005   1.193   3.346
 6582SOL    HW220646   0.154   1.131   3.325
 6583SOL     OW20647   4.863   6.854   5.693
 6583SOL    HW120648   4.772   6.894   5.691
 6583SOL    HW220649   4.858   6.759   5.660
 6584SOL     OW20650   4.882   2.284   0.352
 6584SOL    HW120651   4.936   2.203   0.326
 6584SOL    HW220652   4.922   2.365   0.309
 6585SOL     OW20653   5.877   5.698   0.157
 6585SOL    HW120654   5.854   5.770   0.221
 6585SOL    HW220655   5.817   5.619   0.172
 6586SOL     OW20656   5.829   1.186   5.792
 6586SOL    HW120657   5.735   1.153   5.788
 6586SOL    HW220658   5.888   1.114   5.829
 6587SOL     OW20659   1.551   4.876   5.700
 6587SOL    HW120660   1.551   4.798   5.638
 6587SOL    HW220661   1.475   4.869   5.763
 6588SOL     OW20662   0.653   3.021   1.397
 6588SOL    HW120663   0.728   3.085   1.414
 6588SOL    HW220664   0.689   2.934   1.364
 6589SOL     OW20665   4.480   0.394   2.108
 6589SOL    HW120666   4.484   0.302   2.070
 6589SOL    HW220667   4.572   0.423   2.137
 6590SOL     OW20668   0.191   1.165   6.682
 6590SOL    HW120669   0.277   1.150   6.633
 6590SOL    HW220670   0.201   1.241   6.747
 6591SOL     OW20671   5.745   5.802   3.563
 6591SOL    HW120672   5.781   5.710   3.580
 6591SOL    HW220673   5.759   5.858   3.644
 6592SOL     OW20674   5.494   6.717   3.293
 6592SOL    HW120675   5.499   6.690   3.389
 6592SOL    HW220676   5.419   6.668   3.249
 6593SOL     OW20677   2.605   2.449   2.640
 6593SOL    HW120678   2.580   2.407   2.554
 6593SOL    HW220679   2.657   2.533   2.622
 6594SOL     OW20680   3.529   1.116   6.006
 6594SOL    HW120681   3.588   1.196   6.005
 6594SOL    HW220682   3.491   1.102   5.914
 6595SOL     OW20683   1.738   4.272   6.880
 6595SOL    HW120684   1.786   4.196   6.925
 6595SOL    HW220685   1.775   4.285   6.788
 6596SOL     OW20686   3.492   0.085   4.253
 6596SOL    HW120687   3.556   0.039   4.315
 6596SOL    HW220688   3.544   0.136   4.184
 6597SOL     OW20689   1.295   5.377   0.934
 6597SOL    HW120690   1.340   5.408   1.018
 6597SOL    HW220691   1.212   5.430   0.918
 6598SOL     OW20692   1.733   4.738   3.943
 6598SOL    HW120693   1.791   4.736   4.024
 6598SOL    HW220694   1.760   4.814   3.884
 6599SOL     OW20695   4.520   6.475   6.223
 6599SOL    HW120696   4.588   6.493   6.295
 6599SOL    HW220697   4.469   6.392   6.246
 6600SOL     OW20698   3.593   6.336   5.399
 6600SOL    HW120699   3.585   6.239   5.379
 6600SOL    HW220700   3.534   6.359   5.477
 6601SOL     OW20701   1.246   2.559   4.865
 6601SOL    HW120702   1.334   2.570   4.820
 6601SOL    HW220703   1.241   2.468   4.906
 6602SOL     OW20704   1.595   0.503   1.430
 6602SOL    HW120705   1.585   0.508   1.529
 6602SOL    HW220706   1.522   0.556   1.386
 6603SOL     OW20707   0.467   2.967   3.490
 6603SOL    HW120708   0.544   2.933   3.435
 6603SOL    HW220709   0.457   2.910   3.572
 6604SOL     OW20710   1.597   0.097   1.574
 6604SOL    HW120711   1.520   0.130   1.519
 6604SOL    HW220712   1.682   0.131   1.536
 6605SOL     OW20713   5.712   5.749   1.996
 6605SOL    HW120714   5.742   5.817   1.930
 6605SOL    HW220715   5.658   5.793   2.067
 6606SOL     OW20716   6.654   5.620   2.333
 6606SOL    HW120717   6.716   5.604   2.256
 6606SOL    HW220718   6.686   5.698   2.386
 6607SOL     OW20719   0.872   4.638   3.353
 6607SOL    HW120720   0.775   4.615   3.348
 6607SOL    HW220721   0.883   4.729   3.393
 6608SOL     OW20722   6.762   6.931   6.875
 6608SOL    HW120723   6.847   6.978   6.848
 6608SOL    HW220724   6.777   6.883   6.961
 6609SOL     OW20725   5.630   0.629   0.130
 6609SOL    HW120726   5.685   0.618   0.048
 6609SOL    HW220727   5.550   0.569   0.125
 6610SOL     OW20728   2.091   6.641   6.697
 6610SOL    HW120729   2.164   6.682   6.751
 6610SOL    HW220730   2.129   6.604   6.612
 6611SOL     OW20731   4.837   2.941   3.176
 6611SOL    HW120732   4.892   2.968   3.255
 6611SOL    HW220733   4.820   2.842   3.180
 6612SOL     OW20734   6.648   1.804   6.064
 6612SOL    HW120735   6.687   1.712   6.055
 6612SOL    HW220736   6.712   1.861   6.116
 6613SOL     OW20737   6.516   6.498   5.628
 6613SOL    HW120738   6.587   6.491   5.698
 6613SOL    HW220739   6.431   6.530   5.670
 6614SOL     OW20740   4.586   5.335   6.989
 6614SOL    HW120741   4.490   5.357   6.970
 6614SOL    HW220742   4.593   5.283   0.052
 6615SOL     OW20743   1.636   5.993   1.198
 6615SOL    HW120744   1.674   6.066   1.254
 6615SOL    HW220745   1.595   6.031   1.115
 6616SOL     OW20746   4.456   7.000   6.652
 6616SOL    HW120747   4.476   0.021   6.564
 6616SOL    HW220748   4.452   0.048   6.723
 6617SOL     OW20749   4.505   5.460   3.619
 6617SOL    HW120750   4.457   5.544   3.646
 6617SOL    HW220751   4.512   5.398   3.697
 6618SOL     OW20752   1.960   2.105   2.326
 6618SOL    HW120753   1.898   2.028   2.342
 6618SOL    HW220754   1.975   2.117   2.228
 6619SOL     OW20755   5.573   6.693   3.848
 6619SOL    HW120756   5.495   6.662   3.902
 6619SOL    HW220757   5.559   6.668   3.752
 6620SOL     OW20758   2.289   2.329   5.846
 6620SOL    HW120759   2.292   2.428   5.858
 6620SOL    HW220760   2.236   2.288   5.920
 6621SOL     OW20761   3.285   3.347   5.491
 6621SOL    HW120762   3.293   3.348   5.391
 6621SOL    HW220763   3.248   3.259   5.521
 6622SOL     OW20764   5.831   5.494   2.003
 6622SOL    HW120765   5.803   5.590   2.011
 6622SOL    HW220766   5.857   5.459   2.093
 6623SOL     OW20767   3.729   2.925   5.014
 6623SOL    HW120768   3.766   3.004   4.965
 6623SOL    HW220769   3.742   2.842   4.960
 6624SOL     OW20770   6.971   4.552   5.206
 6624SOL    HW120771   6.978   4.525   5.302
 6624SOL    HW220772   6.954   4.650   5.199
 6625SOL     OW20773   4.967   2.004   5.432
 6625SOL    HW120774   4.905   1.925   5.441
 6625SOL    HW220775   5.046   1.978   5.377
 6626SOL     OW20776   2.892   6.758   5.597
 6626SOL    HW120777   2.980   6.732   5.556
 6626SOL    HW220778   2.899   6.851   5.633
 6627SOL     OW20779   1.679   6.897   4.544
 6627SOL    HW120780   1.756   6.947   4.583
 6627SOL    HW220781   1.595   6.923   4.592
 6628SOL     OW20782   6.120   4.878   4.892
 6628SOL    HW120783   6.094   4.797   4.944
 6628SOL    HW220784   6.094   4.960   4.944
 6629SOL     OW20785   4.700   6.484   6.422
 6629SOL    HW120786   4.647   6.532   6.492
 6629SOL    HW220787   4.796   6.508   6.430
 6630SOL     OW20788   3.826   1.482   1.438
 6630SOL    HW120789   3.842   1.428   1.356
 6630SOL    HW220790   3.745   1.446   1.486
 6631SOL     OW20791   2.091   6.061   4.023
 6631SOL    HW120792   1.996   6.053   3.993
 6631SOL    HW220793   2.147   5.994   3.973
 6632SOL     OW20794   0.868   0.724   1.113
 6632SOL    HW120795   0.959   0.764   1.108
 6632SOL    HW220796   0.811   0.779   1.173
 6633SOL     OW20797   2.190   4.999   6.312
 6633SOL    HW120798   2.091   4.991   6.320
 6633SOL    HW220799   2.220   4.960   6.224
 6634SOL     OW20800   5.458   1.098   5.189
 6634SOL    HW120801   5.553   1.123   5.170
 6634SOL    HW220802   5.419   1.161   5.256
 6635SOL     OW20803   4.788   4.497   2.925
 6635SOL    HW120804   4.849   4.492   2.846
 6635SOL    HW220805   4.826   4.444   3.000
 6636SOL     OW20806   4.808   1.502   6.838
 6636SOL    HW120807   4.825   1.417   6.887
 6636SOL    HW220808   4.882   1.518   6.772
 6637SOL     OW20809   1.414   6.920   6.667
 6637SOL    HW120810   1.326   6.966   6.657
 6637SOL    HW220811   1.410   6.830   6.624
 6638SOL     OW20812   2.982   3.417   3.283
 6638SOL    HW120813   2.922   3.431   3.363
 6638SOL    HW220814   2.968   3.492   3.218
 6639SOL     OW20815   4.785   4.610   6.820
 6639SOL    HW120816   4.868   4.598   6.764
 6639SOL    HW220817   4.704   4.594   6.763
 6640SOL     OW20818   6.327   1.471   5.118
 6640SOL    HW120819   6.403   1.534   5.101
 6640SOL    HW220820   6.253   1.519   5.165
 6641SOL     OW20821   2.751   1.290   0.059
 6641SOL    HW120822   2.663   1.316   0.099
 6641SOL    HW220823   2.824   1.307   0.125
 6642SOL     OW20824   2.783   6.062   6.642
 6642SOL    HW120825   2.779   6.018   6.552
 6642SOL    HW220826   2.747   6.155   6.636
 6643SOL     OW20827   5.221   6.356   6.773
 6643SOL    HW120828   5.175   6.329   6.858
 6643SOL    HW220829   5.182   6.442   6.741
 6644SOL     OW20830   2.683   6.071   1.482
 6644SOL    HW120831   2.626   6.146   1.516
 6644SOL    HW220832   2.756   6.052   1.547
 6645SOL     OW20833   5.461   3.905   0.995
 6645SOL    HW120834   5.363   3.910   0.977
 6645SOL    HW220835   5.482   3.819   1.041
 6646SOL     OW20836   4.533   1.486   5.141
 6646SOL    HW120837   4.441   1.518   5.164
 6646SOL    HW220838   4.570   1.541   5.067
 6647SOL     OW20839   4.573   0.432   1.339
 6647SOL    HW120840   4.500   0.375   1.301
 6647SOL    HW220841   4.538   0.483   1.418
 6648SOL     OW20842   3.783   6.643   3.962
 6648SOL    HW120843   3.852   6.703   3.922
 6648SOL    HW220844   3.785   6.652   4.062
 6649SOL     OW20845   6.139   1.663   6.404
 6649SOL    HW120846   6.076   1.726   6.359
 6649SOL    HW220847   6.093   1.575   6.419
 6650SOL     OW20848   3.914   1.309   5.763
 6650SOL    HW120849   3.947   1.393   5.721
 6650SOL    HW220850   3.854   1.331   5.840
 6651SOL     OW20851   1.749   0.569   5.942
 6651SOL    HW120852   1.787   0.570   5.850
 6651SOL    HW220853   1.739   0.663   5.975
 6652SOL     OW20854   0.303   4.661   6.699
 6652SOL    HW120855   0.368   4.585   6.697
 6652SOL    HW220856   0.219   4.632   6.744
 6653SOL     OW20857   4.113   3.656   1.335
 6653SOL    HW120858   4.043   3.668   1.405
 6653SOL    HW220859   4.081   3.589   1.268
 6654SOL     OW20860   1.525   5.759   1.555
 6654SOL    HW120861   1.463   5.803   1.490
 6654SOL    HW220862   1.615   5.746   1.513
 6655SOL     OW20863   0.594   6.757   3.670
 6655SOL    HW120864   0.559   6.684   3.729
 6655SOL    HW220865   0.518   6.802   3.625
 6656SOL     OW20866   6.196   2.456   2.888
 6656SOL    HW120867   6.292   2.465   2.863
 6656SOL    HW220868   6.151   2.545   2.883
 6657SOL     OW20869   5.479   4.258   5.261
 6657SOL    HW120870   5.558   4.285   5.205
 6657SOL    HW220871   5.458   4.162   5.245
 6658SOL     OW20872   4.849   1.071   5.228
 6658SOL    HW120873   4.827   1.142   5.294
 6658SOL    HW220874   4.764   1.028   5.196
 6659SOL     OW20875   2.206   2.797   1.117
 6659SOL    HW120876   2.294   2.832   1.084
 6659SOL    HW220877   2.146   2.779   1.039
 6660SOL     OW20878   1.654   5.110   1.093
 6660SOL    HW120879   1.694   5.187   1.044
 6660SOL    HW220880   1.693   5.025   1.060
 6661SOL     OW20881   1.694   0.390   5.286
 6661SOL    HW120882   1.787   0.425   5.284
 6661SOL    HW220883   1.673   0.345   5.198
 6662SOL     OW20884   1.225   0.567   0.295
 6662SOL    HW120885   1.245   0.492   0.358
 6662SOL    HW220886   1.311   0.605   0.261
 6663SOL     OW20887   6.523   6.427   4.709
 6663SOL    HW120888   6.534   6.343   4.656
 6663SOL    HW220889   6.603   6.441   4.767
 6664SOL     OW20890   2.177   6.962   0.524
 6664SOL    HW120891   2.233   6.964   0.607
 6664SOL    HW220892   2.197   0.020   0.468
 6665SOL     OW20893   1.544   6.001   4.636
 6665SOL    HW120894   1.624   5.968   4.586
 6665SOL    HW220895   1.536   6.100   4.625
 6666SOL     OW20896   6.382   6.151   6.035
 6666SOL    HW120897   6.463   6.177   5.983
 6666SOL    HW220898   6.300   6.178   5.985
 6667SOL     OW20899   6.680   6.534   5.881
 6667SOL    HW120900   6.757   6.586   5.844
 6667SOL    HW220901   6.682   6.538   5.981
 6668SOL     OW20902   0.053   5.970   1.001
 6668SOL    HW120903   0.093   6.037   1.064
 6668SOL    HW220904   0.054   5.880   1.043
 6669SOL     OW20905   2.766   2.220   1.828
 6669SOL    HW120906   2.765   2.235   1.729
 6669SOL    HW220907   2.842   2.271   1.869
 6670SOL     OW20908   2.912   1.431   5.205
 6670SOL    HW120909   2.948   1.524   5.208
 6670SOL    HW220910   2.894   1.399   5.297
 6671SOL     OW20911   4.499   6.734   0.417
 6671SOL    HW120912   4.552   6.769   0.340
 6671SOL    HW220913   4.420   6.682   0.383
 6672SOL     OW20914   6.416   2.283   0.108
 6672SOL    HW120915   6.394   2.311   0.201
 6672SOL    HW220916   6.496   2.223   0.109
 6673SOL     OW20917   4.852   4.139   3.608
 6673SOL    HW120918   4.831   4.042   3.602
 6673SOL    HW220919   4.911   4.156   3.687
 6674SOL     OW20920   0.259   3.927   0.369
 6674SOL    HW120921   0.290   3.860   0.302
 6674SOL    HW220922   0.338   3.971   0.412
 6675SOL     OW20923   6.020   3.162   1.011
 6675SOL    HW120924   6.088   3.103   1.054
 6675SOL    HW220925   6.017   3.144   0.913
 6676SOL     OW20926   0.228   3.532   5.043
 6676SOL    HW120927   0.265   3.456   5.097
 6676SOL    HW220928   0.266   3.528   4.950
 6677SOL     OW20929   1.181   1.649   6.378
 6677SOL    HW120930   1.268   1.640   6.328
 6677SOL    HW220931   1.200   1.670   6.474
 6678SOL     OW20932   3.313   3.824   0.605
 6678SOL    HW120933   3.397   3.836   0.553
 6678SOL    HW220934   3.333   3.827   0.703
 6679SOL     OW20935   3.432   0.873   4.166
 6679SOL    HW120936   3.378   0.799   4.207
 6679SOL    HW220937   3.379   0.958   4.167
 6680SOL     OW20938   4.217   6.781   6.261
 6680SOL    HW120939   4.210   6.699   6.318
 6680SOL    HW220940   4.311   6.790   6.228
 6681SOL     OW20941   4.732   5.699   0.530
 6681SOL    HW120942   4.772   5.651   0.452
 6681SOL    HW220943   4.649   5.651   0.559
 6682SOL     OW20944   2.184   4.992   0.587
 6682SOL    HW120945   2.136   4.907   0.611
 6682SOL    HW220946   2.170   5.060   0.659
 6683SOL     OW20947   6.018   3.179   5.184
 6683SOL    HW120948   5.988   3.173   5.279
 6683SOL    HW220949   6.031   3.088   5.146
 6684SOL     OW20950   3.586   6.545   1.789
 6684SOL    HW120951   3.629   6.538   1.699
 6684SOL    HW220952   3.539   6.633   1.796
 6685SOL     OW20953   5.166   2.805   6.517
 6685SOL    HW120954   5.158   2.728   6.581
 6685SOL    HW220955   5.077   2.823   6.476
 6686SOL     OW20956   5.185   5.377   4.058
 6686SOL    HW120957   5.107   5.381   4.120
 6686SOL    HW220958   5.185   5.457   3.999
 6687SOL     OW20959   0.833   3.346   1.692
 6687SOL    HW120960   0.881   3.390   1.616
 6687SOL    HW220961   0.742   3.317   1.661
 6688SOL     OW20962   5.425   4.430   1.513
 6688SOL    HW120963   5.493   4.404   1.445
 6688SOL    HW220964   5.335   4.439   1.469
 6689SOL     OW20965   3.973   3.894   5.648
 6689SOL    HW120966   4.014   3.907   5.558
 6689SOL    HW220967   3.970   3.796   5.670
 6690SOL     OW20968   0.340   0.041   0.821
 6690SOL    HW120969   0.363   6.989   0.758
 6690SOL    HW220970   0.243   0.035   0.845
 6691SOL     OW20971   2.301   0.433   2.338
 6691SOL    HW120972   2.385   0.489   2.334
 6691SOL    HW220973   2.226   0.489   2.375
 6692SOL     OW20974   3.907   3.888   3.609
 6692SOL    HW120975   3.950   3.863   3.695
 6692SOL    HW220976   3.810   3.865   3.612
 6693SOL     OW20977   3.938   2.268   5.290
 6693SOL    HW120978   3.980   2.215   5.365
 6693SOL    HW220979   3.878   2.338   5.329
 6694SOL     OW20980   3.780   5.698   1.344
 6694SOL    HW120981   3.755   5.608   1.380
 6694SOL    HW220982   3.874   5.694   1.308
 6695SOL     OW20983   2.790   2.053   6.906
 6695SOL    HW120984   2.785   2.152   6.920
 6695SOL    HW220985   2.760   2.031   6.814
 6696SOL     OW20986   3.620   2.994   3.997
 6696SOL    HW120987   3.611   2.944   3.911
 6696SOL    HW220988   3.598   2.933   4.074
 6697SOL     OW20989   4.864   1.758   3.103
 6697SOL    HW120990   4.950   1.797   3.134
 6697SOL    HW220991   4.800   1.754   3.179
 6698SOL     OW20992   3.567   2.128   0.817
 6698SOL    HW120993   3.514   2.062   0.871
 6698SOL    HW220994   3.606   2.083   0.737
 6699SOL     OW20995   2.372   5.996   5.879
 6699SOL    HW120996   2.468   6.001   5.905
 6699SOL    HW220997   2.357   6.050   5.796
 6700SOL     OW20998   0.276   1.505   1.648
 6700SOL    HW120999   0.224   1.579   1.605
 6700SOL    HW221000   0.371   1.534   1.661
 6701SOL     OW21001   5.574   5.232   1.671
 6701SOL    HW121002   5.635   5.157   1.696
 6701SOL    HW221003   5.619   5.320   1.691
 6702SOL     OW21004   2.320   2.407   1.322
 6702SOL    HW121005   2.328   2.466   1.402
 6702SOL    HW221006   2.249   2.338   1.338
 6703SOL     OW21007   6.231   0.278   0.952
 6703SOL    HW121008   6.207   0.350   0.886
 6703SOL    HW221009   6.173   0.198   0.937
 6704SOL     OW21010   3.708   2.077   2.667
 6704SOL    HW121011   3.620   2.116   2.641
 6704SOL    HW221012   3.694   1.997   2.726
 6705SOL     OW21013   6.246   3.354   1.733
 6705SOL    HW121014   6.147   3.337   1.729
 6705SOL    HW221015   6.281   3.370   1.641
 6706SOL     OW21016   1.231   5.417   1.639
 6706SOL    HW121017   1.226   5.345   1.709
 6706SOL    HW221018   1.153   5.409   1.578
 6707SOL     OW21019   5.676   6.957   3.354
 6707SOL    HW121020   5.605   6.894   3.322
 6707SOL    HW221021   5.703   6.932   3.447
 6708SOL     OW21022   6.075   5.214   0.567
 6708SOL    HW121023   6.092   5.311   0.549
 6708SOL    HW221024   6.136   5.159   0.510
 6709SOL     OW21025   1.719   6.413   2.468
 6709SOL    HW121026   1.768   6.376   2.389
 6709SOL    HW221027   1.631   6.449   2.438
 6710SOL     OW21028   3.777   1.021   6.306
 6710SOL    HW121029   3.697   0.976   6.345
 6710SOL    HW221030   3.764   1.033   6.207
 6711SOL     OW21031   5.001   6.423   5.340
 6711SOL    HW121032   5.033   6.498   5.397
 6711SOL    HW221033   4.910   6.445   5.304
 6712SOL     OW21034   5.934   3.863   0.604
 6712SOL    HW121035   5.885   3.861   0.517
 6712SOL    HW221036   5.872   3.840   0.678
 6713SOL     OW21037   2.180   0.514   2.733
 6713SOL    HW121038   2.199   0.511   2.831
 6713SOL    HW221039   2.149   0.424   2.702
 6714SOL     OW21040   6.479   0.843   6.300
 6714SOL    HW121041   6.508   0.937   6.284
 6714SOL    HW221042   6.380   0.836   6.283
 6715SOL     OW21043   0.898   0.505   0.545
 6715SOL    HW121044   0.838   0.435   0.583
 6715SOL    HW221045   0.941   0.556   0.620
 6716SOL     OW21046   0.677   5.738   2.071
 6716SOL    HW121047   0.648   5.653   2.116
 6716SOL    HW221048   0.611   5.810   2.090
 6717SOL     OW21049   3.363   2.892   6.936
 6717SOL    HW121050   3.270   2.893   6.899
 6717SOL    HW221051   3.427   2.928   6.867
 6718SOL     OW21052   5.046   0.497   0.715
 6718SOL    HW121053   4.971   0.496   0.648
 6718SOL    HW221054   5.133   0.503   0.667
 6719SOL     OW21055   2.968   6.482   0.416
 6719SOL    HW121056   3.049   6.477   0.358
 6719SOL    HW221057   2.995   6.508   0.509
 6720SOL     OW21058   2.059   0.007   4.436
 6720SOL    HW121059   2.011   6.948   4.403
 6720SOL    HW221060   2.146   0.017   4.387
 6721SOL     OW21061   6.468   6.462   0.135
 6721SOL    HW121062   6.547   6.516   0.165
 6721SOL    HW221063   6.414   6.436   0.215
 6722SOL     OW21064   6.479   3.049   1.378
 6722SOL    HW121065   6.407   2.984   1.403
 6722SOL    HW221066   6.552   3.046   1.446
 6723SOL     OW21067   1.494   6.973   4.755
 6723SOL    HW121068   1.481   6.906   4.828
 6723SOL    HW221069   1.572   0.010   4.776
 6724SOL     OW21070   2.521   3.529   6.152
 6724SOL    HW121071   2.529   3.451   6.214
 6724SOL    HW221072   2.499   3.496   6.060
 6725SOL     OW21073   6.793   3.195   1.798
 6725SOL    HW121074   6.821   3.262   1.867
 6725SOL    HW221075   6.787   3.239   1.709
 6726SOL     OW21076   1.253   2.969   4.586
 6726SOL    HW121077   1.160   2.994   4.611
 6726SOL    HW221078   1.252   2.885   4.533
 6727SOL     OW21079   0.226   4.800   5.866
 6727SOL    HW121080   0.300   4.748   5.909
 6727SOL    HW221081   0.187   4.864   5.933
 6728SOL     OW21082   4.002   2.223   2.365
 6728SOL    HW121083   3.910   2.186   2.354
 6728SOL    HW221084   4.016   2.250   2.460
 6729SOL     OW21085   5.971   0.777   1.099
 6729SOL    HW121086   6.070   0.785   1.111
 6729SOL    HW221087   5.950   0.741   1.008
 6730SOL     OW21088   2.047   6.718   1.575
 6730SOL    HW121089   2.130   6.669   1.547
 6730SOL    HW221090   1.972   6.652   1.586
 6731SOL     OW21091   1.423   6.596   1.191
 6731SOL    HW121092   1.440   6.587   1.093
 6731SOL    HW221093   1.372   6.680   1.209
 6732SOL     OW21094   5.615   3.957   4.973
 6732SOL    HW121095   5.559   3.976   5.054
 6732SOL    HW221096   5.568   3.890   4.915
 6733SOL     OW21097   3.531   5.647   6.291
 6733SOL    HW121098   3.482   5.643   6.378
 6733SOL    HW221099   3.565   5.556   6.268
 6734SOL     OW21100   5.920   1.943   4.247
 6734SOL    HW121101   5.829   1.907   4.223
 6734SOL    HW221102   5.941   1.920   4.342
 6735SOL     OW21103   6.267   3.739   4.898
 6735SOL    HW121104   6.198   3.667   4.908
 6735SOL    HW221105   6.283   3.756   4.801
 6736SOL     OW21106   2.949   3.652   0.099
 6736SOL    HW121107   2.924   3.653   0.196
 6736SOL    HW221108   2.866   3.656   0.043
 6737SOL     OW21109   1.540   2.898   0.854
 6737SOL    HW121110   1.543   2.812   0.906
 6737SOL    HW221111   1.560   2.974   0.915
 6738SOL     OW21112   1.727   5.933   3.440
 6738SOL    HW121113   1.805   5.902   3.386
 6738SOL    HW221114   1.650   5.871   3.425
 6739SOL     OW21115   4.996   5.732   4.656
 6739SOL    HW121116   4.920   5.666   4.650
 6739SOL    HW221117   4.973   5.814   4.603
 6740SOL     OW21118   0.219   0.272   5.437
 6740SOL    HW121119   0.119   0.263   5.442
 6740SOL    HW221120   0.261   0.202   5.495
 6741SOL     OW21121   4.478   2.196   5.819
 6741SOL    HW121122   4.470   2.274   5.881
 6741SOL    HW221123   4.554   2.138   5.849
 6742SOL     OW21124   5.799   5.875   3.238
 6742SOL    HW121125   5.720   5.844   3.291
 6742SOL    HW221126   5.862   5.924   3.298
 6743SOL     OW21127   4.587   4.326   6.467
 6743SOL    HW121128   4.533   4.363   6.391
 6743SOL    HW221129   4.667   4.279   6.431
 6744SOL     OW21130   6.089   4.174   6.148
 6744SOL    HW121131   6.089   4.273   6.157
 6744SOL    HW221132   6.180   4.143   6.118
 6745SOL     OW21133   0.338   0.077   3.878
 6745SOL    HW121134   0.432   0.104   3.899
 6745SOL    HW221135   0.286   0.071   3.963
 6746SOL     OW21136   0.898   1.033   4.210
 6746SOL    HW121137   0.990   1.004   4.184
 6746SOL    HW221138   0.831   0.993   4.148
 6747SOL     OW21139   5.526   1.139   5.806
 6747SOL    HW121140   5.462   1.062   5.798
 6747SOL    HW221141   5.515   1.183   5.895
 6748SOL     OW21142   2.991   1.972   3.348
 6748SOL    HW121143   3.042   1.934   3.270
 6748SOL    HW221144   2.972   2.069   3.331
 6749SOL     OW21145   3.479   4.344   1.067
 6749SOL    HW121146   3.510   4.413   1.132
 6749SOL    HW221147   3.454   4.387   0.981
 6750SOL     OW21148   3.473   1.977   4.409
 6750SOL    HW121149   3.414   2.028   4.346
 6750SOL    HW221150   3.419   1.944   4.486
 6751SOL     OW21151   5.334   6.867   3.020
 6751SOL    HW121152   5.402   6.857   2.948
 6751SOL    HW221153   5.291   6.778   3.038
 6752SOL     OW21154   1.526   6.840   3.230
 6752SOL    HW121155   1.503   6.872   3.138
 6752SOL    HW221156   1.453   6.780   3.264
 6753SOL     OW21157   2.956   1.301   6.273
 6753SOL    HW121158   2.870   1.336   6.309
 6753SOL    HW221159   2.951   1.299   6.173
 6754SOL     OW21160   0.096   1.535   1.345
 6754SOL    HW121161   0.020   1.528   1.280
 6754SOL    HW221162   0.088   1.463   1.413
 6755SOL     OW21163   4.385   1.034   2.326
 6755SOL    HW121164   4.405   0.937   2.309
 6755SOL    HW221165   4.340   1.073   2.245
 6756SOL     OW21166   3.690   5.742   5.336
 6756SOL    HW121167   3.723   5.774   5.425
 6756SOL    HW221168   3.620   5.672   5.350
 6757SOL     OW21169   3.808   2.357   0.521
 6757SOL    HW121170   3.878   2.395   0.581
 6757SOL    HW221171   3.847   2.281   0.469
 6758SOL     OW21172   6.186   2.553   1.945
 6758SOL    HW121173   6.132   2.505   2.013
 6758SOL    HW221174   6.245   2.621   1.989
 6759SOL     OW21175   1.688   4.228   4.416
 6759SOL    HW121176   1.742   4.152   4.380
 6759SOL    HW221177   1.632   4.267   4.342
 6760SOL     OW21178   6.799   4.143   2.023
 6760SOL    HW121179   6.897   4.134   2.007
 6760SOL    HW221180   6.783   4.173   2.117
 6761SOL     OW21181   6.841   2.434   5.832
 6761SOL    HW121182   6.775   2.466   5.763
 6761SOL    HW221183   6.792   2.384   5.904
 6762SOL     OW21184   0.574   4.531   4.398
 6762SOL    HW121185   0.475   4.541   4.411
 6762SOL    HW221186   0.608   4.605   4.342
 6763SOL     OW21187   6.475   5.582   3.649
 6763SOL    HW121188   6.570   5.550   3.645
 6763SOL    HW221189   6.433   5.574   3.558
 6764SOL     OW21190   1.896   5.730   1.094
 6764SOL    HW121191   1.876   5.785   1.013
 6764SOL    HW221192   1.823   5.664   1.109
 6765SOL     OW21193   5.576   4.718   3.776
 6765SOL    HW121194   5.580   4.680   3.869
 6765SOL    HW221195   5.622   4.657   3.713
 6766SOL     OW21196   5.407   6.337   6.025
 6766SOL    HW121197   5.486   6.390   5.994
 6766SOL    HW221198   5.387   6.265   5.958
 6767SOL     OW21199   2.182   1.437   1.102
 6767SOL    HW121200   2.269   1.480   1.126
 6767SOL    HW221201   2.114   1.457   1.172
 6768SOL     OW21202   1.346   6.468   4.841
 6768SOL    HW121203   1.329   6.532   4.916
 6768SOL    HW221204   1.326   6.375   4.873
 6769SOL     OW21205   2.449   0.657   6.057
 6769SOL    HW121206   2.481   0.600   6.132
 6769SOL    HW221207   2.451   0.604   5.972
 6770SOL     OW21208   5.706   1.468   3.124
 6770SOL    HW121209   5.720   1.378   3.166
 6770SOL    HW221210   5.711   1.459   3.024
 6771SOL     OW21211   4.065   1.581   3.216
 6771SOL    HW121212   4.074   1.673   3.177
 6771SOL    HW221213   3.994   1.581   3.285
 6772SOL     OW21214   4.421   2.245   3.126
 6772SOL    HW121215   4.407   2.205   3.035
 6772SOL    HW221216   4.466   2.178   3.186
 6773SOL     OW21217   6.708   6.086   1.517
 6773SOL    HW121218   6.699   6.035   1.432
 6773SOL    HW221219   6.804   6.095   1.541
 6774SOL     OW21220   0.726   3.827   4.879
 6774SOL    HW121221   0.691   3.846   4.971
 6774SOL    HW221222   0.703   3.733   4.853
 6775SOL     OW21223   2.657   2.204   2.113
 6775SOL    HW121224   2.620   2.151   2.037
 6775SOL    HW221225   2.752   2.227   2.093
 6776SOL     OW21226   4.795   3.764   0.021
 6776SOL    HW121227   4.726   3.761   0.094
 6776SOL    HW221228   4.796   3.854   7.001
 6777SOL     OW21229   4.927   4.502   0.636
 6777SOL    HW121230   4.876   4.575   0.591
 6777SOL    HW221231   5.007   4.479   0.582
 6778SOL     OW21232   6.112   5.247   2.150
 6778SOL    HW121233   6.206   5.214   2.146
 6778SOL    HW221234   6.104   5.320   2.218
 6779SOL     OW21235   5.653   5.666   5.901
 6779SOL    HW121236   5.643   5.745   5.841
 6779SOL    HW221237   5.728   5.681   5.965
 6780SOL     OW21238   2.026   2.732   2.473
 6780SOL    HW121239   1.938   2.770   2.501
 6780SOL    HW221240   2.079   2.707   2.555
 6781SOL     OW21241   6.833   2.142   4.340
 6781SOL    HW121242   6.756   2.134   4.403
 6781SOL    HW221243   6.917   2.116   4.386
 6782SOL     OW21244   0.581   0.891   2.642
 6782SOL    HW121245   0.517   0.887   2.565
 6782SOL    HW221246   0.617   0.800   2.661
 6783SOL     OW21247   6.394   1.082   5.361
 6783SOL    HW121248   6.491   1.079   5.339
 6783SOL    HW221249   6.367   1.177   5.380
 6784SOL     OW21250   1.360   3.319   1.098
 6784SOL    HW121251   1.342   3.377   1.018
 6784SOL    HW221252   1.431   3.361   1.154
 6785SOL     OW21253   5.994   5.559   4.561
 6785SOL    HW121254   5.983   5.603   4.472
 6785SOL    HW221255   5.912   5.576   4.616
 6786SOL     OW21256   1.775   2.325   0.785
 6786SOL    HW121257   1.834   2.369   0.853
 6786SOL    HW221258   1.781   2.226   0.796
 6787SOL     OW21259   2.554   2.920   6.890
 6787SOL    HW121260   2.490   2.857   6.935
 6787SOL    HW221261   2.647   2.900   6.919
 6788SOL     OW21262   1.487   4.383   1.253
 6788SOL    HW121263   1.400   4.378   1.302
 6788SOL    HW221264   1.499   4.475   1.216
 6789SOL     OW21265   0.586   5.404   3.257
 6789SOL    HW121266   0.640   5.372   3.335
 6789SOL    HW221267   0.494   5.364   3.262
 6790SOL     OW21268   7.019   3.613   0.494
 6790SOL    HW121269   7.020   3.713   0.481
 6790SOL    HW221270   0.042   3.591   0.580
 6791SOL     OW21271   3.931   1.578   2.282
 6791SOL    HW121272   3.955   1.483   2.300
 6791SOL    HW221273   3.983   1.611   2.203
 6792SOL     OW21274   6.102   0.100   4.647
 6792SOL    HW121275   6.121   0.020   4.704
 6792SOL    HW221276   6.185   0.155   4.639
 6793SOL     OW21277   2.084   1.190   0.726
 6793SOL    HW121278   2.076   1.279   0.770
 6793SOL    HW221279   2.006   1.177   0.665
 6794SOL     OW21280   5.100   0.617   5.686
 6794SOL    HW121281   5.030   0.566   5.736
 6794SOL    HW221282   5.111   0.579   5.594
 6795SOL     OW21283   2.183   6.430   0.522
 6795SOL    HW121284   2.210   6.477   0.437
 6795SOL    HW221285   2.256   6.442   0.590
 6796SOL     OW21286   5.982   0.507   3.138
 6796SOL    HW121287   5.924   0.442   3.189
 6796SOL    HW221288   6.030   0.566   3.202
 6797SOL     OW21289   6.742   2.700   1.765
 6797SOL    HW121290   6.703   2.698   1.858
 6797SOL    HW221291   6.727   2.611   1.721
 6798SOL     OW21292   5.433   6.724   1.975
 6798SOL    HW121293   5.426   6.627   1.950
 6798SOL    HW221294   5.499   6.769   1.915
 6799SOL     OW21295   0.137   0.192   2.184
 6799SOL    HW121296   0.134   0.105   2.233
 6799SOL    HW221297   0.126   0.176   2.086
 6800SOL     OW21298   2.174   2.987   2.124
 6800SOL    HW121299   2.212   3.071   2.086
 6800SOL    HW221300   2.216   2.908   2.080
 6801SOL     OW21301   0.477   6.871   2.800
 6801SOL    HW121302   0.454   6.850   2.894
 6801SOL    HW221303   0.558   6.819   2.773
 6802SOL     OW21304   3.547   5.799   1.601
 6802SOL    HW121305   3.492   5.807   1.518
 6802SOL    HW221306   3.489   5.816   1.681
 6803SOL     OW21307   4.180   3.551   5.385
 6803SOL    HW121308   4.198   3.454   5.401
 6803SOL    HW221309   4.174   3.598   5.473
 6804SOL     OW21310   3.517   5.035   4.036
 6804SOL    HW121311   3.529   5.043   3.937
 6804SOL    HW221312   3.425   5.064   4.061
 6805SOL     OW21313   0.410   4.932   6.611
 6805SOL    HW121314   0.388   4.850   6.663
 6805SOL    HW221315   0.328   4.988   6.600
 6806SOL     OW21316   6.561   0.620   3.240
 6806SOL    HW121317   6.578   0.718   3.229
 6806SOL    HW221318   6.463   0.602   3.242
 6807SOL     OW21319   3.374   3.729   1.352
 6807SOL    HW121320   3.352   3.824   1.334
 6807SOL    HW221321   3.443   3.723   1.424
 6808SOL     OW21322   0.015   2.248   5.761
 6808SOL    HW121323   0.013   2.172   5.826
 6808SOL    HW221324   6.956   2.305   5.773
 6809SOL     OW21325   0.863   3.184   1.430
 6809SOL    HW121326   0.905   3.274   1.419
 6809SOL    HW221327   0.898   3.141   1.513
 6810SOL     OW21328   1.823   0.975   2.512
 6810SOL    HW121329   1.796   1.061   2.555
 6810SOL    HW221330   1.743   0.916   2.502
 6811SOL     OW21331   5.340   3.602   1.810
 6811SOL    HW121332   5.325   3.511   1.772
 6811SOL    HW221333   5.419   3.599   1.871
 6812SOL     OW21334   3.223   3.677   4.803
 6812SOL    HW121335   3.272   3.738   4.865
 6812SOL    HW221336   3.172   3.731   4.736
 6813SOL     OW21337   5.283   3.059   3.231
 6813SOL    HW121338   5.290   2.965   3.265
 6813SOL    HW221339   5.203   3.066   3.171
 6814SOL     OW21340   3.718   1.895   5.901
 6814SOL    HW121341   3.727   1.876   5.803
 6814SOL    HW221342   3.652   1.969   5.914
 6815SOL     OW21343   3.841   5.981   1.067
 6815SOL    HW121344   3.783   5.986   1.147
 6815SOL    HW221345   3.785   5.964   0.986
 6816SOL     OW21346   6.731   0.749   6.371
 6816SOL    HW121347   6.644   0.790   6.343
 6816SOL    HW221348   6.804   0.781   6.311
 6817SOL     OW21349   2.231   2.696   2.669
 6817SOL    HW121350   2.264   2.680   2.576
 6817SOL    HW221351   2.279   2.635   2.733
 6818SOL     OW21352   2.541   6.651   1.608
 6818SOL    HW121353   2.593   6.727   1.569
 6818SOL    HW221354   2.604   6.587   1.651
 6819SOL     OW21355   4.092   1.782   2.998
 6819SOL    HW121356   4.005   1.790   2.949
 6819SOL    HW221357   4.168   1.797   2.934
 6820SOL     OW21358   2.241   6.326   1.591
 6820SOL    HW121359   2.229   6.226   1.590
 6820SOL    HW221360   2.192   6.365   1.668
 6821SOL     OW21361   3.919   2.101   5.019
 6821SOL    HW121362   3.932   2.029   5.087
 6821SOL    HW221363   3.833   2.087   4.971
 6822SOL     OW21364   5.770   2.308   6.103
 6822SOL    HW121365   5.795   2.384   6.163
 6822SOL    HW221366   5.674   2.316   6.077
 6823SOL     OW21367   4.914   3.623   5.796
 6823SOL    HW121368   4.922   3.625   5.696
 6823SOL    HW221369   4.820   3.647   5.822
 6824SOL     OW21370   1.230   2.269   0.321
 6824SOL    HW121371   1.272   2.222   0.243
 6824SOL    HW221372   1.170   2.207   0.370
 6825SOL     OW21373   5.294   6.765   1.020
 6825SOL    HW121374   5.247   6.760   0.932
 6825SOL    HW221375   5.228   6.746   1.094
 6826SOL     OW21376   1.958   3.324   3.395
 6826SOL    HW121377   1.905   3.273   3.463
 6826SOL    HW221378   2.034   3.268   3.364
 6827SOL     OW21379   4.327   5.166   6.383
 6827SOL    HW121380   4.425   5.179   6.374
 6827SOL    HW221381   4.279   5.246   6.346
 6828SOL     OW21382   3.150   1.311   1.675
 6828SOL    HW121383   3.148   1.379   1.602
 6828SOL    HW221384   3.064   1.312   1.725
 6829SOL     OW21385   5.177   5.956   5.192
 6829SOL    HW121386   5.245   5.961   5.265
 6829SOL    HW221387   5.152   6.049   5.164
 6830SOL     OW21388   4.955   0.805   3.550
 6830SOL    HW121389   4.961   0.849   3.460
 6830SOL    HW221390   5.023   0.732   3.556
 6831SOL     OW21391   1.047   0.390   6.871
 6831SOL    HW121392   1.067   0.339   6.787
 6831SOL    HW221393   1.127   0.392   6.930
 6832SOL     OW21394   2.712   4.365   0.739
 6832SOL    HW121395   2.738   4.295   0.806
 6832SOL    HW221396   2.689   4.320   0.652
 6833SOL     OW21397   3.477   4.341   6.293
 6833SOL    HW121398   3.531   4.405   6.239
 6833SOL    HW221399   3.448   4.265   6.235
 6834SOL     OW21400   5.080   6.930   0.465
 6834SOL    HW121401   5.142   6.882   0.403
 6834SOL    HW221402   4.986   6.901   0.449
 6835SOL     OW21403   4.197   0.860   4.632
 6835SOL    HW121404   4.217   0.884   4.537
 6835SOL    HW221405   4.274   0.810   4.671
 6836SOL     OW21406   2.756   4.681   0.437
 6836SOL    HW121407   2.685   4.726   0.492
 6836SOL    HW221408   2.757   4.583   0.457
 6837SOL     OW21409   0.633   1.955   2.151
 6837SOL    HW121410   0.544   1.937   2.193
 6837SOL    HW221411   0.705   1.925   2.214
 6838SOL     OW21412   3.523   6.278   0.061
 6838SOL    HW121413   3.602   6.217   0.056
 6838SOL    HW221414   3.456   6.241   0.125
 6839SOL     OW21415   6.152   1.024   6.174
 6839SOL    HW121416   6.179   1.106   6.124
 6839SOL    HW221417   6.081   1.048   6.241
 6840SOL     OW21418   3.365   0.796   4.700
 6840SOL    HW121419   3.265   0.801   4.701
 6840SOL    HW221420   3.393   0.701   4.688
 6841SOL     OW21421   4.386   4.206   0.295
 6841SOL    HW121422   4.440   4.204   0.211
 6841SOL    HW221423   4.372   4.300   0.324
 6842SOL     OW21424   3.011   3.858   0.582
 6842SOL    HW121425   2.978   3.951   0.601
 6842SOL    HW221426   3.110   3.856   0.591
 6843SOL     OW21427   6.184   6.369   1.175
 6843SOL    HW121428   6.164   6.466   1.158
 6843SOL    HW221429   6.117   6.313   1.127
 6844SOL     OW21430   5.123   0.646   3.904
 6844SOL    HW121431   5.176   0.608   3.828
 6844SOL    HW221432   5.093   0.738   3.881
 6845SOL     OW21433   6.667   4.200   3.560
 6845SOL    HW121434   6.732   4.246   3.621
 6845SOL    HW221435   6.642   4.262   3.486
 6846SOL     OW21436   3.646   3.208   0.247
 6846SOL    HW121437   3.610   3.244   0.161
 6846SOL    HW221438   3.742   3.181   0.234
 6847SOL     OW21439   0.538   3.585   4.263
 6847SOL    HW121440   0.574   3.645   4.192
 6847SOL    HW221441   0.498   3.640   4.337
 6848SOL     OW21442   4.840   6.313   3.549
 6848SOL    HW121443   4.750   6.279   3.521
 6848SOL    HW221444   4.829   6.376   3.626
 6849SOL     OW21445   4.031   4.864   4.904
 6849SOL    HW121446   4.108   4.923   4.882
 6849SOL    HW221447   3.950   4.894   4.854
 6850SOL     OW21448   5.780   4.323   2.123
 6850SOL    HW121449   5.757   4.227   2.139
 6850SOL    HW221450   5.872   4.341   2.159
 6851SOL     OW21451   0.817   2.141   2.979
 6851SOL    HW121452   0.747   2.196   2.932
 6851SOL    HW221453   0.874   2.095   2.912
 6852SOL     OW21454   2.880   4.855   0.633
 6852SOL    HW121455   2.975   4.887   0.626
 6852SOL    HW221456   2.864   4.782   0.567
 6853SOL     OW21457   5.898   4.373   0.435
 6853SOL    HW121458   5.949   4.358   0.520
 6853SOL    HW221459   5.933   4.455   0.390
 6854SOL     OW21460   4.551   1.783   6.255
 6854SOL    HW121461   4.525   1.714   6.322
 6854SOL    HW221462   4.473   1.842   6.235
 6855SOL     OW21463   4.153   5.471   3.702
 6855SOL    HW121464   4.114   5.507   3.787
 6855SOL    HW221465   4.220   5.536   3.666
 6856SOL     OW21466   5.748   2.886   5.173
 6856SOL    HW121467   5.680   2.833   5.222
 6856SOL    HW221468   5.715   2.979   5.160
 6857SOL     OW21469   3.132   2.872   6.778
 6857SOL    HW121470   3.084   2.937   6.836
 6857SOL    HW221471   3.134   2.906   6.684
 6858SOL     OW21472   3.972   3.613   3.203
 6858SOL    HW121473   3.888   3.562   3.183
 6858SOL    HW221474   3.948   3.704   3.238
 6859SOL     OW21475   0.354   1.663   1.325
 6859SOL    HW121476   0.278   1.598   1.326
 6859SOL    HW221477   0.319   1.756   1.329
 6860SOL     OW21478   6.897   5.121   1.057
 6860SOL    HW121479   6.827   5.118   0.986
 6860SOL    HW221480   6.870   5.061   1.133
 6861SOL     OW21481   4.274   5.321   0.323
 6861SOL    HW121482   4.281   5.385   0.247
 6861SOL    HW221483   4.235   5.368   0.402
 6862SOL     OW21484   1.296   5.178   6.511
 6862SOL    HW121485   1.219   5.131   6.467
 6862SOL    HW221486   1.359   5.212   6.441
 6863SOL     OW21487   6.096   6.625   5.913
 6863SOL    HW121488   6.126   6.674   5.994
 6863SOL    HW221489   6.025   6.559   5.938
 6864SOL     OW21490   2.740   5.252   4.582
 6864SOL    HW121491   2.673   5.181   4.558
 6864SOL    HW221492   2.801   5.217   4.652
 6865SOL     OW21493   1.333   6.236   4.003
 6865SOL    HW121494   1.239   6.204   4.010
 6865SOL    HW221495   1.393   6.160   3.977
 6866SOL     OW21496   6.078   4.866   3.891
 6866SOL    HW121497   6.123   4.798   3.833
 6866SOL    HW221498   6.004   4.822   3.942
 6867SOL     OW21499   2.282   4.549   1.306
 6867SOL    HW121500   2.381   4.548   1.295
 6867SOL    HW221501   2.240   4.482   1.245
 6868SOL     OW21502   1.145   5.619   6.394
 6868SOL    HW121503   1.089   5.585   6.469
 6868SOL    HW221504   1.200   5.697   6.427
 6869SOL     OW21505   5.955   1.003   5.943
 6869SOL    HW121506   6.051   0.987   5.923
 6869SOL    HW221507   5.914   0.918   5.976
 6870SOL     OW21508   0.674   5.333   1.655
 6870SOL    HW121509   0.752   5.284   1.615
 6870SOL    HW221510   0.589   5.298   1.614
 6871SOL     OW21511   6.016   4.132   3.404
 6871SOL    HW121512   6.067   4.070   3.463
 6871SOL    HW221513   6.073   4.211   3.380
 6872SOL     OW21514   0.455   2.385   1.303
 6872SOL    HW121515   0.391   2.405   1.376
 6872SOL    HW221516   0.544   2.424   1.324
 6873SOL     OW21517   6.780   3.460   4.479
 6873SOL    HW121518   6.757   3.411   4.395
 6873SOL    HW221519   6.721   3.540   4.488
 6874SOL     OW21520   6.842   5.725   2.690
 6874SOL    HW121521   6.939   5.699   2.687
 6874SOL    HW221522   6.823   5.770   2.777
 6875SOL     OW21523   2.520   2.376   2.385
 6875SOL    HW121524   2.545   2.345   2.293
 6875SOL    HW221525   2.448   2.318   2.422
 6876SOL     OW21526   3.711   0.035   3.636
 6876SOL    HW121527   3.690   6.959   3.635
 6876SOL    HW221528   3.679   0.074   3.723
 6877SOL     OW21529   2.386   3.986   0.709
 6877SOL    HW121530   2.297   3.939   0.712
 6877SOL    HW221531   2.415   3.994   0.614
 6878SOL     OW21532   3.572   1.192   4.323
 6878SOL    HW121533   3.661   1.187   4.278
 6878SOL    HW221534   3.557   1.108   4.376
 6879SOL     OW21535   0.828   2.679   0.697
 6879SOL    HW121536   0.730   2.658   0.698
 6879SOL    HW221537   0.864   2.677   0.790
 6880SOL     OW21538   2.401   5.673   5.081
 6880SOL    HW121539   2.476   5.694   5.018
 6880SOL    HW221540   2.315   5.671   5.031
 6881SOL     OW21541   1.480   4.859   0.941
 6881SOL    HW121542   1.579   4.864   0.941
 6881SOL    HW221543   1.441   4.947   0.969
 6882SOL     OW21544   2.703   0.528   0.220
 6882SOL    HW121545   2.775   0.568   0.165
 6882SOL    HW221546   2.615   0.568   0.194
 6883SOL     OW21547   5.005   1.552   6.653
 6883SOL    HW121548   5.095   1.532   6.692
 6883SOL    HW221549   5.005   1.645   6.615
 6884SOL     OW21550   1.975   4.513   3.648
 6884SOL    HW121551   1.931   4.535   3.735
 6884SOL    HW221552   1.912   4.460   3.592
 6885SOL     OW21553   4.048   4.974   4.056
 6885SOL    HW121554   3.980   4.980   3.983
 6885SOL    HW221555   4.117   5.044   4.043
 6886SOL     OW21556   0.072   1.146   4.188
 6886SOL    HW121557   0.144   1.096   4.139
 6886SOL    HW221558   0.088   1.140   4.286
 6887SOL     OW21559   4.920   5.444   6.280
 6887SOL    HW121560   4.880   5.535   6.267
 6887SOL    HW221561   4.943   5.431   6.377
 6888SOL     OW21562   5.585   5.716   6.544
 6888SOL    HW121563   5.635   5.786   6.595
 6888SOL    HW221564   5.622   5.626   6.568
 6889SOL     OW21565   1.910   2.651   5.259
 6889SOL    HW121566   1.955   2.588   5.195
 6889SOL    HW221567   1.852   2.715   5.209
 6890SOL     OW21568   4.411   6.611   1.938
 6890SOL    HW121569   4.313   6.593   1.943
 6890SOL    HW221570   4.436   6.682   2.003
 6891SOL     OW21571   2.352   4.380   3.151
 6891SOL    HW121572   2.365   4.479   3.164
 6891SOL    HW221573   2.337   4.361   3.054
 6892SOL     OW21574   3.137   2.121   3.565
 6892SOL    HW121575   3.119   2.060   3.488
 6892SOL    HW221576   3.192   2.073   3.633
 6893SOL     OW21577   4.650   4.716   0.002
 6893SOL    HW121578   4.651   4.815   0.011
 6893SOL    HW221579   4.702   4.689   6.942
 6894SOL     OW21580   6.093   5.082   0.831
 6894SOL    HW121581   6.085   5.152   0.761
 6894SOL    HW221582   6.181   5.035   0.821
 6895SOL     OW21583   3.349   4.978   0.795
 6895SOL    HW121584   3.403   5.061   0.781
 6895SOL    HW221585   3.307   4.951   0.708
 6896SOL     OW21586   2.134   0.073   3.947
 6896SOL    HW121587   2.164   0.147   3.887
 6896SOL    HW221588   2.085   0.004   3.893
 6897SOL     OW21589   4.509   3.440   5.375
 6897SOL    HW121590   4.565   3.441   5.292
 6897SOL    HW221591   4.413   3.459   5.350
 6898SOL     OW21592   4.446   1.508   2.226
 6898SOL    HW121593   4.408   1.512   2.134
 6898SOL    HW221594   4.403   1.434   2.277
 6899SOL     OW21595   5.294   6.268   1.395
 6899SOL    HW121596   5.303   6.362   1.362
 6899SOL    HW221597   5.197   6.247   1.409
 6900SOL     OW21598   6.126   5.789   5.282
 6900SOL    HW121599   6.143   5.845   5.200
 6900SOL    HW221600   6.212   5.776   5.331
 6901SOL     OW21601   6.784   6.270   6.204
 6901SOL    HW121602   6.851   6.338   6.173
 6901SOL    HW221603   6.786   6.265   6.304
 6902SOL     OW21604   5.431   6.015   6.597
 6902SOL    HW121605   5.404   5.974   6.684
 6902SOL    HW221606   5.495   5.953   6.550
 6903SOL     OW21607   2.958   4.963   5.182
 6903SOL    HW121608   2.984   4.943   5.088
 6903SOL    HW221609   2.873   4.914   5.205
 6904SOL     OW21610   6.657   0.856   4.626
 6904SOL    HW121611   6.685   0.842   4.531
 6904SOL    HW221612   6.711   0.930   4.666
 6905SOL     OW21613   6.022   6.544   6.484
 6905SOL    HW121614   6.107   6.594   6.467
 6905SOL    HW221615   6.036   6.448   6.463
 6906SOL     OW21616   4.325   1.223   4.333
 6906SOL    HW121617   4.350   1.226   4.236
 6906SOL    HW221618   4.397   1.176   4.384
 6907SOL     OW21619   5.073   2.949   1.824
 6907SOL    HW121620   5.010   2.873   1.841
 6907SOL    HW221621   5.029   3.034   1.853
 6908SOL     OW21622   0.636   4.928   6.485
 6908SOL    HW121623   0.695   4.856   6.522
 6908SOL    HW221624   0.546   4.922   6.528
 6909SOL     OW21625   4.860   4.342   1.522
 6909SOL    HW121626   4.861   4.380   1.615
 6909SOL    HW221627   4.874   4.243   1.527
 6910SOL     OW21628   0.581   2.748   3.331
 6910SOL    HW121629   0.680   2.732   3.323
 6910SOL    HW221630   0.537   2.667   3.370
 6911SOL     OW21631   4.236   6.134   4.020
 6911SOL    HW121632   4.240   6.037   3.999
 6911SOL    HW221633   4.294   6.155   4.098
 6912SOL     OW21634   4.051   4.107   6.392
 6912SOL    HW121635   4.073   4.022   6.439
 6912SOL    HW221636   3.964   4.097   6.343
 6913SOL     OW21637   5.589   5.841   3.910
 6913SOL    HW121638   5.568   5.878   4.001
 6913SOL    HW221639   5.510   5.854   3.850
 6914SOL     OW21640   6.179   3.973   3.597
 6914SOL    HW121641   6.233   4.028   3.661
 6914SOL    HW221642   6.233   3.896   3.565
 6915SOL     OW21643   5.978   2.738   1.879
 6915SOL    HW121644   5.920   2.661   1.854
 6915SOL    HW221645   6.067   2.704   1.911
 6916SOL     OW21646   5.973   2.079   0.133
 6916SOL    HW121647   5.951   1.989   0.096
 6916SOL    HW221648   6.064   2.107   0.102
 6917SOL     OW21649   3.347   0.118   1.568
 6917SOL    HW121650   3.354   0.024   1.536
 6917SOL    HW221651   3.422   0.172   1.530
 6918SOL     OW21652   0.407   2.660   4.712
 6918SOL    HW121653   0.455   2.603   4.779
 6918SOL    HW221654   0.443   2.753   4.715
 6919SOL     OW21655   6.334   5.810   3.715
 6919SOL    HW121656   6.392   5.730   3.698
 6919SOL    HW221657   6.374   5.865   3.788
 6920SOL     OW21658   4.051   6.059   5.517
 6920SOL    HW121659   4.028   5.982   5.459
 6920SOL    HW221660   4.001   6.052   5.604
 6921SOL     OW21661   5.198   5.618   3.866
 6921SOL    HW121662   5.099   5.620   3.879
 6921SOL    HW221663   5.221   5.663   3.780
 6922SOL     OW21664   1.718   6.226   4.831
 6922SOL    HW121665   1.762   6.292   4.891
 6922SOL    HW221666   1.638   6.267   4.787
 6923SOL     OW21667   4.605   5.515   3.345
 6923SOL    HW121668   4.566   5.523   3.436
 6923SOL    HW221669   4.698   5.478   3.351
 6924SOL     OW21670   2.462   4.034   6.577
 6924SOL    HW121671   2.543   4.031   6.636
 6924SOL    HW221672   2.453   4.126   6.539
 6925SOL     OW21673   4.996   6.120   3.949
 6925SOL    HW121674   4.920   6.122   4.013
 6925SOL    HW221675   5.062   6.191   3.974
 6926SOL     OW21676   3.067   2.474   1.196
 6926SOL    HW121677   2.998   2.462   1.124
 6926SOL    HW221678   3.094   2.385   1.232
 6927SOL     OW21679   4.148   2.932   6.189
 6927SOL    HW121680   4.067   2.886   6.152
 6927SOL    HW221681   4.142   2.934   6.289
 6928SOL     OW21682   5.727   5.807   1.007
 6928SOL    HW121683   5.740   5.731   0.943
 6928SOL    HW221684   5.640   5.852   0.988
 6929SOL     OW21685   5.509   5.461   1.461
 6929SOL    HW121686   5.460   5.374   1.465
 6929SOL    HW221687   5.451   5.534   1.498
 6930SOL     OW21688   0.898   0.307   2.515
 6930SOL    HW121689   0.863   0.388   2.469
 6930SOL    HW221690   0.829   0.234   2.512
 6931SOL     OW21691   1.875   0.635   2.343
 6931SOL    HW121692   1.961   0.598   2.379
 6931SOL    HW221693   1.860   0.727   2.381
 6932SOL     OW21694   4.588   6.167   0.350
 6932SOL    HW121695   4.551   6.208   0.433
 6932SOL    HW221696   4.550   6.075   0.338
 6933SOL     OW21697   3.130   6.121   5.554
 6933SOL    HW121698   3.156   6.117   5.458
 6933SOL    HW221699   3.209   6.102   5.611
 6934SOL     OW21700   4.669   3.758   6.435
 6934SOL    HW121701   4.663   3.846   6.388
 6934SOL    HW221702   4.646   3.771   6.532
 6935SOL     OW21703   4.784   5.545   2.161
 6935SOL    HW121704   4.689   5.576   2.163
 6935SOL    HW221705   4.838   5.599   2.225
 6936SOL     OW21706   5.942   1.565   3.198
 6936SOL    HW121707   5.950   1.665   3.187
 6936SOL    HW221708   5.847   1.538   3.185
 6937SOL     OW21709   6.383   6.095   0.251
 6937SOL    HW121710   6.444   6.109   0.329
 6937SOL    HW221711   6.311   6.165   0.252
 6938SOL     OW21712   5.740   2.973   4.836
 6938SOL    HW121713   5.798   2.938   4.910
 6938SOL    HW221714   5.788   3.046   4.787
 6939SOL     OW21715   1.240   5.153   1.728
 6939SOL    HW121716   1.339   5.141   1.729
 6939SOL    HW221717   1.196   5.071   1.691
 6940SOL     OW21718   3.827   0.753   6.117
 6940SOL    HW121719   3.864   0.794   6.200
 6940SOL    HW221720   3.858   0.806   6.038
 6941SOL     OW21721   3.437   4.099   1.895
 6941SOL    HW121722   3.487   4.064   1.816
 6941SOL    HW221723   3.380   4.025   1.933
 6942SOL     OW21724   6.279   0.188   1.321
 6942SOL    HW121725   6.307   0.106   1.369
 6942SOL    HW221726   6.196   0.169   1.268
 6943SOL     OW21727   3.218   5.715   6.917
 6943SOL    HW121728   3.289   5.757   6.861
 6943SOL    HW221729   3.143   5.685   6.859
 6944SOL     OW21730   0.623   4.215   6.576
 6944SOL    HW121731   0.715   4.228   6.539
 6944SOL    HW221732   0.602   4.117   6.580
 6945SOL     OW21733   6.346   1.017   6.723
 6945SOL    HW121734   6.348   1.074   6.640
 6945SOL    HW221735   6.416   0.946   6.716
 6946SOL     OW21736   4.323   6.920   0.603
 6946SOL    HW121737   4.280   7.009   0.612
 6946SOL    HW221738   4.417   6.924   0.638
 6947SOL     OW21739   3.007   5.760   6.249
 6947SOL    HW121740   3.094   5.713   6.232
 6947SOL    HW221741   2.932   5.695   6.239
 6948SOL     OW21742   0.582   0.532   0.759
 6948SOL    HW121743   0.525   0.533   0.676
 6948SOL    HW221744   0.618   0.440   0.773
 6949SOL     OW21745   3.998   0.010   3.334
 6949SOL    HW121746   4.069   0.024   3.265
 6949SOL    HW221747   3.955   6.944   3.319
 6950SOL     OW21748   1.510   2.201   4.529
 6950SOL    HW121749   1.582   2.235   4.589
 6950SOL    HW221750   1.451   2.277   4.501
 6951SOL     OW21751   6.662   5.227   6.078
 6951SOL    HW121752   6.593   5.158   6.057
 6951SOL    HW221753   6.646   5.263   6.170
 6952SOL     OW21754   0.244   6.044   3.026
 6952SOL    HW121755   0.241   5.972   3.095
 6952SOL    HW221756   0.327   6.033   2.970
 6953SOL     OW21757   4.231   6.583   1.079
 6953SOL    HW121758   4.139   6.548   1.097
 6953SOL    HW221759   4.228   6.683   1.073
 6954SOL     OW21760   6.889   3.866   2.462
 6954SOL    HW121761   6.958   3.828   2.523
 6954SOL    HW221762   6.798   3.849   2.499
 6955SOL     OW21763   6.148   0.146   2.076
 6955SOL    HW121764   6.104   0.186   1.995
 6955SOL    HW221765   6.244   0.175   2.079
 6956SOL     OW21766   5.825   6.171   3.981
 6956SOL    HW121767   5.889   6.174   3.904
 6956SOL    HW221768   5.855   6.100   4.045
 6957SOL     OW21769   6.371   5.366   0.452
 6957SOL    HW121770   6.461   5.324   0.442
 6957SOL    HW221771   6.365   5.446   0.392
 6958SOL     OW21772   4.072   3.230   4.263
 6958SOL    HW121773   4.021   3.298   4.211
 6958SOL    HW221774   4.053   3.139   4.226
 6959SOL     OW21775   2.230   3.088   3.905
 6959SOL    HW121776   2.252   3.038   3.989
 6959SOL    HW221777   2.216   3.185   3.926
 6960SOL     OW21778   1.974   4.791   1.510
 6960SOL    HW121779   1.909   4.736   1.457
 6960SOL    HW221780   2.066   4.753   1.498
 6961SOL     OW21781   5.884   1.190   4.041
 6961SOL    HW121782   5.960   1.133   4.012
 6961SOL    HW221783   5.816   1.133   4.087
 6962SOL     OW21784   5.091   6.347   1.838
 6962SOL    HW121785   5.157   6.273   1.836
 6962SOL    HW221786   4.998   6.309   1.832
 6963SOL     OW21787   5.263   5.919   0.774
 6963SOL    HW121788   5.172   5.936   0.814
 6963SOL    HW221789   5.332   5.971   0.824
 6964SOL     OW21790   3.123   1.146   5.344
 6964SOL    HW121791   3.086   1.225   5.392
 6964SOL    HW221792   3.144   1.172   5.250
 6965SOL     OW21793   0.930   1.140   0.561
 6965SOL    HW121794   0.891   1.050   0.584
 6965SOL    HW221795   0.942   1.194   0.644
 6966SOL     OW21796   1.222   2.253   3.050
 6966SOL    HW121797   1.221   2.311   2.969
 6966SOL    HW221798   1.223   2.311   3.132
 6967SOL     OW21799   2.614   0.779   5.633
 6967SOL    HW121800   2.561   0.860   5.658
 6967SOL    HW221801   2.644   0.788   5.538
 6968SOL     OW21802   3.821   6.974   2.933
 6968SOL    HW121803   3.748   6.968   2.866
 6968SOL    HW221804   3.790   6.938   3.021
 6969SOL     OW21805   3.187   2.422   1.712
 6969SOL    HW121806   3.110   2.426   1.648
 6969SOL    HW221807   3.234   2.334   1.701
 6970SOL     OW21808   4.413   4.703   5.392
 6970SOL    HW121809   4.376   4.623   5.439
 6970SOL    HW221810   4.487   4.743   5.446
 6971SOL     OW21811   6.624   4.783   1.612
 6971SOL    HW121812   6.720   4.807   1.600
 6971SOL    HW221813   6.577   4.787   1.524
 6972SOL     OW21814   5.460   4.846   3.226
 6972SOL    HW121815   5.461   4.843   3.126
 6972SOL    HW221816   5.436   4.755   3.261
 6973SOL     OW21817   1.064   3.215   3.253
 6973SOL    HW121818   1.135   3.254   3.312
 6973SOL    HW221819   0.983   3.197   3.308
 6974SOL     OW21820   3.037   3.688   3.143
 6974SOL    HW121821   2.987   3.747   3.080
 6974SOL    HW221822   3.127   3.666   3.105
 6975SOL     OW21823   1.935   6.252   6.545
 6975SOL    HW121824   1.883   6.195   6.482
 6975SOL    HW221825   1.872   6.299   6.607
 6976SOL     OW21826   5.725   5.252   5.148
 6976SOL    HW121827   5.746   5.225   5.055
 6976SOL    HW221828   5.637   5.214   5.175
 6977SOL     OW21829   3.864   2.825   1.784
 6977SOL    HW121830   3.816   2.737   1.781
 6977SOL    HW221831   3.892   2.844   1.878
 6978SOL     OW21832   6.115   1.665   1.912
 6978SOL    HW121833   6.192   1.613   1.950
 6978SOL    HW221834   6.055   1.695   1.986
 6979SOL     OW21835   0.883   4.360   1.582
 6979SOL    HW121836   0.878   4.357   1.682
 6979SOL    HW221837   0.963   4.309   1.551
 6980SOL     OW21838   2.117   0.778   4.050
 6980SOL    HW121839   2.143   0.752   4.143
 6980SOL    HW221840   2.094   0.695   3.998
 6981SOL     OW21841   4.010   2.751   5.869
 6981SOL    HW121842   3.991   2.795   5.957
 6981SOL    HW221843   3.935   2.689   5.845
 6982SOL     OW21844   1.537   0.985   4.801
 6982SOL    HW121845   1.561   1.068   4.851
 6982SOL    HW221846   1.458   0.942   4.844
 6983SOL     OW21847   3.350   2.006   3.692
 6983SOL    HW121848   3.385   2.077   3.754
 6983SOL    HW221849   3.422   1.980   3.627
 6984SOL     OW21850   1.739   1.576   3.579
 6984SOL    HW121851   1.774   1.487   3.552
 6984SOL    HW221852   1.813   1.629   3.622
 6985SOL     OW21853   5.933   5.149   1.518
 6985SOL    HW121854   5.888   5.087   1.455
 6985SOL    HW221855   5.949   5.102   1.605
 6986SOL     OW21856   2.371   0.307   6.255
 6986SOL    HW121857   2.442   0.377   6.247
 6986SOL    HW221858   2.293   0.331   6.196
 6987SOL     OW21859   6.174   1.277   6.074
 6987SOL    HW121860   6.075   1.281   6.065
 6987SOL    HW221861   6.217   1.315   5.992
 6988SOL     OW21862   0.708   6.760   6.175
 6988SOL    HW121863   0.644   6.686   6.194
 6988SOL    HW221864   0.787   6.753   6.237
 6989SOL     OW21865   1.163   3.665   3.236
 6989SOL    HW121866   1.117   3.749   3.263
 6989SOL    HW221867   1.135   3.590   3.296
 6990SOL     OW21868   5.013   2.523   1.354
 6990SOL    HW121869   4.964   2.599   1.396
 6990SOL    HW221870   5.071   2.478   1.422
 6991SOL     OW21871   4.219   4.723   3.304
 6991SOL    HW121872   4.257   4.686   3.219
 6991SOL    HW221873   4.289   4.777   3.351
 6992SOL     OW21874   5.237   6.708   6.268
 6992SOL    HW121875   5.201   6.622   6.231
 6992SOL    HW221876   5.285   6.689   6.354
 6993SOL     OW21877   5.804   0.326   3.262
 6993SOL    HW121878   5.751   0.295   3.341
 6993SOL    HW221879   5.860   0.250   3.228
 6994SOL     OW21880   0.173   2.307   4.370
 6994SOL    HW121881   0.163   2.406   4.363
 6994SOL    HW221882   0.120   2.274   4.449
 6995SOL     OW21883   0.193   4.874   6.336
 6995SOL    HW121884   0.192   4.782   6.373
 6995SOL    HW221885   0.267   4.882   6.268
 6996SOL     OW21886   1.635   0.196   6.567
 6996SOL    HW121887   1.585   0.167   6.485
 6996SOL    HW221888   1.595   0.153   6.648
 6997SOL     OW21889   6.904   6.042   5.419
 6997SOL    HW121890   6.933   5.968   5.359
 6997SOL    HW221891   6.821   6.015   5.468
 6998SOL     OW21892   2.246   0.559   1.783
 6998SOL    HW121893   2.296   0.518   1.706
 6998SOL    HW221894   2.297   0.544   1.868
 6999SOL     OW21895   2.014   2.113   0.013
 6999SOL    HW121896   2.059   2.101   0.102
 6999SOL    HW221897   2.060   2.186   6.985
 7000SOL     OW21898   5.072   0.120   1.342
 7000SOL    HW121899   5.168   0.144   1.326
 7000SOL    HW221900   5.015   0.200   1.324
 7001SOL     OW21901   1.832   3.183   6.054
 7001SOL    HW121902   1.753   3.236   6.022
 7001SOL    HW221903   1.843   3.102   5.997
 7002SOL     OW21904   1.725   5.401   3.860
 7002SOL    HW121905   1.783   5.414   3.779
 7002SOL    HW221906   1.656   5.473   3.863
 7003SOL     OW21907   4.499   5.540   0.581
 7003SOL    HW121908   4.493   5.441   0.587
 7003SOL    HW221909   4.453   5.572   0.499
 7004SOL     OW21910   0.671   5.485   2.162
 7004SOL    HW121911   0.711   5.424   2.230
 7004SOL    HW221912   0.674   5.441   2.073
 7005SOL     OW21913   0.923   6.956   0.706
 7005SOL    HW121914   1.002   6.968   0.765
 7005SOL    HW221915   0.953   6.934   0.614
 7006SOL     OW21916   5.166   5.107   3.917
 7006SOL    HW121917   5.186   5.198   3.954
 7006SOL    HW221918   5.167   5.040   3.992
 7007SOL     OW21919   4.469   0.518   4.154
 7007SOL    HW121920   4.369   0.510   4.161
 7007SOL    HW221921   4.492   0.597   4.097
 7008SOL     OW21922   0.017   4.149   4.552
 7008SOL    HW121923   0.104   4.126   4.509
 7008SOL    HW221924   0.031   4.158   4.651
 7009SOL     OW21925   5.505   6.195   2.351
 7009SOL    HW121926   5.481   6.275   2.407
 7009SOL    HW221927   5.440   6.121   2.369
 7010SOL     OW21928   5.518   3.898   3.855
 7010SOL    HW121929   5.518   3.886   3.954
 7010SOL    HW221930   5.467   3.823   3.812
 7011SOL     OW21931   2.791   6.463   0.217
 7011SOL    HW121932   2.845   6.484   0.299
 7011SOL    HW221933   2.728   6.388   0.237
 7012SOL     OW21934   0.465   1.723   1.734
 7012SOL    HW121935   0.519   1.806   1.747
 7012SOL    HW221936   0.382   1.728   1.791
 7013SOL     OW21937   0.736   0.224   0.147
 7013SOL    HW121938   0.773   0.315   0.131
 7013SOL    HW221939   0.696   0.188   0.063
 7014SOL     OW21940   4.274   3.431   0.880
 7014SOL    HW121941   4.232   3.365   0.942
 7014SOL    HW221942   4.355   3.471   0.924
 7015SOL     OW21943   6.534   4.426   1.529
 7015SOL    HW121944   6.541   4.508   1.586
 7015SOL    HW221945   6.447   4.427   1.481
 7016SOL     OW21946   3.055   5.008   1.262
 7016SOL    HW121947   3.037   4.911   1.247
 7016SOL    HW221948   2.973   5.052   1.299
 7017SOL     OW21949   2.582   5.116   3.233
 7017SOL    HW121950   2.647   5.096   3.306
 7017SOL    HW221951   2.586   5.214   3.211
 7018SOL     OW21952   5.537   3.204   4.206
 7018SOL    HW121953   5.531   3.250   4.295
 7018SOL    HW221954   5.603   3.251   4.148
 7019SOL     OW21955   3.994   4.114   0.436
 7019SOL    HW121956   3.978   4.017   0.418
 7019SOL    HW221957   4.067   4.123   0.503
 7020SOL     OW21958   6.511   4.544   6.043
 7020SOL    HW121959   6.563   4.626   6.022
 7020SOL    HW221960   6.574   4.467   6.057
 7021SOL     OW21961   1.613   2.002   5.845
 7021SOL    HW121962   1.697   2.025   5.795
 7021SOL    HW221963   1.546   1.965   5.781
 7022SOL     OW21964   4.472   6.524   5.628
 7022SOL    HW121965   4.446   6.464   5.552
 7022SOL    HW221966   4.551   6.485   5.675
 7023SOL     OW21967   0.712   2.675   3.624
 7023SOL    HW121968   0.728   2.767   3.660
 7023SOL    HW221969   0.800   2.631   3.606
 7024SOL     OW21970   2.763   3.705   5.261
 7024SOL    HW121971   2.801   3.618   5.291
 7024SOL    HW221972   2.776   3.714   5.162
 7025SOL     OW21973   3.512   0.830   0.551
 7025SOL    HW121974   3.535   0.803   0.457
 7025SOL    HW221975   3.426   0.787   0.578
 7026SOL     OW21976   3.260   2.044   2.244
 7026SOL    HW121977   3.262   1.980   2.321
 7026SOL    HW221978   3.350   2.047   2.201
 7027SOL     OW21979   2.357   4.919   4.455
 7027SOL    HW121980   2.336   4.907   4.551
 7027SOL    HW221981   2.320   4.843   4.402
 7028SOL     OW21982   3.320   1.722   3.494
 7028SOL    HW121983   3.342   1.633   3.534
 7028SOL    HW221984   3.222   1.739   3.503
 7029SOL     OW21985   4.850   4.784   4.725
 7029SOL    HW121986   4.889   4.741   4.644
 7029SOL    HW221987   4.922   4.805   4.791
 7030SOL     OW21988   1.255   0.632   4.998
 7030SOL    HW121989   1.261   0.603   5.094
 7030SOL    HW221990   1.161   0.624   4.967
 7031SOL     OW21991   4.006   5.716   5.846
 7031SOL    HW121992   4.089   5.690   5.798
 7031SOL    HW221993   3.928   5.668   5.805
 7032SOL     OW21994   4.189   1.438   3.819
 7032SOL    HW121995   4.183   1.447   3.719
 7032SOL    HW221996   4.239   1.354   3.842
 7033SOL     OW21997   1.507   2.393   3.315
 7033SOL    HW121998   1.474   2.355   3.401
 7033SOL    HW221999   1.603   2.369   3.302
 7034SOL     OW22000   0.014   0.587   3.501
 7034SOL    HW122001   0.074   0.615   3.576
 7034SOL    HW222002   7.021   0.665   3.440
 7035SOL     OW22003   1.653   6.857   0.925
 7035SOL    HW122004   1.712   6.853   1.005
 7035SOL    HW222005   1.573   6.799   0.938
 7036SOL     OW22006   0.009   0.270   2.980
 7036SOL    HW122007   6.985   0.262   3.068
 7036SOL    HW222008   0.090   0.328   2.989
 7037SOL     OW22009   1.562   1.188   6.737
 7037SOL    HW122010   1.554   1.275   6.784
 7037SOL    HW222011   1.475   1.140   6.739
 7038SOL     OW22012   2.181   3.519   5.156
 7038SOL    HW122013   2.186   3.607   5.108
 7038SOL    HW222014   2.196   3.445   5.090
 7039SOL     OW22015   1.889   5.587   2.352
 7039SOL    HW122016   1.961   5.560   2.415
 7039SOL    HW222017   1.875   5.514   2.285
 7040SOL     OW22018   5.513   2.300   5.784
 7040SOL    HW122019   5.468   2.212   5.772
 7040SOL    HW222020   5.485   2.362   5.711
 7041SOL     OW22021   6.705   1.495   1.768
 7041SOL    HW122022   6.800   1.523   1.776
 7041SOL    HW222023   6.677   1.449   1.853
 7042SOL     OW22024   4.227   5.762   4.981
 7042SOL    HW122025   4.320   5.728   4.994
 7042SOL    HW222026   4.163   5.686   4.986
 7043SOL     OW22027   2.206   4.918   2.860
 7043SOL    HW122028   2.276   4.954   2.922
 7043SOL    HW222029   2.115   4.934   2.899
 7044SOL     OW22030   5.862   4.983   4.390
 7044SOL    HW122031   5.857   4.959   4.487
 7044SOL    HW222032   5.812   5.068   4.374
 7045SOL     OW22033   4.865   5.435   2.677
 7045SOL    HW122034   4.797   5.460   2.608
 7045SOL    HW222035   4.880   5.336   2.674
 7046SOL     OW22036   2.618   0.991   3.519
 7046SOL    HW122037   2.537   1.039   3.553
 7046SOL    HW222038   2.660   1.044   3.445
 7047SOL     OW22039   6.485   0.996   2.353
 7047SOL    HW122040   6.517   0.922   2.412
 7047SOL    HW222041   6.404   1.038   2.393
 7048SOL     OW22042   5.330   0.176   3.615
 7048SOL    HW122043   5.236   0.203   3.636
 7048SOL    HW222044   5.354   0.096   3.671
 7049SOL     OW22045   3.381   1.655   0.654
 7049SOL    HW122046   3.387   1.752   0.676
 7049SOL    HW222047   3.352   1.644   0.558
 7050SOL     OW22048   4.147   3.902   1.776
 7050SOL    HW122049   4.176   3.809   1.753
 7050SOL    HW222050   4.116   3.905   1.871
 7051SOL     OW22051   6.487   6.359   1.045
 7051SOL    HW122052   6.470   6.261   1.029
 7051SOL    HW222053   6.553   6.370   1.119
 7052SOL     OW22054   5.844   1.827   3.606
 7052SOL    HW122055   5.845   1.887   3.526
 7052SOL    HW222056   5.757   1.777   3.609
 7053SOL     OW22057   1.922   3.024   4.954
 7053SOL    HW122058   2.002   3.001   5.011
 7053SOL    HW222059   1.856   3.076   5.009
 7054SOL     OW22060   6.780   0.031   0.505
 7054SOL    HW122061   6.792   6.976   0.568
 7054SOL    HW222062   6.860   0.090   0.509
 7055SOL     OW22063   2.796   6.793   6.369
 7055SOL    HW122064   2.779   6.812   6.272
 7055SOL    HW222065   2.709   6.775   6.414
 7056SOL     OW22066   6.908   5.116   1.665
 7056SOL    HW122067   6.979   5.103   1.734
 7056SOL    HW222068   6.932   5.194   1.607
 7057SOL     OW22069   2.644   4.644   3.971
 7057SOL    HW122070   2.566   4.705   3.976
 7057SOL    HW222071   2.624   4.568   3.908
 7058SOL     OW22072   5.502   3.992   5.236
 7058SOL    HW122073   5.572   3.944   5.289
 7058SOL    HW222074   5.412   3.966   5.269
 7059SOL     OW22075   0.531   1.709   3.820
 7059SOL    HW122076   0.617   1.661   3.837
 7059SOL    HW222077   0.504   1.695   3.724
 7060SOL     OW22078   3.236   0.253   1.778
 7060SOL    HW122079   3.171   0.194   1.825
 7060SOL    HW222080   3.270   0.206   1.697
 7061SOL     OW22081   0.196   2.955   4.192
 7061SOL    HW122082   0.230   3.001   4.110
 7061SOL    HW222083   0.106   2.916   4.174
 7062SOL     OW22084   3.488   2.427   5.456
 7062SOL    HW122085   3.458   2.422   5.551
 7062SOL    HW222086   3.436   2.497   5.408
 7063SOL     OW22087   1.657   6.621   1.755
 7063SOL    HW122088   1.679   6.558   1.680
 7063SOL    HW222089   1.590   6.578   1.816
 7064SOL     OW22090   3.780   2.009   6.876
 7064SOL    HW122091   3.846   2.036   6.947
 7064SOL    HW222092   3.810   1.923   6.835
 7065SOL     OW22093   4.800   3.847   6.083
 7065SOL    HW122094   4.746   3.763   6.091
 7065SOL    HW222095   4.810   3.871   5.986
 7066SOL     OW22096   4.104   7.009   6.359
 7066SOL    HW122097   4.043   6.985   6.434
 7066SOL    HW222098   4.150   6.926   6.326
 7067SOL     OW22099   1.609   2.862   5.393
 7067SOL    HW122100   1.692   2.904   5.358
 7067SOL    HW222101   1.539   2.860   5.322
 7068SOL     OW22102   6.090   4.572   4.742
 7068SOL    HW122103   6.072   4.551   4.838
 7068SOL    HW222104   6.004   4.598   4.697
 7069SOL     OW22105   5.050   2.304   4.623
 7069SOL    HW122106   5.065   2.265   4.714
 7069SOL    HW222107   5.009   2.395   4.632
 7070SOL     OW22108   0.394   6.844   4.497
 7070SOL    HW122109   0.420   6.827   4.402
 7070SOL    HW222110   0.309   6.898   4.499
 7071SOL     OW22111   3.571   6.164   5.840
 7071SOL    HW122112   3.550   6.262   5.842
 7071SOL    HW222113   3.669   6.152   5.823
 7072SOL     OW22114   1.747   5.800   7.014
 7072SOL    HW122115   1.709   5.875   0.046
 7072SOL    HW222116   1.696   5.792   6.928
 7073SOL     OW22117   5.378   0.216   4.008
 7073SOL    HW122118   5.377   0.203   4.107
 7073SOL    HW222119   5.316   0.292   3.985
 7074SOL     OW22120   6.151   2.333   1.783
 7074SOL    HW122121   6.162   2.392   1.863
 7074SOL    HW222122   6.096   2.253   1.808
 7075SOL     OW22123   1.789   4.705   4.866
 7075SOL    HW122124   1.729   4.694   4.787
 7075SOL    HW222125   1.842   4.621   4.880
 7076SOL     OW22126   5.690   2.955   0.150
 7076SOL    HW122127   5.738   3.042   0.143
 7076SOL    HW222128   5.756   2.882   0.168
 7077SOL     OW22129   2.177   4.684   3.727
 7077SOL    HW122130   2.115   4.606   3.735
 7077SOL    HW222131   2.218   4.685   3.636
 7078SOL     OW22132   6.654   6.391   2.081
 7078SOL    HW122133   6.645   6.292   2.076
 7078SOL    HW222134   6.733   6.421   2.027
 7079SOL     OW22135   0.905   0.024   4.312
 7079SOL    HW122136   0.814   0.044   4.349
 7079SOL    HW222137   0.927   6.950   4.326
 7080SOL     OW22138   3.452   1.250   4.903
 7080SOL    HW122139   3.519   1.301   4.955
 7080SOL    HW222140   3.415   1.307   4.830
 7081SOL     OW22141   1.998   5.887   0.068
 7081SOL    HW122142   1.902   5.860   0.054
 7081SOL    HW222143   2.015   5.975   0.024
 7082SOL     OW22144   6.536   4.480   6.949
 7082SOL    HW122145   6.597   4.559   6.951
 7082SOL    HW222146   6.513   4.457   6.854
 7083SOL     OW22147   1.762   0.514   1.701
 7083SOL    HW122148   1.795   0.605   1.677
 7083SOL    HW222149   1.838   0.449   1.700
 7084SOL     OW22150   0.516   5.232   5.025
 7084SOL    HW122151   0.495   5.283   4.941
 7084SOL    HW222152   0.612   5.247   5.050
 7085SOL     OW22153   0.142   1.804   2.497
 7085SOL    HW122154   0.239   1.785   2.508
 7085SOL    HW222155   0.127   1.903   2.497
 7086SOL     OW22156   6.092   0.543   5.663
 7086SOL    HW122157   6.099   0.558   5.761
 7086SOL    HW222158   6.129   0.453   5.640
 7087SOL     OW22159   6.209   3.696   3.301
 7087SOL    HW122160   6.250   3.642   3.227
 7087SOL    HW222161   6.279   3.754   3.342
 7088SOL     OW22162   4.887   2.705   4.172
 7088SOL    HW122163   4.843   2.643   4.106
 7088SOL    HW222164   4.986   2.691   4.169
 7089SOL     OW22165   2.776   2.174   4.820
 7089SOL    HW122166   2.839   2.161   4.897
 7089SOL    HW222167   2.709   2.245   4.843
 7090SOL     OW22168   1.878   1.156   0.554
 7090SOL    HW122169   1.865   1.174   0.456
 7090SOL    HW222170   1.822   1.219   0.607
 7091SOL     OW22171   0.297   1.746   0.970
 7091SOL    HW122172   0.278   1.773   0.875
 7091SOL    HW222173   0.251   1.808   1.032
 7092SOL     OW22174   4.129   2.907   5.385
 7092SOL    HW122175   4.092   2.854   5.461
 7092SOL    HW222176   4.224   2.880   5.369
 7093SOL     OW22177   3.316   3.901   2.033
 7093SOL    HW122178   3.324   3.811   2.076
 7093SOL    HW222179   3.240   3.951   2.074
 7094SOL     OW22180   0.198   6.182   5.721
 7094SOL    HW122181   0.277   6.192   5.660
 7094SOL    HW222182   0.160   6.090   5.711
 7095SOL     OW22183   3.251   4.736   5.771
 7095SOL    HW122184   3.226   4.642   5.796
 7095SOL    HW222185   3.175   4.778   5.721
 7096SOL     OW22186   6.604   0.629   2.284
 7096SOL    HW122187   6.693   0.676   2.286
 7096SOL    HW222188   6.577   0.605   2.377
 7097SOL     OW22189   4.786   0.734   1.747
 7097SOL    HW122190   4.774   0.792   1.828
 7097SOL    HW222191   4.700   0.686   1.728
 7098SOL     OW22192   2.366   5.503   5.495
 7098SOL    HW122193   2.393   5.420   5.544
 7098SOL    HW222194   2.277   5.489   5.452
 7099SOL     OW22195   3.740   1.434   5.266
 7099SOL    HW122196   3.705   1.417   5.174
 7099SOL    HW222197   3.834   1.401   5.272
 7100SOL     OW22198   6.738   3.398   6.938
 7100SOL    HW122199   6.780   3.482   6.974
 7100SOL    HW222200   6.677   3.421   6.863
 7101SOL     OW22201   2.767   1.678   5.512
 7101SOL    HW122202   2.725   1.741   5.577
 7101SOL    HW222203   2.700   1.609   5.485
 7102SOL     OW22204   5.314   0.145   1.026
 7102SOL    HW122205   5.295   0.121   1.121
 7102SOL    HW222206   5.278   0.236   1.007
 7103SOL     OW22207   6.049   5.415   1.801
 7103SOL    HW122208   6.067   5.409   1.899
 7103SOL    HW222209   5.950   5.426   1.785
 7104SOL     OW22210   6.561   3.617   2.914
 7104SOL    HW122211   6.558   3.702   2.966
 7104SOL    HW222212   6.482   3.560   2.938
 7105SOL     OW22213   2.793   3.378   5.248
 7105SOL    HW122214   2.805   3.340   5.157
 7105SOL    HW222215   2.719   3.331   5.295
 7106SOL     OW22216   3.616   3.132   2.176
 7106SOL    HW122217   3.701   3.147   2.226
 7106SOL    HW222218   3.571   3.220   2.159
 7107SOL     OW22219   4.770   0.277   0.497
 7107SOL    HW122220   4.693   0.309   0.552
 7107SOL    HW222221   4.838   0.351   0.489
 7108SOL     OW22222   3.230   5.918   2.830
 7108SOL    HW122223   3.216   5.966   2.744
 7108SOL    HW222224   3.323   5.935   2.863
 7109SOL     OW22225   1.671   6.583   5.553
 7109SOL    HW122226   1.722   6.607   5.470
 7109SOL    HW222227   1.731   6.590   5.633
 7110SOL     OW22228   2.742   5.512   4.517
 7110SOL    HW122229   2.838   5.534   4.531
 7110SOL    HW222230   2.725   5.417   4.546
 7111SOL     OW22231   0.873   2.460   5.089
 7111SOL    HW122232   0.854   2.378   5.036
 7111SOL    HW222233   0.951   2.444   5.149
 7112SOL     OW22234   1.737   5.375   4.350
 7112SOL    HW122235   1.804   5.446   4.330
 7112SOL    HW222236   1.685   5.400   4.431
 7113SOL     OW22237   3.416   4.122   4.791
 7113SOL    HW122238   3.373   4.043   4.835
 7113SOL    HW222239   3.346   4.190   4.768
 7114SOL     OW22240   5.318   5.650   0.725
 7114SOL    HW122241   5.380   5.620   0.798
 7114SOL    HW222242   5.282   5.741   0.748
 7115SOL     OW22243   4.516   2.598   6.905
 7115SOL    HW122244   4.590   2.664   6.915
 7115SOL    HW222245   4.499   2.553   6.993
 7116SOL     OW22246   5.861   4.652   3.096
 7116SOL    HW122247   5.862   4.744   3.056
 7116SOL    HW222248   5.805   4.591   3.040
 7117SOL     OW22249   0.950   6.067   5.282
 7117SOL    HW122250   0.952   5.985   5.339
 7117SOL    HW222251   0.862   6.113   5.293
 7118SOL     OW22252   3.367   4.814   6.546
 7118SOL    HW122253   3.369   4.715   6.540
 7118SOL    HW222254   3.460   4.850   6.537
 7119SOL     OW22255   5.196   1.121   4.190
 7119SOL    HW122256   5.211   1.178   4.109
 7119SOL    HW222257   5.172   1.178   4.268
 7120SOL     OW22258   3.560   1.979   2.145
 7120SOL    HW122259   3.620   1.906   2.112
 7120SOL    HW222260   3.565   2.057   2.083
 7121SOL     OW22261   0.715   6.880   3.883
 7121SOL    HW122262   0.783   6.816   3.918
 7121SOL    HW222263   0.665   6.838   3.808
 7122SOL     OW22264   1.179   0.734   5.936
 7122SOL    HW122265   1.228   0.820   5.929
 7122SOL    HW222266   1.244   0.658   5.933
 7123SOL     OW22267   1.319   4.930   3.559
 7123SOL    HW122268   1.336   4.850   3.502
 7123SOL    HW222269   1.324   5.013   3.502
 7124SOL     OW22270   0.055   2.620   1.612
 7124SOL    HW122271   0.053   2.526   1.645
 7124SOL    HW222272   0.032   2.682   1.687
 7125SOL     OW22273   0.738   0.317   0.743
 7125SOL    HW122274   0.690   0.236   0.707
 7125SOL    HW222275   0.836   0.298   0.745
 7126SOL     OW22276   3.471   5.232   0.750
 7126SOL    HW122277   3.418   5.314   0.769
 7126SOL    HW222278   3.513   5.240   0.659
 7127SOL     OW22279   2.465   5.817   6.663
 7127SOL    HW122280   2.421   5.809   6.574
 7127SOL    HW222281   2.394   5.825   6.734
 7128SOL     OW22282   3.522   4.053   6.541
 7128SOL    HW122283   3.449   4.069   6.608
 7128SOL    HW222284   3.539   4.138   6.490
 7129SOL     OW22285   2.222   1.457   0.354
 7129SOL    HW122286   2.202   1.359   0.359
 7129SOL    HW222287   2.307   1.472   0.304
 7130SOL     OW22288   3.400   5.734   3.831
 7130SOL    HW122289   3.376   5.641   3.804
 7130SOL    HW222290   3.494   5.737   3.865
 7131SOL     OW22291   2.934   1.110   1.563
 7131SOL    HW122292   2.845   1.107   1.608
 7131SOL    HW222293   2.990   1.034   1.595
 7132SOL     OW22294   3.968   4.301   0.238
 7132SOL    HW122295   3.976   4.235   0.312
 7132SOL    HW222296   3.999   4.391   0.270
 7133SOL     OW22297   4.242   4.850   5.194
 7133SOL    HW122298   4.148   4.876   5.218
 7133SOL    HW222299   4.291   4.824   5.277
 7134SOL     OW22300   4.708   6.770   1.698
 7134SOL    HW122301   4.735   6.706   1.770
 7134SOL    HW222302   4.619   6.743   1.660
 7135SOL     OW22303   1.784   2.428   3.455
 7135SOL    HW122304   1.714   2.472   3.512
 7135SOL    HW222305   1.861   2.490   3.442
 7136SOL     OW22306   2.920   1.977   0.376
 7136SOL    HW122307   2.863   1.961   0.296
 7136SOL    HW222308   2.925   1.894   0.431
 7137SOL     OW22309   2.791   1.618   0.200
 7137SOL    HW122310   2.813   1.697   0.143
 7137SOL    HW222311   2.866   1.603   0.266
 7138SOL     OW22312   2.066   1.985   0.863
 7138SOL    HW122313   2.144   1.929   0.835
 7138SOL    HW222314   2.029   2.032   0.783
 7139SOL     OW22315   5.205   4.989   1.742
 7139SOL    HW122316   5.263   5.038   1.807
 7139SOL    HW222317   5.173   5.053   1.672
 7140SOL     OW22318   6.481   4.067   0.952
 7140SOL    HW122319   6.429   4.132   1.008
 7140SOL    HW222320   6.500   4.108   0.862
 7141SOL     OW22321   3.537   6.514   0.841
 7141SOL    HW122322   3.534   6.589   0.907
 7141SOL    HW222323   3.499   6.545   0.754
 7142SOL     OW22324   4.338   6.630   3.610
 7142SOL    HW122325   4.379   6.628   3.519
 7142SOL    HW222326   4.390   6.572   3.672
 7143SOL     OW22327   1.940   3.454   0.014
 7143SOL    HW122328   1.870   3.384   0.028
 7143SOL    HW222329   2.030   3.412   0.020
 7144SOL     OW22330   1.597   1.509   2.968
 7144SOL    HW122331   1.591   1.608   2.957
 7144SOL    HW222332   1.560   1.482   3.057
 7145SOL     OW22333   3.648   0.857   6.551
 7145SOL    HW122334   3.603   0.784   6.501
 7145SOL    HW222335   3.582   0.928   6.574
 7146SOL     OW22336   1.534   0.476   6.542
 7146SOL    HW122337   1.572   0.388   6.511
 7146SOL    HW222338   1.515   0.471   6.640
 7147SOL     OW22339   0.276   6.310   3.116
 7147SOL    HW122340   0.217   6.232   3.092
 7147SOL    HW222341   0.371   6.286   3.099
 7148SOL     OW22342   6.703   6.348   1.260
 7148SOL    HW122343   6.785   6.316   1.213
 7148SOL    HW222344   6.721   6.435   1.304
 7149SOL     OW22345   0.478   6.134   4.691
 7149SOL    HW122346   0.558   6.113   4.747
 7149SOL    HW222347   0.417   6.195   4.741
 7150SOL     OW22348   3.679   3.012   0.801
 7150SOL    HW122349   3.656   2.915   0.806
 7150SOL    HW222350   3.744   3.027   0.727
 7151SOL     OW22351   3.563   6.745   1.025
 7151SOL    HW122352   3.470   6.757   0.989
 7151SOL    HW222353   3.562   6.759   1.124
 7152SOL     OW22354   6.705   0.729   5.419
 7152SOL    HW122355   6.643   0.742   5.497
 7152SOL    HW222356   6.672   0.782   5.341
 7153SOL     OW22357   3.940   5.185   1.559
 7153SOL    HW122358   3.902   5.122   1.626
 7153SOL    HW222359   4.019   5.233   1.599
 7154SOL     OW22360   5.013   6.103   3.091
 7154SOL    HW122361   5.027   6.069   3.184
 7154SOL    HW222362   4.941   6.171   3.090
 7155SOL     OW22363   2.842   3.303   1.095
 7155SOL    HW122364   2.820   3.265   1.185
 7155SOL    HW222365   2.817   3.237   1.024
 7156SOL     OW22366   6.618   3.574   2.576
 7156SOL    HW122367   6.564   3.657   2.588
 7156SOL    HW222368   6.605   3.514   2.655
 7157SOL     OW22369   0.339   4.710   1.382
 7157SOL    HW122370   0.371   4.778   1.448
 7157SOL    HW222371   0.254   4.670   1.414
 7158SOL     OW22372   0.790   0.273   3.941
 7158SOL    HW122373   0.860   0.277   4.013
 7158SOL    HW222374   0.802   0.350   3.879
 7159SOL     OW22375   0.813   4.992   3.799
 7159SOL    HW122376   0.785   5.046   3.719
 7159SOL    HW222377   0.740   4.994   3.868
 7160SOL     OW22378   6.320   0.046   3.005
 7160SOL    HW122379   6.308   0.141   2.975
 7160SOL    HW222380   6.417   0.025   3.012
 7161SOL     OW22381   3.227   3.926   2.943
 7161SOL    HW122382   3.239   3.830   2.918
 7161SOL    HW222383   3.131   3.942   2.969
 7162SOL     OW22384   1.451   5.302   6.274
 7162SOL    HW122385   1.453   5.399   6.251
 7162SOL    HW222386   1.468   5.248   6.191
 7163SOL     OW22387   2.878   0.289   2.522
 7163SOL    HW122388   2.837   0.270   2.432
 7163SOL    HW222389   2.962   0.342   2.509
 7164SOL     OW22390   3.012   0.881   5.298
 7164SOL    HW122391   3.038   0.884   5.202
 7164SOL    HW222392   3.018   0.973   5.337
 7165SOL     OW22393   5.661   6.648   1.666
 7165SOL    HW122394   5.679   6.551   1.685
 7165SOL    HW222395   5.681   6.702   1.748
 7166SOL     OW22396   5.028   2.056   0.324
 7166SOL    HW122397   4.986   1.972   0.358
 7166SOL    HW222398   5.027   2.056   0.224
 7167SOL     OW22399   5.301   3.365   4.640
 7167SOL    HW122400   5.208   3.342   4.670
 7167SOL    HW222401   5.358   3.387   4.720
 7168SOL     OW22402   2.220   2.566   3.754
 7168SOL    HW122403   2.121   2.555   3.761
 7168SOL    HW222404   2.247   2.562   3.657
 7169SOL     OW22405   6.769   3.970   5.948
 7169SOL    HW122406   6.721   3.897   5.900
 7169SOL    HW222407   6.704   4.024   6.001
 7170SOL     OW22408   4.574   0.146   2.567
 7170SOL    HW122409   4.640   0.134   2.493
 7170SOL    HW222410   4.582   0.238   2.605
 7171SOL     OW22411   6.212   4.212   0.652
 7171SOL    HW122412   6.166   4.300   0.642
 7171SOL    HW222413   6.167   4.144   0.595
 7172SOL     OW22414   1.688   0.128   4.771
 7172SOL    HW122415   1.719   0.153   4.680
 7172SOL    HW222416   1.732   0.043   4.800
 7173SOL     OW22417   6.298   4.163   0.094
 7173SOL    HW122418   6.378   4.133   0.043
 7173SOL    HW222419   6.303   4.129   0.188
 7174SOL     OW22420   0.999   4.019   0.910
 7174SOL    HW122421   1.004   3.951   0.837
 7174SOL    HW222422   0.993   3.972   0.998
 7175SOL     OW22423   6.079   2.891   5.154
 7175SOL    HW122424   6.051   2.808   5.106
 7175SOL    HW222425   6.102   2.868   5.249
 7176SOL     OW22426   0.169   1.279   3.052
 7176SOL    HW122427   0.111   1.255   2.974
 7176SOL    HW222428   0.143   1.223   3.131
 7177SOL     OW22429   1.165   4.844   4.855
 7177SOL    HW122430   1.203   4.811   4.768
 7177SOL    HW222431   1.152   4.767   4.917
 7178SOL     OW22432   6.877   2.178   5.506
 7178SOL    HW122433   6.955   2.217   5.557
 7178SOL    HW222434   6.911   2.111   5.440
 7179SOL     OW22435   1.785   3.656   4.569
 7179SOL    HW122436   1.824   3.682   4.658
 7179SOL    HW222437   1.813   3.563   4.545
 7180SOL     OW22438   2.360   4.379   0.499
 7180SOL    HW122439   2.406   4.453   0.449
 7180SOL    HW222440   2.287   4.341   0.443
 7181SOL     OW22441   2.418   0.502   0.383
 7181SOL    HW122442   2.446   0.593   0.353
 7181SOL    HW222443   2.338   0.473   0.332
 7182SOL     OW22444   0.133   3.664   4.052
 7182SOL    HW122445   0.134   3.693   4.148
 7182SOL    HW222446   0.101   3.740   3.995
 7183SOL     OW22447   1.987   5.735   1.548
 7183SOL    HW122448   1.891   5.725   1.521
 7183SOL    HW222449   2.038   5.655   1.517
 7184SOL     OW22450   6.806   1.359   4.045
 7184SOL    HW122451   6.867   1.280   4.038
 7184SOL    HW222452   6.818   1.403   4.133
 7185SOL     OW22453   5.212   1.117   5.536
 7185SOL    HW122454   5.204   1.057   5.615
 7185SOL    HW222455   5.146   1.088   5.466
 7186SOL     OW22456   6.568   2.046   2.028
 7186SOL    HW122457   6.541   2.024   2.122
 7186SOL    HW222458   6.577   1.961   1.975
 7187SOL     OW22459   2.929   3.956   5.255
 7187SOL    HW122460   2.881   3.868   5.253
 7187SOL    HW222461   2.878   4.020   5.312
 7188SOL     OW22462   4.845   6.353   6.968
 7188SOL    HW122463   4.819   6.435   7.018
 7188SOL    HW222464   4.795   6.349   6.882
 7189SOL     OW22465   6.867   1.527   5.691
 7189SOL    HW122466   6.851   1.473   5.608
 7189SOL    HW222467   6.936   1.482   5.748
 7190SOL     OW22468   6.403   5.280   1.813
 7190SOL    HW122469   6.340   5.261   1.737
 7190SOL    HW222470   6.493   5.242   1.792
 7191SOL     OW22471   1.516   4.870   2.688
 7191SOL    HW122472   1.518   4.779   2.728
 7191SOL    HW222473   1.473   4.866   2.598
 7192SOL     OW22474   1.811   4.272   5.694
 7192SOL    HW122475   1.840   4.273   5.790
 7192SOL    HW222476   1.824   4.181   5.655
 7193SOL     OW22477   1.629   2.406   2.074
 7193SOL    HW122478   1.595   2.318   2.105
 7193SOL    HW222479   1.681   2.395   1.989
 7194SOL     OW22480   1.945   2.749   0.053
 7194SOL    HW122481   1.918   2.653   0.049
 7194SOL    HW222482   1.864   2.807   0.041
 7195SOL     OW22483   0.272   4.295   0.301
 7195SOL    HW122484   0.339   4.281   0.373
 7195SOL    HW222485   0.258   4.210   0.251
 7196SOL     OW22486   2.252   3.727   1.639
 7196SOL    HW122487   2.281   3.799   1.702
 7196SOL    HW222488   2.283   3.748   1.547
 7197SOL     OW22489   0.869   2.869   5.389
 7197SOL    HW122490   0.813   2.934   5.440
 7197SOL    HW222491   0.963   2.872   5.424
 7198SOL     OW22492   0.097   1.195   0.592
 7198SOL    HW122493   0.106   1.136   0.512
 7198SOL    HW222494   0.160   1.273   0.583
 7199SOL     OW22495   0.737   0.076   2.507
 7199SOL    HW122496   0.638   0.085   2.495
 7199SOL    HW222497   0.766   7.008   2.476
 7200SOL     OW22498   2.147   2.727   6.550
 7200SOL    HW122499   2.135   2.636   6.511
 7200SOL    HW222500   2.163   2.793   6.476
 7201SOL     OW22501   0.697   5.997   3.924
 7201SOL    HW122502   0.608   6.024   3.961
 7201SOL    HW222503   0.763   5.989   3.999
 7202SOL     OW22504   4.293   6.766   6.659
 7202SOL    HW122505   4.200   6.795   6.636
 7202SOL    HW222506   4.346   6.846   6.688
 7203SOL     OW22507   6.916   0.935   1.233
 7203SOL    HW122508   6.925   0.838   1.210
 7203SOL    HW222509   6.821   0.963   1.226
 7204SOL     OW22510   0.405   1.204   6.074
 7204SOL    HW122511   0.327   1.267   6.078
 7204SOL    HW222512   0.469   1.226   6.148
 7205SOL     OW22513   1.435   4.065   5.168
 7205SOL    HW122514   1.411   4.145   5.113
 7205SOL    HW222515   1.497   4.093   5.242
 7206SOL     OW22516   1.139   0.222   2.392
 7206SOL    HW122517   1.068   0.269   2.445
 7206SOL    HW222518   1.116   0.125   2.385
 7207SOL     OW22519   3.674   0.283   3.820
 7207SOL    HW122520   3.758   0.232   3.838
 7207SOL    HW222521   3.684   0.337   3.737
 7208SOL     OW22522   4.513   7.008   3.907
 7208SOL    HW122523   4.492   0.039   3.989
 7208SOL    HW222524   4.494   0.042   3.826
 7209SOL     OW22525   2.683   3.108   1.637
 7209SOL    HW122526   2.744   3.055   1.697
 7209SOL    HW222527   2.654   3.191   1.685
 7210SOL     OW22528   3.748   1.252   2.722
 7210SOL    HW122529   3.757   1.346   2.689
 7210SOL    HW222530   3.651   1.228   2.728
 7211SOL     OW22531   1.799   5.932   5.021
 7211SOL    HW122532   1.713   5.976   4.992
 7211SOL    HW222533   1.851   5.996   5.078
 7212SOL     OW22534   0.720   6.526   5.092
 7212SOL    HW122535   0.757   6.459   5.027
 7212SOL    HW222536   0.627   6.498   5.118
 7213SOL     OW22537   4.058   6.489   6.607
 7213SOL    HW122538   4.102   6.485   6.696
 7213SOL    HW222539   4.122   6.527   6.540
 7214SOL     OW22540   6.936   0.159   4.595
 7214SOL    HW122541   6.880   0.241   4.599
 7214SOL    HW222542   6.913   0.099   4.672
 7215SOL     OW22543   6.733   3.260   4.019
 7215SOL    HW122544   6.735   3.233   4.116
 7215SOL    HW222545   6.676   3.196   3.968
 7216SOL     OW22546   3.332   6.995   1.011
 7216SOL    HW122547   3.409   7.003   1.075
 7216SOL    HW222548   3.310   0.063   0.974
 7217SOL     OW22549   1.998   4.370   3.363
 7217SOL    HW122550   2.080   4.315   3.379
 7217SOL    HW222551   2.020   4.443   3.298
 7218SOL     OW22552   6.204   2.626   3.866
 7218SOL    HW122553   6.186   2.531   3.892
 7218SOL    HW222554   6.213   2.632   3.766
 7219SOL     OW22555   3.633   0.398   3.252
 7219SOL    HW122556   3.632   0.433   3.346
 7219SOL    HW222557   3.685   0.313   3.249
 7220SOL     OW22558   6.759   4.244   4.906
 7220SOL    HW122559   6.759   4.151   4.870
 7220SOL    HW222560   6.840   4.293   4.874
 7221SOL     OW22561   3.567   5.879   4.576
 7221SOL    HW122562   3.539   5.974   4.585
 7221SOL    HW222563   3.568   5.853   4.479
 7222SOL     OW22564   6.534   6.602   3.678
 7222SOL    HW122565   6.439   6.606   3.707
 7222SOL    HW222566   6.547   6.525   3.615
 7223SOL     OW22567   3.377   1.494   1.144
 7223SOL    HW122568   3.425   1.554   1.209
 7223SOL    HW222569   3.279   1.513   1.148
 7224SOL     OW22570   5.180   2.060   4.059
 7224SOL    HW122571   5.164   2.123   4.135
 7224SOL    HW222572   5.269   2.078   4.018
 7225SOL     OW22573   1.472   5.981   0.673
 7225SOL    HW122574   1.375   5.956   0.676
 7225SOL    HW222575   1.487   6.048   0.601
 7226SOL     OW22576   6.183   0.204   1.777
 7226SOL    HW122577   6.274   0.246   1.775
 7226SOL    HW222578   6.172   0.143   1.699
 7227SOL     OW22579   2.817   2.071   1.532
 7227SOL    HW122580   2.775   1.980   1.538
 7227SOL    HW222581   2.866   2.079   1.445
 7228SOL     OW22582   1.094   2.099   2.776
 7228SOL    HW122583   1.102   2.197   2.763
 7228SOL    HW222584   1.138   2.051   2.700
 7229SOL     OW22585   1.173   5.724   5.881
 7229SOL    HW122586   1.237   5.798   5.859
 7229SOL    HW222587   1.222   5.636   5.879
 7230SOL     OW22588   3.638   5.491   4.896
 7230SOL    HW122589   3.705   5.420   4.875
 7230SOL    HW222590   3.573   5.457   4.963
 7231SOL     OW22591   4.107   0.383   6.333
 7231SOL    HW122592   4.093   0.340   6.244
 7231SOL    HW222593   4.172   0.328   6.387
 7232SOL     OW22594   4.872   5.942   2.268
 7232SOL    HW122595   4.921   6.019   2.226
 7232SOL    HW222596   4.816   5.976   2.344
 7233SOL     OW22597   1.624   1.484   4.164
 7233SOL    HW122598   1.550   1.548   4.145
 7233SOL    HW222599   1.638   1.424   4.086
 7234SOL     OW22600   5.776   2.618   3.306
 7234SOL    HW122601   5.742   2.621   3.400
 7234SOL    HW222602   5.713   2.564   3.250
 7235SOL     OW22603   7.020   4.484   2.428
 7235SOL    HW122604   0.041   4.505   2.515
 7235SOL    HW222605   6.946   4.549   2.410
 7236SOL     OW22606   2.665   1.718   1.965
 7236SOL    HW122607   2.601   1.739   2.039
 7236SOL    HW222608   2.718   1.800   1.943
 7237SOL     OW22609   4.038   0.416   4.741
 7237SOL    HW122610   4.037   0.512   4.771
 7237SOL    HW222611   4.069   0.358   4.816
 7238SOL     OW22612   4.027   1.884   6.791
 7238SOL    HW122613   4.034   1.799   6.843
 7238SOL    HW222614   4.100   1.947   6.819
 7239SOL     OW22615   1.023   1.813   2.047
 7239SOL    HW122616   0.961   1.892   2.038
 7239SOL    HW222617   1.103   1.839   2.101
 7240SOL     OW22618   1.045   1.003   6.067
 7240SOL    HW122619   1.086   0.960   6.148
 7240SOL    HW222620   1.098   1.084   6.042
 7241SOL     OW22621   2.219   0.267   1.217
 7241SOL    HW122622   2.195   0.214   1.137
 7241SOL    HW222623   2.285   0.339   1.191
 7242SOL     OW22624   6.789   5.518   6.633
 7242SOL    HW122625   6.691   5.534   6.628
 7242SOL    HW222626   6.807   5.429   6.674
 7243SOL     OW22627   6.655   4.047   6.459
 7243SOL    HW122628   6.633   3.968   6.402
 7243SOL    HW222629   6.752   4.068   6.451
 7244SOL     OW22630   6.952   0.793   1.988
 7244SOL    HW122631   6.964   0.699   2.020
 7244SOL    HW222632   6.855   0.808   1.967
 7245SOL     OW22633   1.790   3.185   5.104
 7245SOL    HW122634   1.690   3.183   5.102
 7245SOL    HW222635   1.821   3.272   5.144
 7246SOL     OW22636   0.466   0.452   3.928
 7246SOL    HW122637   0.469   0.546   3.893
 7246SOL    HW222638   0.495   0.452   4.024
 7247SOL     OW22639   2.458   1.584   4.415
 7247SOL    HW122640   2.530   1.521   4.386
 7247SOL    HW222641   2.372   1.560   4.369
 7248SOL     OW22642   2.460   1.442   3.175
 7248SOL    HW122643   2.401   1.363   3.159
 7248SOL    HW222644   2.488   1.482   3.087
 7249SOL     OW22645   6.306   4.946   2.364
 7249SOL    HW122646   6.333   5.018   2.300
 7249SOL    HW222647   6.208   4.954   2.384
 7250SOL     OW22648   5.702   6.416   5.983
 7250SOL    HW122649   5.793   6.408   5.944
 7250SOL    HW222650   5.676   6.513   5.987
 7251SOL     OW22651   0.338   6.539   5.398
 7251SOL    HW122652   0.348   6.637   5.385
 7251SOL    HW222653   0.402   6.508   5.469
 7252SOL     OW22654   4.079   3.287   2.313
 7252SOL    HW122655   4.092   3.189   2.329
 7252SOL    HW222656   4.119   3.339   2.389
 7253SOL     OW22657   1.609   6.020   0.093
 7253SOL    HW122658   1.642   6.064   0.009
 7253SOL    HW222659   1.678   6.028   0.164
 7254SOL     OW22660   4.797   5.012   4.523
 7254SOL    HW122661   4.844   4.949   4.584
 7254SOL    HW222662   4.819   4.989   4.428
 7255SOL     OW22663   3.800   3.650   0.390
 7255SOL    HW122664   3.840   3.563   0.422
 7255SOL    HW222665   3.848   3.726   0.434
 7256SOL     OW22666   3.009   5.835   4.792
 7256SOL    HW122667   3.027   5.877   4.881
 7256SOL    HW222668   3.046   5.893   4.719
 7257SOL     OW22669   6.284   1.644   2.990
 7257SOL    HW122670   6.225   1.724   3.004
 7257SOL    HW222671   6.279   1.614   2.895
 7258SOL     OW22672   4.960   1.596   2.876
 7258SOL    HW122673   4.953   1.653   2.958
 7258SOL    HW222674   4.987   1.653   2.798
 7259SOL     OW22675   2.483   4.059   1.249
 7259SOL    HW122676   2.497   3.983   1.185
 7259SOL    HW222677   2.504   4.145   1.202
 7260SOL     OW22678   4.482   1.392   1.159
 7260SOL    HW122679   4.463   1.477   1.206
 7260SOL    HW222680   4.412   1.324   1.182
 7261SOL     OW22681   1.564   3.368   1.693
 7261SOL    HW122682   1.584   3.437   1.624
 7261SOL    HW222683   1.650   3.332   1.729
 7262SOL     OW22684   5.447   2.720   6.463
 7262SOL    HW122685   5.368   2.781   6.457
 7262SOL    HW222686   5.531   2.775   6.468
 7263SOL     OW22687   1.160   6.562   6.824
 7263SOL    HW122688   1.069   6.557   6.783
 7263SOL    HW222689   1.176   6.654   6.860
 7264SOL     OW22690   5.043   2.148   6.492
 7264SOL    HW122691   5.003   2.087   6.560
 7264SOL    HW222692   4.976   2.164   6.419
 7265SOL     OW22693   6.067   5.175   5.544
 7265SOL    HW122694   6.164   5.198   5.530
 7265SOL    HW222695   6.060   5.081   5.578
 7266SOL     OW22696   5.218   6.688   2.159
 7266SOL    HW122697   5.284   6.712   2.088
 7266SOL    HW222698   5.166   6.769   2.185
 7267SOL     OW22699   6.487   6.488   5.109
 7267SOL    HW122700   6.558   6.481   5.039
 7267SOL    HW222701   6.517   6.550   5.181
 7268SOL     OW22702   6.144   5.054   3.491
 7268SOL    HW122703   6.073   5.056   3.561
 7268SOL    HW222704   6.128   5.128   3.425
 7269SOL     OW22705   0.133   6.054   6.487
 7269SOL    HW122706   0.185   6.124   6.536
 7269SOL    HW222707   0.096   6.092   6.403
 7270SOL     OW22708   1.474   3.275   5.336
 7270SOL    HW122709   1.425   3.359   5.312
 7270SOL    HW222710   1.520   3.288   5.425
 7271SOL     OW22711   0.375   5.809   3.717
 7271SOL    HW122712   0.300   5.779   3.658
 7271SOL    HW222713   0.361   5.903   3.745
 7272SOL     OW22714   6.115   5.438   2.439
 7272SOL    HW122715   6.089   5.361   2.496
 7272SOL    HW222716   6.214   5.441   2.429
 7273SOL     OW22717   6.145   4.652   1.441
 7273SOL    HW122718   6.056   4.692   1.462
 7273SOL    HW222719   6.191   4.627   1.527
 7274SOL     OW22720   0.153   5.082   6.060
 7274SOL    HW122721   0.088   5.100   6.133
 7274SOL    HW222722   0.221   5.016   6.090
 7275SOL     OW22723   6.939   6.250   2.452
 7275SOL    HW122724   0.011   6.216   2.438
 7275SOL    HW222725   6.942   6.348   2.469
 7276SOL     OW22726   4.002   1.021   3.210
 7276SOL    HW122727   3.988   1.120   3.197
 7276SOL    HW222728   3.934   0.986   3.274
 7277SOL     OW22729   4.483   0.763   4.042
 7277SOL    HW122730   4.530   0.850   4.056
 7277SOL    HW222731   4.385   0.779   4.028
 7278SOL     OW22732   3.667   2.638   1.476
 7278SOL    HW122733   3.717   2.556   1.446
 7278SOL    HW222734   3.573   2.613   1.498
 7279SOL     OW22735   4.779   4.373   6.125
 7279SOL    HW122736   4.745   4.465   6.103
 7279SOL    HW222737   4.746   4.309   6.056
 7280SOL     OW22738   0.540   1.815   3.538
 7280SOL    HW122739   0.612   1.770   3.484
 7280SOL    HW222740   0.582   1.881   3.600
 7281SOL     OW22741   2.027   1.033   0.938
 7281SOL    HW122742   2.070   1.087   0.866
 7281SOL    HW222743   1.974   1.093   0.998
 7282SOL     OW22744   5.771   5.311   2.487
 7282SOL    HW122745   5.870   5.294   2.483
 7282SOL    HW222746   5.735   5.323   2.395
 7283SOL     OW22747   4.911   0.451   2.772
 7283SOL    HW122748   4.855   0.395   2.833
 7283SOL    HW222749   4.990   0.487   2.822
 7284SOL     OW22750   0.383   2.787   5.859
 7284SOL    HW122751   0.383   2.880   5.896
 7284SOL    HW222752   0.384   2.722   5.935
 7285SOL     OW22753   5.539   3.048   2.368
 7285SOL    HW122754   5.507   3.080   2.278
 7285SOL    HW222755   5.581   3.123   2.417
 7286SOL     OW22756   2.080   0.916   1.231
 7286SOL    HW122757   2.137   0.834   1.239
 7286SOL    HW222758   2.135   0.991   1.194
 7287SOL     OW22759   0.791   2.507   5.786
 7287SOL    HW122760   0.832   2.477   5.871
 7287SOL    HW222761   0.709   2.452   5.767
 7288SOL     OW22762   2.111   1.133   2.099
 7288SOL    HW122763   2.078   1.202   2.034
 7288SOL    HW222764   2.036   1.073   2.125
 7289SOL     OW22765   5.657   1.853   4.218
 7289SOL    HW122766   5.562   1.879   4.235
 7289SOL    HW222767   5.659   1.764   4.172
 7290SOL     OW22768   3.739   1.619   5.461
 7290SOL    HW122769   3.714   1.712   5.435
 7290SOL    HW222770   3.717   1.556   5.387
 7291SOL     OW22771   1.005   6.855   6.960
 7291SOL    HW122772   0.995   6.928   0.006
 7291SOL    HW222773   1.100   6.853   6.929
 7292SOL     OW22774   3.182   0.681   3.480
 7292SOL    HW122775   3.206   0.636   3.394
 7292SOL    HW222776   3.084   0.700   3.481
 7293SOL     OW22777   1.529   2.080   4.972
 7293SOL    HW122778   1.609   2.102   4.916
 7293SOL    HW222779   1.557   2.019   5.046
 7294SOL     OW22780   2.478   4.677   6.747
 7294SOL    HW122781   2.526   4.594   6.775
 7294SOL    HW222782   2.519   4.757   6.792
 7295SOL     OW22783   5.659   3.554   1.344
 7295SOL    HW122784   5.731   3.555   1.274
 7295SOL    HW222785   5.680   3.623   1.413
 7296SOL     OW22786   3.544   6.311   2.132
 7296SOL    HW122787   3.582   6.229   2.175
 7296SOL    HW222788   3.614   6.355   2.076
 7297SOL     OW22789   3.917   0.220   1.587
 7297SOL    HW122790   3.931   0.234   1.685
 7297SOL    HW222791   3.910   0.308   1.541
 7298SOL     OW22792   4.773   5.237   6.176
 7298SOL    HW122793   4.843   5.299   6.210
 7298SOL    HW222794   4.741   5.268   6.087
 7299SOL     OW22795   0.836   2.455   1.136
 7299SOL    HW122796   0.796   2.401   1.210
 7299SOL    HW222797   0.932   2.472   1.155
 7300SOL     OW22798   0.502   6.683   2.108
 7300SOL    HW122799   0.451   6.769   2.114
 7300SOL    HW222800   0.548   6.666   2.195
 7301SOL     OW22801   5.755   1.417   4.414
 7301SOL    HW122802   5.791   1.361   4.489
 7301SOL    HW222803   5.800   1.392   4.329
 7302SOL     OW22804   1.078   2.449   5.273
 7302SOL    HW122805   1.139   2.526   5.253
 7302SOL    HW222806   1.059   2.446   5.371
 7303SOL     OW22807   4.007   0.940   0.042
 7303SOL    HW122808   3.957   0.977   6.986
 7303SOL    HW222809   4.103   0.967   0.037
 7304SOL     OW22810   3.015   5.725   1.679
 7304SOL    HW122811   3.042   5.807   1.729
 7304SOL    HW222812   2.919   5.704   1.698
 7305SOL     OW22813   5.207   1.133   0.466
 7305SOL    HW122814   5.287   1.096   0.419
 7305SOL    HW222815   5.238   1.185   0.546
 7306SOL     OW22816   4.478   1.687   1.189
 7306SOL    HW122817   4.471   1.703   1.090
 7306SOL    HW222818   4.404   1.734   1.237
 7307SOL     OW22819   2.571   6.487   2.799
 7307SOL    HW122820   2.472   6.494   2.784
 7307SOL    HW222821   2.614   6.575   2.782
 7308SOL     OW22822   6.557   2.934   4.998
 7308SOL    HW122823   6.631   2.986   4.957
 7308SOL    HW222824   6.473   2.987   4.996
 7309SOL     OW22825   4.076   4.948   0.482
 7309SOL    HW122826   4.168   4.977   0.456
 7309SOL    HW222827   4.021   4.933   0.399
 7310SOL     OW22828   2.564   4.194   0.514
 7310SOL    HW122829   2.498   4.264   0.541
 7310SOL    HW222830   2.517   4.122   0.462
 7311SOL     OW22831   1.793   2.106   1.337
 7311SOL    HW122832   1.785   2.174   1.264
 7311SOL    HW222833   1.711   2.048   1.337
 7312SOL     OW22834   1.022   3.517   5.027
 7312SOL    HW122835   1.077   3.579   4.971
 7312SOL    HW222836   1.066   3.428   5.032
 7313SOL     OW22837   2.111   0.731   1.025
 7313SOL    HW122838   2.170   0.718   1.104
 7313SOL    HW222839   2.043   0.802   1.044
 7314SOL     OW22840   6.912   5.155   6.207
 7314SOL    HW122841   6.823   5.142   6.165
 7314SOL    HW222842   6.932   5.253   6.215
 7315SOL     OW22843   6.285   6.134   1.599
 7315SOL    HW122844   6.318   6.202   1.665
 7315SOL    HW222845   6.249   6.182   1.518
 7316SOL     OW22846   3.755   3.754   6.326
 7316SOL    HW122847   3.667   3.776   6.370
 7316SOL    HW222848   3.793   3.837   6.285
 7317SOL     OW22849   4.694   1.466   2.139
 7317SOL    HW122850   4.606   1.508   2.162
 7317SOL    HW222851   4.729   1.417   2.219
 7318SOL     OW22852   2.889   0.475   2.027
 7318SOL    HW122853   2.846   0.563   2.005
 7318SOL    HW222854   2.988   0.486   2.030
 7319SOL     OW22855   6.543   3.193   6.651
 7319SOL    HW122856   6.602   3.223   6.575
 7319SOL    HW222857   6.597   3.187   6.735
 7320SOL     OW22858   0.938   3.876   2.313
 7320SOL    HW122859   1.025   3.829   2.327
 7320SOL    HW222860   0.863   3.810   2.322
 7321SOL     OW22861   1.504   0.087   6.363
 7321SOL    HW122862   1.580   0.023   6.367
 7321SOL    HW222863   1.488   0.113   6.268
 7322SOL     OW22864   0.162   2.840   3.071
 7322SOL    HW122865   0.222   2.885   3.004
 7322SOL    HW222866   0.201   2.849   3.162
 7323SOL     OW22867   2.175   2.769   1.365
 7323SOL    HW122868   2.192   2.792   1.269
 7323SOL    HW222869   2.147   2.852   1.415
 7324SOL     OW22870   5.601   5.753   1.726
 7324SOL    HW122871   5.534   5.773   1.655
 7324SOL    HW222872   5.643   5.839   1.757
 7325SOL     OW22873   2.506   0.830   6.595
 7325SOL    HW122874   2.474   0.923   6.615
 7325SOL    HW222875   2.432   0.765   6.612
 7326SOL     OW22876   2.671   6.310   6.611
 7326SOL    HW122877   2.600   6.378   6.593
 7326SOL    HW222878   2.761   6.351   6.598
 7327SOL     OW22879   6.412   1.456   5.984
 7327SOL    HW122880   6.407   1.494   6.077
 7327SOL    HW222881   6.508   1.446   5.957
 7328SOL     OW22882   3.824   0.431   5.937
 7328SOL    HW122883   3.760   0.507   5.943
 7328SOL    HW222884   3.882   0.430   6.018
 7329SOL     OW22885   0.992   3.790   1.113
 7329SOL    HW122886   0.931   3.742   1.050
 7329SOL    HW222887   1.087   3.777   1.085
 7330SOL     OW22888   1.881   2.812   6.705
 7330SOL    HW122889   1.902   2.897   6.753
 7330SOL    HW222890   1.962   2.779   6.657
 7331SOL     OW22891   5.433   6.027   1.395
 7331SOL    HW122892   5.381   6.112   1.396
 7331SOL    HW222893   5.511   6.034   1.458
 7332SOL     OW22894   3.542   6.141   6.788
 7332SOL    HW122895   3.627   6.180   6.753
 7332SOL    HW222896   3.517   6.185   6.874
 7333SOL     OW22897   6.806   3.372   1.996
 7333SOL    HW122898   6.873   3.409   2.061
 7333SOL    HW222899   6.727   3.337   2.046
 7334SOL     OW22900   2.175   5.566   6.395
 7334SOL    HW122901   2.154   5.501   6.322
 7334SOL    HW222902   2.089   5.606   6.429
 7335SOL     OW22903   0.868   2.769   3.308
 7335SOL    HW122904   0.884   2.836   3.381
 7335SOL    HW222905   0.942   2.702   3.308
 7336SOL     OW22906   1.581   6.605   2.709
 7336SOL    HW122907   1.498   6.557   2.737
 7336SOL    HW222908   1.587   6.608   2.610
 7337SOL     OW22909   0.777   3.121   1.138
 7337SOL    HW122910   0.742   3.030   1.161
 7337SOL    HW222911   0.848   3.147   1.203
 7338SOL     OW22912   4.951   1.569   2.169
 7338SOL    HW122913   4.857   1.534   2.179
 7338SOL    HW222914   4.965   1.600   2.075
 7339SOL     OW22915   6.114   0.605   4.369
 7339SOL    HW122916   6.152   0.543   4.300
 7339SOL    HW222917   6.145   0.576   4.460
 7340SOL     OW22918   3.129   1.127   0.538
 7340SOL    HW122919   3.157   1.044   0.488
 7340SOL    HW222920   3.204   1.193   0.536
 7341SOL     OW22921   0.820   4.416   5.652
 7341SOL    HW122922   0.777   4.491   5.601
 7341SOL    HW222923   0.795   4.329   5.610
 7342SOL     OW22924   6.939   1.174   6.849
 7342SOL    HW122925   6.910   1.161   6.754
 7342SOL    HW222926   6.994   1.096   6.877
 7343SOL     OW22927   6.130   4.383   1.689
 7343SOL    HW122928   6.047   4.427   1.723
 7343SOL    HW222929   6.117   4.358   1.593
 7344SOL     OW22930   0.741   0.936   6.139
 7344SOL    HW122931   0.803   1.014   6.143
 7344SOL    HW222932   0.737   0.901   6.045
 7345SOL     OW22933   4.748   5.156   5.451
 7345SOL    HW122934   4.657   5.152   5.410
 7345SOL    HW222935   4.795   5.069   5.435
 7346SOL     OW22936   4.300   5.029   1.741
 7346SOL    HW122937   4.323   5.056   1.647
 7346SOL    HW222938   4.265   5.108   1.791
 7347SOL     OW22939   0.233   2.373   0.597
 7347SOL    HW122940   0.263   2.401   0.506
 7347SOL    HW222941   0.218   2.454   0.653
 7348SOL     OW22942   1.883   4.240   4.626
 7348SOL    HW122943   1.973   4.240   4.581
 7348SOL    HW222944   1.814   4.208   4.562
 7349SOL     OW22945   5.077   1.623   1.294
 7349SOL    HW122946   5.024   1.539   1.282
 7349SOL    HW222947   5.113   1.627   1.387
 7350SOL     OW22948   1.971   2.872   5.568
 7350SOL    HW122949   1.963   2.971   5.565
 7350SOL    HW222950   1.881   2.832   5.587
 7351SOL     OW22951   5.160   6.614   5.024
 7351SOL    HW122952   5.070   6.648   4.997
 7351SOL    HW222953   5.179   6.527   4.979
 7352SOL     OW22954   2.162   1.916   2.934
 7352SOL    HW122955   2.158   1.877   2.843
 7352SOL    HW222956   2.070   1.918   2.974
 7353SOL     OW22957   0.965   0.610   6.717
 7353SOL    HW122958   1.043   0.633   6.659
 7353SOL    HW222959   0.996   0.552   6.792
 7354SOL     OW22960   0.482   1.854   5.669
 7354SOL    HW122961   0.441   1.873   5.580
 7354SOL    HW222962   0.520   1.939   5.707
 7355SOL     OW22963   1.895   0.552   0.993
 7355SOL    HW122964   1.816   0.572   1.050
 7355SOL    HW222965   1.901   0.618   0.918
 7356SOL     OW22966   4.018   4.261   5.755
 7356SOL    HW122967   3.984   4.300   5.669
 7356SOL    HW222968   4.098   4.204   5.737
 7357SOL     OW22969   4.004   6.550   1.924
 7357SOL    HW122970   4.042   6.492   1.852
 7357SOL    HW222971   4.039   6.643   1.915
 7358SOL     OW22972   6.062   3.207   2.901
 7358SOL    HW122973   6.162   3.210   2.908
 7358SOL    HW222974   6.033   3.256   2.819
 7359SOL     OW22975   2.723   1.409   6.390
 7359SOL    HW122976   2.684   1.375   6.475
 7359SOL    HW222977   2.791   1.480   6.411
 7360SOL     OW22978   2.788   3.935   5.680
 7360SOL    HW122979   2.870   3.991   5.684
 7360SOL    HW222980   2.804   3.856   5.620
 7361SOL     OW22981   4.569   0.140   2.065
 7361SOL    HW122982   4.565   0.072   2.139
 7361SOL    HW222983   4.654   0.129   2.014
 7362SOL     OW22984   1.621   4.909   4.595
 7362SOL    HW122985   1.632   4.993   4.647
 7362SOL    HW222986   1.648   4.925   4.500
 7363SOL     OW22987   4.364   1.868   1.615
 7363SOL    HW122988   4.434   1.810   1.658
 7363SOL    HW222989   4.276   1.821   1.619
 7364SOL     OW22990   4.502   0.677   1.768
 7364SOL    HW122991   4.478   0.769   1.735
 7364SOL    HW222992   4.478   0.669   1.865
 7365SOL     OW22993   0.737   5.627   1.766
 7365SOL    HW122994   0.687   5.649   1.851
 7365SOL    HW222995   0.745   5.528   1.757
 7366SOL     OW22996   2.441   5.981   6.987
 7366SOL    HW122997   2.377   5.931   6.928
 7366SOL    HW222998   2.482   6.056   6.936
 7367SOL     OW22999   4.702   2.558   1.180
 7367SOL    HW123000   4.619   2.534   1.130
 7367SOL    HW223001   4.781   2.558   1.118
 7368SOL     OW23002   3.681   2.925   2.723
 7368SOL    HW123003   3.585   2.914   2.746
 7368SOL    HW223004   3.735   2.935   2.806
 7369SOL     OW23005   4.015   2.928   0.389
 7369SOL    HW123006   3.977   2.926   0.297
 7369SOL    HW223007   3.981   2.848   0.441
 7370SOL     OW23008   2.745   0.413   4.003
 7370SOL    HW123009   2.706   0.323   3.987
 7370SOL    HW223010   2.775   0.452   3.916
 7371SOL     OW23011   1.819   6.554   3.357
 7371SOL    HW123012   1.758   6.630   3.380
 7371SOL    HW223013   1.818   6.487   3.432
 7372SOL     OW23014   4.051   1.170   4.413
 7372SOL    HW123015   4.042   1.210   4.504
 7372SOL    HW223016   4.132   1.206   4.368
 7373SOL     OW23017   5.678   1.627   4.083
 7373SOL    HW123018   5.765   1.577   4.086
 7373SOL    HW223019   5.630   1.605   3.999
 7374SOL     OW23020   2.306   1.852   5.191
 7374SOL    HW123021   2.262   1.822   5.276
 7374SOL    HW223022   2.299   1.780   5.123
 7375SOL     OW23023   2.112   2.574   3.120
 7375SOL    HW123024   2.181   2.643   3.099
 7375SOL    HW223025   2.117   2.500   3.052
 7376SOL     OW23026   2.688   1.361   0.441
 7376SOL    HW123027   2.684   1.439   0.504
 7376SOL    HW223028   2.659   1.279   0.489
 7377SOL     OW23029   5.772   4.409   0.688
 7377SOL    HW123030   5.848   4.465   0.721
 7377SOL    HW223031   5.773   4.408   0.588
 7378SOL     OW23032   0.536   0.792   5.972
 7378SOL    HW123033   0.510   0.876   5.925
 7378SOL    HW223034   0.460   0.727   5.967
 7379SOL     OW23035   2.771   1.968   3.109
 7379SOL    HW123036   2.685   1.938   3.068
 7379SOL    HW223037   2.823   1.888   3.139
 7380SOL     OW23038   6.746   4.643   4.659
 7380SOL    HW123039   6.776   4.629   4.753
 7380SOL    HW223040   6.826   4.655   4.600
 7381SOL     OW23041   4.380   3.636   1.215
 7381SOL    HW123042   4.442   3.644   1.293
 7381SOL    HW223043   4.286   3.626   1.247
 7382SOL     OW23044   0.123   6.394   5.483
 7382SOL    HW123045   0.204   6.447   5.461
 7382SOL    HW223046   0.150   6.304   5.517
 7383SOL     OW23047   1.668   0.255   0.934
 7383SOL    HW123048   1.624   0.221   0.851
 7383SOL    HW223049   1.601   0.259   1.008
 7384SOL     OW23050   6.057   6.822   2.285
 7384SOL    HW123051   6.109   6.763   2.347
 7384SOL    HW223052   6.054   6.915   2.322
 7385SOL     OW23053   3.891   6.126   2.369
 7385SOL    HW123054   3.811   6.119   2.311
 7385SOL    HW223055   3.906   6.038   2.415
 7386SOL     OW23056   0.245   2.140   6.184
 7386SOL    HW123057   0.322   2.181   6.231
 7386SOL    HW223058   0.199   2.075   6.245
 7387SOL     OW23059   5.868   6.529   4.913
 7387SOL    HW123060   5.902   6.489   4.828
 7387SOL    HW223061   5.773   6.558   4.900
 7388SOL     OW23062   0.835   5.320   2.357
 7388SOL    HW123063   0.829   5.220   2.368
 7388SOL    HW223064   0.841   5.363   2.447
 7389SOL     OW23065   6.530   3.848   6.698
 7389SOL    HW123066   6.524   3.906   6.617
 7389SOL    HW223067   6.460   3.776   6.693
 7390SOL     OW23068   0.964   1.873   0.388
 7390SOL    HW123069   0.896   1.808   0.354
 7390SOL    HW223070   1.022   1.903   0.312
 7391SOL     OW23071   3.963   3.781   3.893
 7391SOL    HW123072   3.984   3.853   3.960
 7391SOL    HW223073   3.992   3.693   3.928
 7392SOL     OW23074   2.637   6.506   6.838
 7392SOL    HW123075   2.576   6.517   6.759
 7392SOL    HW223076   2.707   6.578   6.836
 7393SOL     OW23077   5.994   4.095   3.135
 7393SOL    HW123078   5.918   4.031   3.126
 7393SOL    HW223079   6.013   4.110   3.232
 7394SOL     OW23080   2.180   2.985   5.768
 7394SOL    HW123081   2.105   2.923   5.792
 7394SOL    HW223082   2.256   2.933   5.730
 7395SOL     OW23083   1.338   2.954   1.072
 7395SOL    HW123084   1.330   2.862   1.033
 7395SOL    HW223085   1.307   3.021   1.005
 7396SOL     OW23086   1.477   6.563   0.884
 7396SOL    HW123087   1.441   6.639   0.830
 7396SOL    HW223088   1.488   6.483   0.825
 7397SOL     OW23089   4.102   5.008   4.661
 7397SOL    HW123090   4.016   4.989   4.709
 7397SOL    HW223091   4.143   5.091   4.697
 7398SOL     OW23092   2.409   4.875   4.747
 7398SOL    HW123093   2.504   4.860   4.717
 7398SOL    HW223094   2.401   4.967   4.786
 7399SOL     OW23095   1.078   2.949   4.917
 7399SOL    HW123096   1.055   2.852   4.926
 7399SOL    HW223097   1.169   2.965   4.955
 7400SOL     OW23098   4.046   2.394   5.644
 7400SOL    HW123099   4.062   2.296   5.655
 7400SOL    HW223100   3.973   2.423   5.706
 7401SOL     OW23101   1.629   1.945   4.623
 7401SOL    HW123102   1.623   2.025   4.563
 7401SOL    HW223103   1.637   1.975   4.718
 7402SOL     OW23104   3.040   6.036   6.277
 7402SOL    HW123105   3.092   6.039   6.362
 7402SOL    HW223106   3.022   5.940   6.253
 7403SOL     OW23107   2.105   3.734   2.131
 7403SOL    HW123108   2.171   3.659   2.135
 7403SOL    HW223109   2.043   3.728   2.209
 7404SOL     OW23110   2.640   5.351   1.865
 7404SOL    HW123111   2.620   5.259   1.832
 7404SOL    HW223112   2.722   5.349   1.922
 7405SOL     OW23113   3.603   5.049   4.581
 7405SOL    HW123114   3.520   5.012   4.539
 7405SOL    HW223115   3.682   4.996   4.550
 7406SOL     OW23116   0.242   2.487   3.694
 7406SOL    HW123117   0.183   2.413   3.662
 7406SOL    HW223118   0.337   2.457   3.693
 7407SOL     OW23119   0.838   6.915   5.187
 7407SOL    HW123120   0.929   6.876   5.172
 7407SOL    HW223121   0.773   6.876   5.121
 7408SOL     OW23122   3.173   3.730   7.001
 7408SOL    HW123123   3.091   3.704   0.028
 7408SOL    HW223124   3.151   3.802   6.935
 7409SOL     OW23125   5.394   2.600   0.159
 7409SOL    HW123126   5.419   2.576   0.065
 7409SOL    HW223127   5.476   2.631   0.208
 7410SOL     OW23128   0.392   6.968   0.384
 7410SOL    HW123129   0.472   0.003   0.364
 7410SOL    HW223130   0.398   6.934   0.477
 7411SOL     OW23131   2.143   0.049   6.039
 7411SOL    HW123132   2.087   0.056   6.122
 7411SOL    HW223133   2.086   0.015   5.964
 7412SOL     OW23134   5.379   0.477   2.395
 7412SOL    HW123135   5.463   0.484   2.450
 7412SOL    HW223136   5.371   0.384   2.360
 7413SOL     OW23137   5.317   5.651   4.198
 7413SOL    HW123138   5.299   5.742   4.160
 7413SOL    HW223139   5.230   5.605   4.216
 7414SOL     OW23140   0.549   0.734   3.866
 7414SOL    HW123141   0.484   0.774   3.802
 7414SOL    HW223142   0.643   0.757   3.838
 7415SOL     OW23143   1.509   5.145   3.849
 7415SOL    HW123144   1.446   5.068   3.842
 7415SOL    HW223145   1.462   5.222   3.893
 7416SOL     OW23146   2.173   1.198   2.477
 7416SOL    HW123147   2.242   1.217   2.546
 7416SOL    HW223148   2.106   1.272   2.475
 7417SOL     OW23149   1.719   1.872   0.695
 7417SOL    HW123150   1.641   1.900   0.752
 7417SOL    HW223151   1.781   1.815   0.748
 7418SOL     OW23152   2.732   5.971   0.485
 7418SOL    HW123153   2.776   6.060   0.471
 7418SOL    HW223154   2.727   5.922   0.398
 7419SOL     OW23155   6.516   2.805   4.226
 7419SOL    HW123156   6.507   2.718   4.176
 7419SOL    HW223157   6.612   2.822   4.245
 7420SOL     OW23158   0.501   6.919   1.495
 7420SOL    HW123159   0.501   6.997   1.431
 7420SOL    HW223160   0.594   6.903   1.527
 7421SOL     OW23161   4.136   4.439   0.713
 7421SOL    HW123162   4.137   4.524   0.661
 7421SOL    HW223163   4.182   4.367   0.660
 7422SOL     OW23164   0.500   3.717   2.245
 7422SOL    HW123165   0.563   3.754   2.177
 7422SOL    HW223166   0.540   3.634   2.286
 7423SOL     OW23167   5.772   2.496   5.235
 7423SOL    HW123168   5.719   2.507   5.319
 7423SOL    HW223169   5.819   2.408   5.236
 7424SOL     OW23170   6.767   6.816   5.687
 7424SOL    HW123171   6.721   6.800   5.599
 7424SOL    HW223172   6.842   6.751   5.698
 7425SOL     OW23173   4.207   6.468   6.824
 7425SOL    HW123174   4.211   6.370   6.843
 7425SOL    HW223175   4.299   6.503   6.807
 7426SOL     OW23176   3.085   1.755   5.826
 7426SOL    HW123177   3.142   1.771   5.746
 7426SOL    HW223178   3.063   1.657   5.832
 7427SOL     OW23179   4.004   0.668   3.609
 7427SOL    HW123180   3.980   0.686   3.514
 7427SOL    HW223181   4.098   0.699   3.626
 7428SOL     OW23182   4.344   1.797   5.345
 7428SOL    HW123183   4.326   1.745   5.429
 7428SOL    HW223184   4.355   1.894   5.367
 7429SOL     OW23185   0.099   6.492   4.316
 7429SOL    HW123186   0.073   6.584   4.347
 7429SOL    HW223187   0.198   6.481   4.323
 7430SOL     OW23188   1.534   3.588   0.239
 7430SOL    HW123189   1.455   3.570   0.298
 7430SOL    HW223190   1.617   3.551   0.282
 7431SOL     OW23191   1.734   3.032   3.409
 7431SOL    HW123192   1.788   2.952   3.384
 7431SOL    HW223193   1.791   3.095   3.462
 7432SOL     OW23194   0.863   0.980   2.854
 7432SOL    HW123195   0.826   1.068   2.822
 7432SOL    HW223196   0.906   0.993   2.943
 7433SOL     OW23197   4.433   6.171   5.748
 7433SOL    HW123198   4.503   6.173   5.677
 7433SOL    HW223199   4.354   6.224   5.718
 7434SOL     OW23200   4.857   5.965   5.094
 7434SOL    HW123201   4.947   5.920   5.091
 7434SOL    HW223202   4.785   5.897   5.080
 7435SOL     OW23203   3.514   5.613   0.844
 7435SOL    HW123204   3.575   5.621   0.922
 7435SOL    HW223205   3.566   5.589   0.762
 7436SOL     OW23206   4.730   3.974   6.300
 7436SOL    HW123207   4.753   3.942   6.209
 7436SOL    HW223208   4.794   4.045   6.328
 7437SOL     OW23209   1.841   5.751   0.422
 7437SOL    HW123210   1.817   5.699   0.504
 7437SOL    HW223211   1.916   5.704   0.374
 7438SOL     OW23212   1.426   6.158   0.228
 7438SOL    HW123213   1.473   6.201   0.306
 7438SOL    HW223214   1.492   6.107   0.173
 7439SOL     OW23215   1.867   6.227   5.434
 7439SOL    HW123216   1.793   6.211   5.499
 7439SOL    HW223217   1.940   6.279   5.479
 7440SOL     OW23218   0.143   2.490   4.879
 7440SOL    HW123219   0.160   2.473   4.782
 7440SOL    HW223220   0.046   2.511   4.892
 7441SOL     OW23221   5.214   6.397   4.311
 7441SOL    HW123222   5.261   6.341   4.379
 7441SOL    HW223223   5.192   6.486   4.350
 7442SOL     OW23224   6.438   0.972   5.937
 7442SOL    HW123225   6.448   1.061   5.893
 7442SOL    HW223226   6.444   0.983   6.036
 7443SOL     OW23227   6.640   6.307   1.693
 7443SOL    HW123228   6.635   6.253   1.609
 7443SOL    HW223229   6.549   6.318   1.732
 7444SOL     OW23230   5.754   2.169   5.779
 7444SOL    HW123231   5.670   2.223   5.791
 7444SOL    HW223232   5.767   2.110   5.858
 7445SOL     OW23233   4.135   0.738   0.957
 7445SOL    HW123234   4.128   0.745   0.857
 7445SOL    HW223235   4.050   0.700   0.993
 7446SOL     OW23236   5.881   3.300   1.212
 7446SOL    HW123237   5.877   3.249   1.298
 7446SOL    HW223238   5.929   3.246   1.143
 7447SOL     OW23239   6.533   3.130   0.087
 7447SOL    HW123240   6.539   3.066   0.163
 7447SOL    HW223241   6.602   3.107   0.018
 7448SOL     OW23242   6.248   6.744   5.444
 7448SOL    HW123243   6.244   6.836   5.405
 7448SOL    HW223244   6.309   6.687   5.389
 7449SOL     OW23245   0.620   4.200   2.386
 7449SOL    HW123246   0.648   4.199   2.290
 7449SOL    HW223247   0.689   4.154   2.442
 7450SOL     OW23248   5.273   2.441   5.300
 7450SOL    HW123249   5.247   2.395   5.216
 7450SOL    HW223250   5.316   2.376   5.363
 7451SOL     OW23251   6.486   6.046   3.056
 7451SOL    HW123252   6.547   6.037   2.978
 7451SOL    HW223253   6.394   6.015   3.030
 7452SOL     OW23254   6.023   6.579   4.220
 7452SOL    HW123255   5.936   6.624   4.240
 7452SOL    HW223256   6.016   6.530   4.133
 7453SOL     OW23257   5.122   6.102   5.721
 7453SOL    HW123258   5.076   6.017   5.745
 7453SOL    HW223259   5.075   6.144   5.643
 7454SOL     OW23260   1.044   2.121   1.762
 7454SOL    HW123261   1.116   2.054   1.749
 7454SOL    HW223262   1.017   2.159   1.673
 7455SOL     OW23263   6.952   2.880   2.123
 7455SOL    HW123264   6.925   2.939   2.046
 7455SOL    HW223265   6.915   2.789   2.109
 7456SOL     OW23266   1.333   1.139   3.969
 7456SOL    HW123267   1.246   1.176   3.937
 7456SOL    HW223268   1.407   1.203   3.947
 7457SOL     OW23269   3.232   0.705   5.745
 7457SOL    HW123270   3.210   0.736   5.837
 7457SOL    HW223271   3.331   0.699   5.734
 7458SOL     OW23272   1.513   6.378   5.524
 7458SOL    HW123273   1.566   6.306   5.568
 7458SOL    HW223274   1.550   6.467   5.550
 7459SOL     OW23275   5.141   0.346   2.194
 7459SOL    HW123276   5.110   0.383   2.282
 7459SOL    HW223277   5.083   0.270   2.167
 7460SOL     OW23278   0.985   4.921   0.511
 7460SOL    HW123279   0.890   4.898   0.492
 7460SOL    HW223280   1.003   5.015   0.482
 7461SOL     OW23281   6.056   0.492   6.603
 7461SOL    HW123282   6.100   0.442   6.677
 7461SOL    HW223283   6.019   0.427   6.536
 7462SOL     OW23284   1.806   4.161   2.470
 7462SOL    HW123285   1.775   4.125   2.558
 7462SOL    HW223286   1.728   4.195   2.418
 7463SOL     OW23287   3.139   4.941   0.564
 7463SOL    HW123288   3.146   5.041   0.570
 7463SOL    HW223289   3.150   4.913   0.468
 7464SOL     OW23290   5.406   7.015   5.858
 7464SOL    HW123291   5.362   6.942   5.910
 7464SOL    HW223292   5.416   6.987   5.763
 7465SOL     OW23293   2.178   5.671   7.020
 7465SOL    HW123294   2.166   5.630   6.930
 7465SOL    HW223295   2.105   5.738   0.014
 7466SOL     OW23296   0.411   0.557   4.745
 7466SOL    HW123297   0.440   0.632   4.686
 7466SOL    HW223298   0.321   0.524   4.716
 7467SOL     OW23299   0.560   1.446   0.426
 7467SOL    HW123300   0.539   1.354   0.459
 7467SOL    HW223301   0.634   1.442   0.360
 7468SOL     OW23302   5.916   2.935   3.706
 7468SOL    HW123303   5.825   2.926   3.747
 7468SOL    HW223304   5.984   2.892   3.766
 7469SOL     OW23305   6.495   0.528   0.692
 7469SOL    HW123306   6.435   0.495   0.619
 7469SOL    HW223307   6.518   0.452   0.753
 7470SOL     OW23308   6.245   3.899   2.977
 7470SOL    HW123309   6.191   3.975   3.014
 7470SOL    HW223310   6.340   3.908   3.006
 7471SOL     OW23311   5.517   6.663   5.608
 7471SOL    HW123312   5.470   6.748   5.586
 7471SOL    HW223313   5.610   6.684   5.640
 7472SOL     OW23314   6.400   0.425   5.802
 7472SOL    HW123315   6.339   0.406   5.725
 7472SOL    HW223316   6.454   0.507   5.783
 7473SOL     OW23317   5.936   5.743   4.070
 7473SOL    HW123318   5.865   5.688   4.026
 7473SOL    HW223319   6.008   5.765   4.004
 7474SOL     OW23320   0.843   1.480   6.379
 7474SOL    HW123321   0.916   1.455   6.315
 7474SOL    HW223322   0.776   1.538   6.333
 7475SOL     OW23323   4.705   2.625   2.700
 7475SOL    HW123324   4.739   2.570   2.623
 7475SOL    HW223325   4.627   2.578   2.742
 7476SOL     OW23326   3.259   0.515   3.895
 7476SOL    HW123327   3.335   0.528   3.958
 7476SOL    HW223328   3.264   0.585   3.823
 7477SOL     OW23329   0.529   1.395   5.825
 7477SOL    HW123330   0.507   1.334   5.749
 7477SOL    HW223331   0.455   1.392   5.892
 7478SOL     OW23332   5.675   3.999   5.624
 7478SOL    HW123333   5.647   4.090   5.591
 7478SOL    HW223334   5.594   3.943   5.638
 7479SOL     OW23335   4.328   2.280   2.325
 7479SOL    HW123336   4.229   2.274   2.323
 7479SOL    HW223337   4.366   2.240   2.241
 7480SOL     OW23338   1.453   4.344   2.824
 7480SOL    HW123339   1.549   4.319   2.813
 7480SOL    HW223340   1.407   4.343   2.735
 7481SOL     OW23341   5.960   5.662   0.978
 7481SOL    HW123342   5.952   5.695   0.884
 7481SOL    HW223343   6.001   5.570   0.979
 7482SOL     OW23344   4.551   2.460   3.022
 7482SOL    HW123345   4.522   2.458   2.927
 7482SOL    HW223346   4.498   2.392   3.074
 7483SOL     OW23347   4.864   3.286   4.567
 7483SOL    HW123348   4.809   3.358   4.524
 7483SOL    HW223349   4.821   3.197   4.548
 7484SOL     OW23350   1.395   6.901   5.001
 7484SOL    HW123351   1.383   6.994   4.966
 7484SOL    HW223352   1.308   6.852   4.996
 7485SOL     OW23353   3.381   6.853   4.731
 7485SOL    HW123354   3.382   6.940   4.680
 7485SOL    HW223355   3.295   6.845   4.780
 7486SOL     OW23356   2.136   6.141   0.309
 7486SOL    HW123357   2.148   6.208   0.235
 7486SOL    HW223358   2.149   6.186   0.397
 7487SOL     OW23359   1.890   6.949   2.861
 7487SOL    HW123360   1.884   6.930   2.959
 7487SOL    HW223361   1.904   0.025   2.847
 7488SOL     OW23362   2.692   6.018   4.068
 7488SOL    HW123363   2.753   6.035   3.991
 7488SOL    HW223364   2.618   6.085   4.067
 7489SOL     OW23365   5.769   2.625   5.739
 7489SOL    HW123366   5.851   2.627   5.796
 7489SOL    HW223367   5.689   2.606   5.795
 7490SOL     OW23368   1.213   6.889   2.651
 7490SOL    HW123369   1.198   6.864   2.747
 7490SOL    HW223370   1.238   6.807   2.600
 7491SOL     OW23371   4.876   2.702   6.699
 7491SOL    HW123372   4.936   2.623   6.691
 7491SOL    HW223373   4.829   2.699   6.788
 7492SOL     OW23374   1.553   0.465   3.058
 7492SOL    HW123375   1.477   0.439   2.998
 7492SOL    HW223376   1.548   0.413   3.143
 7493SOL     OW23377   0.388   3.316   6.613
 7493SOL    HW123378   0.319   3.303   6.542
 7493SOL    HW223379   0.373   3.248   6.686
 7494SOL     OW23380   5.701   1.954   2.742
 7494SOL    HW123381   5.604   1.969   2.761
 7494SOL    HW223382   5.735   2.025   2.681
 7495SOL     OW23383   1.448   2.139   6.745
 7495SOL    HW123384   1.497   2.218   6.709
 7495SOL    HW223385   1.351   2.145   6.720
 7496SOL     OW23386   6.761   3.164   4.295
 7496SOL    HW123387   6.669   3.202   4.290
 7496SOL    HW223388   6.786   3.150   4.391
 7497SOL     OW23389   2.790   4.524   0.062
 7497SOL    HW123390   2.840   4.462   0.001
 7497SOL    HW223391   2.803   4.618   0.032
 7498SOL     OW23392   3.174   0.587   5.290
 7498SOL    HW123393   3.147   0.496   5.320
 7498SOL    HW223394   3.183   0.589   5.191
 7499SOL     OW23395   4.059   1.319   3.155
 7499SOL    HW123396   4.062   1.417   3.170
 7499SOL    HW223397   4.020   1.299   3.065
 7500SOL     OW23398   3.210   5.637   3.129
 7500SOL    HW123399   3.290   5.689   3.098
 7500SOL    HW223400   3.127   5.677   3.089
 7501SOL     OW23401   5.207   3.628   4.608
 7501SOL    HW123402   5.154   3.615   4.691
 7501SOL    HW223403   5.264   3.548   4.591
 7502SOL     OW23404   3.087   0.790   4.704
 7502SOL    HW123405   3.070   0.694   4.685
 7502SOL    HW223406   3.026   0.821   4.777
 7503SOL     OW23407   1.699   7.008   1.303
 7503SOL    HW123408   1.684   0.085   1.304
 7503SOL    HW223409   1.757   6.983   1.381
 7504SOL     OW23410   0.695   6.409   3.720
 7504SOL    HW123411   0.673   6.312   3.729
 7504SOL    HW223412   0.689   6.436   3.624
 7505SOL     OW23413   1.842   2.976   5.865
 7505SOL    HW123414   1.802   2.916   5.796
 7505SOL    HW223415   1.843   3.070   5.831
 7506SOL     OW23416   5.294   1.520   3.081
 7506SOL    HW123417   5.346   1.455   3.135
 7506SOL    HW223418   5.209   1.477   3.049
 7507SOL     OW23419   0.054   1.680   2.736
 7507SOL    HW123420   0.030   1.720   2.825
 7507SOL    HW223421   0.072   1.754   2.670
 7508SOL     OW23422   1.393   6.769   1.604
 7508SOL    HW123423   1.479   6.744   1.560
 7508SOL    HW223424   1.335   6.687   1.613
 7509SOL     OW23425   6.122   3.666   0.593
 7509SOL    HW123426   6.190   3.703   0.530
 7509SOL    HW223427   6.071   3.742   0.635
 7510SOL     OW23428   3.516   3.435   5.075
 7510SOL    HW123429   3.459   3.510   5.105
 7510SOL    HW223430   3.478   3.348   5.107
 7511SOL     OW23431   2.610   5.764   4.123
 7511SOL    HW123432   2.516   5.789   4.100
 7511SOL    HW223433   2.668   5.845   4.120
 7512SOL     OW23434   2.555   6.733   6.479
 7512SOL    HW123435   2.577   6.694   6.569
 7512SOL    HW223436   2.550   6.660   6.411
 7513SOL     OW23437   1.727   0.884   1.783
 7513SOL    HW123438   1.761   0.834   1.703
 7513SOL    HW223439   1.804   0.903   1.844
 7514SOL     OW23440   2.719   5.581   2.069
 7514SOL    HW123441   2.800   5.531   2.038
 7514SOL    HW223442   2.692   5.647   1.998
 7515SOL     OW23443   6.846   5.213   4.730
 7515SOL    HW123444   6.942   5.228   4.754
 7515SOL    HW223445   6.835   5.221   4.630
 7516SOL     OW23446   6.325   5.791   6.179
 7516SOL    HW123447   6.262   5.868   6.188
 7516SOL    HW223448   6.274   5.706   6.175
 7517SOL     OW23449   0.357   2.117   0.634
 7517SOL    HW123450   0.367   2.142   0.538
 7517SOL    HW223451   0.314   2.192   0.684
 7518SOL     OW23452   4.433   4.569   4.022
 7518SOL    HW123453   4.349   4.621   4.011
 7518SOL    HW223454   4.429   4.515   4.106
 7519SOL     OW23455   0.353   6.541   4.112
 7519SOL    HW123456   0.380   6.510   4.204
 7519SOL    HW223457   0.254   6.555   4.110
 7520SOL     OW23458   2.613   0.020   2.132
 7520SOL    HW123459   2.569   6.994   2.057
 7520SOL    HW223460   2.566   0.107   2.148
 7521SOL     OW23461   4.331   2.738   5.746
 7521SOL    HW123462   4.421   2.716   5.783
 7521SOL    HW223463   4.310   2.676   5.671
 7522SOL     OW23464   1.819   1.549   6.132
 7522SOL    HW123465   1.913   1.516   6.138
 7522SOL    HW223466   1.815   1.646   6.155
 7523SOL     OW23467   5.413   0.115   6.363
 7523SOL    HW123468   5.387   0.091   6.456
 7523SOL    HW223469   5.462   0.202   6.363
 7524SOL     OW23470   1.036   2.673   4.992
 7524SOL    HW123471   0.970   2.601   5.013
 7524SOL    HW223472   1.121   2.633   4.960
 7525SOL     OW23473   3.266   0.661   6.485
 7525SOL    HW123474   3.343   0.692   6.429
 7525SOL    HW223475   3.192   0.631   6.425
 7526SOL     OW23476   3.415   3.337   1.270
 7526SOL    HW123477   3.374   3.268   1.210
 7526SOL    HW223478   3.348   3.365   1.339
 7527SOL     OW23479   2.818   5.730   3.309
 7527SOL    HW123480   2.795   5.756   3.403
 7527SOL    HW223481   2.827   5.630   3.304
 7528SOL     OW23482   6.076   2.301   0.721
 7528SOL    HW123483   6.012   2.296   0.645
 7528SOL    HW223484   6.050   2.236   0.792
 7529SOL     OW23485   5.471   1.712   4.559
 7529SOL    HW123486   5.543   1.782   4.562
 7529SOL    HW223487   5.469   1.670   4.468
 7530SOL     OW23488   0.276   2.910   2.066
 7530SOL    HW123489   0.235   2.838   2.122
 7530SOL    HW223490   0.307   2.872   1.979
 7531SOL     OW23491   5.664   2.921   4.515
 7531SOL    HW123492   5.662   2.848   4.584
 7531SOL    HW223493   5.695   3.006   4.557
 7532SOL     OW23494   4.403   6.327   0.115
 7532SOL    HW123495   4.430   6.410   0.164
 7532SOL    HW223496   4.389   6.348   0.018
 7533SOL     OW23497   3.419   1.389   1.736
 7533SOL    HW123498   3.469   1.304   1.750
 7533SOL    HW223499   3.322   1.369   1.724
 7534SOL     OW23500   4.086   6.350   5.199
 7534SOL    HW123501   4.014   6.338   5.130
 7534SOL    HW223502   4.045   6.346   5.290
 7535SOL     OW23503   1.940   0.350   4.635
 7535SOL    HW123504   1.898   0.290   4.568
 7535SOL    HW223505   1.918   0.318   4.727
 7536SOL     OW23506   5.260   4.501   4.413
 7536SOL    HW123507   5.230   4.407   4.401
 7536SOL    HW223508   5.250   4.527   4.509
 7537SOL     OW23509   2.545   5.927   1.705
 7537SOL    HW123510   2.470   5.902   1.767
 7537SOL    HW223511   2.509   5.983   1.630
 7538SOL     OW23512   2.210   2.044   1.105
 7538SOL    HW123513   2.143   2.042   1.032
 7538SOL    HW223514   2.282   2.110   1.082
 7539SOL     OW23515   1.721   3.558   4.155
 7539SOL    HW123516   1.677   3.563   4.065
 7539SOL    HW223517   1.681   3.483   4.207
 7540SOL     OW23518   4.042   0.705   4.828
 7540SOL    HW123519   4.104   0.771   4.784
 7540SOL    HW223520   3.960   0.752   4.859
 7541SOL     OW23521   0.330   4.363   5.041
 7541SOL    HW123522   0.425   4.332   5.047
 7541SOL    HW223523   0.283   4.343   5.127
 7542SOL     OW23524   1.030   5.144   6.976
 7542SOL    HW123525   0.985   5.221   6.931
 7542SOL    HW223526   1.121   5.130   6.935
 7543SOL     OW23527   3.967   1.069   5.648
 7543SOL    HW123528   3.947   1.081   5.550
 7543SOL    HW223529   3.938   1.151   5.697
 7544SOL     OW23530   6.755   2.284   3.125
 7544SOL    HW123531   6.800   2.201   3.093
 7544SOL    HW223532   6.775   2.298   3.222
 7545SOL     OW23533   0.478   5.467   7.009
 7545SOL    HW123534   0.545   5.397   0.012
 7545SOL    HW223535   0.474   5.476   6.910
 7546SOL     OW23536   3.769   1.713   1.164
 7546SOL    HW123537   3.763   1.812   1.160
 7546SOL    HW223538   3.695   1.677   1.222
 7547SOL     OW23539   5.219   1.792   0.282
 7547SOL    HW123540   5.151   1.742   0.335
 7547SOL    HW223541   5.236   1.745   0.196
 7548SOL     OW23542   4.223   2.219   0.293
 7548SOL    HW123543   4.163   2.293   0.323
 7548SOL    HW223544   4.278   2.187   0.370
 7549SOL     OW23545   3.066   2.626   6.920
 7549SOL    HW123546   3.097   2.706   6.868
 7549SOL    HW223547   3.030   2.557   6.857
 7550SOL     OW23548   2.100   4.940   3.789
 7550SOL    HW123549   2.032   4.960   3.719
 7550SOL    HW223550   2.143   4.851   3.769
 7551SOL     OW23551   5.470   3.193   5.725
 7551SOL    HW123552   5.375   3.174   5.748
 7551SOL    HW223553   5.508   3.260   5.789
 7552SOL     OW23554   1.036   6.207   2.656
 7552SOL    HW123555   0.951   6.203   2.605
 7552SOL    HW223556   1.033   6.141   2.731
 7553SOL     OW23557   3.980   6.497   5.621
 7553SOL    HW123558   3.942   6.458   5.538
 7553SOL    HW223559   3.961   6.596   5.623
 7554SOL     OW23560   5.276   0.915   6.686
 7554SOL    HW123561   5.186   0.871   6.680
 7554SOL    HW223562   5.277   0.976   6.765
 7555SOL     OW23563   2.263   4.986   6.564
 7555SOL    HW123564   2.323   5.065   6.579
 7555SOL    HW223565   2.238   4.981   6.467
 7556SOL     OW23566   2.300   3.080   0.818
 7556SOL    HW123567   2.210   3.047   0.790
 7556SOL    HW223568   2.322   3.165   0.769
 7557SOL     OW23569   5.530   0.398   6.243
 7557SOL    HW123570   5.592   0.363   6.313
 7557SOL    HW223571   5.513   0.327   6.174
 7558SOL     OW23572   2.163   2.657   4.910
 7558SOL    HW123573   2.123   2.566   4.921
 7558SOL    HW223574   2.255   2.649   4.873
 7559SOL     OW23575   4.441   3.579   0.459
 7559SOL    HW123576   4.440   3.597   0.360
 7559SOL    HW223577   4.507   3.506   0.479
 7560SOL     OW23578   4.527   6.755   0.914
 7560SOL    HW123579   4.583   6.796   0.986
 7560SOL    HW223580   4.544   6.656   0.911
 7561SOL     OW23581   0.768   3.130   6.500
 7561SOL    HW123582   0.771   3.118   6.599
 7561SOL    HW223583   0.690   3.187   6.476
 7562SOL     OW23584   0.772   5.692   5.262
 7562SOL    HW123585   0.704   5.727   5.326
 7562SOL    HW223586   0.740   5.705   5.168
 7563SOL     OW23587   3.149   6.988   1.231
 7563SOL    HW123588   3.240   6.953   1.255
 7563SOL    HW223589   3.137   6.982   1.132
 7564SOL     OW23590   3.882   0.122   3.894
 7564SOL    HW123591   3.860   0.147   3.988
 7564SOL    HW223592   3.927   0.033   3.894
 7565SOL     OW23593   5.133   2.910   6.211
 7565SOL    HW123594   5.165   2.924   6.117
 7565SOL    HW223595   5.130   2.997   6.259
 7566SOL     OW23596   6.780   4.556   2.854
 7566SOL    HW123597   6.692   4.592   2.823
 7566SOL    HW223598   6.783   4.457   2.838
 7567SOL     OW23599   1.751   1.555   5.284
 7567SOL    HW123600   1.843   1.562   5.245
 7567SOL    HW223601   1.753   1.496   5.365
 7568SOL     OW23602   5.175   5.293   2.463
 7568SOL    HW123603   5.085   5.267   2.497
 7568SOL    HW223604   5.169   5.382   2.418
 7569SOL     OW23605   3.436   4.933   5.887
 7569SOL    HW123606   3.533   4.933   5.861
 7569SOL    HW223607   3.383   4.881   5.820
 7570SOL     OW23608   5.145   4.289   4.988
 7570SOL    HW123609   5.179   4.214   4.931
 7570SOL    HW223610   5.222   4.334   5.034
 7571SOL     OW23611   4.335   4.681   3.045
 7571SOL    HW123612   4.381   4.612   2.988
 7571SOL    HW223613   4.336   4.769   2.996
 7572SOL     OW23614   4.508   1.093   1.992
 7572SOL    HW123615   4.417   1.095   2.035
 7572SOL    HW223616   4.573   1.052   2.055
 7573SOL     OW23617   0.332   6.975   5.400
 7573SOL    HW123618   0.402   6.919   5.355
 7573SOL    HW223619   0.376   0.024   5.455
 7574SOL     OW23620   4.915   0.521   5.403
 7574SOL    HW123621   4.950   0.592   5.342
 7574SOL    HW223622   4.991   0.469   5.441
 7575SOL     OW23623   5.777   0.670   6.932
 7575SOL    HW123624   5.766   0.593   6.868
 7575SOL    HW223625   5.791   0.754   6.880
 7576SOL     OW23626   5.377   3.276   0.407
 7576SOL    HW123627   5.308   3.231   0.350
 7576SOL    HW223628   5.364   3.250   0.503
 7577SOL     OW23629   0.559   6.641   6.563
 7577SOL    HW123630   0.651   6.604   6.550
 7577SOL    HW223631   0.538   6.644   6.661
 7578SOL     OW23632   3.232   5.306   2.145
 7578SOL    HW123633   3.205   5.297   2.241
 7578SOL    HW223634   3.176   5.245   2.089
 7579SOL     OW23635   0.206   0.834   2.662
 7579SOL    HW123636   0.190   0.878   2.574
 7579SOL    HW223637   0.285   0.772   2.655
 7580SOL     OW23638   0.554   4.138   3.999
 7580SOL    HW123639   0.614   4.083   4.058
 7580SOL    HW223640   0.459   4.122   4.023
 7581SOL     OW23641   0.045   2.032   1.897
 7581SOL    HW123642   6.991   2.082   1.940
 7581SOL    HW223643   0.109   2.098   1.857
 7582SOL     OW23644   3.737   0.869   2.613
 7582SOL    HW123645   3.689   0.896   2.696
 7582SOL    HW223646   3.835   0.887   2.623
 7583SOL     OW23647   5.268   2.621   2.375
 7583SOL    HW123648   5.275   2.577   2.286
 7583SOL    HW223649   5.175   2.658   2.387
 7584SOL     OW23650   3.185   0.754   3.007
 7584SOL    HW123651   3.247   0.782   2.934
 7584SOL    HW223652   3.154   0.660   2.991
 7585SOL     OW23653   1.535   2.863   6.377
 7585SOL    HW123654   1.534   2.814   6.289
 7585SOL    HW223655   1.540   2.961   6.360
 7586SOL     OW23656   2.447   6.577   4.051
 7586SOL    HW123657   2.360   6.561   4.098
 7586SOL    HW223658   2.444   6.536   3.960
 7587SOL     OW23659   2.034   1.932   6.802
 7587SOL    HW123660   1.942   1.894   6.799
 7587SOL    HW223661   2.042   1.993   6.882
 7588SOL     OW23662   1.641   2.271   4.022
 7588SOL    HW123663   1.671   2.294   3.930
 7588SOL    HW223664   1.697   2.195   4.057
 7589SOL     OW23665   0.268   6.967   2.352
 7589SOL    HW123666   0.255   6.872   2.379
 7589SOL    HW223667   0.342   7.007   2.406
 7590SOL     OW23668   3.743   2.324   6.494
 7590SOL    HW123669   3.736   2.235   6.538
 7590SOL    HW223670   3.668   2.383   6.524
 7591SOL     OW23671   6.073   4.521   0.651
 7591SOL    HW123672   6.127   4.544   0.570
 7591SOL    HW223673   6.132   4.524   0.732
 7592SOL     OW23674   6.286   6.156   5.178
 7592SOL    HW123675   6.252   6.071   5.137
 7592SOL    HW223676   6.294   6.227   5.108
 7593SOL     OW23677   6.736   2.688   0.274
 7593SOL    HW123678   6.825   2.709   0.315
 7593SOL    HW223679   6.703   2.600   0.308
 7594SOL     OW23680   2.020   4.719   2.415
 7594SOL    HW123681   2.060   4.635   2.451
 7594SOL    HW223682   1.976   4.769   2.490
 7595SOL     OW23683   6.035   2.951   5.977
 7595SOL    HW123684   5.945   2.983   5.949
 7595SOL    HW223685   6.105   3.017   5.949
 7596SOL     OW23686   3.976   6.073   3.777
 7596SOL    HW123687   3.925   6.063   3.863
 7596SOL    HW223688   4.041   5.998   3.768
 7597SOL     OW23689   1.210   6.517   3.031
 7597SOL    HW123690   1.238   6.491   3.123
 7597SOL    HW223691   1.110   6.520   3.027
 7598SOL     OW23692   6.172   0.740   2.961
 7598SOL    HW123693   6.143   0.731   2.866
 7598SOL    HW223694   6.108   0.798   3.011
 7599SOL     OW23695   5.199   2.114   2.215
 7599SOL    HW123696   5.247   2.057   2.148
 7599SOL    HW223697   5.266   2.173   2.261
 7600SOL     OW23698   1.472   1.685   3.366
 7600SOL    HW123699   1.433   1.777   3.371
 7600SOL    HW223700   1.572   1.692   3.371
 7601SOL     OW23701   2.464   4.874   2.148
 7601SOL    HW123702   2.539   4.939   2.134
 7601SOL    HW223703   2.396   4.885   2.076
 7602SOL     OW23704   2.310   3.987   0.012
 7602SOL    HW123705   2.311   4.020   6.940
 7602SOL    HW223706   2.215   3.980   0.044
 7603SOL     OW23707   1.756   5.759   6.471
 7603SOL    HW123708   1.686   5.768   6.542
 7603SOL    HW223709   1.846   5.768   6.513
 7604SOL     OW23710   1.970   3.196   4.078
 7604SOL    HW123711   1.988   3.294   4.088
 7604SOL    HW223712   2.030   3.145   4.140
 7605SOL     OW23713   0.774   1.112   1.165
 7605SOL    HW123714   0.740   1.204   1.185
 7605SOL    HW223715   0.811   1.110   1.073
 7606SOL     OW23716   6.186   3.416   4.568
 7606SOL    HW123717   6.158   3.331   4.521
 7606SOL    HW223718   6.106   3.475   4.578
 7607SOL     OW23719   3.370   5.012   0.318
 7607SOL    HW123720   3.445   5.006   0.384
 7607SOL    HW223721   3.313   4.930   0.325
 7608SOL     OW23722   4.009   3.895   1.086
 7608SOL    HW123723   3.987   3.812   1.036
 7608SOL    HW223724   4.070   3.874   1.162
 7609SOL     OW23725   1.732   3.148   4.584
 7609SOL    HW123726   1.746   3.177   4.489
 7609SOL    HW223727   1.818   3.111   4.619
 7610SOL     OW23728   4.110   4.402   6.516
 7610SOL    HW123729   4.112   4.494   6.555
 7610SOL    HW223730   4.148   4.404   6.424
 7611SOL     OW23731   5.381   3.889   1.916
 7611SOL    HW123732   5.358   3.823   1.844
 7611SOL    HW223733   5.307   3.891   1.983
 7612SOL     OW23734   4.848   3.060   2.468
 7612SOL    HW123735   4.805   2.970   2.479
 7612SOL    HW223736   4.860   3.080   2.371
 7613SOL     OW23737   0.102   2.214   1.011
 7613SOL    HW123738   0.072   2.253   0.925
 7613SOL    HW223739   0.023   2.181   1.063
 7614SOL     OW23740   5.664   3.045   1.073
 7614SOL    HW123741   5.639   2.967   1.016
 7614SOL    HW223742   5.671   3.127   1.016
 7615SOL     OW23743   3.898   4.913   6.828
 7615SOL    HW123744   3.903   5.008   6.858
 7615SOL    HW223745   3.974   4.894   6.765
 7616SOL     OW23746   6.263   6.510   4.755
 7616SOL    HW123747   6.219   6.428   4.719
 7616SOL    HW223748   6.358   6.513   4.723
 7617SOL     OW23749   3.403   6.279   3.500
 7617SOL    HW123750   3.327   6.216   3.515
 7617SOL    HW223751   3.480   6.252   3.557
 7618SOL     OW23752   7.007   2.567   5.988
 7618SOL    HW123753   6.951   2.511   5.927
 7618SOL    HW223754   0.026   2.510   6.059
 7619SOL     OW23755   6.554   3.193   4.553
 7619SOL    HW123756   6.511   3.282   4.541
 7619SOL    HW223757   6.633   3.202   4.614
 7620SOL     OW23758   4.267   5.542   1.708
 7620SOL    HW123759   4.293   5.603   1.632
 7620SOL    HW223760   4.284   5.588   1.795
 7621SOL     OW23761   6.413   1.090   0.683
 7621SOL    HW123762   6.501   1.044   0.672
 7621SOL    HW223763   6.426   1.189   0.678
 7622SOL     OW23764   3.938   5.166   6.640
 7622SOL    HW123765   4.037   5.178   6.627
 7622SOL    HW223766   3.890   5.206   6.562
 7623SOL     OW23767   5.158   3.692   6.812
 7623SOL    HW123768   5.150   3.760   6.739
 7623SOL    HW223769   5.079   3.631   6.809
 7624SOL     OW23770   6.505   3.716   5.070
 7624SOL    HW123771   6.470   3.658   5.144
 7624SOL    HW223772   6.432   3.732   5.003
 7625SOL     OW23773   4.917   0.777   6.920
 7625SOL    HW123774   4.937   0.857   6.864
 7625SOL    HW223775   4.954   0.791   7.012
 7626SOL     OW23776   6.875   0.197   4.937
 7626SOL    HW123777   6.810   0.145   4.881
 7626SOL    HW223778   6.874   0.160   5.030
 7627SOL     OW23779   4.257   3.198   0.196
 7627SOL    HW123780   4.212   3.286   0.206
 7627SOL    HW223781   4.238   3.160   0.106
 7628SOL     OW23782   3.224   2.792   1.808
 7628SOL    HW123783   3.315   2.785   1.850
 7628SOL    HW223784   3.170   2.711   1.833
 7629SOL     OW23785   6.871   4.858   3.635
 7629SOL    HW123786   6.971   4.859   3.631
 7629SOL    HW223787   6.833   4.856   3.542
 7630SOL     OW23788   0.861   0.451   1.084
 7630SOL    HW123789   0.854   0.549   1.098
 7630SOL    HW223790   0.793   0.404   1.140
 7631SOL     OW23791   0.866   2.048   5.909
 7631SOL    HW123792   0.964   2.065   5.904
 7631SOL    HW223793   0.850   1.955   5.944
 7632SOL     OW23794   4.992   4.105   0.946
 7632SOL    HW123795   4.997   4.143   1.038
 7632SOL    HW223796   5.059   4.150   0.887
 7633SOL     OW23797   5.526   0.429   2.144
 7633SOL    HW123798   5.600   0.363   2.141
 7633SOL    HW223799   5.443   0.390   2.104
 7634SOL     OW23800   1.896   1.335   2.061
 7634SOL    HW123801   1.839   1.270   2.112
 7634SOL    HW223802   1.898   1.309   1.964
 7635SOL     OW23803   3.356   5.008   4.844
 7635SOL    HW123804   3.417   4.952   4.788
 7635SOL    HW223805   3.320   4.953   4.919
 7636SOL     OW23806   1.893   2.850   4.117
 7636SOL    HW123807   1.942   2.870   4.033
 7636SOL    HW223808   1.958   2.839   4.192
 7637SOL     OW23809   2.748   6.504   2.321
 7637SOL    HW123810   2.664   6.457   2.347
 7637SOL    HW223811   2.818   6.491   2.391
 7638SOL     OW23812   2.028   5.863   1.277
 7638SOL    HW123813   1.983   5.822   1.198
 7638SOL    HW223814   2.005   5.812   1.359
 7639SOL     OW23815   0.608   1.660   1.230
 7639SOL    HW123816   0.521   1.659   1.278
 7639SOL    HW223817   0.601   1.721   1.150
 7640SOL     OW23818   2.677   1.613   5.867
 7640SOL    HW123819   2.744   1.610   5.942
 7640SOL    HW223820   2.589   1.581   5.901
 7641SOL     OW23821   1.433   3.692   2.224
 7641SOL    HW123822   1.477   3.760   2.283
 7641SOL    HW223823   1.502   3.650   2.165
 7642SOL     OW23824   3.103   1.639   2.569
 7642SOL    HW123825   3.137   1.707   2.634
 7642SOL    HW223826   3.023   1.675   2.521
 7643SOL     OW23827   4.890   2.217   2.938
 7643SOL    HW123828   4.901   2.315   2.955
 7643SOL    HW223829   4.820   2.180   2.999
 7644SOL     OW23830   4.732   2.341   2.049
 7644SOL    HW123831   4.800   2.313   2.116
 7644SOL    HW223832   4.741   2.439   2.031
 7645SOL     OW23833   5.000   3.832   5.362
 7645SOL    HW123834   4.994   3.744   5.315
 7645SOL    HW223835   4.920   3.888   5.338
 7646SOL     OW23836   1.680   2.570   4.487
 7646SOL    HW123837   1.663   2.514   4.405
 7646SOL    HW223838   1.684   2.666   4.461
 7647SOL     OW23839   0.089   2.256   3.863
 7647SOL    HW123840   0.179   2.224   3.833
 7647SOL    HW223841   0.099   2.317   3.941
 7648SOL     OW23842   2.388   1.510   2.702
 7648SOL    HW123843   2.408   1.552   2.613
 7648SOL    HW223844   2.292   1.525   2.726
 7649SOL     OW23845   1.229   0.737   3.756
 7649SOL    HW123846   1.205   0.833   3.774
 7649SOL    HW223847   1.249   0.725   3.659
 7650SOL     OW23848   5.587   0.914   0.453
 7650SOL    HW123849   5.626   0.998   0.418
 7650SOL    HW223850   5.637   0.835   0.416
 7651SOL     OW23851   2.291   0.474   4.192
 7651SOL    HW123852   2.339   0.496   4.107
 7651SOL    HW223853   2.193   0.490   4.180
 7652SOL     OW23854   5.820   2.758   4.292
 7652SOL    HW123855   5.751   2.801   4.235
 7652SOL    HW223856   5.836   2.664   4.260
 7653SOL     OW23857   0.462   2.100   6.919
 7653SOL    HW123858   0.366   2.106   6.892
 7653SOL    HW223859   0.518   2.148   6.852
 7654SOL     OW23860   5.072   3.327   4.766
 7654SOL    HW123861   5.004   3.288   4.703
 7654SOL    HW223862   5.052   3.297   4.859
 7655SOL     OW23863   4.419   6.503   3.335
 7655SOL    HW123864   4.477   6.515   3.255
 7655SOL    HW223865   4.343   6.441   3.312
 7656SOL     OW23866   3.874   3.842   6.984
 7656SOL    HW123867   3.817   3.782   6.927
 7656SOL    HW223868   3.872   3.935   6.947
 7657SOL     OW23869   1.213   2.115   3.536
 7657SOL    HW123870   1.222   2.038   3.473
 7657SOL    HW223871   1.299   2.166   3.539
 7658SOL     OW23872   2.945   0.409   6.960
 7658SOL    HW123873   2.851   0.431   6.933
 7658SOL    HW223874   2.953   0.415   0.037
 7659SOL     OW23875   5.504   4.697   6.510
 7659SOL    HW123876   5.415   4.652   6.498
 7659SOL    HW223877   5.570   4.659   6.445
 7660SOL     OW23878   6.942   5.661   3.588
 7660SOL    HW123879   6.870   5.725   3.612
 7660SOL    HW223880   6.921   5.617   3.501
 7661SOL     OW23881   5.411   1.993   5.414
 7661SOL    HW123882   5.486   1.949   5.365
 7661SOL    HW223883   5.331   1.932   5.413
 7662SOL     OW23884   1.530   3.283   4.740
 7662SOL    HW123885   1.458   3.216   4.757
 7662SOL    HW223886   1.600   3.242   4.682
 7663SOL     OW23887   6.083   4.511   6.469
 7663SOL    HW123888   6.015   4.441   6.490
 7663SOL    HW223889   6.064   4.593   6.523
 7664SOL     OW23890   4.251   1.050   2.062
 7664SOL    HW123891   4.216   0.957   2.073
 7664SOL    HW223892   4.245   1.076   1.966
 7665SOL     OW23893   6.069   0.720   4.813
 7665SOL    HW123894   6.122   0.714   4.898
 7665SOL    HW223895   6.085   0.809   4.770
 7666SOL     OW23896   0.723   4.873   2.263
 7666SOL    HW123897   0.800   4.936   2.260
 7666SOL    HW223898   0.754   4.784   2.296
 7667SOL     OW23899   4.333   0.437   2.953
 7667SOL    HW123900   4.414   0.490   2.926
 7667SOL    HW223901   4.251   0.479   2.915
 7668SOL     OW23902   3.211   5.210   0.642
 7668SOL    HW123903   3.245   5.277   0.576
 7668SOL    HW223904   3.277   5.201   0.717
 7669SOL     OW23905   4.463   1.189   5.203
 7669SOL    HW123906   4.501   1.118   5.143
 7669SOL    HW223907   4.507   1.277   5.183
 7670SOL     OW23908   0.687   4.509   0.742
 7670SOL    HW123909   0.661   4.502   0.839
 7670SOL    HW223910   0.785   4.528   0.735
 7671SOL     OW23911   3.946   1.130   2.584
 7671SOL    HW123912   3.946   1.033   2.560
 7671SOL    HW223913   3.859   1.153   2.629
 7672SOL     OW23914   6.814   5.898   2.927
 7672SOL    HW123915   6.727   5.933   2.894
 7672SOL    HW223916   6.887   5.963   2.904
 7673SOL     OW23917   1.715   6.230   1.304
 7673SOL    HW123918   1.696   6.328   1.296
 7673SOL    HW223919   1.814   6.216   1.313
 7674SOL     OW23920   5.046   1.528   3.687
 7674SOL    HW123921   5.083   1.437   3.706
 7674SOL    HW223922   5.011   1.569   3.771
 7675SOL     OW23923   6.478   6.750   2.907
 7675SOL    HW123924   6.415   6.706   2.970
 7675SOL    HW223925   6.427   6.791   2.832
 7676SOL     OW23926   2.019   1.892   0.345
 7676SOL    HW123927   2.070   1.822   0.394
 7676SOL    HW223928   2.082   1.951   0.296
 7677SOL     OW23929   0.729   4.349   1.820
 7677SOL    HW123930   0.752   4.254   1.845
 7677SOL    HW223931   0.630   4.361   1.824
 7678SOL     OW23932   2.586   2.852   5.323
 7678SOL    HW123933   2.533   2.771   5.298
 7678SOL    HW223934   2.547   2.933   5.278
 7679SOL     OW23935   3.262   7.001   6.137
 7679SOL    HW123936   3.275   6.960   6.226
 7679SOL    HW223937   3.165   7.020   6.122
 7680SOL     OW23938   1.329   0.408   1.269
 7680SOL    HW123939   1.364   0.372   1.182
 7680SOL    HW223940   1.344   0.341   1.341
 7681SOL     OW23941   3.123   0.484   0.776
 7681SOL    HW123942   3.117   0.456   0.872
 7681SOL    HW223943   3.031   0.491   0.737
 7682SOL     OW23944   3.790   0.072   2.451
 7682SOL    HW123945   3.886   0.065   2.479
 7682SOL    HW223946   3.756   0.163   2.471
 7683SOL     OW23947   6.819   2.170   5.069
 7683SOL    HW123948   6.912   2.190   5.102
 7683SOL    HW223949   6.820   2.086   5.015
 7684SOL     OW23950   4.292   1.821   1.326
 7684SOL    HW123951   4.272   1.907   1.372
 7684SOL    HW223952   4.255   1.745   1.379
 7685SOL     OW23953   2.827   1.372   5.697
 7685SOL    HW123954   2.747   1.315   5.678
 7685SOL    HW223955   2.796   1.465   5.718
 7686SOL     OW23956   6.919   6.695   3.388
 7686SOL    HW123957   6.977   6.647   3.455
 7686SOL    HW223958   6.873   6.627   3.330
 7687SOL     OW23959   6.473   5.596   4.592
 7687SOL    HW123960   6.448   5.692   4.600
 7687SOL    HW223961   6.555   5.578   4.646
 7688SOL     OW23962   0.734   5.898   5.780
 7688SOL    HW123963   0.818   5.849   5.757
 7688SOL    HW223964   0.656   5.851   5.737
 7689SOL     OW23965   5.847   6.608   2.503
 7689SOL    HW123966   5.940   6.572   2.514
 7689SOL    HW223967   5.798   6.554   2.434
 7690SOL     OW23968   5.869   4.925   0.257
 7690SOL    HW123969   5.964   4.955   0.261
 7690SOL    HW223970   5.819   4.982   0.192
 7691SOL     OW23971   5.040   4.091   3.027
 7691SOL    HW123972   5.033   4.084   3.127
 7691SOL    HW223973   5.002   4.008   2.985
 7692SOL     OW23974   0.730   6.239   1.729
 7692SOL    HW123975   0.771   6.160   1.775
 7692SOL    HW223976   0.645   6.212   1.684
 7693SOL     OW23977   3.210   0.438   1.983
 7693SOL    HW123978   3.265   0.402   2.059
 7693SOL    HW223979   3.198   0.366   1.914
 7694SOL     OW23980   5.359   3.750   3.690
 7694SOL    HW123981   5.273   3.754   3.638
 7694SOL    HW223982   5.425   3.694   3.640
 7695SOL     OW23983   4.594   0.058   1.348
 7695SOL    HW123984   4.670   7.018   1.325
 7695SOL    HW223985   4.536   0.016   1.417
 7696SOL     OW23986   0.636   1.567   6.198
 7696SOL    HW123987   0.589   1.572   6.110
 7696SOL    HW223988   0.647   1.660   6.235
 7697SOL     OW23989   2.496   6.876   3.778
 7697SOL    HW123990   2.526   6.807   3.712
 7697SOL    HW223991   2.554   6.873   3.859
 7698SOL     OW23992   5.447   1.641   3.895
 7698SOL    HW123993   5.375   1.682   3.840
 7698SOL    HW223994   5.424   1.545   3.914
 7699SOL     OW23995   2.998   6.301   5.873
 7699SOL    HW123996   3.003   6.276   5.776
 7699SOL    HW223997   3.070   6.366   5.894
 7700SOL     OW23998   4.485   5.811   3.284
 7700SOL    HW123999   4.551   5.769   3.223
 7700SOL    HW224000   4.402   5.755   3.288
 7701SOL     OW24001   6.387   2.357   6.521
 7701SOL    HW124002   6.323   2.286   6.553
 7701SOL    HW224003   6.359   2.388   6.430
 7702SOL     OW24004   4.240   6.206   4.905
 7702SOL    HW124005   4.172   6.271   4.871
 7702SOL    HW224006   4.315   6.257   4.948
 7703SOL     OW24007   5.800   6.167   6.162
 7703SOL    HW124008   5.763   6.226   6.091
 7703SOL    HW224009   5.862   6.100   6.122
 7704SOL     OW24010   5.742   0.785   3.626
 7704SOL    HW124011   5.697   0.861   3.673
 7704SOL    HW224012   5.739   0.799   3.527
 7705SOL     OW24013   2.401   6.483   0.655
 7705SOL    HW124014   2.479   6.427   0.626
 7705SOL    HW224015   2.427   6.539   0.733
 7706SOL     OW24016   3.249   3.424   4.843
 7706SOL    HW124017   3.268   3.368   4.762
 7706SOL    HW224018   3.222   3.516   4.815
 7707SOL     OW24019   0.639   3.755   5.921
 7707SOL    HW124020   0.674   3.820   5.854
 7707SOL    HW224021   0.539   3.764   5.926
 7708SOL     OW24022   0.943   6.660   5.599
 7708SOL    HW124023   0.946   6.602   5.518
 7708SOL    HW224024   1.029   6.710   5.607
 7709SOL     OW24025   6.778   4.743   1.827
 7709SOL    HW124026   6.752   4.732   1.923
 7709SOL    HW224027   6.723   4.683   1.770
 7710SOL     OW24028   2.839   2.265   0.076
 7710SOL    HW124029   2.906   2.190   0.079
 7710SOL    HW224030   2.807   2.284   0.168
 7711SOL     OW24031   5.686   5.887   5.752
 7711SOL    HW124032   5.675   5.971   5.806
 7711SOL    HW224033   5.772   5.891   5.701
 7712SOL     OW24034   6.209   5.155   1.334
 7712SOL    HW124035   6.151   5.103   1.271
 7712SOL    HW224036   6.225   5.246   1.296
 7713SOL     OW24037   1.752   4.580   0.768
 7713SOL    HW124038   1.837   4.612   0.812
 7713SOL    HW224039   1.770   4.562   0.671
 7714SOL     OW24040   0.085   4.476   5.689
 7714SOL    HW124041   0.051   4.563   5.652
 7714SOL    HW224042   0.184   4.482   5.703
 7715SOL     OW24043   2.781   2.579   0.068
 7715SOL    HW124044   2.833   2.519   0.007
 7715SOL    HW224045   2.786   2.673   0.034
 7716SOL     OW24046   6.878   4.680   0.878
 7716SOL    HW124047   6.942   4.644   0.810
 7716SOL    HW224048   6.795   4.712   0.832
 7717SOL     OW24049   1.159   1.106   5.810
 7717SOL    HW124050   1.081   1.047   5.831
 7717SOL    HW224051   1.244   1.055   5.821
 7718SOL     OW24052   6.612   3.922   3.505
 7718SOL    HW124053   6.627   4.016   3.536
 7718SOL    HW224054   6.642   3.858   3.577
 7719SOL     OW24055   6.970   3.955   5.018
 7719SOL    HW124056   0.010   3.983   4.944
 7719SOL    HW224057   6.876   3.959   4.986
 7720SOL     OW24058   6.166   2.676   6.762
 7720SOL    HW124059   6.262   2.678   6.733
 7720SOL    HW224060   6.159   2.713   6.855
 7721SOL     OW24061   0.493   5.005   2.367
 7721SOL    HW124062   0.575   4.967   2.325
 7721SOL    HW224063   0.424   4.933   2.378
 7722SOL     OW24064   1.167   4.018   3.779
 7722SOL    HW124065   1.219   4.029   3.864
 7722SOL    HW224066   1.137   4.108   3.747
 7723SOL     OW24067   4.310   3.350   6.501
 7723SOL    HW124068   4.303   3.253   6.523
 7723SOL    HW224069   4.358   3.362   6.414
 7724SOL     OW24070   2.954   3.961   1.001
 7724SOL    HW124071   2.980   4.032   1.066
 7724SOL    HW224072   2.880   3.995   0.943
 7725SOL     OW24073   5.804   1.365   2.658
 7725SOL    HW124074   5.880   1.310   2.693
 7725SOL    HW224075   5.749   1.398   2.735
 7726SOL     OW24076   1.937   5.233   6.049
 7726SOL    HW124077   2.013   5.249   5.985
 7726SOL    HW224078   1.862   5.295   6.027
 7727SOL     OW24079   6.708   2.814   2.439
 7727SOL    HW124080   6.726   2.904   2.477
 7727SOL    HW224081   6.667   2.824   2.348
 7728SOL     OW24082   2.125   2.901   5.077
 7728SOL    HW124083   2.124   2.819   5.018
 7728SOL    HW224084   2.215   2.944   5.072
 7729SOL     OW24085   6.270   1.896   1.226
 7729SOL    HW124086   6.273   1.806   1.269
 7729SOL    HW224087   6.194   1.949   1.265
 7730SOL     OW24088   6.336   4.695   6.403
 7730SOL    HW124089   6.351   4.598   6.386
 7730SOL    HW224090   6.390   4.724   6.482
 7731SOL     OW24091   5.712   0.685   0.383
 7731SOL    HW124092   5.681   0.689   0.288
 7731SOL    HW224093   5.812   0.677   0.385
 7732SOL     OW24094   4.432   7.015   0.344
 7732SOL    HW124095   4.371   0.062   0.383
 7732SOL    HW224096   4.437   6.937   0.406
 7733SOL     OW24097   5.494   6.186   2.091
 7733SOL    HW124098   5.479   6.200   2.189
 7733SOL    HW224099   5.592   6.194   2.071
 7734SOL     OW24100   1.598   4.964   4.286
 7734SOL    HW124101   1.525   5.030   4.268
 7734SOL    HW224102   1.637   4.932   4.200
 7735SOL     OW24103   4.832   6.019   6.331
 7735SOL    HW124104   4.742   6.038   6.369
 7735SOL    HW224105   4.895   6.093   6.352
 7736SOL     OW24106   2.225   2.898   6.795
 7736SOL    HW124107   2.213   2.833   6.719
 7736SOL    HW224108   2.228   2.991   6.758
 7737SOL     OW24109   3.413   0.036   2.971
 7737SOL    HW124110   3.335   0.095   2.987
 7737SOL    HW224111   3.482   0.085   2.918
 7738SOL     OW24112   3.741   5.352   0.271
 7738SOL    HW124113   3.719   5.264   0.229
 7738SOL    HW224114   3.807   5.401   0.214
 7739SOL     OW24115   0.614   2.754   2.129
 7739SOL    HW124116   0.677   2.691   2.175
 7739SOL    HW224117   0.533   2.705   2.098
 7740SOL     OW24118   3.035   0.999   2.840
 7740SOL    HW124119   2.973   0.943   2.785
 7740SOL    HW224120   3.104   0.940   2.883
 7741SOL     OW24121   0.171   4.790   5.578
 7741SOL    HW124122   0.078   4.753   5.569
 7741SOL    HW224123   0.195   4.795   5.675
 7742SOL     OW24124   4.068   2.259   2.895
 7742SOL    HW124125   4.007   2.337   2.895
 7742SOL    HW224126   4.072   2.219   2.987
 7743SOL     OW24127   4.384   2.155   6.980
 7743SOL    HW124128   4.455   2.135   6.913
 7743SOL    HW224129   4.364   2.071   0.011
 7744SOL     OW24130   1.057   0.743   4.859
 7744SOL    HW124131   0.988   0.805   4.893
 7744SOL    HW224132   1.017   0.682   4.790
 7745SOL     OW24133   3.683   0.840   6.913
 7745SOL    HW124134   3.597   0.862   6.959
 7745SOL    HW224135   3.688   0.741   6.898
 7746SOL     OW24136   0.787   0.759   0.854
 7746SOL    HW124137   0.727   0.686   0.821
 7746SOL    HW224138   0.784   0.761   0.954
 7747SOL     OW24139   5.756   6.554   1.076
 7747SOL    HW124140   5.785   6.468   1.033
 7747SOL    HW224141   5.662   6.576   1.047
 7748SOL     OW24142   3.103   3.637   4.184
 7748SOL    HW124143   3.078   3.729   4.156
 7748SOL    HW224144   3.053   3.570   4.129
 7749SOL     OW24145   3.380   3.201   5.171
 7749SOL    HW124146   3.388   3.119   5.227
 7749SOL    HW224147   3.329   3.180   5.087
 7750SOL     OW24148   6.996   5.844   0.111
 7750SOL    HW124149   6.920   5.897   0.073
 7750SOL    HW224150   0.028   5.901   0.172
 7751SOL     OW24151   1.459   2.812   2.849
 7751SOL    HW124152   1.451   2.906   2.815
 7751SOL    HW224153   1.508   2.757   2.781
 7752SOL     OW24154   5.734   6.717   5.785
 7752SOL    HW124155   5.770   6.722   5.878
 7752SOL    HW224156   5.734   6.809   5.744
 7753SOL     OW24157   2.652   0.318   4.428
 7753SOL    HW124158   2.661   0.312   4.527
 7753SOL    HW224159   2.702   0.398   4.394
 7754SOL     OW24160   4.777   0.058   1.698
 7754SOL    HW124161   4.804   0.129   1.632
 7754SOL    HW224162   4.828   6.996   1.680
 7755SOL     OW24163   1.546   2.252   5.957
 7755SOL    HW124164   1.573   2.158   5.934
 7755SOL    HW224165   1.448   2.255   5.974
 7756SOL     OW24166   3.548   5.236   1.935
 7756SOL    HW124167   3.479   5.288   1.885
 7756SOL    HW224168   3.513   5.144   1.954
 7757SOL     OW24169   5.960   5.508   4.892
 7757SOL    HW124170   6.033   5.495   4.960
 7757SOL    HW224171   5.978   5.590   4.839
 7758SOL     OW24172   1.120   1.849   6.793
 7758SOL    HW124173   1.077   1.857   6.703
 7758SOL    HW224174   1.072   1.908   6.858
 7759SOL     OW24175   1.297   1.702   5.549
 7759SOL    HW124176   1.210   1.676   5.591
 7759SOL    HW224177   1.287   1.708   5.450
 7760SOL     OW24178   5.438   3.366   2.919
 7760SOL    HW124179   5.370   3.358   2.847
 7760SOL    HW224180   5.515   3.304   2.900
 7761SOL     OW24181   0.972   6.889   6.224
 7761SOL    HW124182   0.904   6.951   6.185
 7761SOL    HW224183   1.019   6.840   6.151
 7762SOL     OW24184   4.452   0.492   4.504
 7762SOL    HW124185   4.544   0.494   4.465
 7762SOL    HW224186   4.414   0.584   4.504
 7763SOL     OW24187   1.153   1.333   0.342
 7763SOL    HW124188   1.215   1.411   0.328
 7763SOL    HW224189   1.205   1.254   0.373
 7764SOL     OW24190   3.637   2.916   3.249
 7764SOL    HW124191   3.719   2.931   3.303
 7764SOL    HW224192   3.556   2.927   3.308
 7765SOL     OW24193   6.120   2.303   3.931
 7765SOL    HW124194   6.214   2.300   3.965
 7765SOL    HW224195   6.056   2.291   4.007
 7766SOL     OW24196   6.053   2.552   0.110
 7766SOL    HW124197   6.003   2.494   0.046
 7766SOL    HW224198   6.130   2.502   0.148
 7767SOL     OW24199   4.104   5.872   3.575
 7767SOL    HW124200   4.104   5.968   3.549
 7767SOL    HW224201   4.179   5.825   3.528
 7768SOL     OW24202   4.194   4.732   2.444
 7768SOL    HW124203   4.207   4.828   2.417
 7768SOL    HW224204   4.256   4.674   2.391
 7769SOL     OW24205   5.066   2.886   2.903
 7769SOL    HW124206   5.088   2.811   2.841
 7769SOL    HW224207   4.970   2.880   2.930
 7770SOL     OW24208   1.748   4.008   2.108
 7770SOL    HW124209   1.735   3.960   2.194
 7770SOL    HW224210   1.768   3.942   2.035
 7771SOL     OW24211   3.410   2.173   5.263
 7771SOL    HW124212   3.341   2.223   5.213
 7771SOL    HW224213   3.452   2.233   5.331
 7772SOL     OW24214   5.248   0.669   2.575
 7772SOL    HW124215   5.186   0.635   2.645
 7772SOL    HW224216   5.237   0.614   2.492
 7773SOL     OW24217   2.326   5.716   4.468
 7773SOL    HW124218   2.343   5.623   4.502
 7773SOL    HW224219   2.276   5.711   4.382
 7774SOL     OW24220   5.419   1.705   6.149
 7774SOL    HW124221   5.491   1.761   6.190
 7774SOL    HW224222   5.460   1.636   6.089
 7775SOL     OW24223   4.789   6.302   1.953
 7775SOL    HW124224   4.711   6.334   1.901
 7775SOL    HW224225   4.761   6.281   2.047
 7776SOL     OW24226   1.664   4.978   0.011
 7776SOL    HW124227   1.703   5.056   6.984
 7776SOL    HW224228   1.594   4.934   6.975
 7777SOL     OW24229   1.134   0.411   4.685
 7777SOL    HW124230   1.216   0.458   4.717
 7777SOL    HW224231   1.159   0.320   4.652
 7778SOL     OW24232   5.142   4.181   0.746
 7778SOL    HW124233   5.226   4.216   0.706
 7778SOL    HW224234   5.076   4.162   0.674
 7779SOL     OW24235   2.716   2.486   1.312
 7779SOL    HW124236   2.741   2.469   1.217
 7779SOL    HW224237   2.688   2.581   1.323
 7780SOL     OW24238   1.046   4.884   5.347
 7780SOL    HW124239   1.053   4.795   5.394
 7780SOL    HW224240   1.014   4.953   5.412
 7781SOL     OW24241   1.212   4.791   0.529
 7781SOL    HW124242   1.286   4.826   0.472
 7781SOL    HW224243   1.127   4.837   0.505
 7782SOL     OW24244   6.497   4.597   4.941
 7782SOL    HW124245   6.450   4.613   5.028
 7782SOL    HW224246   6.562   4.671   4.924
 7783SOL     OW24247   0.526   5.858   4.626
 7783SOL    HW124248   0.583   5.897   4.554
 7783SOL    HW224249   0.468   5.930   4.665
 7784SOL     OW24250   3.210   2.692   1.297
 7784SOL    HW124251   3.234   2.683   1.394
 7784SOL    HW224252   3.158   2.613   1.267
 7785SOL     OW24253   1.582   5.982   4.117
 7785SOL    HW124254   1.623   5.896   4.144
 7785SOL    HW224255   1.532   5.971   4.031
 7786SOL     OW24256   2.964   6.617   0.048
 7786SOL    HW124257   2.913   6.541   0.088
 7786SOL    HW224258   3.033   6.649   0.112
 7787SOL     OW24259   2.189   2.465   6.399
 7787SOL    HW124260   2.123   2.488   6.327
 7787SOL    HW224261   2.280   2.497   6.372
 7788SOL     OW24262   2.391   5.557   1.509
 7788SOL    HW124263   2.443   5.576   1.593
 7788SOL    HW224264   2.402   5.633   1.445
 7789SOL     OW24265   1.984   6.466   6.064
 7789SOL    HW124266   1.916   6.516   6.118
 7789SOL    HW224267   2.050   6.530   6.026
 7790SOL     OW24268   5.731   5.447   3.659
 7790SOL    HW124269   5.693   5.384   3.727
 7790SOL    HW224270   5.666   5.458   3.584
 7791SOL     OW24271   2.145   5.743   3.456
 7791SOL    HW124272   2.091   5.659   3.445
 7791SOL    HW224273   2.213   5.730   3.527
 7792SOL     OW24274   1.328   5.264   4.628
 7792SOL    HW124275   1.374   5.214   4.701
 7792SOL    HW224276   1.270   5.201   4.576
 7793SOL     OW24277   3.479   1.164   6.978
 7793SOL    HW124278   3.569   1.156   7.022
 7793SOL    HW224279   3.408   1.136   0.020
 7794SOL     OW24280   6.081   4.769   2.882
 7794SOL    HW124281   6.168   4.773   2.833
 7794SOL    HW224282   6.033   4.684   2.859
 7795SOL     OW24283   1.916   4.059   5.384
 7795SOL    HW124284   1.960   3.980   5.341
 7795SOL    HW224285   1.977   4.138   5.379
 7796SOL     OW24286   4.018   3.838   3.365
 7796SOL    HW124287   4.099   3.896   3.358
 7796SOL    HW224288   3.963   3.868   3.443
 7797SOL     OW24289   1.095   6.756   3.176
 7797SOL    HW124290   1.108   6.853   3.198
 7797SOL    HW224291   1.174   6.704   3.206
 7798SOL     OW24292   2.201   3.856   5.348
 7798SOL    HW124293   2.120   3.815   5.306
 7798SOL    HW224294   2.273   3.867   5.279
 7799SOL     OW24295   0.770   6.164   2.538
 7799SOL    HW124296   0.791   6.070   2.510
 7799SOL    HW224297   0.769   6.223   2.457
 7800SOL     OW24298   1.092   5.377   1.181
 7800SOL    HW124299   1.061   5.446   1.115
 7800SOL    HW224300   1.043   5.292   1.166
 7801SOL     OW24301   2.123   1.467   1.583
 7801SOL    HW124302   2.187   1.520   1.639
 7801SOL    HW224303   2.117   1.374   1.619
 7802SOL     OW24304   5.739   2.571   0.818
 7802SOL    HW124305   5.759   2.640   0.748
 7802SOL    HW224306   5.735   2.481   0.775
 7803SOL     OW24307   4.822   1.803   6.204
 7803SOL    HW124308   4.834   1.712   6.163
 7803SOL    HW224309   4.727   1.815   6.231
 7804SOL     OW24310   4.750   2.280   3.761
 7804SOL    HW124311   4.664   2.276   3.811
 7804SOL    HW224312   4.787   2.188   3.749
 7805SOL     OW24313   5.277   2.259   1.017
 7805SOL    HW124314   5.300   2.349   1.054
 7805SOL    HW224315   5.320   2.188   1.072
 7806SOL     OW24316   5.669   1.670   6.622
 7806SOL    HW124317   5.672   1.723   6.537
 7806SOL    HW224318   5.750   1.692   6.676
 7807SOL     OW24319   1.220   4.437   5.174
 7807SOL    HW124320   1.215   4.356   5.116
 7807SOL    HW224321   1.294   4.427   5.240
 7808SOL     OW24322   6.559   3.064   3.955
 7808SOL    HW124323   6.474   3.115   3.963
 7808SOL    HW224324   6.570   3.004   4.034
 7809SOL     OW24325   2.158   5.104   4.001
 7809SOL    HW124326   2.124   5.038   3.934
 7809SOL    HW224327   2.186   5.188   3.954
 7810SOL     OW24328   3.695   0.098   4.624
 7810SOL    HW124329   3.722   0.143   4.709
 7810SOL    HW224330   3.609   0.137   4.591
 7811SOL     OW24331   1.719   5.338   2.226
 7811SOL    HW124332   1.704   5.241   2.246
 7811SOL    HW224333   1.799   5.348   2.168
 7812SOL     OW24334   0.710   1.469   3.996
 7812SOL    HW124335   0.653   1.449   4.076
 7812SOL    HW224336   0.755   1.557   4.008
 7813SOL     OW24337   5.233   2.820   6.983
 7813SOL    HW124338   5.217   2.721   6.982
 7813SOL    HW224339   5.201   2.859   6.897
 7814SOL     OW24340   0.389   3.224   3.436
 7814SOL    HW124341   0.442   3.146   3.471
 7814SOL    HW224342   0.294   3.198   3.425
 7815SOL     OW24343   5.281   0.346   5.712
 7815SOL    HW124344   5.315   0.360   5.619
 7815SOL    HW224345   5.300   0.427   5.767
 7816SOL     OW24346   1.851   2.405   6.234
 7816SOL    HW124347   1.808   2.464   6.303
 7816SOL    HW224348   1.933   2.450   6.199
 7817SOL     OW24349   5.495   5.082   2.956
 7817SOL    HW124350   5.554   5.123   2.887
 7817SOL    HW224351   5.492   4.983   2.944
 7818SOL     OW24352   4.390   0.527   2.511
 7818SOL    HW124353   4.437   0.443   2.537
 7818SOL    HW224354   4.396   0.593   2.585
 7819SOL     OW24355   0.418   3.987   1.797
 7819SOL    HW124356   0.440   3.900   1.754
 7819SOL    HW224357   0.471   3.997   1.881
 7820SOL     OW24358   1.747   2.355   5.784
 7820SOL    HW124359   1.659   2.319   5.816
 7820SOL    HW224360   1.802   2.280   5.747
 7821SOL     OW24361   5.350   6.063   0.134
 7821SOL    HW124362   5.351   5.968   0.102
 7821SOL    HW224363   5.360   6.125   0.057
 7822SOL     OW24364   1.845   1.750   6.493
 7822SOL    HW124365   1.770   1.699   6.533
 7822SOL    HW224366   1.930   1.730   6.542
 7823SOL     OW24367   2.533   3.893   5.358
 7823SOL    HW124368   2.624   3.869   5.324
 7823SOL    HW224369   2.472   3.909   5.280
 7824SOL     OW24370   6.636   0.772   4.018
 7824SOL    HW124371   6.584   0.830   3.955
 7824SOL    HW224372   6.726   0.811   4.034
 7825SOL     OW24373   1.991   2.540   1.380
 7825SOL    HW124374   2.023   2.446   1.376
 7825SOL    HW224375   2.069   2.602   1.375
 7826SOL     OW24376   6.597   1.898   0.733
 7826SOL    HW124377   6.564   1.884   0.827
 7826SOL    HW224378   6.519   1.916   0.673
 7827SOL     OW24379   2.680   5.657   1.041
 7827SOL    HW124380   2.681   5.562   1.073
 7827SOL    HW224381   2.643   5.660   0.948
 7828SOL     OW24382   1.003   4.279   6.779
 7828SOL    HW124383   0.951   4.236   6.854
 7828SOL    HW224384   1.092   4.234   6.771
 7829SOL     OW24385   3.123   4.134   1.120
 7829SOL    HW124386   3.041   4.188   1.140
 7829SOL    HW224387   3.151   4.149   1.026
 7830SOL     OW24388   2.349   4.715   5.561
 7830SOL    HW124389   2.364   4.704   5.463
 7830SOL    HW224390   2.351   4.625   5.605
 7831SOL     OW24391   1.896   6.615   0.928
 7831SOL    HW124392   1.945   6.700   0.912
 7831SOL    HW224393   1.816   6.632   0.985
 7832SOL     OW24394   5.079   0.796   3.283
 7832SOL    HW124395   5.021   0.753   3.213
 7832SOL    HW224396   5.161   0.740   3.296
 7833SOL     OW24397   0.993   1.024   6.509
 7833SOL    HW124398   0.941   0.947   6.546
 7833SOL    HW224399   1.004   1.094   6.579
 7834SOL     OW24400   6.951   1.484   3.382
 7834SOL    HW124401   0.007   1.486   3.319
 7834SOL    HW224402   6.907   1.574   3.385
 7835SOL     OW24403   3.732   2.255   5.869
 7835SOL    HW124404   3.779   2.344   5.868
 7835SOL    HW224405   3.678   2.248   5.953
 7836SOL     OW24406   3.444   3.002   4.971
 7836SOL    HW124407   3.386   2.943   5.028
 7836SOL    HW224408   3.540   2.979   4.986
 7837SOL     OW24409   6.151   5.391   0.216
 7837SOL    HW124410   6.071   5.401   0.276
 7837SOL    HW224411   6.215   5.466   0.232
 7838SOL     OW24412   4.113   6.761   0.673
 7838SOL    HW124413   4.162   6.840   0.636
 7838SOL    HW224414   4.178   6.692   0.703
 7839SOL     OW24415   5.798   4.162   4.986
 7839SOL    HW124416   5.746   4.078   4.973
 7839SOL    HW224417   5.837   4.163   5.079
 7840SOL     OW24418   6.715   2.426   3.936
 7840SOL    HW124419   6.666   2.418   3.849
 7840SOL    HW224420   6.746   2.335   3.965
 7841SOL     OW24421   3.582   1.866   6.455
 7841SOL    HW124422   3.605   1.794   6.520
 7841SOL    HW224423   3.603   1.836   6.362
 7842SOL     OW24424   2.396   2.096   2.793
 7842SOL    HW124425   2.395   2.094   2.893
 7842SOL    HW224426   2.319   2.150   2.760
 7843SOL     OW24427   6.884   5.651   3.036
 7843SOL    HW124428   6.857   5.740   2.998
 7843SOL    HW224429   6.980   5.634   3.016
 7844SOL     OW24430   4.072   6.835   2.916
 7844SOL    HW124431   4.132   6.879   2.849
 7844SOL    HW224432   3.981   6.875   2.912
 7845SOL     OW24433   5.932   1.848   3.194
 7845SOL    HW124434   5.839   1.839   3.159
 7845SOL    HW224435   5.938   1.930   3.250
 7846SOL     OW24436   0.868   1.440   2.348
 7846SOL    HW124437   0.875   1.352   2.301
 7846SOL    HW224438   0.878   1.514   2.282
 7847SOL     OW24439   0.100   1.518   3.159
 7847SOL    HW124440   0.166   1.562   3.220
 7847SOL    HW224441   0.143   1.439   3.114
 7848SOL     OW24442   3.672   3.615   0.797
 7848SOL    HW124443   3.664   3.656   0.889
 7848SOL    HW224444   3.582   3.611   0.754
 7849SOL     OW24445   5.817   4.119   4.126
 7849SOL    HW124446   5.834   4.021   4.114
 7849SOL    HW224447   5.804   4.162   4.037
 7850SOL     OW24448   0.765   1.884   4.706
 7850SOL    HW124449   0.666   1.884   4.716
 7850SOL    HW224450   0.792   1.951   4.638
 7851SOL     OW24451   6.608   1.261   1.331
 7851SOL    HW124452   6.697   1.260   1.286
 7851SOL    HW224453   6.608   1.329   1.404
 7852SOL     OW24454   2.431   1.387   6.209
 7852SOL    HW124455   2.462   1.461   6.269
 7852SOL    HW224456   2.361   1.334   6.257
 7853SOL     OW24457   5.152   2.163   1.531
 7853SOL    HW124458   5.120   2.110   1.610
 7853SOL    HW224459   5.075   2.183   1.471
 7854SOL     OW24460   3.520   3.452   0.149
 7854SOL    HW124461   3.537   3.436   0.052
 7854SOL    HW224462   3.549   3.545   0.174
 7855SOL     OW24463   4.822   6.135   4.150
 7855SOL    HW124464   4.911   6.132   4.196
 7855SOL    HW224465   4.762   6.199   4.198
 7856SOL     OW24466   6.676   4.867   5.433
 7856SOL    HW124467   6.646   4.861   5.338
 7856SOL    HW224468   6.707   4.777   5.464
 7857SOL     OW24469   5.487   2.111   6.102
 7857SOL    HW124470   5.471   2.204   6.070
 7857SOL    HW224471   5.407   2.079   6.154
 7858SOL     OW24472   6.077   6.481   3.775
 7858SOL    HW124473   6.054   6.452   3.869
 7858SOL    HW224474   6.094   6.400   3.719
 7859SOL     OW24475   4.324   2.756   6.434
 7859SOL    HW124476   4.341   2.706   6.519
 7859SOL    HW224477   4.328   2.693   6.356
 7860SOL     OW24478   3.164   0.316   3.428
 7860SOL    HW124479   3.144   0.400   3.378
 7860SOL    HW224480   3.243   0.271   3.387
 7861SOL     OW24481   3.648   4.931   1.729
 7861SOL    HW124482   3.618   4.856   1.788
 7861SOL    HW224483   3.691   5.002   1.785
 7862SOL     OW24484   1.869   4.336   1.774
 7862SOL    HW124485   1.895   4.252   1.822
 7862SOL    HW224486   1.847   4.407   1.841
 7863SOL     OW24487   0.344   4.754   3.870
 7863SOL    HW124488   0.258   4.757   3.920
 7863SOL    HW224489   0.336   4.688   3.794
 7864SOL     OW24490   0.436   5.608   5.252
 7864SOL    HW124491   0.354   5.562   5.288
 7864SOL    HW224492   0.440   5.596   5.153
 7865SOL     OW24493   6.117   6.870   3.844
 7865SOL    HW124494   6.060   6.806   3.793
 7865SOL    HW224495   6.061   6.918   3.912
 7866SOL     OW24496   1.572   1.303   6.438
 7866SOL    HW124497   1.595   1.273   6.530
 7866SOL    HW224498   1.478   1.336   6.436
 7867SOL     OW24499   6.088   6.100   4.242
 7867SOL    HW124500   6.143   6.024   4.208
 7867SOL    HW224501   6.126   6.186   4.207
 7868SOL     OW24502   5.023   6.176   1.444
 7868SOL    HW124503   4.972   6.250   1.488
 7868SOL    HW224504   4.964   6.129   1.378
 7869SOL     OW24505   6.005   3.447   0.497
 7869SOL    HW124506   5.943   3.466   0.421
 7869SOL    HW224507   6.029   3.533   0.542
 7870SOL     OW24508   4.512   4.875   4.269
 7870SOL    HW124509   4.535   4.780   4.294
 7870SOL    HW224510   4.464   4.918   4.345
 7871SOL     OW24511   4.459   2.540   2.391
 7871SOL    HW124512   4.442   2.611   2.323
 7871SOL    HW224513   4.409   2.457   2.366
 7872SOL     OW24514   1.981   3.993   3.536
 7872SOL    HW124515   2.020   3.927   3.471
 7872SOL    HW224516   2.038   3.996   3.618
 7873SOL     OW24517   5.407   6.937   6.166
 7873SOL    HW124518   5.385   6.842   6.184
 7873SOL    HW224519   5.407   6.989   6.252
 7874SOL     OW24520   5.367   1.918   6.747
 7874SOL    HW124521   5.410   1.981   6.812
 7874SOL    HW224522   5.356   1.828   6.790
 7875SOL     OW24523   4.596   3.158   6.492
 7875SOL    HW124524   4.522   3.092   6.476
 7875SOL    HW224525   4.619   3.159   6.589
 7876SOL     OW24526   1.103   0.146   4.602
 7876SOL    HW124527   1.065   0.054   4.593
 7876SOL    HW224528   1.139   0.177   4.514
 7877SOL     OW24529   0.923   1.898   2.861
 7877SOL    HW124530   0.961   1.820   2.910
 7877SOL    HW224531   0.997   1.960   2.833
 7878SOL     OW24532   5.716   4.769   4.579
 7878SOL    HW124533   5.627   4.731   4.553
 7878SOL    HW224534   5.727   4.764   4.679
 7879SOL     OW24535   4.126   5.412   3.457
 7879SOL    HW124536   4.214   5.367   3.439
 7879SOL    HW224537   4.119   5.434   3.554
 7880SOL     OW24538   1.989   5.365   0.657
 7880SOL    HW124539   1.977   5.354   0.756
 7880SOL    HW224540   2.084   5.343   0.633
 7881SOL     OW24541   6.518   4.650   4.499
 7881SOL    HW124542   6.438   4.606   4.538
 7881SOL    HW224543   6.594   4.644   4.564
 7882SOL     OW24544   1.293   2.978   1.793
 7882SOL    HW124545   1.198   2.971   1.764
 7882SOL    HW224546   1.322   3.074   1.790
 7883SOL     OW24547   1.377   0.705   0.944
 7883SOL    HW124548   1.326   0.720   1.028
 7883SOL    HW224549   1.315   0.711   0.865
 7884SOL     OW24550   2.071   3.905   4.777
 7884SOL    HW124551   2.067   3.921   4.678
 7884SOL    HW224552   1.991   3.852   4.805
 7885SOL     OW24553   6.306   5.416   1.391
 7885SOL    HW124554   6.224   5.472   1.405
 7885SOL    HW224555   6.318   5.354   1.468
 7886SOL     OW24556   3.324   4.870   6.816
 7886SOL    HW124557   3.406   4.911   6.855
 7886SOL    HW224558   3.325   4.881   6.717
 7887SOL     OW24559   3.668   2.667   5.287
 7887SOL    HW124560   3.708   2.594   5.342
 7887SOL    HW224561   3.574   2.644   5.264
 7888SOL     OW24562   6.694   0.028   5.356
 7888SOL    HW124563   6.641   0.014   5.273
 7888SOL    HW224564   6.700   6.963   5.406
 7889SOL     OW24565   1.498   5.220   0.699
 7889SOL    HW124566   1.477   5.188   0.792
 7889SOL    HW224567   1.486   5.144   0.635
 7890SOL     OW24568   1.582   2.684   3.236
 7890SOL    HW124569   1.556   2.603   3.289
 7890SOL    HW224570   1.645   2.657   3.163
 7891SOL     OW24571   1.638   3.571   3.908
 7891SOL    HW124572   1.671   3.499   3.847
 7891SOL    HW224573   1.587   3.638   3.855
 7892SOL     OW24574   1.800   0.734   3.764
 7892SOL    HW124575   1.788   0.721   3.862
 7892SOL    HW224576   1.722   0.696   3.715
 7893SOL     OW24577   6.768   6.210   2.821
 7893SOL    HW124578   6.685   6.222   2.766
 7893SOL    HW224579   6.807   6.299   2.843
 7894SOL     OW24580   3.598   6.954   0.589
 7894SOL    HW124581   3.652   6.958   0.504
 7894SOL    HW224582   3.639   6.888   0.651
 7895SOL     OW24583   5.573   0.402   5.171
 7895SOL    HW124584   5.605   0.497   5.180
 7895SOL    HW224585   5.558   0.363   5.262
 7896SOL     OW24586   5.072   3.469   0.603
 7896SOL    HW124587   5.071   3.373   0.632
 7896SOL    HW224588   5.120   3.477   0.516
 7897SOL     OW24589   2.740   3.863   0.094
 7897SOL    HW124590   2.802   3.867   0.173
 7897SOL    HW224591   2.646   3.853   0.126
 7898SOL     OW24592   4.167   2.220   3.657
 7898SOL    HW124593   4.219   2.291   3.704
 7898SOL    HW224594   4.070   2.226   3.684
 7899SOL     OW24595   5.660   0.923   1.474
 7899SOL    HW124596   5.727   0.948   1.545
 7899SOL    HW224597   5.706   0.913   1.386
 7900SOL     OW24598   1.816   4.942   1.780
 7900SOL    HW124599   1.745   4.993   1.830
 7900SOL    HW224600   1.854   5.000   1.708
 7901SOL     OW24601   5.414   1.549   6.521
 7901SOL    HW124602   5.395   1.621   6.455
 7901SOL    HW224603   5.348   1.555   6.596
 7902SOL     OW24604   5.281   6.791   1.349
 7902SOL    HW124605   5.286   6.694   1.326
 7902SOL    HW224606   5.322   6.805   1.440
 7903SOL     OW24607   5.717   1.777   0.657
 7903SOL    HW124608   5.715   1.694   0.601
 7903SOL    HW224609   5.624   1.814   0.665
 7904SOL     OW24610   5.684   0.213   3.457
 7904SOL    HW124611   5.635   0.136   3.416
 7904SOL    HW224612   5.628   0.253   3.530
 7905SOL     OW24613   4.432   2.366   6.774
 7905SOL    HW124614   4.455   2.448   6.827
 7905SOL    HW224615   4.398   2.393   6.684
 7906SOL     OW24616   6.924   5.556   0.355
 7906SOL    HW124617   6.965   5.568   0.446
 7906SOL    HW224618   6.991   5.583   0.286
 7907SOL     OW24619   5.393   2.614   2.959
 7907SOL    HW124620   5.301   2.644   2.984
 7907SOL    HW224621   5.451   2.694   2.943
 7908SOL     OW24622   0.841   1.345   5.799
 7908SOL    HW124623   0.774   1.389   5.740
 7908SOL    HW224624   0.910   1.412   5.828
 7909SOL     OW24625   5.153   4.218   4.339
 7909SOL    HW124626   5.174   4.152   4.267
 7909SOL    HW224627   5.092   4.175   4.406
 7910SOL     OW24628   2.710   3.375   5.790
 7910SOL    HW124629   2.718   3.309   5.715
 7910SOL    HW224630   2.755   3.338   5.871
 7911SOL     OW24631   1.923   3.255   0.338
 7911SOL    HW124632   1.976   3.188   0.284
 7911SOL    HW224633   1.892   3.212   0.423
 7912SOL     OW24634   6.786   5.055   0.084
 7912SOL    HW124635   6.823   5.137   0.041
 7912SOL    HW224636   6.795   5.063   0.184
 7913SOL     OW24637   1.391   5.128   0.956
 7913SOL    HW124638   1.349   5.217   0.947
 7913SOL    HW224639   1.417   5.113   1.051
 7914SOL     OW24640   0.495   4.256   0.504
 7914SOL    HW124641   0.570   4.222   0.559
 7914SOL    HW224642   0.458   4.339   0.545
 7915SOL     OW24643   4.889   3.132   2.192
 7915SOL    HW124644   4.836   3.216   2.182
 7915SOL    HW224645   4.864   3.068   2.120
 7916SOL     OW24646   0.641   4.220   5.046
 7916SOL    HW124647   0.633   4.201   4.948
 7916SOL    HW224648   0.706   4.294   5.061
 7917SOL     OW24649   3.726   4.047   4.327
 7917SOL    HW124650   3.686   3.958   4.306
 7917SOL    HW224651   3.654   4.114   4.340
 7918SOL     OW24652   6.880   1.410   6.627
 7918SOL    HW124653   6.857   1.320   6.589
 7918SOL    HW224654   6.800   1.469   6.625
 7919SOL     OW24655   1.995   4.519   2.196
 7919SOL    HW124656   1.975   4.607   2.239
 7919SOL    HW224657   2.005   4.448   2.266
 7920SOL     OW24658   0.254   5.450   0.886
 7920SOL    HW124659   0.183   5.380   0.877
 7920SOL    HW224660   0.291   5.471   0.795
 7921SOL     OW24661   5.539   6.481   0.394
 7921SOL    HW124662   5.551   6.383   0.377
 7921SOL    HW224663   5.443   6.500   0.411
 7922SOL     OW24664   6.931   6.539   0.037
 7922SOL    HW124665   6.910   6.586   6.973
 7922SOL    HW224666   0.008   6.526   0.045
 7923SOL     OW24667   3.338   0.281   2.156
 7923SOL    HW124668   3.410   0.264   2.088
 7923SOL    HW224669   3.349   0.217   2.232
 7924SOL     OW24670   4.183   0.144   2.172
 7924SOL    HW124671   4.247   0.072   2.199
 7924SOL    HW224672   4.214   0.232   2.208
 7925SOL     OW24673   0.940   1.826   6.260
 7925SOL    HW124674   0.959   1.733   6.294
 7925SOL    HW224675   1.019   1.859   6.209
 7926SOL     OW24676   4.598   1.705   5.305
 7926SOL    HW124677   4.511   1.734   5.347
 7926SOL    HW224678   4.585   1.617   5.259
 7927SOL     OW24679   4.075   5.134   3.006
 7927SOL    HW124680   4.047   5.214   3.059
 7927SOL    HW224681   4.004   5.110   2.941
 7928SOL     OW24682   1.053   2.308   4.437
 7928SOL    HW124683   1.074   2.213   4.417
 7928SOL    HW224684   0.958   2.327   4.413
 7929SOL     OW24685   4.150   4.937   5.731
 7929SOL    HW124686   4.192   4.888   5.808
 7929SOL    HW224687   4.115   4.870   5.666
 7930SOL     OW24688   4.483   5.314   4.384
 7930SOL    HW124689   4.575   5.344   4.407
 7930SOL    HW224690   4.485   5.262   4.298
 7931SOL     OW24691   1.684   2.007   6.550
 7931SOL    HW124692   1.589   2.017   6.519
 7931SOL    HW224693   1.716   1.914   6.531
 7932SOL     OW24694   1.975   5.847   6.568
 7932SOL    HW124695   2.010   5.911   6.637
 7932SOL    HW224696   2.042   5.838   6.494
 7933SOL     OW24697   0.457   5.689   6.507
 7933SOL    HW124698   0.456   5.773   6.563
 7933SOL    HW224699   0.383   5.693   6.440
 7934SOL     OW24700   2.520   4.765   0.563
 7934SOL    HW124701   2.484   4.773   0.470
 7934SOL    HW224702   2.444   4.754   0.627
 7935SOL     OW24703   5.357   5.955   6.858
 7935SOL    HW124704   5.382   5.896   6.935
 7935SOL    HW224705   5.374   6.050   6.883
 7936SOL     OW24706   3.975   6.239   2.621
 7936SOL    HW124707   3.942   6.213   2.530
 7936SOL    HW224708   3.941   6.174   2.689
 7937SOL     OW24709   6.679   6.836   3.650
 7937SOL    HW124710   6.635   6.748   3.629
 7937SOL    HW224711   6.624   6.885   3.718
 7938SOL     OW24712   6.262   5.868   5.028
 7938SOL    HW124713   6.361   5.856   5.026
 7938SOL    HW224714   6.217   5.783   5.002
 7939SOL     OW24715   1.571   2.500   5.608
 7939SOL    HW124716   1.611   2.520   5.519
 7939SOL    HW224717   1.643   2.473   5.672
 7940SOL     OW24718   2.032   3.854   1.878
 7940SOL    HW124719   2.067   3.826   1.968
 7940SOL    HW224720   2.068   3.793   1.808
 7941SOL     OW24721   6.142   0.654   0.527
 7941SOL    HW124722   6.114   0.700   0.443
 7941SOL    HW224723   6.158   0.723   0.599
 7942SOL     OW24724   6.755   5.852   2.456
 7942SOL    HW124725   6.799   5.796   2.527
 7942SOL    HW224726   6.765   5.948   2.480
 7943SOL     OW24727   6.166   3.039   0.545
 7943SOL    HW124728   6.083   3.088   0.571
 7943SOL    HW224729   6.243   3.102   0.545
 7944SOL     OW24730   0.508   2.683   1.584
 7944SOL    HW124731   0.429   2.688   1.523
 7944SOL    HW224732   0.525   2.772   1.624
 7945SOL     OW24733   5.834   5.957   1.851
 7945SOL    HW124734   5.860   5.997   1.938
 7945SOL    HW224735   5.911   5.961   1.787
 7946SOL     OW24736   2.530   1.565   5.404
 7946SOL    HW124737   2.459   1.605   5.461
 7946SOL    HW224738   2.495   1.550   5.312
 7947SOL     OW24739   3.381   2.338   6.316
 7947SOL    HW124740   3.283   2.354   6.301
 7947SOL    HW224741   3.392   2.267   6.386
 7948SOL     OW24742   0.907   6.130   0.842
 7948SOL    HW124743   0.877   6.169   0.929
 7948SOL    HW224744   0.995   6.171   0.817
 7949SOL     OW24745   4.536   4.623   4.343
 7949SOL    HW124746   4.595   4.571   4.405
 7949SOL    HW224747   4.441   4.614   4.371
 7950SOL     OW24748   6.140   5.215   4.800
 7950SOL    HW124749   6.109   5.121   4.817
 7950SOL    HW224750   6.142   5.232   4.702
 7951SOL     OW24751   2.432   4.298   1.916
 7951SOL    HW124752   2.491   4.261   1.845
 7951SOL    HW224753   2.405   4.392   1.893
 7952SOL     OW24754   0.774   3.067   6.781
 7952SOL    HW124755   0.822   3.141   6.828
 7952SOL    HW224756   0.695   3.038   6.835
 7953SOL     OW24757   2.300   2.679   4.296
 7953SOL    HW124758   2.286   2.733   4.379
 7953SOL    HW224759   2.368   2.608   4.315
 7954SOL     OW24760   4.588   4.050   5.347
 7954SOL    HW124761   4.637   3.967   5.322
 7954SOL    HW224762   4.644   4.130   5.326
 7955SOL     OW24763   1.081   6.263   6.791
 7955SOL    HW124764   1.065   6.346   6.738
 7955SOL    HW224765   1.165   6.219   6.758
 7956SOL     OW24766   3.884   6.036   2.782
 7956SOL    HW124767   3.874   5.945   2.821
 7956SOL    HW224768   3.805   6.092   2.807
 7957SOL     OW24769   0.833   0.789   2.159
 7957SOL    HW124770   0.835   0.844   2.243
 7957SOL    HW224771   0.738   0.773   2.133
 7958SOL     OW24772   3.696   5.547   4.287
 7958SOL    HW124773   3.668   5.540   4.383
 7958SOL    HW224774   3.668   5.636   4.251
 7959SOL     OW24775   4.385   5.868   1.088
 7959SOL    HW124776   4.376   5.829   0.996
 7959SOL    HW224777   4.368   5.966   1.084
 7960SOL     OW24778   2.951   1.352   0.663
 7960SOL    HW124779   3.022   1.281   0.653
 7960SOL    HW224780   2.861   1.312   0.644
 7961SOL     OW24781   0.172   0.000   1.309
 7961SOL    HW124782   0.263   7.007   1.348
 7961SOL    HW224783   0.168   6.982   1.217
 7962SOL     OW24784   1.743   0.303   0.003
 7962SOL    HW124785   1.723   0.211   0.037
 7962SOL    HW224786   1.720   0.371   0.073
 7963SOL     OW24787   6.969   0.800   3.799
 7963SOL    HW124788   0.032   0.753   3.775
 7963SOL    HW224789   6.896   0.733   3.810
 7964SOL     OW24790   0.261   5.092   3.835
 7964SOL    HW124791   0.183   5.141   3.874
 7964SOL    HW224792   0.328   5.072   3.907
 7965SOL     OW24793   3.468   2.863   6.496
 7965SOL    HW124794   3.530   2.920   6.442
 7965SOL    HW224795   3.449   2.778   6.446
 7966SOL     OW24796   0.623   3.006   5.272
 7966SOL    HW124797   0.651   3.061   5.351
 7966SOL    HW224798   0.690   2.934   5.255
 7967SOL     OW24799   2.827   6.079   3.838
 7967SOL    HW124800   2.795   6.159   3.786
 7967SOL    HW224801   2.883   6.022   3.779
 7968SOL     OW24802   2.444   2.504   3.081
 7968SOL    HW124803   2.422   2.599   3.104
 7968SOL    HW224804   2.523   2.475   3.134
 7969SOL     OW24805   4.453   6.143   0.733
 7969SOL    HW124806   4.415   6.130   0.824
 7969SOL    HW224807   4.394   6.204   0.680
 7970SOL     OW24808   0.216   2.678   2.823
 7970SOL    HW124809   0.200   2.761   2.877
 7970SOL    HW224810   0.298   2.690   2.767
 7971SOL     OW24811   4.212   1.485   0.978
 7971SOL    HW124812   4.140   1.457   0.916
 7971SOL    HW224813   4.228   1.413   1.046
 7972SOL     OW24814   1.706   3.323   1.059
 7972SOL    HW124815   1.626   3.382   1.047
 7972SOL    HW224816   1.778   3.375   1.106
 7973SOL     OW24817   4.866   4.411   3.795
 7973SOL    HW124818   4.872   4.492   3.852
 7973SOL    HW224819   4.911   4.334   3.840
 7974SOL     OW24820   5.670   1.071   5.537
 7974SOL    HW124821   5.617   1.114   5.609
 7974SOL    HW224822   5.677   0.972   5.554
 7975SOL     OW24823   5.111   0.598   2.946
 7975SOL    HW124824   5.193   0.648   2.973
 7975SOL    HW224825   5.120   0.502   2.974
 7976SOL     OW24826   0.678   0.712   6.898
 7976SOL    HW124827   0.692   0.652   6.819
 7976SOL    HW224828   0.632   0.796   6.868
 7977SOL     OW24829   5.216   5.609   1.665
 7977SOL    HW124830   5.191   5.588   1.571
 7977SOL    HW224831   5.287   5.679   1.666
 7978SOL     OW24832   6.081   3.789   6.002
 7978SOL    HW124833   6.034   3.818   5.918
 7978SOL    HW224834   6.062   3.692   6.019
 7979SOL     OW24835   3.037   6.685   5.380
 7979SOL    HW124836   3.120   6.718   5.334
 7979SOL    HW224837   2.964   6.674   5.312
 7980SOL     OW24838   2.404   5.695   0.153
 7980SOL    HW124839   2.338   5.667   0.084
 7980SOL    HW224840   2.392   5.793   0.172
 7981SOL     OW24841   0.199   5.804   1.756
 7981SOL    HW124842   0.243   5.891   1.733
 7981SOL    HW224843   0.206   5.742   1.678
 7982SOL     OW24844   0.124   1.856   0.108
 7982SOL    HW124845   0.127   1.894   0.201
 7982SOL    HW224846   0.201   1.793   0.096
 7983SOL     OW24847   5.634   1.722   2.190
 7983SOL    HW124848   5.550   1.775   2.177
 7983SOL    HW224849   5.687   1.759   2.266
 7984SOL     OW24850   1.593   1.615   1.010
 7984SOL    HW124851   1.599   1.583   1.105
 7984SOL    HW224852   1.647   1.698   0.999
 7985SOL     OW24853   2.273   7.007   3.630
 7985SOL    HW124854   2.337   6.969   3.696
 7985SOL    HW224855   2.311   7.000   3.538
 7986SOL     OW24856   3.488   1.151   6.715
 7986SOL    HW124857   3.489   1.149   6.815
 7986SOL    HW224858   3.452   1.065   6.680
 7987SOL     OW24859   1.478   3.487   6.935
 7987SOL    HW124860   1.401   3.426   6.952
 7987SOL    HW224861   1.454   3.579   6.965
 7988SOL     OW24862   1.453   2.264   3.581
 7988SOL    HW124863   1.542   2.233   3.613
 7988SOL    HW224864   1.425   2.345   3.633
 7989SOL     OW24865   3.720   2.922   5.299
 7989SOL    HW124866   3.699   2.824   5.292
 7989SOL    HW224867   3.749   2.956   5.210
 7990SOL     OW24868   6.511   3.172   3.120
 7990SOL    HW124869   6.507   3.110   3.199
 7990SOL    HW224870   6.479   3.263   3.148
 7991SOL     OW24871   6.577   0.453   3.452
 7991SOL    HW124872   6.550   0.485   3.361
 7991SOL    HW224873   6.633   0.523   3.496
 7992SOL     OW24874   1.188   6.880   1.465
 7992SOL    HW124875   1.257   6.876   1.537
 7992SOL    HW224876   1.120   6.950   1.489
 7993SOL     OW24877   0.938   6.246   6.414
 7993SOL    HW124878   0.988   6.167   6.377
 7993SOL    HW224879   1.003   6.320   6.432
 7994SOL     OW24880   4.400   0.063   3.087
 7994SOL    HW124881   4.494   0.061   3.119
 7994SOL    HW224882   4.398   0.057   2.988
 7995SOL     OW24883   4.376   5.003   3.279
 7995SOL    HW124884   4.342   5.017   3.371
 7995SOL    HW224885   4.430   4.919   3.276
 7996SOL     OW24886   2.549   0.428   4.683
 7996SOL    HW124887   2.482   0.436   4.609
 7996SOL    HW224888   2.505   0.452   4.770
 7997SOL     OW24889   0.565   1.282   1.567
 7997SOL    HW124890   0.544   1.379   1.560
 7997SOL    HW224891   0.647   1.268   1.622
 7998SOL     OW24892   3.935   5.088   0.670
 7998SOL    HW124893   3.975   5.028   0.601
 7998SOL    HW224894   3.837   5.066   0.680
 7999SOL     OW24895   0.609   6.192   6.063
 7999SOL    HW124896   0.688   6.151   6.109
 7999SOL    HW224897   0.527   6.179   6.119
 8000SOL     OW24898   5.536   0.008   0.188
 8000SOL    HW124899   5.537   0.054   0.277
 8000SOL    HW224900   5.619   6.975   0.179
 8001SOL     OW24901   3.485   5.858   0.683
 8001SOL    HW124902   3.469   5.805   0.765
 8001SOL    HW224903   3.422   5.936   0.680
 8002SOL     OW24904   0.840   2.240   5.451
 8002SOL    HW124905   0.758   2.290   5.423
 8002SOL    HW224906   0.914   2.304   5.468
 8003SOL     OW24907   2.824   4.999   2.719
 8003SOL    HW124908   2.769   4.920   2.694
 8003SOL    HW224909   2.920   4.972   2.727
 8004SOL     OW24910   2.071   3.422   3.709
 8004SOL    HW124911   1.976   3.404   3.733
 8004SOL    HW224912   2.075   3.498   3.644
 8005SOL     OW24913   3.526   0.743   2.500
 8005SOL    HW124914   3.473   0.786   2.427
 8005SOL    HW224915   3.580   0.812   2.547
 8006SOL     OW24916   1.918   7.005   6.614
 8006SOL    HW124917   1.958   6.925   6.568
 8006SOL    HW224918   1.992   0.042   6.647
 8007SOL     OW24919   0.226   1.069   4.862
 8007SOL    HW124920   0.162   1.020   4.922
 8007SOL    HW224921   0.176   1.130   4.801
 8008SOL     OW24922   4.495   6.062   5.485
 8008SOL    HW124923   4.400   6.073   5.456
 8008SOL    HW224924   4.512   5.966   5.507
 8009SOL     OW24925   5.803   0.617   2.924
 8009SOL    HW124926   5.853   0.651   2.844
 8009SOL    HW224927   5.868   0.596   2.997
 8010SOL     OW24928   0.791   1.361   0.266
 8010SOL    HW124929   0.882   1.399   0.252
 8010SOL    HW224930   0.796   1.262   0.275
 8011SOL     OW24931   3.410   2.798   0.867
 8011SOL    HW124932   3.379   2.710   0.902
 8011SOL    HW224933   3.484   2.782   0.801
 8012SOL     OW24934   2.086   4.608   1.751
 8012SOL    HW124935   2.116   4.535   1.689
 8012SOL    HW224936   2.126   4.695   1.722
 8013SOL     OW24937   1.411   4.788   3.298
 8013SOL    HW124938   1.430   4.783   3.200
 8013SOL    HW224939   1.312   4.794   3.313
 8014SOL     OW24940   0.726   6.257   5.358
 8014SOL    HW124941   0.696   6.334   5.301
 8014SOL    HW224942   0.784   6.291   5.432
 8015SOL     OW24943   2.682   0.911   0.545
 8015SOL    HW124944   2.649   0.830   0.594
 8015SOL    HW224945   2.765   0.888   0.495
 8016SOL     OW24946   4.861   0.056   6.664
 8016SOL    HW124947   4.820   0.122   6.601
 8016SOL    HW224948   4.810   0.055   6.750
 8017SOL     OW24949   6.773   6.796   0.675
 8017SOL    HW124950   6.827   6.720   0.710
 8017SOL    HW224951   6.749   6.779   0.580
 8018SOL     OW24952   3.229   2.388   5.912
 8018SOL    HW124953   3.137   2.366   5.879
 8018SOL    HW224954   3.231   2.484   5.941
 8019SOL     OW24955   2.319   3.993   5.905
 8019SOL    HW124956   2.224   4.020   5.920
 8019SOL    HW224957   2.330   3.959   5.812
 8020SOL     OW24958   6.071   6.261   0.920
 8020SOL    HW124959   6.158   6.244   0.875
 8020SOL    HW224960   6.022   6.175   0.932
 8021SOL     OW24961   1.335   1.863   1.134
 8021SOL    HW124962   1.265   1.864   1.206
 8021SOL    HW224963   1.328   1.946   1.080
 8022SOL     OW24964   4.697   6.800   2.797
 8022SOL    HW124965   4.643   6.747   2.732
 8022SOL    HW224966   4.666   6.895   2.796
 8023SOL     OW24967   6.386   5.007   3.376
 8023SOL    HW124968   6.397   4.909   3.389
 8023SOL    HW224969   6.302   5.038   3.423
 8024SOL     OW24970   3.176   5.323   6.979
 8024SOL    HW124971   3.269   5.320   6.945
 8024SOL    HW224972   3.160   5.245   0.018
 8025SOL     OW24973   2.471   6.191   6.300
 8025SOL    HW124974   2.548   6.153   6.249
 8025SOL    HW224975   2.493   6.284   6.329
 8026SOL     OW24976   1.280   4.197   6.693
 8026SOL    HW124977   1.248   4.116   6.644
 8026SOL    HW224978   1.299   4.270   6.627
 8027SOL     OW24979   4.326   1.630   5.561
 8027SOL    HW124980   4.317   1.532   5.577
 8027SOL    HW224981   4.420   1.659   5.581
 8028SOL     OW24982   3.145   4.890   4.384
 8028SOL    HW124983   3.183   4.973   4.424
 8028SOL    HW224984   3.048   4.883   4.409
 8029SOL     OW24985   5.111   2.980   0.878
 8029SOL    HW124986   5.097   3.078   0.892
 8029SOL    HW224987   5.174   2.944   0.946
 8030SOL     OW24988   4.347   4.385   6.877
 8030SOL    HW124989   4.279   4.444   6.920
 8030SOL    HW224990   4.301   4.306   6.834
 8031SOL     OW24991   5.418   6.396   3.014
 8031SOL    HW124992   5.498   6.397   2.954
 8031SOL    HW224993   5.421   6.315   3.072
 8032SOL     OW24994   5.643   4.277   6.299
 8032SOL    HW124995   5.648   4.184   6.262
 8032SOL    HW224996   5.548   4.301   6.318
 8033SOL     OW24997   4.609   3.104   6.044
 8033SOL    HW124998   4.646   3.145   6.127
 8033SOL    HW224999   4.527   3.051   6.067
 8034SOL     OW25000   6.198   0.505   4.584
 8034SOL    HW125001   6.221   0.419   4.628
 8034SOL    HW225002   6.221   0.581   4.646
 8035SOL     OW25003   5.133   1.548   4.585
 8035SOL    HW125004   5.221   1.548   4.633
 8035SOL    HW225005   5.059   1.537   4.652
 8036SOL     OW25006   0.674   4.477   3.100
 8036SOL    HW125007   0.726   4.398   3.067
 8036SOL    HW225008   0.597   4.445   3.155
 8037SOL     OW25009   1.180   3.140   1.474
 8037SOL    HW125010   1.112   3.123   1.546
 8037SOL    HW225011   1.229   3.056   1.454
 8038SOL     OW25012   4.072   0.750   3.335
 8038SOL    HW125013   4.067   0.683   3.261
 8038SOL    HW225014   4.052   0.841   3.299
 8039SOL     OW25015   0.509   1.440   4.195
 8039SOL    HW125016   0.416   1.445   4.158
 8039SOL    HW225017   0.545   1.348   4.182
 8040SOL     OW25018   1.575   6.178   0.472
 8040SOL    HW125019   1.618   6.258   0.513
 8040SOL    HW225020   1.625   6.095   0.499
 8041SOL     OW25021   3.068   1.710   1.910
 8041SOL    HW125022   3.040   1.748   1.998
 8041SOL    HW225023   3.149   1.759   1.877
 8042SOL     OW25024   3.634   2.891   3.746
 8042SOL    HW125025   3.712   2.923   3.692
 8042SOL    HW225026   3.558   2.867   3.684
 8043SOL     OW25027   3.858   6.851   2.602
 8043SOL    HW125028   3.808   6.777   2.647
 8043SOL    HW225029   3.807   6.936   2.612
 8044SOL     OW25030   3.922   2.834   1.049
 8044SOL    HW125031   3.859   2.909   1.067
 8044SOL    HW225032   3.926   2.774   1.129
 8045SOL     OW25033   5.464   1.118   1.446
 8045SOL    HW125034   5.477   1.169   1.531
 8045SOL    HW225035   5.542   1.059   1.430
 8046SOL     OW25036   0.017   5.083   0.502
 8046SOL    HW125037   0.077   5.093   0.423
 8046SOL    HW225038   0.032   5.161   0.564
 8047SOL     OW25039   3.265   5.645   4.410
 8047SOL    HW125040   3.282   5.643   4.311
 8047SOL    HW225041   3.313   5.568   4.453
 8048SOL     OW25042   5.649   0.765   5.841
 8048SOL    HW125043   5.590   0.818   5.781
 8048SOL    HW225044   5.674   0.679   5.797
 8049SOL     OW25045   0.964   0.343   0.315
 8049SOL    HW125046   0.945   0.382   0.225
 8049SOL    HW225047   0.959   0.415   0.384
 8050SOL     OW25048   1.576   3.816   2.786
 8050SOL    HW125049   1.570   3.820   2.886
 8050SOL    HW225050   1.628   3.736   2.759
 8051SOL     OW25051   4.691   5.956   3.013
 8051SOL    HW125052   4.771   5.897   3.007
 8051SOL    HW225053   4.709   6.028   3.081
 8052SOL     OW25054   4.832   1.301   1.900
 8052SOL    HW125055   4.807   1.340   1.988
 8052SOL    HW225056   4.765   1.231   1.875
 8053SOL     OW25057   3.180   3.853   3.766
 8053SOL    HW125058   3.203   3.951   3.764
 8053SOL    HW225059   3.244   3.802   3.709
 8054SOL     OW25060   4.541   0.092   4.598
 8054SOL    HW125061   4.482   0.082   4.518
 8054SOL    HW225062   4.567   0.187   4.609
 8055SOL     OW25063   0.055   0.370   5.684
 8055SOL    HW125064   7.012   0.304   5.723
 8055SOL    HW225065   0.145   0.355   5.723
 8056SOL     OW25066   4.217   2.042   3.852
 8056SOL    HW125067   4.141   2.051   3.917
 8056SOL    HW225068   4.194   2.091   3.767
 8057SOL     OW25069   3.354   2.138   3.288
 8057SOL    HW125070   3.349   2.125   3.189
 8057SOL    HW225071   3.279   2.197   3.317
 8058SOL     OW25072   4.736   0.707   2.353
 8058SOL    HW125073   4.715   0.737   2.446
 8058SOL    HW225074   4.829   0.671   2.350
 8059SOL     OW25075   4.516   2.517   4.670
 8059SOL    HW125076   4.555   2.609   4.673
 8059SOL    HW225077   4.490   2.489   4.762
 8060SOL     OW25078   1.027   2.923   3.928
 8060SOL    HW125079   0.974   2.853   3.975
 8060SOL    HW225080   1.124   2.896   3.927
 8061SOL     OW25081   7.008   0.547   2.166
 8061SOL    HW125082   0.071   0.554   2.113
 8061SOL    HW225083   0.008   0.546   2.264
 8062SOL     OW25084   3.421   5.223   4.310
 8062SOL    HW125085   3.430   5.131   4.348
 8062SOL    HW225086   3.508   5.250   4.267
 8063SOL     OW25087   0.746   2.928   0.559
 8063SOL    HW125088   0.773   2.839   0.596
 8063SOL    HW225089   0.750   2.925   0.459
 8064SOL     OW25090   0.443   4.643   0.928
 8064SOL    HW125091   0.472   4.708   0.858
 8064SOL    HW225092   0.437   4.552   0.888
 8065SOL     OW25093   3.391   6.039   4.294
 8065SOL    HW125094   3.363   5.945   4.317
 8065SOL    HW225095   3.463   6.035   4.225
 8066SOL     OW25096   0.305   2.035   5.864
 8066SOL    HW125097   0.291   2.129   5.834
 8066SOL    HW225098   0.395   2.027   5.908
 8067SOL     OW25099   5.037   2.624   1.939
 8067SOL    HW125100   4.968   2.689   1.906
 8067SOL    HW225101   5.022   2.535   1.896
 8068SOL     OW25102   6.594   4.512   0.228
 8068SOL    HW125103   6.576   4.497   0.131
 8068SOL    HW225104   6.653   4.439   0.262
 8069SOL     OW25105   1.765   6.317   1.006
 8069SOL    HW125106   1.759   6.242   1.073
 8069SOL    HW225107   1.711   6.394   1.037
 8070SOL     OW25108   3.067   3.217   0.464
 8070SOL    HW125109   2.985   3.269   0.443
 8070SOL    HW225110   3.148   3.271   0.441
 8071SOL     OW25111   2.939   6.586   4.576
 8071SOL    HW125112   3.028   6.624   4.602
 8071SOL    HW225113   2.946   6.543   4.486
 8072SOL     OW25114   3.384   0.603   6.706
 8072SOL    HW125115   3.306   0.579   6.764
 8072SOL    HW225116   3.352   0.629   6.616
 8073SOL     OW25117   4.260   6.181   5.390
 8073SOL    HW125118   4.231   6.169   5.295
 8073SOL    HW225119   4.191   6.142   5.451
 8074SOL     OW25120   3.657   2.748   0.782
 8074SOL    HW125121   3.681   2.737   0.686
 8074SOL    HW225122   3.713   2.686   0.838
 8075SOL     OW25123   6.392   1.162   0.372
 8075SOL    HW125124   6.338   1.239   0.406
 8075SOL    HW225125   6.450   1.194   0.296
 8076SOL     OW25126   5.044   2.361   5.641
 8076SOL    HW125127   4.976   2.308   5.590
 8076SOL    HW225128   5.066   2.444   5.589
 8077SOL     OW25129   1.968   5.848   1.804
 8077SOL    HW125130   1.981   5.787   1.726
 8077SOL    HW225131   1.872   5.879   1.807
 8078SOL     OW25132   5.798   1.311   0.514
 8078SOL    HW125133   5.853   1.361   0.446
 8078SOL    HW225134   5.753   1.376   0.575
 8079SOL     OW25135   4.929   1.482   3.254
 8079SOL    HW125136   4.979   1.433   3.182
 8079SOL    HW225137   4.831   1.482   3.233
 8080SOL     OW25138   0.559   3.117   0.201
 8080SOL    HW125139   0.603   3.207   0.213
 8080SOL    HW225140   0.462   3.124   0.225
 8081SOL     OW25141   5.005   6.741   4.439
 8081SOL    HW125142   5.071   6.698   4.499
 8081SOL    HW225143   4.953   6.809   4.490
 8082SOL     OW25144   5.752   0.331   1.847
 8082SOL    HW125145   5.746   0.307   1.944
 8082SOL    HW225146   5.660   0.343   1.809
 8083SOL     OW25147   5.252   3.598   2.257
 8083SOL    HW125148   5.306   3.527   2.302
 8083SOL    HW225149   5.233   3.571   2.163
 8084SOL     OW25150   5.278   7.018   0.102
 8084SOL    HW125151   5.223   0.061   0.155
 8084SOL    HW225152   5.374   0.001   0.132
 8085SOL     OW25153   5.929   0.090   2.642
 8085SOL    HW125154   5.970   0.050   2.724
 8085SOL    HW225155   5.974   0.176   2.620
 8086SOL     OW25156   4.645   0.967   4.029
 8086SOL    HW125157   4.710   1.019   3.974
 8086SOL    HW225158   4.584   1.030   4.077
 8087SOL     OW25159   2.826   1.248   0.967
 8087SOL    HW125160   2.760   1.266   1.039
 8087SOL    HW225161   2.862   1.335   0.933
 8088SOL     OW25162   5.247   2.539   1.204
 8088SOL    HW125163   5.176   2.529   1.274
 8088SOL    HW225164   5.330   2.493   1.235
 8089SOL     OW25165   4.962   2.617   0.118
 8089SOL    HW125166   4.984   2.601   0.214
 8089SOL    HW225167   5.046   2.612   0.064
 8090SOL     OW25168   3.811   2.551   6.902
 8090SOL    HW125169   3.716   2.578   6.889
 8090SOL    HW225170   3.857   2.547   6.813
 8091SOL     OW25171   2.662   4.102   6.324
 8091SOL    HW125172   2.683   4.045   6.245
 8091SOL    HW225173   2.708   4.064   6.405
 8092SOL     OW25174   0.324   2.817   5.455
 8092SOL    HW125175   0.255   2.865   5.401
 8092SOL    HW225176   0.285   2.733   5.492
 8093SOL     OW25177   4.827   5.902   2.696
 8093SOL    HW125178   4.886   5.979   2.721
 8093SOL    HW225179   4.856   5.820   2.745
 8094SOL     OW25180   1.484   3.950   4.921
 8094SOL    HW125181   1.577   3.918   4.906
 8094SOL    HW225182   1.480   4.003   5.005
 8095SOL     OW25183   6.273   3.797   4.609
 8095SOL    HW125184   6.367   3.829   4.613
 8095SOL    HW225185   6.247   3.777   4.515
 8096SOL     OW25186   2.850   5.476   3.829
 8096SOL    HW125187   2.934   5.454   3.878
 8096SOL    HW225188   2.785   5.401   3.838
 8097SOL     OW25189   5.109   6.214   3.499
 8097SOL    HW125190   5.192   6.259   3.468
 8097SOL    HW225191   5.034   6.280   3.502
 8098SOL     OW25192   2.385   6.222   3.795
 8098SOL    HW125193   2.326   6.252   3.870
 8098SOL    HW225194   2.447   6.151   3.829
 8099SOL     OW25195   4.475   6.771   4.064
 8099SOL    HW125196   4.424   6.685   4.055
 8099SOL    HW225197   4.442   6.837   3.997
 8100SOL     OW25198   6.564   0.138   0.187
 8100SOL    HW125199   6.468   0.139   0.214
 8100SOL    HW225200   6.572   0.154   0.089
 8101SOL     OW25201   1.910   0.208   4.074
 8101SOL    HW125202   1.835   0.147   4.099
 8101SOL    HW225203   1.983   0.155   4.030
 8102SOL     OW25204   0.316   4.579   4.458
 8102SOL    HW125205   0.283   4.670   4.481
 8102SOL    HW225206   0.272   4.512   4.518
 8103SOL     OW25207   4.623   0.474   0.915
 8103SOL    HW125208   4.618   0.393   0.974
 8103SOL    HW225209   4.604   0.556   0.969
 8104SOL     OW25210   2.526   6.996   5.932
 8104SOL    HW125211   2.522   6.963   5.837
 8104SOL    HW225212   2.579   0.059   5.935
 8105SOL     OW25213   1.202   2.472   3.458
 8105SOL    HW125214   1.255   2.437   3.381
 8105SOL    HW225215   1.130   2.533   3.424
 8106SOL     OW25216   2.662   5.955   3.015
 8106SOL    HW125217   2.583   5.895   3.027
 8106SOL    HW225218   2.678   5.971   2.917
 8107SOL     OW25219   0.368   5.364   4.822
 8107SOL    HW125220   0.369   5.333   4.727
 8107SOL    HW225221   0.291   5.323   4.871
 8108SOL     OW25222   6.206   3.460   4.853
 8108SOL    HW125223   6.300   3.434   4.835
 8108SOL    HW225224   6.151   3.447   4.770
 8109SOL     OW25225   1.289   3.676   4.529
 8109SOL    HW125226   1.375   3.722   4.550
 8109SOL    HW225227   1.243   3.723   4.454
 8110SOL     OW25228   3.096   6.415   0.974
 8110SOL    HW125229   3.087   6.318   0.998
 8110SOL    HW225230   3.108   6.425   0.876
 8111SOL     OW25231   4.263   0.795   5.170
 8111SOL    HW125232   4.295   0.717   5.116
 8111SOL    HW225233   4.298   0.787   5.264
 8112SOL     OW25234   2.200   1.867   4.441
 8112SOL    HW125235   2.286   1.914   4.422
 8112SOL    HW225236   2.136   1.929   4.487
 8113SOL     OW25237   3.258   3.214   1.058
 8113SOL    HW125238   3.305   3.168   0.983
 8113SOL    HW225239   3.212   3.295   1.024
 8114SOL     OW25240   2.358   3.807   1.388
 8114SOL    HW125241   2.304   3.886   1.417
 8114SOL    HW225242   2.432   3.837   1.329
 8115SOL     OW25243   4.238   0.461   1.201
 8115SOL    HW125244   4.284   0.505   1.124
 8115SOL    HW225245   4.267   0.365   1.206
 8116SOL     OW25246   4.580   6.781   4.840
 8116SOL    HW125247   4.666   6.779   4.789
 8116SOL    HW225248   4.511   6.727   4.793
 8117SOL     OW25249   1.800   1.013   3.718
 8117SOL    HW125250   1.816   0.929   3.769
 8117SOL    HW225251   1.819   1.092   3.777
 8118SOL     OW25252   6.234   2.809   5.378
 8118SOL    HW125253   6.230   2.710   5.384
 8118SOL    HW225254   6.319   2.836   5.333
 8119SOL     OW25255   6.338   5.685   5.445
 8119SOL    HW125256   6.294   5.609   5.493
 8119SOL    HW225257   6.373   5.750   5.512
 8120SOL     OW25258   3.479   4.365   0.172
 8120SOL    HW125259   3.379   4.364   0.180
 8120SOL    HW225260   3.509   4.294   0.108
 8121SOL     OW25261   6.966   6.010   1.866
 8121SOL    HW125262   0.002   5.936   1.898
 8121SOL    HW225263   7.003   6.047   1.780
 8122SOL     OW25264   1.547   5.784   2.283
 8122SOL    HW125265   1.644   5.766   2.266
 8122SOL    HW225266   1.538   5.870   2.334
 8123SOL     OW25267   0.092   0.318   0.056
 8123SOL    HW125268   0.099   0.346   6.982
 8123SOL    HW225269   0.053   0.392   0.110
 8124SOL     OW25270   6.936   6.373   0.495
 8124SOL    HW125271   7.000   6.446   0.518
 8124SOL    HW225272   6.977   6.313   0.427
 8125SOL     OW25273   1.357   0.162   3.025
 8125SOL    HW125274   1.300   0.153   3.106
 8125SOL    HW225275   1.437   0.101   3.033
 8126SOL     OW25276   5.982   4.401   2.291
 8126SOL    HW125277   6.015   4.487   2.251
 8126SOL    HW225278   5.924   4.421   2.370
 8127SOL     OW25279   3.016   5.629   0.299
 8127SOL    HW125280   3.042   5.536   0.325
 8127SOL    HW225281   2.989   5.680   0.381
 8128SOL     OW25282   3.125   3.110   1.293
 8128SOL    HW125283   3.140   3.149   1.202
 8128SOL    HW225284   3.209   3.066   1.325
 8129SOL     OW25285   4.291   0.847   5.852
 8129SOL    HW125286   4.309   0.774   5.918
 8129SOL    HW225287   4.288   0.935   5.898
 8130SOL     OW25288   0.179   4.618   6.440
 8130SOL    HW125289   0.107   4.550   6.452
 8130SOL    HW225290   0.203   4.656   6.530
 8131SOL     OW25291   3.526   0.961   0.947
 8131SOL    HW125292   3.537   0.993   0.853
 8131SOL    HW225293   3.440   0.910   0.955
 8132SOL     OW25294   5.194   5.949   6.354
 8132SOL    HW125295   5.261   6.020   6.329
 8132SOL    HW225296   5.241   5.862   6.366
 8133SOL     OW25297   3.329   4.965   1.776
 8133SOL    HW125298   3.389   4.980   1.855
 8133SOL    HW225299   3.333   4.869   1.749
 8134SOL     OW25300   1.017   1.881   4.636
 8134SOL    HW125301   0.930   1.896   4.684
 8134SOL    HW225302   1.093   1.890   4.700
 8135SOL     OW25303   2.000   6.213   0.875
 8135SOL    HW125304   2.088   6.255   0.898
 8135SOL    HW225305   1.927   6.258   0.927
 8136SOL     OW25306   5.000   4.589   2.734
 8136SOL    HW125307   4.902   4.607   2.721
 8136SOL    HW225308   5.038   4.655   2.799
 8137SOL     OW25309   2.642   1.406   4.315
 8137SOL    HW125310   2.577   1.398   4.240
 8137SOL    HW225311   2.734   1.381   4.283
 8138SOL     OW25312   5.924   2.364   0.474
 8138SOL    HW125313   5.834   2.406   0.461
 8138SOL    HW225314   5.920   2.268   0.447
 8139SOL     OW25315   1.797   2.040   4.064
 8139SOL    HW125316   1.830   1.993   4.145
 8139SOL    HW225317   1.857   2.020   3.986
 8140SOL     OW25318   4.254   6.673   0.014
 8140SOL    HW125319   4.167   6.706   0.051
 8140SOL    HW225320   4.240   6.640   6.942
 8141SOL     OW25321   4.148   6.881   5.475
 8141SOL    HW125322   4.101   6.813   5.531
 8141SOL    HW225323   4.232   6.910   5.521
 8142SOL     OW25324   2.004   5.294   0.084
 8142SOL    HW125325   2.073   5.359   0.114
 8142SOL    HW225326   1.914   5.322   0.118
 8143SOL     OW25327   5.733   5.218   0.340
 8143SOL    HW125328   5.750   5.173   0.428
 8143SOL    HW225329   5.730   5.149   0.268
 8144SOL     OW25330   0.710   6.182   5.813
 8144SOL    HW125331   0.723   6.083   5.801
 8144SOL    HW225332   0.653   6.198   5.894
 8145SOL     OW25333   5.705   5.663   0.776
 8145SOL    HW125334   5.679   5.692   0.684
 8145SOL    HW225335   5.632   5.607   0.815
 8146SOL     OW25336   5.252   0.010   5.163
 8146SOL    HW125337   5.275   0.001   5.066
 8146SOL    HW225338   5.235   6.941   5.202
 8147SOL     OW25339   6.231   0.895   1.149
 8147SOL    HW125340   6.304   0.859   1.206
 8147SOL    HW225341   6.271   0.946   1.072
 8148SOL     OW25342   5.268   5.008   0.056
 8148SOL    HW125343   5.284   4.922   0.008
 8148SOL    HW225344   5.179   5.045   0.030
 8149SOL     OW25345   1.315   6.709   3.346
 8149SOL    HW125346   1.347   6.736   3.436
 8149SOL    HW225347   1.298   6.611   3.344
 8150SOL     OW25348   1.668   4.372   0.899
 8150SOL    HW125349   1.704   4.446   0.842
 8150SOL    HW225350   1.568   4.371   0.894
 8151SOL     OW25351   5.920   5.537   3.347
 8151SOL    HW125352   6.002   5.571   3.302
 8151SOL    HW225353   5.848   5.523   3.279
 8152SOL     OW25354   6.018   3.161   3.193
 8152SOL    HW125355   6.003   3.173   3.095
 8152SOL    HW225356   6.073   3.079   3.208
 8153SOL     OW25357   1.254   1.480   3.753
 8153SOL    HW125358   1.240   1.488   3.654
 8153SOL    HW225359   1.350   1.494   3.774
 8154SOL     OW25360   3.644   6.196   2.812
 8154SOL    HW125361   3.604   6.266   2.753
 8154SOL    HW225362   3.721   6.236   2.863
 8155SOL     OW25363   1.581   3.678   1.942
 8155SOL    HW125364   1.680   3.673   1.953
 8155SOL    HW225365   1.553   3.774   1.933
 8156SOL     OW25366   4.355   6.296   0.508
 8156SOL    HW125367   4.310   6.290   0.418
 8156SOL    HW225368   4.377   6.391   0.528
 8157SOL     OW25369   6.183   4.149   6.598
 8157SOL    HW125370   6.108   4.189   6.544
 8157SOL    HW225371   6.148   4.122   6.688
 8158SOL     OW25372   5.034   3.974   0.243
 8158SOL    HW125373   5.110   3.911   0.228
 8158SOL    HW225374   4.955   3.922   0.276
 8159SOL     OW25375   2.558   5.530   3.647
 8159SOL    HW125376   2.535   5.584   3.566
 8159SOL    HW225377   2.601   5.444   3.619
 8160SOL     OW25378   5.178   0.382   3.960
 8160SOL    HW125379   5.120   0.314   3.915
 8160SOL    HW225380   5.130   0.470   3.963
 8161SOL     OW25381   5.528   2.969   5.961
 8161SOL    HW125382   5.533   2.949   6.058
 8161SOL    HW225383   5.620   2.983   5.924
 8162SOL     OW25384   6.540   6.396   6.897
 8162SOL    HW125385   6.463   6.357   6.846
 8162SOL    HW225386   6.507   6.430   6.986
 8163SOL     OW25387   2.345   4.695   5.291
 8163SOL    HW125388   2.441   4.713   5.270
 8163SOL    HW225389   2.288   4.767   5.252
 8164SOL     OW25390   4.761   1.752   0.756
 8164SOL    HW125391   4.671   1.782   0.788
 8164SOL    HW225392   4.751   1.669   0.701
 8165SOL     OW25393   6.823   3.864   5.662
 8165SOL    HW125394   6.729   3.898   5.668
 8165SOL    HW225395   6.843   3.811   5.745
 8166SOL     OW25396   1.297   0.433   3.404
 8166SOL    HW125397   1.376   0.384   3.367
 8166SOL    HW225398   1.253   0.376   3.474
 8167SOL     OW25399   0.114   0.997   3.575
 8167SOL    HW125400   0.015   0.992   3.559
 8167SOL    HW225401   0.131   1.023   3.670
 8168SOL     OW25402   2.638   0.921   1.640
 8168SOL    HW125403   2.646   0.894   1.544
 8168SOL    HW225404   2.699   0.865   1.696
 8169SOL     OW25405   4.626   2.251   0.275
 8169SOL    HW125406   4.719   2.244   0.311
 8169SOL    HW225407   4.565   2.190   0.325
 8170SOL     OW25408   1.489   5.510   1.657
 8170SOL    HW125409   1.503   5.598   1.612
 8170SOL    HW225410   1.392   5.485   1.652
 8171SOL     OW25411   1.370   1.725   0.048
 8171SOL    HW125412   1.349   1.817   0.014
 8171SOL    HW225413   1.433   1.731   0.125
 8172SOL     OW25414   0.009   2.087   2.305
 8172SOL    HW125415   7.008   2.003   2.256
 8172SOL    HW225416   6.983   2.088   2.393
 8173SOL     OW25417   5.591   2.050   1.986
 8173SOL    HW125418   5.558   2.014   2.073
 8173SOL    HW225419   5.562   1.991   1.911
 8174SOL     OW25420   6.918   0.284   2.291
 8174SOL    HW125421   6.897   0.342   2.213
 8174SOL    HW225422   7.007   0.242   2.278
 8175SOL     OW25423   0.042   3.599   5.251
 8175SOL    HW125424   0.037   3.693   5.284
 8175SOL    HW225425   0.102   3.595   5.171
 8176SOL     OW25426   2.526   4.725   1.555
 8176SOL    HW125427   2.584   4.651   1.520
 8176SOL    HW225428   2.543   4.808   1.503
 8177SOL     OW25429   4.352   0.379   3.919
 8177SOL    HW125430   4.355   0.415   3.826
 8177SOL    HW225431   4.291   0.436   3.975
 8178SOL     OW25432   3.330   6.827   0.374
 8178SOL    HW125433   3.429   6.816   0.383
 8178SOL    HW225434   3.297   6.894   0.441
 8179SOL     OW25435   5.198   1.311   4.787
 8179SOL    HW125436   5.218   1.240   4.854
 8179SOL    HW225437   5.266   1.384   4.795
 8180SOL     OW25438   6.188   0.973   5.812
 8180SOL    HW125439   6.186   0.979   5.712
 8180SOL    HW225440   6.283   0.963   5.842
 8181SOL     OW25441   1.094   1.676   0.538
 8181SOL    HW125442   1.067   1.745   0.470
 8181SOL    HW225443   1.013   1.629   0.571
 8182SOL     OW25444   3.134   3.316   5.813
 8182SOL    HW125445   3.182   3.234   5.782
 8182SOL    HW225446   3.114   3.375   5.735
 8183SOL     OW25447   6.697   2.344   4.905
 8183SOL    HW125448   6.670   2.437   4.930
 8183SOL    HW225449   6.732   2.297   4.985
 8184SOL     OW25450   6.991   0.135   0.670
 8184SOL    HW125451   0.041   0.188   0.624
 8184SOL    HW225452   0.002   0.043   0.688
 8185SOL     OW25453   1.763   0.473   6.789
 8185SOL    HW125454   1.738   0.418   6.869
 8185SOL    HW225455   1.815   0.416   6.725
 8186SOL     OW25456   3.325   4.670   5.460
 8186SOL    HW125457   3.232   4.692   5.430
 8186SOL    HW225458   3.379   4.754   5.465
 8187SOL     OW25459   2.225   1.345   4.997
 8187SOL    HW125460   2.306   1.381   4.952
 8187SOL    HW225461   2.165   1.302   4.929
 8188SOL     OW25462   4.861   3.375   3.515
 8188SOL    HW125463   4.888   3.465   3.548
 8188SOL    HW225464   4.787   3.339   3.572
 8189SOL     OW25465   5.225   5.452   3.031
 8189SOL    HW125466   5.255   5.428   3.123
 8189SOL    HW225467   5.219   5.551   3.022
 8190SOL     OW25468   4.917   4.042   4.429
 8190SOL    HW125469   4.934   3.955   4.474
 8190SOL    HW225470   4.871   4.026   4.342
 8191SOL     OW25471   3.896   5.839   1.841
 8191SOL    HW125472   3.842   5.901   1.898
 8191SOL    HW225473   3.875   5.856   1.744
 8192SOL     OW25474   2.905   5.419   1.368
 8192SOL    HW125475   2.863   5.504   1.336
 8192SOL    HW225476   2.977   5.391   1.306
 8193SOL     OW25477   5.841   5.465   5.816
 8193SOL    HW125478   5.756   5.518   5.812
 8193SOL    HW225479   5.862   5.429   5.725
 8194SOL     OW25480   4.661   1.459   0.859
 8194SOL    HW125481   4.720   1.469   0.938
 8194SOL    HW225482   4.665   1.364   0.826
 8195SOL     OW25483   0.698   6.655   3.175
 8195SOL    HW125484   0.703   6.742   3.226
 8195SOL    HW225485   0.626   6.598   3.214
 8196SOL     OW25486   4.284   6.057   6.751
 8196SOL    HW125487   4.228   5.982   6.715
 8196SOL    HW225488   4.372   6.021   6.783
 8197SOL     OW25489   4.143   1.499   0.543
 8197SOL    HW125490   4.094   1.413   0.530
 8197SOL    HW225491   4.233   1.480   0.582
 8198SOL     OW25492   3.361   6.394   2.879
 8198SOL    HW125493   3.332   6.302   2.906
 8198SOL    HW225494   3.452   6.389   2.836
 8199SOL     OW25495   5.731   2.505   6.270
 8199SOL    HW125496   5.773   2.544   6.352
 8199SOL    HW225497   5.654   2.447   6.297
 8200SOL     OW25498   5.797   4.903   2.112
 8200SOL    HW125499   5.722   4.900   2.047
 8200SOL    HW225500   5.879   4.939   2.066
 8201SOL     OW25501   5.622   0.689   4.301
 8201SOL    HW125502   5.553   0.726   4.364
 8201SOL    HW225503   5.703   0.661   4.354
 8202SOL     OW25504   7.021   5.790   4.057
 8202SOL    HW125505   0.054   5.736   4.121
 8202SOL    HW225506   0.051   5.869   4.027
 8203SOL     OW25507   3.130   2.222   0.080
 8203SOL    HW125508   3.178   2.310   0.081
 8203SOL    HW225509   3.116   2.192   7.007
 8204SOL     OW25510   3.658   4.805   0.094
 8204SOL    HW125511   3.673   4.898   0.059
 8204SOL    HW225512   3.644   4.743   0.018
 8205SOL     OW25513   0.449   4.520   0.606
 8205SOL    HW125514   0.537   4.495   0.646
 8205SOL    HW225515   0.431   4.617   0.623
 8206SOL     OW25516   5.308   2.056   6.496
 8206SOL    HW125517   5.319   2.029   6.592
 8206SOL    HW225518   5.214   2.083   6.479
 8207SOL     OW25519   2.937   3.443   4.486
 8207SOL    HW125520   3.002   3.452   4.410
 8207SOL    HW225521   2.918   3.346   4.503
 8208SOL     OW25522   1.338   0.188   1.426
 8208SOL    HW125523   1.241   0.170   1.446
 8208SOL    HW225524   1.368   0.127   1.352
 8209SOL     OW25525   0.691   1.195   4.733
 8209SOL    HW125526   0.781   1.152   4.736
 8209SOL    HW225527   0.684   1.252   4.651
 8210SOL     OW25528   1.976   1.022   1.452
 8210SOL    HW125529   2.021   0.968   1.381
 8210SOL    HW225530   1.889   0.978   1.477
 8211SOL     OW25531   3.798   4.207   1.642
 8211SOL    HW125532   3.835   4.132   1.697
 8211SOL    HW225533   3.733   4.260   1.697
 8212SOL     OW25534   2.218   2.129   2.005
 8212SOL    HW125535   2.292   2.065   1.984
 8212SOL    HW225536   2.243   2.220   1.973
 8213SOL     OW25537   6.564   4.286   1.920
 8213SOL    HW125538   6.574   4.244   1.829
 8213SOL    HW225539   6.638   4.255   1.979
 8214SOL     OW25540   5.696   5.627   4.419
 8214SOL    HW125541   5.784   5.648   4.375
 8214SOL    HW225542   5.636   5.582   4.353
 8215SOL     OW25543   2.754   5.158   5.958
 8215SOL    HW125544   2.716   5.171   6.049
 8215SOL    HW225545   2.745   5.244   5.906
 8216SOL     OW25546   5.443   4.975   3.879
 8216SOL    HW125547   5.371   5.036   3.846
 8216SOL    HW225548   5.403   4.890   3.913
 8217SOL     OW25549   1.610   3.925   0.244
 8217SOL    HW125550   1.556   3.902   0.163
 8217SOL    HW225551   1.699   3.882   0.238
 8218SOL     OW25552   0.294   6.725   5.774
 8218SOL    HW125553   0.298   6.793   5.847
 8218SOL    HW225554   0.383   6.678   5.767
 8219SOL     OW25555   4.350   2.758   0.639
 8219SOL    HW125556   4.283   2.692   0.674
 8219SOL    HW225557   4.404   2.795   0.715
 8220SOL     OW25558   3.346   2.899   3.690
 8220SOL    HW125559   3.348   2.898   3.790
 8220SOL    HW225560   3.256   2.928   3.658
 8221SOL     OW25561   5.905   6.705   3.731
 8221SOL    HW125562   5.810   6.679   3.749
 8221SOL    HW225563   5.962   6.623   3.730
 8222SOL     OW25564   6.164   1.461   1.112
 8222SOL    HW125565   6.120   1.374   1.132
 8222SOL    HW225566   6.248   1.470   1.165
 8223SOL     OW25567   0.405   4.624   5.244
 8223SOL    HW125568   0.376   4.575   5.326
 8223SOL    HW225569   0.426   4.558   5.172
 8224SOL     OW25570   5.815   1.091   2.472
 8224SOL    HW125571   5.725   1.118   2.437
 8224SOL    HW225572   5.816   0.992   2.488
 8225SOL     OW25573   3.114   1.557   1.084
 8225SOL    HW125574   3.023   1.567   1.043
 8225SOL    HW225575   3.164   1.643   1.077
 8226SOL     OW25576   3.929   0.289   0.360
 8226SOL    HW125577   3.968   0.377   0.335
 8226SOL    HW225578   3.849   0.271   0.303
 8227SOL     OW25579   6.679   1.057   2.615
 8227SOL    HW125580   6.722   1.060   2.525
 8227SOL    HW225581   6.730   1.117   2.678
 8228SOL     OW25582   6.793   1.798   5.606
 8228SOL    HW125583   6.831   1.717   5.651
 8228SOL    HW225584   6.800   1.788   5.507
 8229SOL     OW25585   5.012   2.796   0.582
 8229SOL    HW125586   4.914   2.813   0.598
 8229SOL    HW225587   5.049   2.743   0.658
 8230SOL     OW25588   3.528   0.005   5.355
 8230SOL    HW125589   3.516   0.103   5.339
 8230SOL    HW225590   3.613   7.013   5.406
 8231SOL     OW25591   3.187   3.973   0.841
 8231SOL    HW125592   3.101   3.946   0.885
 8231SOL    HW225593   3.261   3.916   0.876
 8232SOL     OW25594   4.722   1.569   1.546
 8232SOL    HW125595   4.781   1.491   1.525
 8232SOL    HW225596   4.715   1.628   1.465
 8233SOL     OW25597   1.301   6.102   6.186
 8233SOL    HW125598   1.315   6.008   6.156
 8233SOL    HW225599   1.254   6.153   6.114
 8234SOL     OW25600   2.803   3.987   6.741
 8234SOL    HW125601   2.742   3.935   6.801
 8234SOL    HW225602   2.866   3.925   6.695
 8235SOL     OW25603   0.223   2.834   0.061
 8235SOL    HW125604   0.166   2.909   0.095
 8235SOL    HW225605   0.276   2.796   0.137
 8236SOL     OW25606   0.401   4.794   0.699
 8236SOL    HW125607   0.304   4.813   0.683
 8236SOL    HW225608   0.448   4.879   0.726
 8237SOL     OW25609   4.039   6.277   4.505
 8237SOL    HW125610   3.971   6.292   4.434
 8237SOL    HW225611   4.027   6.185   4.543
 8238SOL     OW25612   0.601   5.522   6.214
 8238SOL    HW125613   0.618   5.447   6.150
 8238SOL    HW225614   0.677   5.530   6.278
 8239SOL     OW25615   6.851   0.830   5.718
 8239SOL    HW125616   6.847   0.874   5.808
 8239SOL    HW225617   6.851   0.900   5.647
 8240SOL     OW25618   3.113   4.040   2.152
 8240SOL    HW125619   3.088   3.982   2.229
 8240SOL    HW225620   3.161   4.122   2.186
 8241SOL     OW25621   3.815   6.323   5.783
 8241SOL    HW125622   3.776   6.372   5.860
 8241SOL    HW225623   3.870   6.385   5.727
 8242SOL     OW25624   0.529   4.587   6.390
 8242SOL    HW125625   0.538   4.490   6.414
 8242SOL    HW225626   0.460   4.597   6.319
 8243SOL     OW25627   0.225   2.734   0.391
 8243SOL    HW125628   0.235   2.635   0.394
 8243SOL    HW225629   0.315   2.777   0.381
 8244SOL     OW25630   0.232   0.712   4.424
 8244SOL    HW125631   0.311   0.722   4.484
 8244SOL    HW225632   0.247   0.763   4.339
 8245SOL     OW25633   4.089   1.756   2.098
 8245SOL    HW125634   4.141   1.800   2.170
 8245SOL    HW225635   4.024   1.820   2.059
 8246SOL     OW25636   1.382   3.320   5.874
 8246SOL    HW125637   1.322   3.273   5.939
 8246SOL    HW225638   1.332   3.335   5.788
 8247SOL     OW25639   1.897   0.345   2.590
 8247SOL    HW125640   1.821   0.410   2.597
 8247SOL    HW225641   1.898   0.304   2.499
 8248SOL     OW25642   6.651   5.463   4.745
 8248SOL    HW125643   6.669   5.370   4.711
 8248SOL    HW225644   6.637   5.460   4.844
 8249SOL     OW25645   1.816   2.608   5.886
 8249SOL    HW125646   1.726   2.651   5.884
 8249SOL    HW225647   1.810   2.514   5.854
 8250SOL     OW25648   3.000   3.810   1.512
 8250SOL    HW125649   3.056   3.881   1.468
 8250SOL    HW225650   3.059   3.745   1.559
 8251SOL     OW25651   4.892   3.480   4.150
 8251SOL    HW125652   4.821   3.410   4.135
 8251SOL    HW225653   4.981   3.435   4.159
 8252SOL     OW25654   3.070   1.645   5.269
 8252SOL    HW125655   3.040   1.727   5.317
 8252SOL    HW225656   3.120   1.585   5.333
 8253SOL     OW25657   4.167   5.189   5.848
 8253SOL    HW125658   4.252   5.241   5.842
 8253SOL    HW225659   4.171   5.111   5.787
 8254SOL     OW25660   4.575   4.468   5.231
 8254SOL    HW125661   4.652   4.405   5.230
 8254SOL    HW225662   4.493   4.421   5.197
 8255SOL     OW25663   1.750   0.167   5.452
 8255SOL    HW125664   1.672   0.108   5.430
 8255SOL    HW225665   1.748   0.248   5.392
 8256SOL     OW25666   6.473   6.567   1.821
 8256SOL    HW125667   6.534   6.598   1.894
 8256SOL    HW225668   6.426   6.646   1.781
 8257SOL     OW25669   5.298   4.600   3.077
 8257SOL    HW125670   5.308   4.581   3.174
 8257SOL    HW225671   5.318   4.517   3.024
 8258SOL     OW25672   5.421   2.136   0.808
 8258SOL    HW125673   5.470   2.213   0.766
 8258SOL    HW225674   5.338   2.170   0.853
 8259SOL     OW25675   3.764   1.667   4.273
 8259SOL    HW125676   3.696   1.649   4.344
 8259SOL    HW225677   3.816   1.584   4.255
 8260SOL     OW25678   2.174   6.941   1.044
 8260SOL    HW125679   2.126   6.865   1.000
 8260SOL    HW225680   2.273   6.926   1.038
 8261SOL     OW25681   6.094   6.737   1.762
 8261SOL    HW125682   6.116   6.774   1.853
 8261SOL    HW225683   6.040   6.803   1.711
 8262SOL     OW25684   1.102   2.940   0.326
 8262SOL    HW125685   1.087   3.016   0.390
 8262SOL    HW225686   1.041   2.951   0.248
 8263SOL     OW25687   0.387   2.808   6.195
 8263SOL    HW125688   0.485   2.822   6.178
 8263SOL    HW225689   0.338   2.894   6.178
 8264SOL     OW25690   2.221   6.240   2.063
 8264SOL    HW125691   2.195   6.206   2.153
 8264SOL    HW225692   2.192   6.335   2.053
 8265SOL     OW25693   6.465   0.944   0.918
 8265SOL    HW125694   6.425   0.853   0.910
 8265SOL    HW225695   6.457   0.993   0.831
 8266SOL     OW25696   2.187   1.436   3.961
 8266SOL    HW125697   2.272   1.483   3.938
 8266SOL    HW225698   2.109   1.491   3.931
 8267SOL     OW25699   2.083   3.492   0.988
 8267SOL    HW125700   2.133   3.568   1.030
 8267SOL    HW225701   1.987   3.498   1.013
 8268SOL     OW25702   1.891   6.391   5.761
 8268SOL    HW125703   1.906   6.411   5.664
 8268SOL    HW225704   1.971   6.345   5.798
 8269SOL     OW25705   4.682   0.993   2.209
 8269SOL    HW125706   4.673   1.071   2.272
 8269SOL    HW225707   4.663   0.908   2.259
 8270SOL     OW25708   3.006   6.431   5.063
 8270SOL    HW125709   2.978   6.403   5.155
 8270SOL    HW225710   2.997   6.531   5.055
 8271SOL     OW25711   0.213   0.447   3.827
 8271SOL    HW125712   0.303   0.408   3.846
 8271SOL    HW225713   0.152   0.376   3.791
 8272SOL     OW25714   6.285   2.226   2.709
 8272SOL    HW125715   6.244   2.297   2.652
 8272SOL    HW225716   6.222   2.202   2.783
 8273SOL     OW25717   2.719   1.194   0.659
 8273SOL    HW125718   2.704   1.213   0.756
 8273SOL    HW225719   2.715   1.096   0.643
 8274SOL     OW25720   4.649   4.737   4.016
 8274SOL    HW125721   4.634   4.783   4.104
 8274SOL    HW225722   4.573   4.675   3.998
 8275SOL     OW25723   5.918   1.010   4.936
 8275SOL    HW125724   5.913   0.915   4.903
 8275SOL    HW225725   5.996   1.056   4.894
 8276SOL     OW25726   0.830   2.641   4.340
 8276SOL    HW125727   0.860   2.728   4.377
 8276SOL    HW225728   0.735   2.625   4.366
 8277SOL     OW25729   0.370   5.928   6.641
 8277SOL    HW125730   0.466   5.954   6.650
 8277SOL    HW225731   0.331   5.971   6.560
 8278SOL     OW25732   3.217   1.396   6.274
 8278SOL    HW125733   3.132   1.344   6.283
 8278SOL    HW225734   3.241   1.404   6.177
 8279SOL     OW25735   1.105   6.181   4.677
 8279SOL    HW125736   1.116   6.271   4.634
 8279SOL    HW225737   1.166   6.175   4.756
 8280SOL     OW25738   2.130   3.109   0.214
 8280SOL    HW125739   2.168   3.195   0.179
 8280SOL    HW225740   2.100   3.053   0.138
 8281SOL     OW25741   2.934   4.093   1.790
 8281SOL    HW125742   2.946   4.113   1.887
 8281SOL    HW225743   2.957   4.174   1.736
 8282SOL     OW25744   4.768   3.340   0.013
 8282SOL    HW125745   4.723   3.307   0.096
 8282SOL    HW225746   4.853   3.388   0.038
 8283SOL     OW25747   1.738   5.342   5.520
 8283SOL    HW125748   1.785   5.265   5.563
 8283SOL    HW225749   1.777   5.428   5.555
 8284SOL     OW25750   1.020   3.740   1.771
 8284SOL    HW125751   1.076   3.819   1.748
 8284SOL    HW225752   1.080   3.660   1.785
 8285SOL     OW25753   3.139   4.043   5.480
 8285SOL    HW125754   3.106   4.123   5.430
 8285SOL    HW225755   3.123   3.961   5.424
 8286SOL     OW25756   5.494   1.668   5.468
 8286SOL    HW125757   5.562   1.654   5.539
 8286SOL    HW225758   5.535   1.717   5.391
 8287SOL     OW25759   1.237   4.940   4.102
 8287SOL    HW125760   1.282   5.010   4.157
 8287SOL    HW225761   1.251   4.959   4.005
 8288SOL     OW25762   3.138   2.132   1.980
 8288SOL    HW125763   3.180   2.106   2.066
 8288SOL    HW225764   3.059   2.191   1.998
 8289SOL     OW25765   0.685   6.028   0.243
 8289SOL    HW125766   0.629   6.011   0.162
 8289SOL    HW225767   0.773   5.981   0.233
 8290SOL     OW25768   5.137   1.515   0.805
 8290SOL    HW125769   5.197   1.595   0.805
 8290SOL    HW225770   5.061   1.530   0.741
 8291SOL     OW25771   4.467   6.093   4.798
 8291SOL    HW125772   4.536   6.163   4.815
 8291SOL    HW225773   4.390   6.106   4.860
 8292SOL     OW25774   3.264   6.812   6.845
 8292SOL    HW125775   3.309   6.725   6.867
 8292SOL    HW225776   3.294   6.882   6.910
 8293SOL     OW25777   2.430   5.501   0.498
 8293SOL    HW125778   2.395   5.594   0.510
 8293SOL    HW225779   2.490   5.499   0.418
 8294SOL     OW25780   5.706   3.850   5.391
 8294SOL    HW125781   5.731   3.914   5.464
 8294SOL    HW225782   5.698   3.758   5.429
 8295SOL     OW25783   4.991   5.272   1.703
 8295SOL    HW125784   4.933   5.217   1.764
 8295SOL    HW225785   5.034   5.345   1.755
 8296SOL     OW25786   1.922   4.507   6.665
 8296SOL    HW125787   1.842   4.484   6.609
 8296SOL    HW225788   2.005   4.495   6.612
 8297SOL     OW25789   0.187   3.299   2.710
 8297SOL    HW125790   0.179   3.398   2.713
 8297SOL    HW225791   0.096   3.258   2.705
 8298SOL     OW25792   6.060   1.512   0.831
 8298SOL    HW125793   6.062   1.532   0.929
 8298SOL    HW225794   5.999   1.434   0.814
 8299SOL     OW25795   0.593   2.485   2.385
 8299SOL    HW125796   0.499   2.513   2.368
 8299SOL    HW225797   0.644   2.487   2.299
 8300SOL     OW25798   0.085   5.558   4.235
 8300SOL    HW125799   0.011   5.511   4.284
 8300SOL    HW225800   0.117   5.635   4.289
 8301SOL     OW25801   3.848   1.581   0.884
 8301SOL    HW125802   3.770   1.560   0.825
 8301SOL    HW225803   3.911   1.503   0.886
 8302SOL     OW25804   5.566   6.765   6.701
 8302SOL    HW125805   5.659   6.773   6.663
 8302SOL    HW225806   5.562   6.816   6.787
 8303SOL     OW25807   6.031   0.647   3.616
 8303SOL    HW125808   6.102   0.718   3.615
 8303SOL    HW225809   5.983   0.649   3.704
 8304SOL     OW25810   6.196   3.348   1.412
 8304SOL    HW125811   6.166   3.257   1.441
 8304SOL    HW225812   6.197   3.353   1.312
 8305SOL     OW25813   4.718   4.834   3.766
 8305SOL    HW125814   4.685   4.749   3.725
 8305SOL    HW225815   4.683   4.842   3.859
 8306SOL     OW25816   5.372   1.275   5.394
 8306SOL    HW125817   5.320   1.201   5.438
 8306SOL    HW225818   5.395   1.344   5.463
 8307SOL     OW25819   3.679   5.275   1.449
 8307SOL    HW125820   3.604   5.210   1.463
 8307SOL    HW225821   3.764   5.234   1.481
 8308SOL     OW25822   3.058   5.333   1.161
 8308SOL    HW125823   3.049   5.234   1.158
 8308SOL    HW225824   3.021   5.373   1.077
 8309SOL     OW25825   6.656   5.678   4.079
 8309SOL    HW125826   6.741   5.636   4.046
 8309SOL    HW225827   6.655   5.681   4.179
 8310SOL     OW25828   0.293   5.584   1.127
 8310SOL    HW125829   0.238   5.506   1.157
 8310SOL    HW225830   0.294   5.587   1.027
 8311SOL     OW25831   0.905   2.220   4.975
 8311SOL    HW125832   0.927   2.230   4.878
 8311SOL    HW225833   0.988   2.195   5.025
 8312SOL     OW25834   5.102   0.409   6.985
 8312SOL    HW125835   5.076   0.322   6.941
 8312SOL    HW225836   5.120   0.477   6.914
 8313SOL     OW25837   5.243   6.738   0.297
 8313SOL    HW125838   5.238   6.656   0.355
 8313SOL    HW225839   5.310   6.724   0.224
 8314SOL     OW25840   4.865   0.526   6.821
 8314SOL    HW125841   4.821   0.456   6.877
 8314SOL    HW225842   4.888   0.605   6.878
 8315SOL     OW25843   4.738   3.068   0.942
 8315SOL    HW125844   4.821   3.120   0.923
 8315SOL    HW225845   4.739   2.983   0.890
 8316SOL     OW25846   1.270   1.951   1.754
 8316SOL    HW125847   1.297   1.889   1.828
 8316SOL    HW225848   1.341   1.951   1.683
 8317SOL     OW25849   1.778   2.835   2.479
 8317SOL    HW125850   1.735   2.903   2.538
 8317SOL    HW225851   1.725   2.825   2.395
 8318SOL     OW25852   4.242   1.578   5.909
 8318SOL    HW125853   4.315   1.629   5.863
 8318SOL    HW225854   4.203   1.634   5.982
 8319SOL     OW25855   1.488   1.988   0.828
 8319SOL    HW125856   1.489   2.087   0.843
 8319SOL    HW225857   1.431   1.967   0.748
 8320SOL     OW25858   3.103   3.447   2.420
 8320SOL    HW125859   3.059   3.377   2.477
 8320SOL    HW225860   3.202   3.445   2.436
 8321SOL     OW25861   0.014   0.142   6.447
 8321SOL    HW125862   0.036   0.061   6.501
 8321SOL    HW225863   0.087   0.158   6.380
 8322SOL     OW25864   6.637   0.513   1.119
 8322SOL    HW125865   6.617   0.417   1.135
 8322SOL    HW225866   6.649   0.529   1.021
 8323SOL     OW25867   5.536   5.902   2.169
 8323SOL    HW125868   5.503   5.988   2.129
 8323SOL    HW225869   5.470   5.869   2.236
 8324SOL     OW25870   5.923   6.680   1.245
 8324SOL    HW125871   5.935   6.627   1.329
 8324SOL    HW225872   5.852   6.638   1.188
 8325SOL     OW25873   1.988   3.782   5.233
 8325SOL    HW125874   1.893   3.785   5.202
 8325SOL    HW225875   2.048   3.797   5.154
 8326SOL     OW25876   5.191   3.143   5.744
 8326SOL    HW125877   5.141   3.227   5.766
 8326SOL    HW225878   5.181   3.123   5.646
 8327SOL     OW25879   6.581   0.775   5.847
 8327SOL    HW125880   6.526   0.848   5.886
 8327SOL    HW225881   6.642   0.738   5.917
 8328SOL     OW25882   2.860   6.415   6.214
 8328SOL    HW125883   2.937   6.400   6.152
 8328SOL    HW225884   2.783   6.452   6.163
 8329SOL     OW25885   1.526   3.019   5.942
 8329SOL    HW125886   1.598   3.088   5.934
 8329SOL    HW225887   1.438   3.064   5.953
 8330SOL     OW25888   2.639   1.383   6.656
 8330SOL    HW125889   2.561   1.417   6.708
 8330SOL    HW225890   2.720   1.380   6.714
 8331SOL     OW25891   3.164   0.824   1.085
 8331SOL    HW125892   3.121   0.846   0.997
 8331SOL    HW225893   3.129   0.886   1.155
 8332SOL     OW25894   5.119   5.526   2.323
 8332SOL    HW125895   5.083   5.615   2.352
 8332SOL    HW225896   5.135   5.528   2.224
 8333SOL     OW25897   0.150   5.684   6.065
 8333SOL    HW125898   0.216   5.642   6.128
 8333SOL    HW225899   0.090   5.746   6.115
 8334SOL     OW25900   3.874   0.916   4.472
 8334SOL    HW125901   3.932   0.835   4.476
 8334SOL    HW225902   3.931   0.998   4.469
 8335SOL     OW25903   5.177   0.184   0.260
 8335SOL    HW125904   5.205   0.155   0.352
 8335SOL    HW225905   5.186   0.283   0.252
 8336SOL     OW25906   0.466   4.799   3.035
 8336SOL    HW125907   0.563   4.813   3.053
 8336SOL    HW225908   0.427   4.739   3.105
 8337SOL     OW25909   2.038   6.581   2.879
 8337SOL    HW125910   1.984   6.533   2.810
 8337SOL    HW225911   1.987   6.583   2.965
 8338SOL     OW25912   3.711   5.457   2.007
 8338SOL    HW125913   3.708   5.481   2.104
 8338SOL    HW225914   3.647   5.382   1.989
 8339SOL     OW25915   6.452   0.280   1.757
 8339SOL    HW125916   6.447   0.304   1.660
 8339SOL    HW225917   6.469   0.363   1.811
 8340SOL     OW25918   4.781   3.067   0.267
 8340SOL    HW125919   4.860   3.078   0.327
 8340SOL    HW225920   4.711   3.012   0.312
 8341SOL     OW25921   3.108   6.801   0.190
 8341SOL    HW125922   3.039   6.860   0.234
 8341SOL    HW225923   3.187   6.793   0.250
 8342SOL     OW25924   4.296   6.552   0.814
 8342SOL    HW125925   4.296   6.567   0.913
 8342SOL    HW225926   4.235   6.476   0.792
 8343SOL     OW25927   1.384   5.380   5.036
 8343SOL    HW125928   1.391   5.443   4.958
 8343SOL    HW225929   1.465   5.388   5.094
 8344SOL     OW25930   4.705   5.761   5.044
 8344SOL    HW125931   4.765   5.697   4.997
 8344SOL    HW225932   4.633   5.792   4.982
 8345SOL     OW25933   4.395   0.985   2.613
 8345SOL    HW125934   4.429   1.031   2.531
 8345SOL    HW225935   4.351   1.052   2.672
 8346SOL     OW25936   4.013   5.163   0.187
 8346SOL    HW125937   3.975   5.071   0.182
 8346SOL    HW225938   4.011   5.195   0.281
 8347SOL     OW25939   3.621   5.564   4.023
 8347SOL    HW125940   3.625   5.499   4.098
 8347SOL    HW225941   3.645   5.518   3.937
 8348SOL     OW25942   2.580   0.467   1.862
 8348SOL    HW125943   2.547   0.512   1.779
 8348SOL    HW225944   2.654   0.522   1.902
 8349SOL     OW25945   6.017   6.524   1.613
 8349SOL    HW125946   6.049   6.595   1.676
 8349SOL    HW225947   5.924   6.497   1.638
 8350SOL     OW25948   3.252   6.911   6.406
 8350SOL    HW125949   3.342   6.944   6.435
 8350SOL    HW225950   3.237   6.819   6.441
 8351SOL     OW25951   5.676   4.949   4.053
 8351SOL    HW125952   5.734   5.030   4.054
 8351SOL    HW225953   5.596   4.964   3.994
 8352SOL     OW25954   0.408   0.445   3.502
 8352SOL    HW125955   0.484   0.434   3.566
 8352SOL    HW225956   0.329   0.394   3.536
 8353SOL     OW25957   6.978   3.503   1.430
 8353SOL    HW125958   6.936   3.594   1.424
 8353SOL    HW225959   0.046   3.511   1.473
 8354SOL     OW25960   4.372   6.665   5.367
 8354SOL    HW125961   4.309   6.717   5.425
 8354SOL    HW225962   4.337   6.665   5.273
 8355SOL     OW25963   2.273   0.827   5.723
 8355SOL    HW125964   2.294   0.735   5.757
 8355SOL    HW225965   2.302   0.895   5.790
 8356SOL     OW25966   1.178   6.946   0.844
 8356SOL    HW125967   1.247   6.891   0.796
 8356SOL    HW225968   1.121   6.885   0.899
 8357SOL     OW25969   3.604   6.783   4.884
 8357SOL    HW125970   3.580   6.843   4.961
 8357SOL    HW225971   3.529   6.781   4.818
 8358SOL     OW25972   1.474   4.258   4.947
 8358SOL    HW125973   1.559   4.265   5.000
 8358SOL    HW225974   1.487   4.299   4.857
 8359SOL     OW25975   3.099   0.693   4.994
 8359SOL    HW125976   3.081   0.790   5.008
 8359SOL    HW225977   3.196   0.679   4.973
 8360SOL     OW25978   3.860   6.464   0.945
 8360SOL    HW125979   3.837   6.476   1.042
 8360SOL    HW225980   3.776   6.450   0.892
 8361SOL     OW25981   3.373   0.450   2.853
 8361SOL    HW125982   3.397   0.415   2.944
 8361SOL    HW225983   3.346   0.546   2.861
 8362SOL     OW25984   4.056   2.097   0.860
 8362SOL    HW125985   3.990   2.035   0.901
 8362SOL    HW225986   4.070   2.072   0.764
 8363SOL     OW25987   6.617   2.892   6.380
 8363SOL    HW125988   6.623   2.884   6.479
 8363SOL    HW225989   6.632   2.803   6.338
 8364SOL     OW25990   1.117   2.735   3.700
 8364SOL    HW125991   1.113   2.743   3.799
 8364SOL    HW225992   1.075   2.648   3.672
 8365SOL     OW25993   1.929   3.572   1.558
 8365SOL    HW125994   1.878   3.486   1.547
 8365SOL    HW225995   1.982   3.568   1.643
 8366SOL     OW25996   2.264   5.845   1.817
 8366SOL    HW125997   2.298   5.764   1.769
 8366SOL    HW225998   2.168   5.860   1.792
 8367SOL     OW25999   4.134   5.854   4.222
 8367SOL    HW126000   4.062   5.809   4.169
 8367SOL    HW226001   4.218   5.857   4.167
 8368SOL     OW26002   1.883   5.530   6.380
 8368SOL    HW126003   1.839   5.442   6.360
 8368SOL    HW226004   1.814   5.602   6.380
 8369SOL     OW26005   1.109   7.019   6.412
 8369SOL    HW126006   1.122   0.073   6.349
 8369SOL    HW226007   1.037   6.958   6.378
 8370SOL     OW26008   2.869   1.565   6.053
 8370SOL    HW126009   2.861   1.466   6.042
 8370SOL    HW226010   2.949   1.599   6.002
 8371SOL     OW26011   2.063   4.848   1.139
 8371SOL    HW126012   2.121   4.831   1.059
 8371SOL    HW226013   2.106   4.809   1.220
 8372SOL     OW26014   2.003   4.908   1.956
 8372SOL    HW126015   1.937   4.931   1.885
 8372SOL    HW226016   1.959   4.852   2.026
 8373SOL     OW26017   1.803   0.133   4.509
 8373SOL    HW126018   1.893   0.095   4.486
 8373SOL    HW226019   1.756   0.159   4.425
 8374SOL     OW26020   6.930   0.652   5.251
 8374SOL    HW126021   7.017   0.633   5.298
 8374SOL    HW226022   6.854   0.633   5.314
 8375SOL     OW26023   3.306   6.493   4.828
 8375SOL    HW126024   3.215   6.451   4.822
 8375SOL    HW226025   3.305   6.563   4.900
 8376SOL     OW26026   1.529   1.164   4.288
 8376SOL    HW126027   1.547   1.144   4.385
 8376SOL    HW226028   1.434   1.192   4.277
 8377SOL     OW26029   5.222   6.663   0.757
 8377SOL    HW126030   5.280   6.728   0.708
 8377SOL    HW226031   5.257   6.570   0.745
 8378SOL     OW26032   4.598   5.771   2.648
 8378SOL    HW126033   4.680   5.826   2.662
 8378SOL    HW226034   4.553   5.754   2.735
 8379SOL     OW26035   5.517   2.481   1.268
 8379SOL    HW126036   5.548   2.573   1.292
 8379SOL    HW226037   5.526   2.467   1.170
 8380SOL     OW26038   0.196   0.440   2.648
 8380SOL    HW126039   0.127   0.463   2.579
 8380SOL    HW226040   0.213   0.519   2.706
 8381SOL     OW26041   0.435   2.879   4.992
 8381SOL    HW126042   0.423   2.963   5.046
 8381SOL    HW226043   0.498   2.898   4.916
 8382SOL     OW26044   3.096   0.496   2.961
 8382SOL    HW126045   3.013   0.443   2.974
 8382SOL    HW226046   3.117   0.502   2.863
 8383SOL     OW26047   2.631   0.230   5.945
 8383SOL    HW126048   2.600   0.237   5.850
 8383SOL    HW226049   2.712   0.288   5.957
 8384SOL     OW26050   6.420   0.802   1.316
 8384SOL    HW126051   6.519   0.787   1.315
 8384SOL    HW226052   6.374   0.715   1.333
 8385SOL     OW26053   5.729   2.250   0.892
 8385SOL    HW126054   5.761   2.197   0.814
 8385SOL    HW226055   5.742   2.197   0.976
 8386SOL     OW26056   2.392   5.733   2.020
 8386SOL    HW126057   2.310   5.765   1.973
 8386SOL    HW226058   2.452   5.810   2.039
 8387SOL     OW26059   1.610   1.260   2.001
 8387SOL    HW126060   1.593   1.351   1.964
 8387SOL    HW226061   1.561   1.250   2.088
 8388SOL     OW26062   2.126   6.331   0.128
 8388SOL    HW126063   2.109   6.428   0.143
 8388SOL    HW226064   2.162   6.317   0.035
 8389SOL     OW26065   0.241   3.851   2.585
 8389SOL    HW126066   0.151   3.878   2.619
 8389SOL    HW226067   0.298   3.932   2.569
 8390SOL     OW26068   4.578   1.248   0.021
 8390SOL    HW126069   4.575   1.149   0.038
 8390SOL    HW226070   4.488   1.280   7.016
 8391SOL     OW26071   6.478   5.096   1.062
 8391SOL    HW126072   6.452   5.192   1.049
 8391SOL    HW226073   6.521   5.086   1.152
 8392SOL     OW26074   6.444   4.080   4.803
 8392SOL    HW126075   6.344   4.083   4.796
 8392SOL    HW226076   6.480   4.172   4.810
 8393SOL     OW26077   0.321   6.356   2.802
 8393SOL    HW126078   0.407   6.363   2.851
 8393SOL    HW226079   0.336   6.309   2.715
 8394SOL     OW26080   6.430   2.769   1.631
 8394SOL    HW126081   6.506   2.824   1.598
 8394SOL    HW226082   6.424   2.685   1.577
 8395SOL     OW26083   2.230   6.900   5.260
 8395SOL    HW126084   2.166   6.969   5.224
 8395SOL    HW226085   2.270   6.849   5.184
 8396SOL     OW26086   4.973   5.369   2.070
 8396SOL    HW126087   5.043   5.416   2.016
 8396SOL    HW226088   4.899   5.434   2.092
 8397SOL     OW26089   1.970   0.191   2.821
 8397SOL    HW126090   2.068   0.177   2.831
 8397SOL    HW226091   1.951   0.236   2.734
 8398SOL     OW26092   3.772   1.696   6.939
 8398SOL    HW126093   3.773   1.775   7.000
 8398SOL    HW226094   3.866   1.665   6.924
 8399SOL     OW26095   5.833   6.434   6.645
 8399SOL    HW126096   5.745   6.480   6.631
 8399SOL    HW226097   5.905   6.484   6.598
 8400SOL     OW26098   1.744   1.192   4.129
 8400SOL    HW126099   1.660   1.197   4.184
 8400SOL    HW226100   1.731   1.242   4.044
 8401SOL     OW26101   2.302   1.685   5.575
 8401SOL    HW126102   2.335   1.729   5.658
 8401SOL    HW226103   2.266   1.594   5.597
 8402SOL     OW26104   4.457   1.754   5.913
 8402SOL    HW126105   4.550   1.779   5.884
 8402SOL    HW226106   4.401   1.837   5.920
 8403SOL     OW26107   0.991   3.030   4.680
 8403SOL    HW126108   1.034   3.014   4.769
 8403SOL    HW226109   0.909   3.086   4.692
 8404SOL     OW26110   3.945   0.040   5.924
 8404SOL    HW126111   4.002   0.054   5.843
 8404SOL    HW226112   3.852   0.072   5.905
 8405SOL     OW26113   1.394   1.079   5.463
 8405SOL    HW126114   1.311   1.118   5.504
 8405SOL    HW226115   1.472   1.096   5.524
 8406SOL     OW26116   4.623   0.595   0.420
 8406SOL    HW126117   4.540   0.643   0.391
 8406SOL    HW226118   4.599   0.522   0.483
 8407SOL     OW26119   3.577   6.483   3.415
 8407SOL    HW126120   3.621   6.501   3.503
 8407SOL    HW226121   3.517   6.404   3.424
 8408SOL     OW26122   5.869   4.251   1.286
 8408SOL    HW126123   5.884   4.198   1.202
 8408SOL    HW226124   5.955   4.291   1.317
 8409SOL     OW26125   5.684   2.171   3.315
 8409SOL    HW126126   5.672   2.184   3.217
 8409SOL    HW226127   5.639   2.246   3.364
 8410SOL     OW26128   5.375   0.736   1.951
 8410SOL    HW126129   5.338   0.673   2.019
 8410SOL    HW226130   5.349   0.706   1.859
 8411SOL     OW26131   0.936   4.718   0.213
 8411SOL    HW126132   0.894   4.732   0.303
 8411SOL    HW226133   0.873   4.666   0.155
 8412SOL     OW26134   3.520   1.660   1.302
 8412SOL    HW126135   3.545   1.631   1.395
 8412SOL    HW226136   3.470   1.746   1.306
 8413SOL     OW26137   3.800   5.314   6.471
 8413SOL    HW126138   3.715   5.269   6.443
 8413SOL    HW226139   3.779   5.396   6.522
 8414SOL     OW26140   3.851   5.806   3.682
 8414SOL    HW126141   3.781   5.807   3.611
 8414SOL    HW226142   3.930   5.860   3.652
 8415SOL     OW26143   6.968   6.429   4.098
 8415SOL    HW126144   6.889   6.389   4.144
 8415SOL    HW226145   0.014   6.457   4.166
 8416SOL     OW26146   5.671   3.200   2.555
 8416SOL    HW126147   5.733   3.156   2.619
 8416SOL    HW226148   5.670   3.299   2.572
 8417SOL     OW26149   1.234   4.390   5.579
 8417SOL    HW126150   1.299   4.463   5.557
 8417SOL    HW226151   1.281   4.317   5.629
 8418SOL     OW26152   5.593   5.294   0.924
 8418SOL    HW126153   5.542   5.221   0.971
 8418SOL    HW226154   5.623   5.260   0.834
 8419SOL     OW26155   5.480   0.051   1.863
 8419SOL    HW126156   5.546   6.998   1.873
 8419SOL    HW226157   5.529   0.138   1.864
 8420SOL     OW26158   4.634   0.343   6.710
 8420SOL    HW126159   4.596   0.430   6.679
 8420SOL    HW226160   4.559   0.277   6.723
 8421SOL     OW26161   2.384   5.484   6.834
 8421SOL    HW126162   2.320   5.433   6.776
 8421SOL    HW226163   2.426   5.557   6.781
 8422SOL     OW26164   4.177   1.111   1.791
 8422SOL    HW126165   4.209   1.155   1.708
 8422SOL    HW226166   4.089   1.067   1.773
 8423SOL     OW26167   3.079   4.843   5.574
 8423SOL    HW126168   3.055   4.940   5.584
 8423SOL    HW226169   3.096   4.823   5.478
 8424SOL     OW26170   2.112   1.989   2.515
 8424SOL    HW126171   2.051   2.020   2.443
 8424SOL    HW226172   2.066   1.994   2.604
 8425SOL     OW26173   4.910   4.883   5.834
 8425SOL    HW126174   4.962   4.925   5.908
 8425SOL    HW226175   4.957   4.800   5.803
 8426SOL     OW26176   3.569   3.185   3.273
 8426SOL    HW126177   3.575   3.086   3.258
 8426SOL    HW226178   3.561   3.204   3.371
 8427SOL     OW26179   3.623   4.158   4.992
 8427SOL    HW126180   3.581   4.164   4.901
 8427SOL    HW226181   3.721   4.138   4.982
 8428SOL     OW26182   0.913   5.820   1.263
 8428SOL    HW126183   0.867   5.735   1.289
 8428SOL    HW226184   0.934   5.873   1.345
 8429SOL     OW26185   0.917   5.976   4.140
 8429SOL    HW126186   0.942   5.885   4.174
 8429SOL    HW226187   0.901   6.037   4.218
 8430SOL     OW26188   3.528   5.302   3.256
 8430SOL    HW126189   3.460   5.298   3.329
 8430SOL    HW226190   3.598   5.232   3.272
 8431SOL     OW26191   3.131   4.610   0.794
 8431SOL    HW126192   3.206   4.617   0.728
 8431SOL    HW226193   3.044   4.602   0.745
 8432SOL     OW26194   5.904   6.433   5.808
 8432SOL    HW126195   5.900   6.350   5.752
 8432SOL    HW226196   5.902   6.513   5.749
 8433SOL     OW26197   5.286   2.737   0.364
 8433SOL    HW126198   5.313   2.767   0.272
 8433SOL    HW226199   5.236   2.650   0.357
 8434SOL     OW26200   2.852   6.867   4.749
 8434SOL    HW126201   2.830   6.957   4.709
 8434SOL    HW226202   2.767   6.815   4.761
 8435SOL     OW26203   6.079   0.746   1.434
 8435SOL    HW126204   6.156   0.683   1.430
 8435SOL    HW226205   6.113   0.840   1.443
 8436SOL     OW26206   3.331   6.350   3.237
 8436SOL    HW126207   3.366   6.333   3.329
 8436SOL    HW226208   3.255   6.415   3.241
 8437SOL     OW26209   2.261   1.203   4.502
 8437SOL    HW126210   2.247   1.134   4.573
 8437SOL    HW226211   2.186   1.268   4.503
 8438SOL     OW26212   2.126   5.057   2.645
 8438SOL    HW126213   2.192   5.003   2.697
 8438SOL    HW226214   2.152   5.154   2.647
 8439SOL     OW26215   6.177   4.662   2.562
 8439SOL    HW126216   6.254   4.717   2.591
 8439SOL    HW226217   6.210   4.583   2.510
 8440SOL     OW26218   1.667   1.964   3.732
 8440SOL    HW126219   1.682   2.041   3.671
 8440SOL    HW226220   1.598   1.989   3.801
 8441SOL     OW26221   6.278   6.687   0.230
 8441SOL    HW126222   6.375   6.697   0.207
 8441SOL    HW226223   6.260   6.727   0.320
 8442SOL     OW26224   3.242   1.911   5.264
 8442SOL    HW126225   3.277   2.005   5.266
 8442SOL    HW226226   3.181   1.900   5.186
 8443SOL     OW26227   2.292   4.703   3.481
 8443SOL    HW126228   2.336   4.791   3.461
 8443SOL    HW226229   2.195   4.709   3.458
 8444SOL     OW26230   3.088   5.956   3.882
 8444SOL    HW126231   3.092   6.008   3.967
 8444SOL    HW226232   3.175   5.967   3.832
 8445SOL     OW26233   3.492   6.813   1.280
 8445SOL    HW126234   3.464   6.826   1.375
 8445SOL    HW226235   3.514   6.901   1.239
 8446SOL     OW26236   4.622   5.103   6.837
 8446SOL    HW126237   4.538   5.057   6.867
 8446SOL    HW226238   4.622   5.197   6.872
 8447SOL     OW26239   5.227   1.552   2.219
 8447SOL    HW126240   5.128   1.545   2.206
 8447SOL    HW226241   5.263   1.462   2.244
 8448SOL     OW26242   4.388   5.558   4.018
 8448SOL    HW126243   4.292   5.532   4.029
 8448SOL    HW226244   4.444   5.475   4.016
 8449SOL     OW26245   0.203   2.786   3.812
 8449SOL    HW126246   0.150   2.745   3.738
 8449SOL    HW226247   0.300   2.765   3.797
 8450SOL     OW26248   0.300   6.905   1.061
 8450SOL    HW126249   0.270   6.810   1.057
 8450SOL    HW226250   0.236   6.962   1.010
 8451SOL     OW26251   3.660   1.768   0.413
 8451SOL    HW126252   3.748   1.721   0.419
 8451SOL    HW226253   3.599   1.718   0.351
 8452SOL     OW26254   6.050   1.633   2.666
 8452SOL    HW126255   6.115   1.595   2.732
 8452SOL    HW226256   5.962   1.649   2.711
 8453SOL     OW26257   0.449   4.386   6.673
 8453SOL    HW126258   0.523   4.323   6.647
 8453SOL    HW226259   0.370   4.333   6.705
 8454SOL     OW26260   6.597   6.871   1.671
 8454SOL    HW126261   6.524   6.821   1.623
 8454SOL    HW226262   6.647   6.928   1.605
 8455SOL     OW26263   6.592   2.421   2.203
 8455SOL    HW126264   6.655   2.362   2.255
 8455SOL    HW226265   6.500   2.412   2.241
 8456SOL     OW26266   3.865   5.649   3.096
 8456SOL    HW126267   3.833   5.555   3.087
 8456SOL    HW226268   3.903   5.663   3.187
 8457SOL     OW26269   6.513   6.866   4.755
 8457SOL    HW126270   6.496   6.798   4.684
 8457SOL    HW226271   6.602   6.848   4.797
 8458SOL     OW26272   3.121   0.803   6.969
 8458SOL    HW126273   3.083   0.894   6.951
 8458SOL    HW226274   3.135   0.756   6.881
 8459SOL     OW26275   2.674   6.044   1.977
 8459SOL    HW126276   2.588   6.072   1.935
 8459SOL    HW226277   2.730   6.125   1.996
 8460SOL     OW26278   4.198   4.337   5.333
 8460SOL    HW126279   4.266   4.371   5.269
 8460SOL    HW226280   4.107   4.341   5.292
 8461SOL     OW26281   1.097   4.150   4.702
 8461SOL    HW126282   1.048   4.107   4.626
 8461SOL    HW226283   1.096   4.250   4.690
 8462SOL     OW26284   2.477   2.778   6.645
 8462SOL    HW126285   2.463   2.813   6.737
 8462SOL    HW226286   2.505   2.682   6.649
 8463SOL     OW26287   7.018   6.767   0.936
 8463SOL    HW126288   0.083   6.742   0.978
 8463SOL    HW226289   7.018   6.738   0.840
 8464SOL     OW26290   5.804   3.858   4.086
 8464SOL    HW126291   5.829   3.761   4.087
 8464SOL    HW226292   5.705   3.867   4.099
 8465SOL     OW26293   1.109   3.205   0.459
 8465SOL    HW126294   1.061   3.187   0.545
 8465SOL    HW226295   1.143   3.299   0.459
 8466SOL     OW26296   0.894   6.378   3.887
 8466SOL    HW126297   0.807   6.388   3.840
 8466SOL    HW226298   0.968   6.409   3.827
 8467SOL     OW26299   3.860   6.861   6.367
 8467SOL    HW126300   3.817   6.945   6.334
 8467SOL    HW226301   3.906   6.815   6.291
 8468SOL     OW26302   3.687   2.082   6.612
 8468SOL    HW126303   3.726   2.062   6.702
 8468SOL    HW226304   3.677   1.996   6.561
 8469SOL     OW26305   3.116   1.791   6.933
 8469SOL    HW126306   3.198   1.847   6.925
 8469SOL    HW226307   3.115   1.746   0.001
 8470SOL     OW26308   1.286   4.399   0.276
 8470SOL    HW126309   1.206   4.433   0.226
 8470SOL    HW226310   1.369   4.424   0.226
 8471SOL     OW26311   3.343   1.375   3.495
 8471SOL    HW126312   3.373   1.280   3.502
 8471SOL    HW226313   3.335   1.415   3.586
 8472SOL     OW26314   6.972   0.979   4.735
 8472SOL    HW126315   6.996   0.928   4.818
 8472SOL    HW226316   7.005   0.930   4.655
 8473SOL     OW26317   6.337   6.103   6.710
 8473SOL    HW126318   6.254   6.061   6.746
 8473SOL    HW226319   6.342   6.088   6.611
 8474SOL     OW26320   3.181   3.216   1.936
 8474SOL    HW126321   3.090   3.184   1.965
 8474SOL    HW226322   3.248   3.191   2.005
 8475SOL     OW26323   0.941   2.516   3.560
 8475SOL    HW126324   1.024   2.470   3.594
 8475SOL    HW226325   0.893   2.455   3.497
 8476SOL     OW26326   6.928   1.857   0.893
 8476SOL    HW126327   6.905   1.954   0.885
 8476SOL    HW226328   6.961   1.838   0.985
 8477SOL     OW26329   4.911   6.772   1.527
 8477SOL    HW126330   4.832   6.764   1.587
 8477SOL    HW226331   4.939   6.681   1.495
 8478SOL     OW26332   1.342   6.852   5.961
 8478SOL    HW126333   1.362   6.908   5.881
 8478SOL    HW226334   1.246   6.823   5.959
 8479SOL     OW26335   6.855   3.132   1.163
 8479SOL    HW126336   6.885   3.226   1.182
 8479SOL    HW226337   6.933   3.078   1.131
 8480SOL     OW26338   4.461   1.739   0.122
 8480SOL    HW126339   4.403   1.745   0.203
 8480SOL    HW226340   4.508   1.651   0.121
 8481SOL     OW26341   4.636   1.900   3.529
 8481SOL    HW126342   4.546   1.896   3.572
 8481SOL    HW226343   4.693   1.967   3.578
 8482SOL     OW26344   4.720   5.794   1.892
 8482SOL    HW126345   4.717   5.894   1.889
 8482SOL    HW226346   4.631   5.757   1.867
 8483SOL     OW26347   4.246   6.090   2.018
 8483SOL    HW126348   4.227   5.993   2.001
 8483SOL    HW226349   4.167   6.132   2.061
 8484SOL     OW26350   0.625   5.657   3.178
 8484SOL    HW126351   0.544   5.702   3.218
 8484SOL    HW226352   0.610   5.558   3.174
 8485SOL     OW26353   3.494   3.133   0.613
 8485SOL    HW126354   3.563   3.102   0.679
 8485SOL    HW226355   3.454   3.054   0.567
 8486SOL     OW26356   4.271   0.999   3.187
 8486SOL    HW126357   4.180   1.008   3.229
 8486SOL    HW226358   4.287   0.903   3.164
 8487SOL     OW26359   5.241   2.090   6.218
 8487SOL    HW126360   5.157   2.044   6.191
 8487SOL    HW226361   5.272   2.055   6.306
 8488SOL     OW26362   5.719   5.356   6.252
 8488SOL    HW126363   5.805   5.343   6.201
 8488SOL    HW226364   5.652   5.288   6.221
 8489SOL     OW26365   6.645   1.668   1.110
 8489SOL    HW126366   6.585   1.744   1.083
 8489SOL    HW226367   6.677   1.620   1.028
 8490SOL     OW26368   3.568   6.729   4.197
 8490SOL    HW126369   3.520   6.783   4.267
 8490SOL    HW226370   3.503   6.669   4.150
 8491SOL     OW26371   2.085   6.718   0.571
 8491SOL    HW126372   2.096   6.660   0.491
 8491SOL    HW226373   2.116   6.811   0.549
 8492SOL     OW26374   4.447   4.121   6.655
 8492SOL    HW126375   4.489   4.195   6.604
 8492SOL    HW226376   4.350   4.141   6.669
 8493SOL     OW26377   2.900   2.274   6.567
 8493SOL    HW126378   2.803   2.252   6.556
 8493SOL    HW226379   2.953   2.231   6.494
 8494SOL     OW26380   3.049   4.620   1.527
 8494SOL    HW126381   3.148   4.629   1.541
 8494SOL    HW226382   3.003   4.626   1.615
 8495SOL     OW26383   6.447   4.782   1.384
 8495SOL    HW126384   6.379   4.715   1.413
 8495SOL    HW226385   6.425   4.871   1.424
 8496SOL     OW26386   0.798   1.806   2.353
 8496SOL    HW126387   0.839   1.749   2.283
 8496SOL    HW226388   0.848   1.892   2.360
 8497SOL     OW26389   6.429   1.145   3.623
 8497SOL    HW126390   6.431   1.135   3.523
 8497SOL    HW226391   6.340   1.181   3.651
 8498SOL     OW26392   0.482   5.963   2.892
 8498SOL    HW126393   0.422   5.972   2.812
 8498SOL    HW226394   0.558   6.028   2.884
 8499SOL     OW26395   2.647   5.045   6.495
 8499SOL    HW126396   2.728   5.007   6.539
 8499SOL    HW226397   2.579   4.974   6.482
 8500SOL     OW26398   2.294   6.502   4.947
 8500SOL    HW126399   2.369   6.470   4.889
 8500SOL    HW226400   2.328   6.571   5.010
 8501SOL     OW26401   0.766   1.816   6.923
 8501SOL    HW126402   0.726   1.743   6.867
 8501SOL    HW226403   0.722   1.817   7.013
 8502SOL     OW26404   2.019   5.087   1.241
 8502SOL    HW126405   2.025   4.999   1.195
 8502SOL    HW226406   2.101   5.103   1.294
 8503SOL     OW26407   1.327   0.056   4.157
 8503SOL    HW126408   1.238   0.023   4.127
 8503SOL    HW226409   1.384   7.001   4.185
 8504SOL     OW26410   2.766   5.226   3.012
 8504SOL    HW126411   2.804   5.245   2.922
 8504SOL    HW226412   2.766   5.128   3.028
 8505SOL     OW26413   4.943   3.974   3.272
 8505SOL    HW126414   4.912   4.040   3.341
 8505SOL    HW226415   4.969   3.889   3.316
 8506SOL     OW26416   6.473   1.602   6.885
 8506SOL    HW126417   6.455   1.620   6.788
 8506SOL    HW226418   6.566   1.568   6.896
 8507SOL     OW26419   3.425   1.201   5.647
 8507SOL    HW126420   3.435   1.162   5.556
 8507SOL    HW226421   3.505   1.177   5.702
 8508SOL     OW26422   6.011   1.947   4.966
 8508SOL    HW126423   5.945   1.872   4.957
 8508SOL    HW226424   6.057   1.962   4.879
 8509SOL     OW26425   4.661   1.634   3.343
 8509SOL    HW126426   4.710   1.613   3.428
 8509SOL    HW226427   4.573   1.676   3.364
 8510SOL     OW26428   5.729   4.746   2.693
 8510SOL    HW126429   5.794   4.677   2.724
 8510SOL    HW226430   5.778   4.824   2.655
 8511SOL     OW26431   6.566   3.879   1.621
 8511SOL    HW126432   6.614   3.892   1.707
 8511SOL    HW226433   6.482   3.827   1.637
 8512SOL     OW26434   3.398   1.917   1.301
 8512SOL    HW126435   3.365   1.953   1.388
 8512SOL    HW226436   3.431   1.993   1.244
 8513SOL     OW26437   4.628   4.084   1.741
 8513SOL    HW126438   4.681   4.082   1.825
 8513SOL    HW226439   4.561   4.158   1.745
 8514SOL     OW26440   2.740   2.395   3.779
 8514SOL    HW126441   2.801   2.319   3.759
 8514SOL    HW226442   2.703   2.384   3.872
 8515SOL     OW26443   5.320   1.448   0.393
 8515SOL    HW126444   5.327   1.397   0.478
 8515SOL    HW226445   5.224   1.455   0.366
 8516SOL     OW26446   6.941   1.723   1.498
 8516SOL    HW126447   6.867   1.787   1.476
 8516SOL    HW226448   6.966   1.672   1.415
 8517SOL     OW26449   1.527   3.488   6.675
 8517SOL    HW126450   1.501   3.464   6.769
 8517SOL    HW226451   1.588   3.567   6.677
 8518SOL     OW26452   5.002   4.174   0.028
 8518SOL    HW126453   4.996   4.274   0.027
 8518SOL    HW226454   4.981   4.141   0.120
 8519SOL     OW26455   1.171   4.288   1.219
 8519SOL    HW126456   1.141   4.226   1.146
 8519SOL    HW226457   1.118   4.271   1.302
 8520SOL     OW26458   3.272   3.390   0.379
 8520SOL    HW126459   3.263   3.397   0.279
 8520SOL    HW226460   3.369   3.387   0.403
 8521SOL     OW26461   1.932   5.091   5.558
 8521SOL    HW126462   2.001   5.110   5.629
 8521SOL    HW226463   1.971   5.112   5.468
 8522SOL     OW26464   1.130   6.451   1.422
 8522SOL    HW126465   1.051   6.446   1.483
 8522SOL    HW226466   1.144   6.361   1.379
 8523SOL     OW26467   1.768   6.432   6.715
 8523SOL    HW126468   1.698   6.502   6.718
 8523SOL    HW226469   1.768   6.380   6.801
 8524SOL     OW26470   0.169   2.872   5.213
 8524SOL    HW126471   0.136   2.958   5.176
 8524SOL    HW226472   0.218   2.821   5.142
 8525SOL     OW26473   6.258   4.179   2.502
 8525SOL    HW126474   6.232   4.166   2.597
 8525SOL    HW226475   6.205   4.117   2.444
 8526SOL     OW26476   4.299   6.306   6.365
 8526SOL    HW126477   4.260   6.290   6.274
 8526SOL    HW226478   4.257   6.387   6.405
 8527SOL     OW26479   2.590   1.015   6.353
 8527SOL    HW126480   2.599   0.916   6.363
 8527SOL    HW226481   2.494   1.039   6.340
 8528SOL     OW26482   3.096   1.263   6.672
 8528SOL    HW126483   3.132   1.339   6.618
 8528SOL    HW226484   3.068   1.189   6.611
 8529SOL     OW26485   1.025   0.332   0.859
 8529SOL    HW126486   1.009   0.408   0.796
 8529SOL    HW226487   0.979   0.349   0.946
 8530SOL     OW26488   3.915   4.325   5.511
 8530SOL    HW126489   3.858   4.242   5.513
 8530SOL    HW226490   3.950   4.339   5.418
 8531SOL     OW26491   6.512   5.091   2.441
 8531SOL    HW126492   6.455   5.009   2.451
 8531SOL    HW226493   6.575   5.098   2.519
 8532SOL     OW26494   4.280   5.029   4.942
 8532SOL    HW126495   4.282   4.950   5.003
 8532SOL    HW226496   4.374   5.051   4.914
 8533SOL     OW26497   1.144   0.324   6.626
 8533SOL    HW126498   1.152   0.225   6.614
 8533SOL    HW226499   1.175   0.371   6.543
 8534SOL     OW26500   6.928   3.016   3.803
 8534SOL    HW126501   6.952   2.984   3.895
 8534SOL    HW226502   6.979   3.100   3.783
 8535SOL     OW26503   6.034   1.671   4.204
 8535SOL    HW126504   6.003   1.599   4.141
 8535SOL    HW226505   6.011   1.761   4.166
 8536SOL     OW26506   0.467   2.449   5.191
 8536SOL    HW126507   0.454   2.537   5.146
 8536SOL    HW226508   0.551   2.406   5.157
 8537SOL     OW26509   5.174   1.108   2.345
 8537SOL    HW126510   5.118   1.045   2.399
 8537SOL    HW226511   5.225   1.056   2.276
 8538SOL     OW26512   0.435   0.783   0.331
 8538SOL    HW126513   0.394   0.874   0.343
 8538SOL    HW226514   0.445   0.764   0.233
 8539SOL     OW26515   4.846   0.720   3.156
 8539SOL    HW126516   4.757   0.745   3.119
 8539SOL    HW226517   4.840   0.630   3.199
 8540SOL     OW26518   4.493   0.113   6.391
 8540SOL    HW126519   4.506   0.092   6.294
 8540SOL    HW226520   4.581   0.128   6.435
 8541SOL     OW26521   2.321   1.684   4.141
 8541SOL    HW126522   2.420   1.693   4.143
 8541SOL    HW226523   2.295   1.597   4.184
 8542SOL     OW26524   3.921   4.680   7.020
 8542SOL    HW126525   3.828   4.655   6.992
 8542SOL    HW226526   3.953   4.757   6.965
 8543SOL     OW26527   3.051   0.803   0.788
 8543SOL    HW126528   3.011   0.894   0.795
 8543SOL    HW226529   2.984   0.734   0.815
 8544SOL     OW26530   5.480   3.401   4.827
 8544SOL    HW126531   5.541   3.351   4.889
 8544SOL    HW226532   5.478   3.498   4.854
 8545SOL     OW26533   4.461   6.832   5.090
 8545SOL    HW126534   4.538   6.819   5.152
 8545SOL    HW226535   4.483   6.794   5.001
 8546SOL     OW26536   6.602   1.581   3.570
 8546SOL    HW126537   6.652   1.526   3.637
 8546SOL    HW226538   6.504   1.560   3.576
 8547SOL     OW26539   1.826   6.709   5.911
 8547SOL    HW126540   1.900   6.646   5.887
 8547SOL    HW226541   1.814   6.711   6.010
 8548SOL     OW26542   5.713   2.288   5.498
 8548SOL    HW126543   5.786   2.246   5.443
 8548SOL    HW226544   5.714   2.249   5.590
 8549SOL     OW26545   1.666   3.009   4.118
 8549SOL    HW126546   1.740   2.945   4.137
 8549SOL    HW226547   1.592   2.996   4.185
 8550SOL     OW26548   1.701   4.744   0.320
 8550SOL    HW126549   1.759   4.738   0.239
 8550SOL    HW226550   1.698   4.839   0.352
 8551SOL     OW26551   3.524   3.805   6.448
 8551SOL    HW126552   3.520   3.904   6.458
 8551SOL    HW226553   3.473   3.761   6.522
 8552SOL     OW26554   2.438   0.557   3.977
 8552SOL    HW126555   2.378   0.595   3.907
 8552SOL    HW226556   2.533   0.578   3.954
 8553SOL     OW26557   4.148   4.527   6.963
 8553SOL    HW126558   4.091   4.603   6.993
 8553SOL    HW226559   4.090   4.448   6.943
 8554SOL     OW26560   0.917   4.679   0.681
 8554SOL    HW126561   0.927   4.766   0.632
 8554SOL    HW226562   0.964   4.685   0.769
 8555SOL     OW26563   2.204   1.286   3.091
 8555SOL    HW126564   2.128   1.234   3.053
 8555SOL    HW226565   2.186   1.384   3.081
 8556SOL     OW26566   1.643   5.956   5.287
 8556SOL    HW126567   1.596   6.043   5.302
 8556SOL    HW226568   1.727   5.953   5.341
 8557SOL     OW26569   5.881   6.955   3.165
 8557SOL    HW126570   5.855   6.896   3.089
 8557SOL    HW226571   5.820   6.938   3.243
 8558SOL     OW26572   3.467   4.935   3.342
 8558SOL    HW126573   3.392   4.924   3.408
 8558SOL    HW226574   3.434   4.915   3.250
 8559SOL     OW26575   0.482   0.321   2.451
 8559SOL    HW126576   0.547   0.336   2.376
 8559SOL    HW226577   0.420   0.247   2.427
 8560SOL     OW26578   6.395   6.310   1.786
 8560SOL    HW126579   6.405   6.409   1.791
 8560SOL    HW226580   6.383   6.273   1.878
 8561SOL     OW26581   3.233   0.883   2.562
 8561SOL    HW126582   3.279   0.969   2.537
 8561SOL    HW226583   3.147   0.876   2.512
 8562SOL     OW26584   3.862   5.587   5.613
 8562SOL    HW126585   3.923   5.508   5.605
 8562SOL    HW226586   3.767   5.556   5.606
 8563SOL     OW26587   2.251   4.333   6.735
 8563SOL    HW126588   2.244   4.354   6.637
 8563SOL    HW226589   2.299   4.408   6.782
 8564SOL     OW26590   3.029   0.970   5.005
 8564SOL    HW126591   3.096   0.992   4.933
 8564SOL    HW226592   2.988   1.054   5.038
 8565SOL     OW26593   4.095   5.324   1.097
 8565SOL    HW126594   4.071   5.362   1.008
 8565SOL    HW226595   4.142   5.236   1.085
 8566SOL     OW26596   1.866   0.746   1.589
 8566SOL    HW126597   1.821   0.805   1.522
 8566SOL    HW226598   1.913   0.671   1.541
 8567SOL     OW26599   0.516   2.102   2.573
 8567SOL    HW126600   0.443   2.169   2.584
 8567SOL    HW226601   0.479   2.019   2.532
 8568SOL     OW26602   5.652   1.250   6.305
 8568SOL    HW126603   5.599   1.273   6.386
 8568SOL    HW226604   5.662   1.151   6.298
 8569SOL     OW26605   5.078   0.891   6.090
 8569SOL    HW126606   5.151   0.960   6.091
 8569SOL    HW226607   4.999   0.925   6.142
 8570SOL     OW26608   1.521   2.427   5.115
 8570SOL    HW126609   1.575   2.407   5.033
 8570SOL    HW226610   1.541   2.358   5.185
 8571SOL     OW26611   1.013   5.450   5.581
 8571SOL    HW126612   1.006   5.544   5.615
 8571SOL    HW226613   1.108   5.429   5.560
 8572SOL     OW26614   2.777   5.107   6.968
 8572SOL    HW126615   2.813   5.014   6.967
 8572SOL    HW226616   2.819   5.160   6.894
 8573SOL     OW26617   3.504   6.420   5.860
 8573SOL    HW126618   3.409   6.419   5.890
 8573SOL    HW226619   3.558   6.478   5.921
 8574SOL     OW26620   6.554   5.414   5.574
 8574SOL    HW126621   6.577   5.445   5.481
 8574SOL    HW226622   6.541   5.493   5.633
 8575SOL     OW26623   2.754   2.322   5.179
 8575SOL    HW126624   2.786   2.394   5.240
 8575SOL    HW226625   2.833   2.273   5.141
 8576SOL     OW26626   1.508   4.964   6.338
 8576SOL    HW126627   1.529   4.904   6.415
 8576SOL    HW226628   1.569   5.042   6.339
 8577SOL     OW26629   6.719   6.579   4.279
 8577SOL    HW126630   6.739   6.502   4.339
 8577SOL    HW226631   6.707   6.545   4.185
 8578SOL     OW26632   5.622   1.038   4.530
 8578SOL    HW126633   5.679   1.109   4.572
 8578SOL    HW226634   5.676   0.986   4.464
 8579SOL     OW26635   1.425   0.060   2.588
 8579SOL    HW126636   1.462   6.990   2.578
 8579SOL    HW226637   1.329   0.054   2.617
 8580SOL     OW26638   2.484   6.448   2.412
 8580SOL    HW126639   2.391   6.435   2.376
 8580SOL    HW226640   2.478   6.469   2.510
 8581SOL     OW26641   3.288   3.633   2.084
 8581SOL    HW126642   3.235   3.555   2.120
 8581SOL    HW226643   3.289   3.629   1.985
 8582SOL     OW26644   4.756   4.802   2.919
 8582SOL    HW126645   4.682   4.848   2.870
 8582SOL    HW226646   4.751   4.704   2.903
 8583SOL     OW26647   5.298   0.546   4.506
 8583SOL    HW126648   5.369   0.568   4.573
 8583SOL    HW226649   5.340   0.528   4.417
 8584SOL     OW26650   1.046   4.302   5.864
 8584SOL    HW126651   1.004   4.340   5.781
 8584SOL    HW226652   1.083   4.211   5.843
 8585SOL     OW26653   0.523   5.986   6.349
 8585SOL    HW126654   0.480   5.929   6.279
 8585SOL    HW226655   0.609   5.944   6.377
 8586SOL     OW26656   2.903   0.181   2.790
 8586SOL    HW126657   2.883   0.223   2.701
 8586SOL    HW226658   2.894   0.082   2.782
 8587SOL     OW26659   1.637   6.936   3.881
 8587SOL    HW126660   1.709   6.929   3.812
 8587SOL    HW226661   1.578   6.856   3.877
 8588SOL     OW26662   2.907   0.858   0.376
 8588SOL    HW126663   2.909   0.922   0.300
 8588SOL    HW226664   2.987   0.872   0.434
 8589SOL     OW26665   5.007   2.855   4.962
 8589SOL    HW126666   5.041   2.761   4.960
 8589SOL    HW226667   4.913   2.857   4.927
 8590SOL     OW26668   0.042   6.252   4.484
 8590SOL    HW126669   0.054   6.179   4.417
 8590SOL    HW226670   0.132   6.281   4.518
 8591SOL     OW26671   0.414   4.426   0.071
 8591SOL    HW126672   0.330   4.481   0.077
 8591SOL    HW226673   0.389   4.329   0.061
 8592SOL     OW26674   6.983   2.601   6.596
 8592SOL    HW126675   6.909   2.577   6.533
 8592SOL    HW226676   6.960   2.566   6.688
 8593SOL     OW26677   2.892   0.233   0.738
 8593SOL    HW126678   2.850   0.323   0.734
 8593SOL    HW226679   2.854   0.175   0.666
 8594SOL     OW26680   4.241   2.330   5.425
 8594SOL    HW126681   4.200   2.347   5.336
 8594SOL    HW226682   4.178   2.361   5.497
 8595SOL     OW26683   1.474   2.788   3.551
 8595SOL    HW126684   1.566   2.803   3.587
 8595SOL    HW226685   1.476   2.787   3.451
 8596SOL     OW26686   0.095   5.305   3.130
 8596SOL    HW126687   0.015   5.269   3.178
 8596SOL    HW226688   0.112   5.250   3.048
 8597SOL     OW26689   4.311   1.079   0.738
 8597SOL    HW126690   4.350   1.129   0.815
 8597SOL    HW226691   4.350   1.114   0.653
 8598SOL     OW26692   6.115   6.530   0.834
 8598SOL    HW126693   6.136   6.595   0.907
 8598SOL    HW226694   6.100   6.439   0.873
 8599SOL     OW26695   0.899   2.865   4.458
 8599SOL    HW126696   0.931   2.908   4.542
 8599SOL    HW226697   0.815   2.909   4.427
 8600SOL     OW26698   4.731   5.353   5.917
 8600SOL    HW126699   4.662   5.335   5.848
 8600SOL    HW226700   4.714   5.441   5.961
 8601SOL     OW26701   0.855   1.212   5.109
 8601SOL    HW126702   0.946   1.233   5.073
 8601SOL    HW226703   0.854   1.118   5.142
 8602SOL     OW26704   2.870   5.268   2.741
 8602SOL    HW126705   2.930   5.307   2.671
 8602SOL    HW226706   2.858   5.170   2.723
 8603SOL     OW26707   4.185   5.618   0.137
 8603SOL    HW126708   4.211   5.539   0.081
 8603SOL    HW226709   4.087   5.635   0.126
 8604SOL     OW26710   0.849   2.701   4.058
 8604SOL    HW126711   0.815   2.630   3.997
 8604SOL    HW226712   0.855   2.665   4.152
 8605SOL     OW26713   2.963   5.616   4.635
 8605SOL    HW126714   3.050   5.601   4.588
 8605SOL    HW226715   2.974   5.689   4.703
 8606SOL     OW26716   1.749   3.542   6.234
 8606SOL    HW126717   1.709   3.595   6.159
 8606SOL    HW226718   1.848   3.550   6.231
 8607SOL     OW26719   3.751   5.981   0.812
 8607SOL    HW126720   3.661   5.975   0.769
 8607SOL    HW226721   3.820   6.000   0.742
 8608SOL     OW26722   4.251   5.587   2.827
 8608SOL    HW126723   4.177   5.527   2.855
 8608SOL    HW226724   4.302   5.544   2.753
 8609SOL     OW26725   5.811   1.150   3.457
 8609SOL    HW126726   5.808   1.183   3.363
 8609SOL    HW226727   5.735   1.189   3.508
 8610SOL     OW26728   1.723   2.167   2.641
 8610SOL    HW126729   1.665   2.123   2.572
 8610SOL    HW226730   1.665   2.205   2.713
 8611SOL     OW26731   2.871   1.715   4.244
 8611SOL    HW126732   2.953   1.687   4.293
 8611SOL    HW226733   2.884   1.805   4.203
 8612SOL     OW26734   3.783   3.069   1.212
 8612SOL    HW126735   3.852   3.097   1.279
 8612SOL    HW226736   3.706   3.026   1.259
 8613SOL     OW26737   2.270   1.778   1.129
 8613SOL    HW126738   2.210   1.751   1.205
 8613SOL    HW226739   2.238   1.864   1.090
 8614SOL     OW26740   1.247   3.372   2.081
 8614SOL    HW126741   1.261   3.279   2.113
 8614SOL    HW226742   1.214   3.429   2.156
 8615SOL     OW26743   4.656   1.662   4.982
 8615SOL    HW126744   4.662   1.749   5.031
 8615SOL    HW226745   4.712   1.665   4.900
 8616SOL     OW26746   3.079   4.697   1.828
 8616SOL    HW126747   3.071   4.785   1.875
 8616SOL    HW226748   3.002   4.639   1.854
 8617SOL     OW26749   6.851   1.117   6.582
 8617SOL    HW126750   6.799   1.052   6.637
 8617SOL    HW226751   6.907   1.067   6.516
 8618SOL     OW26752   6.103   6.089   0.578
 8618SOL    HW126753   6.172   6.126   0.639
 8618SOL    HW226754   6.119   5.991   0.564
 8619SOL     OW26755   3.873   4.860   2.160
 8619SOL    HW126756   3.946   4.929   2.165
 8619SOL    HW226757   3.869   4.823   2.068
 8620SOL     OW26758   0.993   0.321   4.135
 8620SOL    HW126759   1.077   0.373   4.152
 8620SOL    HW226760   0.995   0.236   4.187
 8621SOL     OW26761   5.585   1.221   2.937
 8621SOL    HW126762   5.658   1.177   2.885
 8621SOL    HW226763   5.576   1.316   2.908
 8622SOL     OW26764   4.773   3.039   7.009
 8622SOL    HW126765   4.752   3.134   6.985
 8622SOL    HW226766   4.788   3.032   0.085
 8623SOL     OW26767   0.750   3.206   3.705
 8623SOL    HW126768   0.685   3.280   3.689
 8623SOL    HW226769   0.799   3.222   3.791
 8624SOL     OW26770   0.986   3.761   4.762
 8624SOL    HW126771   1.060   3.829   4.765
 8624SOL    HW226772   0.932   3.768   4.846
 8625SOL     OW26773   4.375   6.949   5.599
 8625SOL    HW126774   4.429   6.870   5.570
 8625SOL    HW226775   4.430   7.007   5.658
 8626SOL     OW26776   3.825   3.137   5.443
 8626SOL    HW126777   3.769   3.065   5.402
 8626SOL    HW226778   3.912   3.144   5.394
 8627SOL     OW26779   0.373   1.300   3.227
 8627SOL    HW126780   0.341   1.377   3.282
 8627SOL    HW226781   0.303   1.274   3.161
 8628SOL     OW26782   6.290   6.162   0.750
 8628SOL    HW126783   6.380   6.206   0.745
 8628SOL    HW226784   6.291   6.093   0.822
 8629SOL     OW26785   1.366   4.718   5.114
 8629SOL    HW126786   1.284   4.666   5.090
 8629SOL    HW226787   1.356   4.813   5.083
 8630SOL     OW26788   5.618   4.405   3.346
 8630SOL    HW126789   5.662   4.332   3.398
 8630SOL    HW226790   5.687   4.471   3.317
 8631SOL     OW26791   2.437   5.495   6.021
 8631SOL    HW126792   2.398   5.419   6.073
 8631SOL    HW226793   2.364   5.546   5.977
 8632SOL     OW26794   3.606   6.145   3.671
 8632SOL    HW126795   3.674   6.212   3.700
 8632SOL    HW226796   3.652   6.066   3.631
 8633SOL     OW26797   4.803   1.794   5.433
 8633SOL    HW126798   4.730   1.773   5.368
 8633SOL    HW226799   4.846   1.709   5.463
 8634SOL     OW26800   5.941   3.436   0.056
 8634SOL    HW126801   5.972   3.363   7.017
 8634SOL    HW226802   5.898   3.508   0.002
 8635SOL     OW26803   5.601   4.082   6.671
 8635SOL    HW126804   5.664   4.062   6.596
 8635SOL    HW226805   5.507   4.057   6.644
 8636SOL     OW26806   4.894   5.900   0.656
 8636SOL    HW126807   4.824   5.852   0.603
 8636SOL    HW226808   4.983   5.886   0.613
 8637SOL     OW26809   2.218   1.101   0.171
 8637SOL    HW126810   2.137   1.059   0.131
 8637SOL    HW226811   2.207   1.108   0.270
 8638SOL     OW26812   2.888   3.237   6.524
 8638SOL    HW126813   2.795   3.232   6.487
 8638SOL    HW226814   2.946   3.289   6.461
 8639SOL     OW26815   5.585   2.315   1.771
 8639SOL    HW126816   5.525   2.285   1.697
 8639SOL    HW226817   5.559   2.267   1.855
 8640SOL     OW26818   4.696   3.969   0.413
 8640SOL    HW126819   4.736   3.931   0.496
 8640SOL    HW226820   4.715   4.067   0.409
 8641SOL     OW26821   5.639   5.185   4.424
 8641SOL    HW126822   5.569   5.235   4.373
 8641SOL    HW226823   5.728   5.228   4.409
 8642SOL     OW26824   2.623   6.776   3.258
 8642SOL    HW126825   2.673   6.693   3.284
 8642SOL    HW226826   2.611   6.834   3.338
 8643SOL     OW26827   2.866   0.174   6.486
 8643SOL    HW126828   2.893   0.131   6.399
 8643SOL    HW226829   2.874   0.107   6.560
 8644SOL     OW26830   4.700   2.079   5.531
 8644SOL    HW126831   4.701   2.149   5.602
 8644SOL    HW226832   4.766   2.007   5.553
 8645SOL     OW26833   4.282   4.443   1.252
 8645SOL    HW126834   4.202   4.500   1.232
 8645SOL    HW226835   4.363   4.484   1.211
 8646SOL     OW26836   6.532   1.264   1.690
 8646SOL    HW126837   6.586   1.185   1.659
 8646SOL    HW226838   6.592   1.344   1.699
 8647SOL     OW26839   2.363   5.231   5.924
 8647SOL    HW126840   2.450   5.201   5.885
 8647SOL    HW226841   2.377   5.258   6.019
 8648SOL     OW26842   6.436   0.968   3.324
 8648SOL    HW126843   6.438   0.913   3.407
 8648SOL    HW226844   6.489   0.922   3.253
 8649SOL     OW26845   5.776   4.921   5.779
 8649SOL    HW126846   5.817   4.847   5.726
 8649SOL    HW226847   5.730   4.883   5.859
 8650SOL     OW26848   2.265   5.022   5.151
 8650SOL    HW126849   2.324   4.954   5.107
 8650SOL    HW226850   2.190   4.976   5.198
 8651SOL     OW26851   3.564   0.496   0.536
 8651SOL    HW126852   3.538   0.570   0.473
 8651SOL    HW226853   3.518   0.510   0.623
 8652SOL     OW26854   1.746   4.352   4.053
 8652SOL    HW126855   1.775   4.420   3.986
 8652SOL    HW226856   1.704   4.397   4.131
 8653SOL     OW26857   6.129   0.689   5.909
 8653SOL    HW126858   6.174   0.778   5.901
 8653SOL    HW226859   6.044   0.699   5.961
 8654SOL     OW26860   0.973   4.887   1.209
 8654SOL    HW126861   0.921   4.907   1.292
 8654SOL    HW226862   1.062   4.848   1.234
 8655SOL     OW26863   6.330   1.543   3.572
 8655SOL    HW126864   6.261   1.471   3.577
 8655SOL    HW226865   6.303   1.611   3.503
 8656SOL     OW26866   6.644   1.010   1.189
 8656SOL    HW126867   6.580   0.992   1.114
 8656SOL    HW226868   6.612   1.087   1.243
 8657SOL     OW26869   5.160   4.427   0.487
 8657SOL    HW126870   5.198   4.494   0.423
 8657SOL    HW226871   5.235   4.381   0.535
 8658SOL     OW26872   4.608   6.785   0.170
 8658SOL    HW126873   4.682   6.809   0.233
 8658SOL    HW226874   4.556   6.867   0.147
 8659SOL     OW26875   4.638   1.457   3.087
 8659SOL    HW126876   4.543   1.457   3.056
 8659SOL    HW226877   4.642   1.487   3.182
 8660SOL     OW26878   5.914   4.101   1.040
 8660SOL    HW126879   5.849   4.079   0.967
 8660SOL    HW226880   6.004   4.117   1.000
 8661SOL     OW26881   5.428   4.057   1.440
 8661SOL    HW126882   5.511   4.077   1.388
 8661SOL    HW226883   5.408   3.959   1.434
 8662SOL     OW26884   4.683   6.177   0.887
 8662SOL    HW126885   4.643   6.090   0.859
 8662SOL    HW226886   4.775   6.161   0.924
 8663SOL     OW26887   3.043   5.956   1.825
 8663SOL    HW126888   3.142   5.968   1.828
 8663SOL    HW226889   3.011   5.918   1.912
 8664SOL     OW26890   2.282   6.311   0.892
 8664SOL    HW126891   2.325   6.348   0.809
 8664SOL    HW226892   2.351   6.263   0.946
 8665SOL     OW26893   5.209   6.344   4.956
 8665SOL    HW126894   5.230   6.289   5.036
 8665SOL    HW226895   5.250   6.302   4.875
 8666SOL     OW26896   5.085   1.596   4.312
 8666SOL    HW126897   5.037   1.670   4.267
 8666SOL    HW226898   5.069   1.601   4.411
 8667SOL     OW26899   4.701   2.106   3.120
 8667SOL    HW126900   4.640   2.077   3.194
 8667SOL    HW226901   4.720   2.028   3.061
 8668SOL     OW26902   5.314   3.980   3.209
 8668SOL    HW126903   5.280   3.912   3.274
 8668SOL    HW226904   5.389   3.940   3.155
 8669SOL     OW26905   2.025   6.127   6.921
 8669SOL    HW126906   2.100   6.184   6.954
 8669SOL    HW226907   2.029   6.120   6.821
 8670SOL     OW26908   3.949   4.313   5.229
 8670SOL    HW126909   3.850   4.326   5.242
 8670SOL    HW226910   3.964   4.243   5.160
 8671SOL     OW26911   5.272   1.796   3.744
 8671SOL    HW126912   5.239   1.883   3.708
 8671SOL    HW226913   5.310   1.741   3.669
 8672SOL     OW26914   1.776   5.016   3.848
 8672SOL    HW126915   1.698   5.078   3.844
 8672SOL    HW226916   1.839   5.046   3.920
 8673SOL     OW26917   6.040   2.600   0.500
 8673SOL    HW126918   6.111   2.605   0.430
 8673SOL    HW226919   6.006   2.506   0.507
 8674SOL     OW26920   5.810   5.934   3.788
 8674SOL    HW126921   5.724   5.934   3.839
 8674SOL    HW226922   5.881   5.888   3.841
 8675SOL     OW26923   2.565   2.154   4.145
 8675SOL    HW126924   2.593   2.245   4.115
 8675SOL    HW226925   2.581   2.144   4.243
 8676SOL     OW26926   4.618   0.396   2.617
 8676SOL    HW126927   4.591   0.493   2.617
 8676SOL    HW226928   4.717   0.389   2.632
 8677SOL     OW26929   2.308   5.949   4.967
 8677SOL    HW126930   2.365   5.869   4.949
 8677SOL    HW226931   2.343   6.027   4.916
 8678SOL     OW26932   6.696   0.738   1.326
 8678SOL    HW126933   6.700   0.667   1.256
 8678SOL    HW226934   6.761   0.718   1.398
 8679SOL     OW26935   0.098   2.507   3.025
 8679SOL    HW126936   0.130   2.581   2.966
 8679SOL    HW226937   0.021   2.461   2.981
 8680SOL     OW26938   1.418   3.897   1.091
 8680SOL    HW126939   1.347   3.835   1.060
 8680SOL    HW226940   1.505   3.871   1.049
 8681SOL     OW26941   4.883   5.035   0.268
 8681SOL    HW126942   4.901   5.032   0.366
 8681SOL    HW226943   4.790   5.003   0.250
 8682SOL     OW26944   5.342   0.279   2.018
 8682SOL    HW126945   5.318   0.215   1.946
 8682SOL    HW226946   5.262   0.297   2.076
 8683SOL     OW26947   1.845   2.336   2.981
 8683SOL    HW126948   1.789   2.330   2.898
 8683SOL    HW226949   1.799   2.289   3.056
 8684SOL     OW26950   0.742   2.925   4.908
 8684SOL    HW126951   0.702   3.010   4.942
 8684SOL    HW226952   0.750   2.860   4.983
 8685SOL     OW26953   0.544   1.961   6.018
 8685SOL    HW126954   0.560   1.882   5.959
 8685SOL    HW226955   0.615   2.029   6.002
 8686SOL     OW26956   0.551   1.542   1.547
 8686SOL    HW126957   0.509   1.568   1.459
 8686SOL    HW226958   0.534   1.615   1.614
 8687SOL     OW26959   4.506   5.699   1.707
 8687SOL    HW126960   4.444   5.712   1.629
 8687SOL    HW226961   4.561   5.616   1.693
 8688SOL     OW26962   2.568   6.212   0.416
 8688SOL    HW126963   2.543   6.163   0.332
 8688SOL    HW226964   2.667   6.217   0.423
 8689SOL     OW26965   4.012   4.011   1.478
 8689SOL    HW126966   4.092   4.044   1.427
 8689SOL    HW226967   4.031   3.920   1.515
 8690SOL     OW26968   1.692   3.071   3.138
 8690SOL    HW126969   1.610   3.045   3.087
 8690SOL    HW226970   1.678   3.052   3.236
 8691SOL     OW26971   3.066   2.154   6.356
 8691SOL    HW126972   2.997   2.114   6.296
 8691SOL    HW226973   3.155   2.112   6.337
 8692SOL     OW26974   2.058   1.623   4.520
 8692SOL    HW126975   1.972   1.668   4.543
 8692SOL    HW226976   2.116   1.685   4.466
 8693SOL     OW26977   6.213   0.901   0.070
 8693SOL    HW126978   6.245   0.876   0.161
 8693SOL    HW226979   6.136   0.842   0.043
 8694SOL     OW26980   4.806   1.001   4.610
 8694SOL    HW126981   4.777   1.013   4.515
 8694SOL    HW226982   4.726   0.996   4.670
 8695SOL     OW26983   3.974   2.378   6.155
 8695SOL    HW126984   4.028   2.313   6.208
 8695SOL    HW226985   3.891   2.401   6.205
 8696SOL     OW26986   2.342   5.204   0.068
 8696SOL    HW126987   2.251   5.162   0.074
 8696SOL    HW226988   2.337   5.297   0.105
 8697SOL     OW26989   0.035   2.704   6.923
 8697SOL    HW126990   0.112   2.736   6.979
 8697SOL    HW226991   7.004   2.637   6.975
 8698SOL     OW26992   5.515   6.032   5.062
 8698SOL    HW126993   5.569   6.095   5.007
 8698SOL    HW226994   5.567   5.947   5.076
 8699SOL     OW26995   2.737   2.253   5.831
 8699SOL    HW126996   2.670   2.327   5.827
 8699SOL    HW226997   2.710   2.187   5.901
 8700SOL     OW26998   0.599   0.940   4.992
 8700SOL    HW126999   0.567   0.958   4.899
 8700SOL    HW227000   0.527   0.894   5.044
 8701SOL     OW27001   0.239   1.418   0.583
 8701SOL    HW127002   0.235   1.460   0.674
 8701SOL    HW227003   0.241   1.490   0.514
 8702SOL     OW27004   5.118   5.167   1.476
 8702SOL    HW127005   5.049   5.127   1.416
 8702SOL    HW227006   5.073   5.217   1.549
 8703SOL     OW27007   3.018   4.561   0.212
 8703SOL    HW127008   2.933   4.542   0.164
 8703SOL    HW227009   3.009   4.534   0.308
 8704SOL     OW27010   0.097   3.645   3.205
 8704SOL    HW127011   0.067   3.581   3.277
 8704SOL    HW227012   0.022   3.659   3.140
 8705SOL     OW27013   5.140   1.327   6.294
 8705SOL    HW127014   5.201   1.403   6.274
 8705SOL    HW227015   5.062   1.359   6.348
 8706SOL     OW27016   4.617   2.170   6.780
 8706SOL    HW127017   4.554   2.245   6.760
 8706SOL    HW227018   4.637   2.119   6.696
 8707SOL     OW27019   0.296   2.308   6.549
 8707SOL    HW127020   0.298   2.408   6.551
 8707SOL    HW227021   0.202   2.277   6.539
 8708SOL     OW27022   4.438   2.489   2.752
 8708SOL    HW127023   4.427   2.409   2.692
 8708SOL    HW227024   4.357   2.546   2.747
 8709SOL     OW27025   0.015   6.046   6.905
 8709SOL    HW127026   6.953   5.996   6.923
 8709SOL    HW227027   0.093   5.992   6.936
 8710SOL     OW27028   2.131   3.498   4.389
 8710SOL    HW127029   2.111   3.470   4.295
 8710SOL    HW227030   2.056   3.470   4.448
 8711SOL     OW27031   0.918   6.549   3.044
 8711SOL    HW127032   0.974   6.631   3.040
 8711SOL    HW227033   0.832   6.569   3.091
 8712SOL     OW27034   4.152   2.288   4.712
 8712SOL    HW127035   4.071   2.289   4.653
 8712SOL    HW227036   4.171   2.381   4.743
 8713SOL     OW27037   0.117   2.577   4.346
 8713SOL    HW127038   0.157   2.593   4.436
 8713SOL    HW227039   0.144   2.649   4.283
 8714SOL     OW27040   1.300   1.126   6.675
 8714SOL    HW127041   1.286   1.055   6.607
 8714SOL    HW227042   1.245   1.106   6.756
 8715SOL     OW27043   4.823   0.306   1.137
 8715SOL    HW127044   4.891   0.379   1.140
 8715SOL    HW227045   4.756   0.319   1.211
 8716SOL     OW27046   6.790   0.039   1.524
 8716SOL    HW127047   6.745   0.119   1.484
 8716SOL    HW227048   6.888   0.058   1.533
 8717SOL     OW27049   3.731   3.599   4.001
 8717SOL    HW127050   3.829   3.590   3.984
 8717SOL    HW227051   3.696   3.680   3.953
 8718SOL     OW27052   1.019   3.626   5.298
 8718SOL    HW127053   0.968   3.711   5.281
 8718SOL    HW227054   1.035   3.579   5.212
 8719SOL     OW27055   3.450   0.505   6.122
 8719SOL    HW127056   3.512   0.548   6.056
 8719SOL    HW227057   3.490   0.420   6.155
 8720SOL     OW27058   6.304   4.847   6.169
 8720SOL    HW127059   6.305   4.769   6.233
 8720SOL    HW227060   6.236   4.914   6.200
 8721SOL     OW27061   0.021   2.791   2.568
 8721SOL    HW127062   7.015   2.866   2.507
 8721SOL    HW227063   0.013   2.821   2.663
 8722SOL     OW27064   4.264   1.737   6.935
 8722SOL    HW127065   4.293   1.790   6.855
 8722SOL    HW227066   4.335   1.743   7.006
 8723SOL     OW27067   5.002   5.903   0.907
 8723SOL    HW127068   4.945   5.901   0.825
 8723SOL    HW227069   4.978   5.983   0.962
 8724SOL     OW27070   4.691   7.008   5.496
 8724SOL    HW127071   4.665   6.913   5.513
 8724SOL    HW227072   4.786   7.012   5.467
 8725SOL     OW27073   1.649   6.303   5.852
 8725SOL    HW127074   1.737   6.327   5.812
 8725SOL    HW227075   1.609   6.384   5.895
 8726SOL     OW27076   0.178   0.974   2.387
 8726SOL    HW127077   0.149   0.962   2.292
 8726SOL    HW227078   0.176   1.072   2.410
 8727SOL     OW27079   6.864   5.866   2.182
 8727SOL    HW127080   6.900   5.955   2.154
 8727SOL    HW227081   6.842   5.869   2.280
 8728SOL     OW27082   5.528   0.408   3.251
 8728SOL    HW127083   5.621   0.388   3.222
 8728SOL    HW227084   5.527   0.430   3.348
 8729SOL     OW27085   4.546   5.808   4.844
 8729SOL    HW127086   4.502   5.897   4.831
 8729SOL    HW227087   4.529   5.750   4.764
 8730SOL     OW27088   6.636   3.755   2.081
 8730SOL    HW127089   6.640   3.666   2.035
 8730SOL    HW227090   6.645   3.742   2.180
 8731SOL     OW27091   2.223   2.301   2.715
 8731SOL    HW127092   2.123   2.314   2.713
 8731SOL    HW227093   2.265   2.373   2.770
 8732SOL     OW27094   5.690   4.974   1.678
 8732SOL    HW127095   5.765   4.908   1.679
 8732SOL    HW227096   5.603   4.926   1.666
 8733SOL     OW27097   1.174   5.234   0.684
 8733SOL    HW127098   1.219   5.285   0.757
 8733SOL    HW227099   1.166   5.138   0.709
 8734SOL     OW27100   1.779   4.340   2.143
 8734SOL    HW127101   1.856   4.386   2.188
 8734SOL    HW227102   1.722   4.295   2.211
 8735SOL     OW27103   1.076   2.699   0.558
 8735SOL    HW127104   1.129   2.780   0.582
 8735SOL    HW227105   0.980   2.712   0.584
 8736SOL     OW27106   0.744   5.622   6.453
 8736SOL    HW127107   0.785   5.656   6.538
 8736SOL    HW227108   0.648   5.647   6.450
 8737SOL     OW27109   2.093   6.751   6.060
 8737SOL    HW127110   2.051   6.805   6.133
 8737SOL    HW227111   2.191   6.767   6.059
 8738SOL     OW27112   2.037   5.436   4.742
 8738SOL    HW127113   2.019   5.361   4.807
 8738SOL    HW227114   2.060   5.398   4.653
 8739SOL     OW27115   5.037   5.395   6.524
 8739SOL    HW127116   5.084   5.474   6.562
 8739SOL    HW227117   5.104   5.325   6.498
 8740SOL     OW27118   5.012   0.897   4.789
 8740SOL    HW127119   4.954   0.816   4.786
 8740SOL    HW227120   4.990   0.957   4.713
 8741SOL     OW27121   2.830   1.469   1.968
 8741SOL    HW127122   2.852   1.430   1.878
 8741SOL    HW227123   2.815   1.567   1.958
 8742SOL     OW27124   5.781   6.274   1.050
 8742SOL    HW127125   5.818   6.215   0.979
 8742SOL    HW227126   5.717   6.222   1.106
 8743SOL     OW27127   1.083   6.747   2.209
 8743SOL    HW127128   1.175   6.755   2.171
 8743SOL    HW227129   1.068   6.818   2.278
 8744SOL     OW27130   3.182   2.608   6.486
 8744SOL    HW127131   3.161   2.546   6.411
 8744SOL    HW227132   3.192   2.701   6.450
 8745SOL     OW27133   5.431   2.629   6.172
 8745SOL    HW127134   5.452   2.629   6.270
 8745SOL    HW227135   5.344   2.676   6.157
 8746SOL     OW27136   5.316   4.121   4.858
 8746SOL    HW127137   5.386   4.136   4.788
 8746SOL    HW227138   5.232   4.088   4.814
 8747SOL     OW27139   0.845   2.867   3.059
 8747SOL    HW127140   0.845   2.966   3.070
 8747SOL    HW227141   0.851   2.823   3.148
 8748SOL     OW27142   0.141   1.810   5.007
 8748SOL    HW127143   0.187   1.832   5.093
 8748SOL    HW227144   0.188   1.733   4.963
 8749SOL     OW27145   2.615   0.861   5.992
 8749SOL    HW127146   2.531   0.811   6.012
 8749SOL    HW227147   2.594   0.940   5.935
 8750SOL     OW27148   3.502   3.762   5.629
 8750SOL    HW127149   3.430   3.786   5.695
 8750SOL    HW227150   3.493   3.665   5.605
 8751SOL     OW27151   6.074   1.401   1.850
 8751SOL    HW127152   6.147   1.398   1.782
 8751SOL    HW227153   6.042   1.495   1.860
 8752SOL     OW27154   2.785   3.757   0.690
 8752SOL    HW127155   2.867   3.768   0.634
 8752SOL    HW227156   2.777   3.662   0.719
 8753SOL     OW27157   4.113   1.781   5.636
 8753SOL    HW127158   4.070   1.753   5.723
 8753SOL    HW227159   4.208   1.749   5.635
 8754SOL     OW27160   1.599   3.337   5.569
 8754SOL    HW127161   1.675   3.339   5.635
 8754SOL    HW227162   1.521   3.386   5.607
 8755SOL     OW27163   2.160   0.185   0.967
 8755SOL    HW127164   2.140   0.087   0.961
 8755SOL    HW227165   2.076   0.237   0.951
 8756SOL     OW27166   1.725   2.792   3.681
 8756SOL    HW127167   1.745   2.855   3.756
 8756SOL    HW227168   1.806   2.783   3.623
 8757SOL     OW27169   3.874   6.038   5.751
 8757SOL    HW127170   3.831   6.129   5.752
 8757SOL    HW227171   3.887   6.007   5.845
 8758SOL     OW27172   4.639   6.282   2.606
 8758SOL    HW127173   4.673   6.344   2.676
 8758SOL    HW227174   4.577   6.332   2.545
 8759SOL     OW27175   4.148   2.646   0.060
 8759SOL    HW127176   4.186   2.554   0.062
 8759SOL    HW227177   4.205   2.707   0.115
 8760SOL     OW27178   1.855   1.162   5.349
 8760SOL    HW127179   1.940   1.189   5.303
 8760SOL    HW227180   1.801   1.244   5.368
 8761SOL     OW27181   5.921   2.433   2.478
 8761SOL    HW127182   5.836   2.450   2.528
 8761SOL    HW227183   5.916   2.476   2.388
 8762SOL     OW27184   1.702   3.959   3.255
 8762SOL    HW127185   1.705   4.057   3.273
 8762SOL    HW227186   1.653   3.913   3.330
 8763SOL     OW27187   6.745   6.881   5.955
 8763SOL    HW127188   6.714   6.975   5.966
 8763SOL    HW227189   6.739   6.854   5.859
 8764SOL     OW27190   4.972   0.694   5.206
 8764SOL    HW127191   4.872   0.693   5.198
 8764SOL    HW227192   5.008   0.771   5.154
 8765SOL     OW27193   5.200   6.871   4.298
 8765SOL    HW127194   5.128   6.813   4.335
 8765SOL    HW227195   5.288   6.846   4.338
 8766SOL     OW27196   4.897   4.259   3.384
 8766SOL    HW127197   4.983   4.299   3.416
 8766SOL    HW227198   4.853   4.211   3.459
 8767SOL     OW27199   4.954   6.387   2.828
 8767SOL    HW127200   5.048   6.420   2.825
 8767SOL    HW227201   4.925   6.358   2.737
 8768SOL     OW27202   1.350   2.790   0.426
 8768SOL    HW127203   1.326   2.707   0.376
 8768SOL    HW227204   1.315   2.870   0.378
 8769SOL     OW27205   0.600   0.828   4.117
 8769SOL    HW127206   0.575   0.776   4.035
 8769SOL    HW227207   0.664   0.775   4.172
 8770SOL     OW27208   5.009   4.432   2.394
 8770SOL    HW127209   5.091   4.465   2.439
 8770SOL    HW227210   5.029   4.346   2.346
 8771SOL     OW27211   0.709   0.601   6.612
 8771SOL    HW127212   0.791   0.594   6.669
 8771SOL    HW227213   0.736   0.626   6.519
 8772SOL     OW27214   5.146   0.033   6.568
 8772SOL    HW127215   5.071   0.053   6.632
 8772SOL    HW227216   5.113   6.994   6.496
 8773SOL     OW27217   4.474   2.460   3.548
 8773SOL    HW127218   4.547   2.395   3.527
 8773SOL    HW227219   4.513   2.542   3.589
 8774SOL     OW27220   1.198   0.945   6.861
 8774SOL    HW127221   1.108   0.919   6.824
 8774SOL    HW227222   1.258   0.866   6.860
 8775SOL     OW27223   6.304   0.063   5.550
 8775SOL    HW127224   6.294   0.047   5.452
 8775SOL    HW227225   6.363   7.014   5.589
 8776SOL     OW27226   3.649   3.030   6.345
 8776SOL    HW127227   3.675   3.102   6.409
 8776SOL    HW227228   3.649   3.066   6.252
 8777SOL     OW27229   0.089   3.784   1.456
 8777SOL    HW127230   0.013   3.820   1.403
 8777SOL    HW227231   0.080   3.812   1.551
 8778SOL     OW27232   6.331   2.739   4.981
 8778SOL    HW127233   6.278   2.746   4.897
 8778SOL    HW227234   6.388   2.821   4.993
 8779SOL     OW27235   2.895   5.357   1.954
 8779SOL    HW127236   2.951   5.277   1.975
 8779SOL    HW227237   2.945   5.417   1.892
 8780SOL     OW27238   0.828   5.919   2.453
 8780SOL    HW127239   0.912   5.873   2.481
 8780SOL    HW227240   0.757   5.851   2.433
 8781SOL     OW27241   5.402   1.289   3.162
 8781SOL    HW127242   5.483   1.267   3.108
 8781SOL    HW227243   5.428   1.299   3.258
 8782SOL     OW27244   5.445   6.344   1.643
 8782SOL    HW127245   5.490   6.406   1.578
 8782SOL    HW227246   5.371   6.295   1.597
 8783SOL     OW27247   6.511   3.894   3.055
 8783SOL    HW127248   6.595   3.948   3.058
 8783SOL    HW227249   6.492   3.857   3.146
 8784SOL     OW27250   5.876   4.310   6.484
 8784SOL    HW127251   5.823   4.350   6.558
 8784SOL    HW227252   5.815   4.292   6.406
 8785SOL     OW27253   6.134   3.138   6.692
 8785SOL    HW127254   6.043   3.125   6.653
 8785SOL    HW227255   6.164   3.053   6.735
 8786SOL     OW27256   1.799   0.471   0.305
 8786SOL    HW127257   1.765   0.390   0.353
 8786SOL    HW227258   1.789   0.551   0.364
 8787SOL     OW27259   2.975   2.442   1.468
 8787SOL    HW127260   2.910   2.471   1.398
 8787SOL    HW227261   3.042   2.379   1.429
 8788SOL     OW27262   0.021   2.108   5.993
 8788SOL    HW127263   7.001   2.064   6.073
 8788SOL    HW227264   0.118   2.084   5.989
 8789SOL     OW27265   6.107   6.882   5.733
 8789SOL    HW127266   6.076   6.865   5.639
 8789SOL    HW227267   6.116   6.795   5.782
 8790SOL     OW27268   0.621   0.089   6.961
 8790SOL    HW127269   0.558   0.018   6.992
 8790SOL    HW227270   0.604   0.110   6.865
 8791SOL     OW27271   5.571   0.115   4.913
 8791SOL    HW127272   5.600   0.091   5.006
 8791SOL    HW227273   5.532   0.207   4.913
 8792SOL     OW27274   3.115   6.599   3.185
 8792SOL    HW127275   3.187   6.619   3.118
 8792SOL    HW227276   3.130   6.654   3.267
 8793SOL     OW27277   1.854   4.708   3.213
 8793SOL    HW127278   1.798   4.642   3.164
 8793SOL    HW227279   1.853   4.795   3.165
 8794SOL     OW27280   4.155   6.329   1.838
 8794SOL    HW127281   4.181   6.267   1.912
 8794SOL    HW227282   4.177   6.288   1.750
 8795SOL     OW27283   1.285   5.507   5.547
 8795SOL    HW127284   1.285   5.580   5.478
 8795SOL    HW227285   1.349   5.435   5.520
 8796SOL     OW27286   3.820   2.146   4.302
 8796SOL    HW127287   3.768   2.062   4.290
 8796SOL    HW227288   3.757   2.224   4.302
 8797SOL     OW27289   0.133   6.922   6.598
 8797SOL    HW127290   0.179   6.837   6.622
 8797SOL    HW227291   0.102   6.967   6.682
 8798SOL     OW27292   5.078   5.854   5.894
 8798SOL    HW127293   5.151   5.787   5.880
 8798SOL    HW227294   5.076   5.881   5.990
 8799SOL     OW27295   2.391   4.918   4.125
 8799SOL    HW127296   2.330   4.997   4.118
 8799SOL    HW227297   2.349   4.848   4.182
 8800SOL     OW27298   5.964   3.614   5.515
 8800SOL    HW127299   5.915   3.597   5.600
 8800SOL    HW227300   6.017   3.698   5.524
 8801SOL     OW27301   0.536   1.935   5.080
 8801SOL    HW127302   0.534   1.994   5.000
 8801SOL    HW227303   0.512   1.841   5.053
 8802SOL     OW27304   1.498   6.622   0.575
 8802SOL    HW127305   1.433   6.547   0.561
 8802SOL    HW227306   1.591   6.586   0.568
 8803SOL     OW27307   6.278   5.758   6.584
 8803SOL    HW127308   6.311   5.767   6.678
 8803SOL    HW227309   6.185   5.719   6.584
 8804SOL     OW27310   3.080   0.443   2.435
 8804SOL    HW127311   3.171   0.466   2.400
 8804SOL    HW227312   3.013   0.451   2.361
 8805SOL     OW27313   2.878   0.043   4.091
 8805SOL    HW127314   2.779   0.052   4.080
 8805SOL    HW227315   2.915   0.128   4.127
 8806SOL     OW27316   2.625   5.426   2.747
 8806SOL    HW127317   2.631   5.500   2.681
 8806SOL    HW227318   2.714   5.381   2.754
 8807SOL     OW27319   5.711   6.900   0.022
 8807SOL    HW127320   5.775   6.839   0.069
 8807SOL    HW227321   5.762   6.962   6.984
 8808SOL     OW27322   5.964   2.969   6.943
 8808SOL    HW127323   6.012   3.056   6.938
 8808SOL    HW227324   5.970   2.933   0.014
 8809SOL     OW27325   4.921   5.660   3.824
 8809SOL    HW127326   4.834   5.675   3.870
 8809SOL    HW227327   4.917   5.698   3.732
 8810SOL     OW27328   5.332   0.583   6.272
 8810SOL    HW127329   5.372   0.646   6.339
 8810SOL    HW227330   5.401   0.517   6.243
 8811SOL     OW27331   3.000   1.302   3.296
 8811SOL    HW127332   2.920   1.325   3.241
 8811SOL    HW227333   3.082   1.338   3.253
 8812SOL     OW27334   2.040   6.821   0.825
 8812SOL    HW127335   2.084   6.771   0.751
 8812SOL    HW227336   2.059   6.919   0.815
 8813SOL     OW27337   1.945   5.075   1.589
 8813SOL    HW127338   1.969   4.989   1.542
 8813SOL    HW227339   2.025   5.108   1.639
 8814SOL     OW27340   5.546   0.379   1.223
 8814SOL    HW127341   5.623   0.383   1.288
 8814SOL    HW227342   5.460   0.377   1.274
 8815SOL     OW27343   5.919   0.159   0.735
 8815SOL    HW127344   5.956   0.165   0.643
 8815SOL    HW227345   5.990   0.126   0.797
 8816SOL     OW27346   1.407   0.106   6.876
 8816SOL    HW127347   1.409   0.071   6.969
 8816SOL    HW227348   1.402   0.029   6.812
 8817SOL     OW27349   0.765   5.261   4.441
 8817SOL    HW127350   0.754   5.351   4.483
 8817SOL    HW227351   0.698   5.198   4.477
 8818SOL     OW27352   6.994   4.311   4.817
 8818SOL    HW127353   0.035   4.234   4.826
 8818SOL    HW227354   0.018   4.395   4.846
 8819SOL     OW27355   5.494   5.327   4.930
 8819SOL    HW127356   5.559   5.402   4.940
 8819SOL    HW227357   5.470   5.316   4.833
 8820SOL     OW27358   2.020   0.926   5.046
 8820SOL    HW127359   1.967   0.876   5.115
 8820SOL    HW227360   1.957   0.965   4.979
 8821SOL     OW27361   2.435   6.488   0.297
 8821SOL    HW127362   2.443   6.401   0.347
 8821SOL    HW227363   2.483   6.560   0.347
 8822SOL     OW27364   0.183   0.055   4.537
 8822SOL    HW127365   0.095   0.102   4.546
 8822SOL    HW227366   0.255   0.113   4.575
 8823SOL     OW27367   2.607   0.848   1.351
 8823SOL    HW127368   2.699   0.865   1.315
 8823SOL    HW227369   2.549   0.928   1.334
 8824SOL     OW27370   0.822   2.416   0.722
 8824SOL    HW127371   0.846   2.512   0.710
 8824SOL    HW227372   0.725   2.408   0.746
 8825SOL     OW27373   2.427   0.199   2.311
 8825SOL    HW127374   2.426   0.117   2.368
 8825SOL    HW227375   2.351   0.259   2.336
 8826SOL     OW27376   6.510   3.748   1.212
 8826SOL    HW127377   6.569   3.770   1.134
 8826SOL    HW227378   6.566   3.742   1.295
 8827SOL     OW27379   3.963   1.762   2.479
 8827SOL    HW127380   3.952   1.698   2.402
 8827SOL    HW227381   3.899   1.838   2.467
 8828SOL     OW27382   4.786   5.908   5.856
 8828SOL    HW127383   4.875   5.909   5.900
 8828SOL    HW227384   4.770   5.996   5.810
 8829SOL     OW27385   5.423   2.485   0.762
 8829SOL    HW127386   5.443   2.560   0.700
 8829SOL    HW227387   5.361   2.516   0.834
 8830SOL     OW27388   1.255   1.698   2.341
 8830SOL    HW127389   1.232   1.680   2.436
 8830SOL    HW227390   1.256   1.612   2.290
 8831SOL     OW27391   4.439   2.062   4.011
 8831SOL    HW127392   4.505   2.010   3.956
 8831SOL    HW227393   4.348   2.052   3.971
 8832SOL     OW27394   0.148   5.582   3.081
 8832SOL    HW127395   0.119   5.502   3.133
 8832SOL    HW227396   0.195   5.552   2.998
 8833SOL     OW27397   2.590   5.209   5.422
 8833SOL    HW127398   2.606   5.110   5.426
 8833SOL    HW227399   2.672   5.257   5.451
 8834SOL     OW27400   5.084   3.959   4.803
 8834SOL    HW127401   5.088   3.859   4.803
 8834SOL    HW227402   4.989   3.989   4.795
 8835SOL     OW27403   5.165   0.649   6.073
 8835SOL    HW127404   5.218   0.623   6.154
 8835SOL    HW227405   5.131   0.743   6.083
 8836SOL     OW27406   5.463   3.290   0.130
 8836SOL    HW127407   5.419   3.207   0.163
 8836SOL    HW227408   5.478   3.283   0.031
 8837SOL     OW27409   6.566   5.988   2.817
 8837SOL    HW127410   6.533   6.054   2.750
 8837SOL    HW227411   6.529   5.898   2.796
 8838SOL     OW27412   2.200   5.639   3.158
 8838SOL    HW127413   2.102   5.642   3.140
 8838SOL    HW227414   2.227   5.546   3.186
 8839SOL     OW27415   5.981   5.266   3.365
 8839SOL    HW127416   5.911   5.228   3.426
 8839SOL    HW227417   5.962   5.363   3.349
 8840SOL     OW27418   6.922   2.101   2.567
 8840SOL    HW127419   6.888   2.155   2.644
 8840SOL    HW227420   6.872   2.015   2.561
 8841SOL     OW27421   0.822   1.355   5.333
 8841SOL    HW127422   0.821   1.276   5.395
 8841SOL    HW227423   0.824   1.323   5.238
 8842SOL     OW27424   3.628   2.880   2.439
 8842SOL    HW127425   3.677   2.865   2.524
 8842SOL    HW227426   3.651   2.970   2.402
 8843SOL     OW27427   1.723   2.811   5.656
 8843SOL    HW127428   1.675   2.812   5.569
 8843SOL    HW227429   1.661   2.779   5.728
 8844SOL     OW27430   6.651   2.222   6.396
 8844SOL    HW127431   6.602   2.194   6.313
 8844SOL    HW227432   6.587   2.271   6.456
 8845SOL     OW27433   3.753   3.411   6.998
 8845SOL    HW127434   3.764   3.467   0.058
 8845SOL    HW227435   3.835   3.355   6.985
 8846SOL     OW27436   3.091   5.466   3.975
 8846SOL    HW127437   3.091   5.402   4.052
 8846SOL    HW227438   3.132   5.553   4.004
 8847SOL     OW27439   2.739   1.057   3.265
 8847SOL    HW127440   2.682   0.975   3.275
 8847SOL    HW227441   2.823   1.033   3.217
 8848SOL     OW27442   2.631   1.179   1.862
 8848SOL    HW127443   2.619   1.212   1.769
 8848SOL    HW227444   2.598   1.085   1.869
 8849SOL     OW27445   2.679   6.297   3.093
 8849SOL    HW127446   2.601   6.268   3.038
 8849SOL    HW227447   2.755   6.232   3.080
 8850SOL     OW27448   0.944   2.357   0.419
 8850SOL    HW127449   1.017   2.332   0.481
 8850SOL    HW227450   0.856   2.328   0.458
 8851SOL     OW27451   1.316   4.224   3.525
 8851SOL    HW127452   1.304   4.245   3.428
 8851SOL    HW227453   1.413   4.215   3.547
 8852SOL     OW27454   6.592   2.637   5.439
 8852SOL    HW127455   6.560   2.710   5.378
 8852SOL    HW227456   6.549   2.647   5.529
 8853SOL     OW27457   3.106   0.988   1.287
 8853SOL    HW127458   3.156   1.071   1.263
 8853SOL    HW227459   3.092   0.984   1.386
 8854SOL     OW27460   3.609   2.538   5.908
 8854SOL    HW127461   3.543   2.570   5.977
 8854SOL    HW227462   3.559   2.496   5.832
 8855SOL     OW27463   6.685   5.475   1.467
 8855SOL    HW127464   6.701   5.413   1.390
 8855SOL    HW227465   6.770   5.521   1.491
 8856SOL     OW27466   0.510   6.224   6.514
 8856SOL    HW127467   0.593   6.221   6.570
 8856SOL    HW227468   0.512   6.151   6.446
 8857SOL     OW27469   6.813   1.475   4.532
 8857SOL    HW127470   6.744   1.434   4.471
 8857SOL    HW227471   6.808   1.575   4.525
 8858SOL     OW27472   0.649   3.580   4.867
 8858SOL    HW127473   0.665   3.502   4.927
 8858SOL    HW227474   0.629   3.548   4.775
 8859SOL     OW27475   1.276   0.687   3.505
 8859SOL    HW127476   1.287   0.732   3.416
 8859SOL    HW227477   1.280   0.588   3.492
 8860SOL     OW27478   6.866   2.619   2.113
 8860SOL    HW127479   6.907   2.536   2.075
 8860SOL    HW227480   6.855   2.609   2.212
 8861SOL     OW27481   4.463   1.424   6.352
 8861SOL    HW127482   4.548   1.378   6.329
 8861SOL    HW227483   4.482   1.512   6.395
 8862SOL     OW27484   5.051   0.211   3.609
 8862SOL    HW127485   4.997   0.291   3.585
 8862SOL    HW227486   4.990   0.134   3.629
 8863SOL     OW27487   2.382   4.741   3.903
 8863SOL    HW127488   2.380   4.815   3.970
 8863SOL    HW227489   2.296   4.741   3.851
 8864SOL     OW27490   2.860   5.228   6.747
 8864SOL    HW127491   2.872   5.308   6.690
 8864SOL    HW227492   2.888   5.146   6.696
 8865SOL     OW27493   3.214   0.411   4.737
 8865SOL    HW127494   3.153   0.477   4.692
 8865SOL    HW227495   3.258   0.354   4.667
 8866SOL     OW27496   4.932   0.111   3.042
 8866SOL    HW127497   4.967   0.159   3.123
 8866SOL    HW227498   5.007   0.061   2.997
 8867SOL     OW27499   5.717   4.872   3.415
 8867SOL    HW127500   5.770   4.788   3.405
 8867SOL    HW227501   5.650   4.877   3.341
 8868SOL     OW27502   0.214   3.190   1.246
 8868SOL    HW127503   0.306   3.152   1.252
 8868SOL    HW227504   0.151   3.132   1.298
 8869SOL     OW27505   3.685   5.981   5.176
 8869SOL    HW127506   3.696   5.892   5.220
 8869SOL    HW227507   3.758   5.994   5.109
 8870SOL     OW27508   2.707   7.007   0.718
 8870SOL    HW127509   2.710   0.041   0.801
 8870SOL    HW227510   2.652   0.032   0.649
 8871SOL     OW27511   1.904   0.962   3.998
 8871SOL    HW127512   1.977   0.895   3.985
 8871SOL    HW227513   1.861   0.948   4.087
 8872SOL     OW27514   1.606   4.649   5.194
 8872SOL    HW127515   1.674   4.646   5.121
 8872SOL    HW227516   1.514   4.649   5.155
 8873SOL     OW27517   0.561   6.753   2.395
 8873SOL    HW127518   0.466   6.773   2.422
 8873SOL    HW227519   0.597   6.681   2.455
 8874SOL     OW27520   2.501   6.067   2.441
 8874SOL    HW127521   2.452   6.152   2.462
 8874SOL    HW227522   2.597   6.088   2.423
 8875SOL     OW27523   0.415   3.745   4.457
 8875SOL    HW127524   0.501   3.793   4.473
 8875SOL    HW227525   0.406   3.670   4.522
 8876SOL     OW27526   2.144   6.643   5.368
 8876SOL    HW127527   2.214   6.582   5.406
 8876SOL    HW227528   2.185   6.703   5.300
 8877SOL     OW27529   2.893   1.694   3.775
 8877SOL    HW127530   2.945   1.676   3.859
 8877SOL    HW227531   2.955   1.695   3.697
 8878SOL     OW27532   5.439   5.077   1.015
 8878SOL    HW127533   5.348   5.098   1.050
 8878SOL    HW227534   5.433   5.003   0.947
 8879SOL     OW27535   4.600   4.912   2.266
 8879SOL    HW127536   4.520   4.948   2.218
 8879SOL    HW227537   4.645   4.844   2.207
 8880SOL     OW27538   4.605   5.969   4.589
 8880SOL    HW127539   4.564   6.040   4.646
 8880SOL    HW227540   4.535   5.903   4.562
 8881SOL     OW27541   5.238   6.534   3.850
 8881SOL    HW127542   5.227   6.630   3.876
 8881SOL    HW227543   5.182   6.516   3.769
 8882SOL     OW27544   5.268   0.905   1.450
 8882SOL    HW127545   5.329   0.835   1.485
 8882SOL    HW227546   5.312   0.995   1.455
 8883SOL     OW27547   1.914   6.121   6.241
 8883SOL    HW127548   1.939   6.175   6.160
 8883SOL    HW227549   1.973   6.041   6.247
 8884SOL     OW27550   5.856   3.416   5.237
 8884SOL    HW127551   5.898   3.333   5.202
 8884SOL    HW227552   5.758   3.401   5.249
 8885SOL     OW27553   5.602   4.375   1.291
 8885SOL    HW127554   5.596   4.449   1.224
 8885SOL    HW227555   5.694   4.335   1.288
 8886SOL     OW27556   2.776   6.269   4.916
 8886SOL    HW127557   2.870   6.246   4.943
 8886SOL    HW227558   2.774   6.361   4.878
 8887SOL     OW27559   3.758   0.739   0.697
 8887SOL    HW127560   3.677   0.778   0.653
 8887SOL    HW227561   3.820   0.704   0.627
 8888SOL     OW27562   1.935   1.465   5.691
 8888SOL    HW127563   1.910   1.550   5.738
 8888SOL    HW227564   2.032   1.465   5.670
 8889SOL     OW27565   6.809   7.016   0.245
 8889SOL    HW127566   6.719   0.019   0.209
 8889SOL    HW227567   6.811   0.011   0.344
 8890SOL     OW27568   0.101   6.146   5.259
 8890SOL    HW127569   0.063   6.229   5.217
 8890SOL    HW227570   0.066   6.138   5.353
 8891SOL     OW27571   4.087   3.627   6.726
 8891SOL    HW127572   4.051   3.580   6.646
 8891SOL    HW227573   4.083   3.726   6.711
 8892SOL     OW27574   3.792   5.113   2.439
 8892SOL    HW127575   3.746   5.199   2.460
 8892SOL    HW227576   3.746   5.068   2.362
 8893SOL     OW27577   0.929   5.480   4.034
 8893SOL    HW127578   0.848   5.530   4.004
 8893SOL    HW227579   1.009   5.538   4.025
 8894SOL     OW27580   2.871   1.667   6.785
 8894SOL    HW127581   2.953   1.683   6.839
 8894SOL    HW227582   2.839   1.573   6.800
 8895SOL     OW27583   6.964   3.000   2.372
 8895SOL    HW127584   6.890   3.067   2.382
 8895SOL    HW227585   6.958   2.958   2.282
 8896SOL     OW27586   2.281   2.915   5.380
 8896SOL    HW127587   2.338   2.941   5.302
 8896SOL    HW227588   2.235   2.996   5.416
 8897SOL     OW27589   2.271   2.789   3.890
 8897SOL    HW127590   2.298   2.856   3.821
 8897SOL    HW227591   2.269   2.698   3.850
 8898SOL     OW27592   4.901   3.537   2.582
 8898SOL    HW127593   4.896   3.531   2.682
 8898SOL    HW227594   4.851   3.617   2.550
 8899SOL     OW27595   1.050   4.622   1.494
 8899SOL    HW127596   1.079   4.606   1.588
 8899SOL    HW227597   0.967   4.568   1.475
 8900SOL     OW27598   5.595   3.104   3.001
 8900SOL    HW127599   5.529   3.165   3.044
 8900SOL    HW227600   5.659   3.157   2.945
 8901SOL     OW27601   1.297   1.270   4.663
 8901SOL    HW127602   1.291   1.282   4.762
 8901SOL    HW227603   1.365   1.332   4.626
 8902SOL     OW27604   0.903   5.758   0.636
 8902SOL    HW127605   0.917   5.667   0.597
 8902SOL    HW227606   0.951   5.765   0.723
 8903SOL     OW27607   0.574   1.984   4.315
 8903SOL    HW127608   0.601   1.903   4.263
 8903SOL    HW227609   0.486   1.968   4.359
 8904SOL     OW27610   6.890   0.906   5.185
 8904SOL    HW127611   6.912   0.823   5.236
 8904SOL    HW227612   6.797   0.900   5.149
 8905SOL     OW27613   2.133   3.605   3.504
 8905SOL    HW127614   2.123   3.540   3.429
 8905SOL    HW227615   2.168   3.692   3.469
 8906SOL     OW27616   1.418   6.512   0.232
 8906SOL    HW127617   1.515   6.486   0.232
 8906SOL    HW227618   1.379   6.495   0.322
 8907SOL     OW27619   3.142   3.064   5.532
 8907SOL    HW127620   3.063   3.124   5.543
 8907SOL    HW227621   3.120   2.990   5.468
 8908SOL     OW27622   1.442   5.596   6.917
 8908SOL    HW127623   1.482   5.509   6.946
 8908SOL    HW227624   1.419   5.651   6.998
 8909SOL     OW27625   2.622   1.208   5.562
 8909SOL    HW127626   2.648   1.275   5.493
 8909SOL    HW227627   2.549   1.150   5.526
 8910SOL     OW27628   0.420   3.044   5.937
 8910SOL    HW127629   0.520   3.031   5.941
 8910SOL    HW227630   0.397   3.135   5.969
 8911SOL     OW27631   4.713   2.610   4.370
 8911SOL    HW127632   4.734   2.515   4.351
 8911SOL    HW227633   4.770   2.670   4.314
 8912SOL     OW27634   3.202   3.491   0.125
 8912SOL    HW127635   3.200   3.591   0.125
 8912SOL    HW227636   3.197   3.457   0.031
 8913SOL     OW27637   4.219   5.545   6.048
 8913SOL    HW127638   4.179   5.548   5.956
 8913SOL    HW227639   4.277   5.626   6.062
 8914SOL     OW27640   4.319   6.687   4.712
 8914SOL    HW127641   4.323   6.613   4.645
 8914SOL    HW227642   4.241   6.672   4.773
 8915SOL     OW27643   1.319   2.486   3.684
 8915SOL    HW127644   1.275   2.480   3.594
 8915SOL    HW227645   1.302   2.577   3.722
 8916SOL     OW27646   6.663   3.201   0.995
 8916SOL    HW127647   6.733   3.175   1.061
 8916SOL    HW227648   6.580   3.147   1.012
 8917SOL     OW27649   6.264   2.640   0.337
 8917SOL    HW127650   6.260   2.725   0.284
 8917SOL    HW227651   6.315   2.656   0.421
 8918SOL     OW27652   6.891   4.369   1.201
 8918SOL    HW127653   6.991   4.377   1.201
 8918SOL    HW227654   6.860   4.344   1.293
 8919SOL     OW27655   4.592   4.258   0.054
 8919SOL    HW127656   4.654   4.180   0.059
 8919SOL    HW227657   4.572   4.278   6.980
 8920SOL     OW27658   0.247   1.613   6.794
 8920SOL    HW127659   0.266   1.638   6.889
 8920SOL    HW227660   0.151   1.631   6.774
 8921SOL     OW27661   1.741   2.632   1.783
 8921SOL    HW127662   1.655   2.670   1.815
 8921SOL    HW227663   1.817   2.670   1.836
 8922SOL     OW27664   4.227   5.219   2.095
 8922SOL    HW127665   4.225   5.240   2.193
 8922SOL    HW227666   4.314   5.177   2.071
 8923SOL     OW27667   1.714   1.503   6.830
 8923SOL    HW127668   1.736   1.450   6.912
 8923SOL    HW227669   1.756   1.594   6.836
 8924SOL     OW27670   4.640   5.624   5.270
 8924SOL    HW127671   4.703   5.547   5.276
 8924SOL    HW227672   4.661   5.679   5.188
 8925SOL     OW27673   1.059   0.629   2.632
 8925SOL    HW127674   1.061   0.577   2.717
 8925SOL    HW227675   1.029   0.569   2.558
 8926SOL     OW27676   6.769   3.124   6.278
 8926SOL    HW127677   6.842   3.081   6.332
 8926SOL    HW227678   6.699   3.057   6.257
 8927SOL     OW27679   0.052   0.871   4.978
 8927SOL    HW127680   0.104   0.787   4.997
 8927SOL    HW227681   7.003   0.882   5.047
 8928SOL     OW27682   1.505   0.018   6.065
 8928SOL    HW127683   1.580   7.004   6.008
 8928SOL    HW227684   1.420   6.993   6.040
 8929SOL     OW27685   5.581   1.445   4.976
 8929SOL    HW127686   5.550   1.445   4.881
 8929SOL    HW227687   5.644   1.368   4.991
 8930SOL     OW27688   1.500   3.015   4.740
 8930SOL    HW127689   1.427   2.977   4.682
 8930SOL    HW227690   1.588   3.000   4.696
 8931SOL     OW27691   3.034   3.490   1.066
 8931SOL    HW127692   3.012   3.580   1.105
 8931SOL    HW227693   2.951   3.434   1.062
 8932SOL     OW27694   6.024   2.092   1.789
 8932SOL    HW127695   5.981   2.087   1.879
 8932SOL    HW227696   5.991   2.016   1.732
 8933SOL     OW27697   2.675   2.944   6.295
 8933SOL    HW127698   2.615   2.955   6.374
 8933SOL    HW227699   2.734   2.864   6.308
 8934SOL     OW27700   2.455   5.470   4.526
 8934SOL    HW127701   2.543   5.493   4.483
 8934SOL    HW227702   2.444   5.371   4.529
 8935SOL     OW27703   0.629   4.392   0.243
 8935SOL    HW127704   0.620   4.387   0.342
 8935SOL    HW227705   0.539   4.413   0.203
 8936SOL     OW27706   1.387   3.719   2.579
 8936SOL    HW127707   1.427   3.788   2.639
 8936SOL    HW227708   1.351   3.763   2.497
 8937SOL     OW27709   0.322   0.356   5.842
 8937SOL    HW127710   0.289   0.327   5.932
 8937SOL    HW227711   0.368   0.444   5.851
 8938SOL     OW27712   0.624   6.309   0.237
 8938SOL    HW127713   0.568   6.336   0.159
 8938SOL    HW227714   0.657   6.215   0.225
 8939SOL     OW27715   5.220   3.981   4.202
 8939SOL    HW127716   5.165   3.916   4.256
 8939SOL    HW227717   5.309   3.992   4.245
 8940SOL     OW27718   0.420   1.189   1.956
 8940SOL    HW127719   0.454   1.277   1.924
 8940SOL    HW227720   0.330   1.201   1.999
 8941SOL     OW27721   6.202   2.525   5.379
 8941SOL    HW127722   6.172   2.566   5.294
 8941SOL    HW227723   6.132   2.536   5.449
 8942SOL     OW27724   6.305   4.799   5.460
 8942SOL    HW127725   6.375   4.869   5.471
 8942SOL    HW227726   6.348   4.712   5.439
 8943SOL     OW27727   3.343   5.312   5.997
 8943SOL    HW127728   3.433   5.318   6.040
 8943SOL    HW227729   3.315   5.216   5.992
 8944SOL     OW27730   6.008   5.085   5.815
 8944SOL    HW127731   6.047   5.027   5.743
 8944SOL    HW227732   5.914   5.056   5.833
 8945SOL     OW27733   1.319   0.407   2.958
 8945SOL    HW127734   1.349   0.440   2.868
 8945SOL    HW227735   1.344   0.311   2.968
 8946SOL     OW27736   3.206   1.614   5.040
 8946SOL    HW127737   3.146   1.637   5.116
 8946SOL    HW227738   3.287   1.673   5.043
 8947SOL     OW27739   2.105   3.289   6.155
 8947SOL    HW127740   2.168   3.221   6.117
 8947SOL    HW227741   2.016   3.281   6.110
 8948SOL     OW27742   5.778   5.800   4.960
 8948SOL    HW127743   5.806   5.745   4.882
 8948SOL    HW227744   5.782   5.897   4.936
 8949SOL     OW27745   3.150   6.731   0.651
 8949SOL    HW127746   3.136   6.636   0.676
 8949SOL    HW227747   3.074   6.786   0.684
 8950SOL     OW27748   4.840   4.249   6.355
 8950SOL    HW127749   4.822   4.312   6.279
 8950SOL    HW227750   4.914   4.186   6.329
 8951SOL     OW27751   1.220   1.656   5.288
 8951SOL    HW127752   1.127   1.620   5.287
 8951SOL    HW227753   1.283   1.587   5.252
 8952SOL     OW27754   1.320   6.416   2.786
 8952SOL    HW127755   1.263   6.431   2.867
 8952SOL    HW227756   1.361   6.325   2.791
 8953SOL     OW27757   1.985   4.224   6.642
 8953SOL    HW127758   1.987   4.308   6.589
 8953SOL    HW227759   2.063   4.221   6.704
 8954SOL     OW27760   0.690   0.361   4.875
 8954SOL    HW127761   0.593   0.341   4.891
 8954SOL    HW227762   0.735   0.279   4.841
 8955SOL     OW27763   7.018   4.997   2.238
 8955SOL    HW127764   0.023   5.052   2.317
 8955SOL    HW227765   6.966   5.054   2.174
 8956SOL     OW27766   1.504   1.016   0.009
 8956SOL    HW127767   1.407   1.005   0.032
 8956SOL    HW227768   1.539   1.098   0.053
 8957SOL     OW27769   2.719   4.692   1.038
 8957SOL    HW127770   2.781   4.748   0.983
 8957SOL    HW227771   2.733   4.711   1.135
 8958SOL     OW27772   0.645   1.605   5.065
 8958SOL    HW127773   0.632   1.507   5.050
 8958SOL    HW227774   0.556   1.649   5.074
 8959SOL     OW27775   1.826   4.679   1.782
 8959SOL    HW127776   1.809   4.777   1.770
 8959SOL    HW227777   1.922   4.658   1.763
 8960SOL     OW27778   4.689   4.742   2.578
 8960SOL    HW127779   4.642   4.828   2.559
 8960SOL    HW227780   4.633   4.665   2.548
 8961SOL     OW27781   2.396   1.015   4.311
 8961SOL    HW127782   2.318   0.952   4.309
 8961SOL    HW227783   2.384   1.080   4.385
 8962SOL     OW27784   6.446   5.721   2.189
 8962SOL    HW127785   6.489   5.742   2.101
 8962SOL    HW227786   6.517   5.694   2.255
 8963SOL     OW27787   3.993   6.274   4.100
 8963SOL    HW127788   4.037   6.321   4.023
 8963SOL    HW227789   4.051   6.199   4.131
 8964SOL     OW27790   5.067   3.601   3.184
 8964SOL    HW127791   5.012   3.517   3.179
 8964SOL    HW227792   5.162   3.580   3.164
 8965SOL     OW27793   2.764   4.860   0.234
 8965SOL    HW127794   2.706   4.930   0.275
 8965SOL    HW227795   2.763   4.778   0.291
 8966SOL     OW27796   0.054   4.427   0.247
 8966SOL    HW127797   0.002   4.456   0.328
 8966SOL    HW227798   0.132   4.372   0.277
 8967SOL     OW27799   4.211   0.536   1.477
 8967SOL    HW127800   4.293   0.494   1.516
 8967SOL    HW227801   4.194   0.497   1.386
 8968SOL     OW27802   4.744   5.452   2.938
 8968SOL    HW127803   4.758   5.353   2.944
 8968SOL    HW227804   4.792   5.488   2.858
 8969SOL     OW27805   6.629   1.361   4.690
 8969SOL    HW127806   6.615   1.403   4.780
 8969SOL    HW227807   6.708   1.403   4.646
 8970SOL     OW27808   2.316   2.939   0.380
 8970SOL    HW127809   2.400   2.992   0.374
 8970SOL    HW227810   2.243   2.984   0.328
 8971SOL     OW27811   5.690   5.401   1.167
 8971SOL    HW127812   5.667   5.318   1.217
 8971SOL    HW227813   5.686   5.383   1.069
 8972SOL     OW27814   5.383   4.407   6.812
 8972SOL    HW127815   5.305   4.453   6.854
 8972SOL    HW227816   5.399   4.320   6.858
 8973SOL     OW27817   0.940   3.097   2.421
 8973SOL    HW127818   0.908   3.032   2.490
 8973SOL    HW227819   0.861   3.134   2.372
 8974SOL     OW27820   1.011   4.471   5.390
 8974SOL    HW127821   1.047   4.438   5.478
 8974SOL    HW227822   1.082   4.465   5.320
 8975SOL     OW27823   1.533   6.847   5.615
 8975SOL    HW127824   1.622   6.806   5.593
 8975SOL    HW227825   1.460   6.791   5.577
 8976SOL     OW27826   6.854   5.133   5.885
 8976SOL    HW127827   6.830   5.178   5.798
 8976SOL    HW227828   6.810   5.182   5.960
 8977SOL     OW27829   6.204   2.380   0.308
 8977SOL    HW127830   6.239   2.473   0.312
 8977SOL    HW227831   6.160   2.357   0.394
 8978SOL     OW27832   5.785   0.399   4.154
 8978SOL    HW127833   5.843   0.352   4.087
 8978SOL    HW227834   5.782   0.496   4.133
 8979SOL     OW27835   1.493   4.050   4.664
 8979SOL    HW127836   1.546   3.980   4.615
 8979SOL    HW227837   1.480   4.022   4.759
 8980SOL     OW27838   3.413   2.835   5.535
 8980SOL    HW127839   3.503   2.816   5.496
 8980SOL    HW227840   3.371   2.749   5.564
 8981SOL     OW27841   4.230   1.176   5.794
 8981SOL    HW127842   4.315   1.191   5.743
 8981SOL    HW227843   4.152   1.199   5.736
 8982SOL     OW27844   0.496   2.430   1.706
 8982SOL    HW127845   0.508   2.519   1.662
 8982SOL    HW227846   0.408   2.391   1.677
 8983SOL     OW27847   1.334   5.957   6.895
 8983SOL    HW127848   1.260   6.017   6.925
 8983SOL    HW227849   1.325   5.868   6.940
 8984SOL     OW27850   6.530   6.771   4.235
 8984SOL    HW127851   6.589   6.851   4.227
 8984SOL    HW227852   6.584   6.693   4.267
 8985SOL     OW27853   2.537   1.834   1.118
 8985SOL    HW127854   2.556   1.879   1.031
 8985SOL    HW227855   2.439   1.835   1.135
 8986SOL     OW27856   4.483   5.130   2.119
 8986SOL    HW127857   4.541   5.170   2.048
 8986SOL    HW227858   4.498   5.178   2.206
 8987SOL     OW27859   5.057   0.001   0.953
 8987SOL    HW127860   5.005   0.057   0.888
 8987SOL    HW227861   5.148   0.040   0.964
 8988SOL     OW27862   0.952   3.492   5.893
 8988SOL    HW127863   1.004   3.480   5.977
 8988SOL    HW227864   0.903   3.579   5.895
 8989SOL     OW27865   4.691   3.820   1.271
 8989SOL    HW127866   4.643   3.810   1.184
 8989SOL    HW227867   4.652   3.755   1.337
 8990SOL     OW27868   1.792   6.197   3.110
 8990SOL    HW127869   1.798   6.107   3.066
 8990SOL    HW227870   1.883   6.240   3.109
 8991SOL     OW27871   1.195   1.379   6.966
 8991SOL    HW127872   1.284   1.406   6.930
 8991SOL    HW227873   1.132   1.365   6.890
 8992SOL     OW27874   5.769   1.858   0.012
 8992SOL    HW127875   5.693   1.792   0.007
 8992SOL    HW227876   5.856   1.808   0.013
 8993SOL     OW27877   4.693   2.177   2.434
 8993SOL    HW127878   4.771   2.166   2.372
 8993SOL    HW227879   4.641   2.091   2.437
 8994SOL     OW27880   1.153   4.854   4.355
 8994SOL    HW127881   1.171   4.757   4.366
 8994SOL    HW227882   1.166   4.880   4.260
 8995SOL     OW27883   0.869   2.569   0.062
 8995SOL    HW127884   0.925   2.550   0.142
 8995SOL    HW227885   0.923   2.621   7.017
 8996SOL     OW27886   6.326   4.869   1.073
 8996SOL    HW127887   6.372   4.956   1.058
 8996SOL    HW227888   6.394   4.795   1.076
 8997SOL     OW27889   4.755   1.157   6.014
 8997SOL    HW127890   4.720   1.104   5.936
 8997SOL    HW227891   4.685   1.221   6.044
 8998SOL     OW27892   6.522   3.809   4.704
 8998SOL    HW127893   6.517   3.904   4.735
 8998SOL    HW227894   6.594   3.800   4.635
 8999SOL     OW27895   5.079   6.351   0.265
 8999SOL    HW127896   5.064   6.257   0.296
 8999SOL    HW227897   4.991   6.393   0.242
 9000SOL     OW27898   2.041   4.329   0.733
 9000SOL    HW127899   1.964   4.305   0.674
 9000SOL    HW227900   2.114   4.262   0.722
 9001SOL     OW27901   1.033   5.369   2.570
 9001SOL    HW127902   1.113   5.423   2.545
 9001SOL    HW227903   1.052   5.272   2.554
 9002SOL     OW27904   6.954   4.853   5.177
 9002SOL    HW127905   6.873   4.888   5.130
 9002SOL    HW227906   0.010   4.911   5.157
 9003SOL     OW27907   5.248   2.811   1.590
 9003SOL    HW127908   5.168   2.834   1.645
 9003SOL    HW227909   5.261   2.712   1.590
 9004SOL     OW27910   4.082   6.496   1.412
 9004SOL    HW127911   4.058   6.592   1.395
 9004SOL    HW227912   4.062   6.441   1.331
 9005SOL     OW27913   5.165   2.686   4.182
 9005SOL    HW127914   5.137   2.745   4.257
 9005SOL    HW227915   5.265   2.675   4.184
 9006SOL     OW27916   2.334   6.875   0.709
 9006SOL    HW127917   2.388   6.959   0.712
 9006SOL    HW227918   2.335   6.831   0.799
 9007SOL     OW27919   3.599   0.967   4.462
 9007SOL    HW127920   3.696   0.950   4.443
 9007SOL    HW227921   3.543   0.910   4.403
 9008SOL     OW27922   1.281   5.756   3.170
 9008SOL    HW127923   1.305   5.715   3.083
 9008SOL    HW227924   1.185   5.737   3.191
 9009SOL     OW27925   3.185   0.285   0.609
 9009SOL    HW127926   3.150   0.353   0.673
 9009SOL    HW227927   3.282   0.269   0.627
 9010SOL     OW27928   1.451   6.421   3.793
 9010SOL    HW127929   1.428   6.379   3.880
 9010SOL    HW227930   1.537   6.472   3.802
 9011SOL     OW27931   5.248   2.427   2.189
 9011SOL    HW127932   5.257   2.420   2.089
 9011SOL    HW227933   5.318   2.370   2.232
 9012SOL     OW27934   2.158   4.337   1.137
 9012SOL    HW127935   2.061   4.338   1.110
 9012SOL    HW227936   2.215   4.330   1.056
 9013SOL     OW27937   6.823   6.767   5.167
 9013SOL    HW127938   6.766   6.700   5.216
 9013SOL    HW227939   6.919   6.749   5.187
 9014SOL     OW27940   6.379   1.965   0.189
 9014SOL    HW127941   6.300   1.919   0.230
 9014SOL    HW227942   6.379   2.061   0.216
 9015SOL     OW27943   5.143   1.303   0.964
 9015SOL    HW127944   5.127   1.394   0.926
 9015SOL    HW227945   5.229   1.266   0.928
 9016SOL     OW27946   0.436   6.863   6.480
 9016SOL    HW127947   0.489   6.783   6.509
 9016SOL    HW227948   0.397   6.908   6.561
 9017SOL     OW27949   4.187   1.906   3.216
 9017SOL    HW127950   4.167   1.856   3.132
 9017SOL    HW227951   4.191   2.004   3.196
 9018SOL     OW27952   3.956   2.309   0.161
 9018SOL    HW127953   4.049   2.320   0.126
 9018SOL    HW227954   3.906   2.395   0.151
 9019SOL     OW27955   1.368   6.773   2.127
 9019SOL    HW127956   1.466   6.755   2.122
 9019SOL    HW227957   1.345   6.846   2.062
 9020SOL     OW27958   0.443   4.241   1.749
 9020SOL    HW127959   0.367   4.282   1.798
 9020SOL    HW227960   0.435   4.141   1.751
 9021SOL     OW27961   6.625   0.131   4.047
 9021SOL    HW127962   6.662   0.074   4.120
 9021SOL    HW227963   6.676   0.217   4.043
 9022SOL     OW27964   3.356   2.281   6.732
 9022SOL    HW127965   3.387   2.261   6.825
 9022SOL    HW227966   3.257   2.296   6.732
 9023SOL     OW27967   2.956   3.194   2.501
 9023SOL    HW127968   2.962   3.180   2.402
 9023SOL    HW227969   2.878   3.142   2.537
 9024SOL     OW27970   0.669   4.590   4.687
 9024SOL    HW127971   0.641   4.581   4.592
 9024SOL    HW227972   0.611   4.658   4.733
 9025SOL     OW27973   1.020   5.065   0.218
 9025SOL    HW127974   1.070   5.096   0.137
 9025SOL    HW227975   1.024   5.135   0.289
 9026SOL     OW27976   4.413   3.074   1.173
 9026SOL    HW127977   4.331   3.016   1.172
 9026SOL    HW227978   4.493   3.018   1.195
 9027SOL     OW27979   1.421   2.387   4.107
 9027SOL    HW127980   1.338   2.375   4.053
 9027SOL    HW227981   1.497   2.340   4.062
 9028SOL     OW27982   2.379   3.435   5.357
 9028SOL    HW127983   2.308   3.459   5.291
 9028SOL    HW227984   2.391   3.509   5.422
 9029SOL     OW27985   3.757   6.601   5.025
 9029SOL    HW127986   3.777   6.659   5.104
 9029SOL    HW227987   3.703   6.653   4.959
 9030SOL     OW27988   2.362   1.790   3.109
 9030SOL    HW127989   2.287   1.835   3.061
 9030SOL    HW227990   2.446   1.799   3.055
 9031SOL     OW27991   4.101   5.243   4.380
 9031SOL    HW127992   4.034   5.170   4.368
 9031SOL    HW227993   4.062   5.329   4.348
 9032SOL     OW27994   3.886   3.115   0.596
 9032SOL    HW127995   3.939   3.069   0.525
 9032SOL    HW227996   3.851   3.201   0.560
 9033SOL     OW27997   1.129   4.050   3.274
 9033SOL    HW127998   1.178   4.137   3.278
 9033SOL    HW227999   1.102   4.032   3.179
 9034SOL     OW28000   2.646   0.430   5.590
 9034SOL    HW128001   2.625   0.468   5.499
 9034SOL    HW228002   2.583   0.355   5.610
 9035SOL     OW28003   1.224   4.846   6.221
 9035SOL    HW128004   1.305   4.900   6.246
 9035SOL    HW228005   1.200   4.865   6.126
 9036SOL     OW28006   1.604   1.206   5.935
 9036SOL    HW128007   1.704   1.202   5.930
 9036SOL    HW228008   1.578   1.263   6.014
 9037SOL     OW28009   1.077   4.174   5.487
 9037SOL    HW128010   1.141   4.241   5.524
 9037SOL    HW228011   1.062   4.192   5.390
 9038SOL     OW28012   4.259   6.723   5.721
 9038SOL    HW128013   4.285   6.796   5.784
 9038SOL    HW228014   4.339   6.668   5.698
 9039SOL     OW28015   2.534   5.645   5.324
 9039SOL    HW128016   2.481   5.585   5.384
 9039SOL    HW228017   2.498   5.640   5.231
 9040SOL     OW28018   3.382   1.659   2.469
 9040SOL    HW128019   3.446   1.597   2.424
 9040SOL    HW228020   3.292   1.616   2.474
 9041SOL     OW28021   0.924   2.444   1.581
 9041SOL    HW128022   1.014   2.402   1.568
 9041SOL    HW228023   0.936   2.540   1.607
 9042SOL     OW28024   3.093   0.297   3.907
 9042SOL    HW128025   3.155   0.374   3.894
 9042SOL    HW228026   3.069   0.291   4.004
 9043SOL     OW28027   1.267   0.961   0.128
 9043SOL    HW128028   1.210   0.923   0.054
 9043SOL    HW228029   1.216   1.035   0.174
 9044SOL     OW28030   6.370   0.894   0.304
 9044SOL    HW128031   6.379   0.991   0.324
 9044SOL    HW228032   6.431   0.842   0.363
 9045SOL     OW28033   2.566   1.386   2.275
 9045SOL    HW128034   2.645   1.342   2.233
 9045SOL    HW228035   2.487   1.325   2.271
 9046SOL     OW28036   3.667   3.551   3.242
 9046SOL    HW128037   3.716   3.467   3.263
 9046SOL    HW228038   3.572   3.530   3.219
 9047SOL     OW28039   1.645   3.272   5.886
 9047SOL    HW128040   1.554   3.293   5.850
 9047SOL    HW228041   1.714   3.306   5.823
 9048SOL     OW28042   5.264   2.963   5.985
 9048SOL    HW128043   5.230   3.017   5.909
 9048SOL    HW228044   5.362   2.949   5.975
 9049SOL     OW28045   3.314   0.214   6.015
 9049SOL    HW128046   3.311   0.121   6.052
 9049SOL    HW228047   3.319   0.280   6.090
 9050SOL     OW28048   0.275   3.080   0.545
 9050SOL    HW128049   0.357   3.058   0.598
 9050SOL    HW228050   0.194   3.063   0.600
 9051SOL     OW28051   3.946   6.714   0.866
 9051SOL    HW128052   3.947   6.622   0.905
 9051SOL    HW228053   4.000   6.715   0.782
 9052SOL     OW28054   2.413   2.254   3.774
 9052SOL    HW128055   2.425   2.158   3.799
 9052SOL    HW228056   2.325   2.266   3.729
 9053SOL     OW28057   2.114   1.438   2.791
 9053SOL    HW128058   2.026   1.478   2.818
 9053SOL    HW228059   2.111   1.339   2.805
 9054SOL     OW28060   2.988   6.193   2.858
 9054SOL    HW128061   2.966   6.289   2.879
 9054SOL    HW228062   2.966   6.174   2.762
 9055SOL     OW28063   5.433   2.703   4.276
 9055SOL    HW128064   5.411   2.698   4.373
 9055SOL    HW228065   5.478   2.790   4.256
 9056SOL     OW28066   0.420   1.290   2.319
 9056SOL    HW128067   0.439   1.351   2.242
 9056SOL    HW228068   0.397   1.344   2.399
 9057SOL     OW28069   5.046   4.266   5.854
 9057SOL    HW128070   5.040   4.304   5.946
 9057SOL    HW228071   5.134   4.219   5.843
 9058SOL     OW28072   2.322   2.193   2.479
 9058SOL    HW128073   2.285   2.249   2.552
 9058SOL    HW228074   2.269   2.109   2.471
 9059SOL     OW28075   0.990   2.115   4.170
 9059SOL    HW128076   0.993   2.215   4.174
 9059SOL    HW228077   1.078   2.080   4.137
 9060SOL     OW28078   6.849   2.764   3.686
 9060SOL    HW128079   6.879   2.747   3.592
 9060SOL    HW228080   6.887   2.851   3.719
 9061SOL     OW28081   2.345   5.843   2.568
 9061SOL    HW128082   2.248   5.863   2.581
 9061SOL    HW228083   2.386   5.911   2.508
 9062SOL     OW28084   1.661   6.303   1.940
 9062SOL    HW128085   1.570   6.343   1.930
 9062SOL    HW228086   1.670   6.262   2.031
 9063SOL     OW28087   2.425   7.002   3.115
 9063SOL    HW128088   2.509   6.949   3.129
 9063SOL    HW228089   2.371   6.961   3.042
 9064SOL     OW28090   6.111   1.851   5.349
 9064SOL    HW128091   6.154   1.761   5.338
 9064SOL    HW228092   6.104   1.873   5.447
 9065SOL     OW28093   2.907   0.014   5.663
 9065SOL    HW128094   2.829   0.039   5.606
 9065SOL    HW228095   2.943   0.095   5.708
 9066SOL     OW28096   4.991   6.200   0.762
 9066SOL    HW128097   4.929   6.126   0.737
 9066SOL    HW228098   4.979   6.276   0.698
 9067SOL     OW28099   0.189   0.434   4.624
 9067SOL    HW128100   0.153   0.450   4.532
 9067SOL    HW228101   0.113   0.413   4.686
 9068SOL     OW28102   2.240   6.577   4.364
 9068SOL    HW128103   2.340   6.582   4.374
 9068SOL    HW228104   2.210   6.483   4.380
 9069SOL     OW28105   1.858   3.333   1.414
 9069SOL    HW128106   1.769   3.311   1.452
 9069SOL    HW228107   1.848   3.361   1.318
 9070SOL     OW28108   1.236   3.928   4.826
 9070SOL    HW128109   1.213   4.012   4.778
 9070SOL    HW228110   1.322   3.941   4.876
 9071SOL     OW28111   5.323   0.586   1.690
 9071SOL    HW128112   5.347   0.506   1.636
 9071SOL    HW228113   5.377   0.665   1.660
 9072SOL     OW28114   0.073   1.624   2.046
 9072SOL    HW128115   0.145   1.570   2.091
 9072SOL    HW228116   7.006   1.586   2.069
 9073SOL     OW28117   3.153   6.995   2.633
 9073SOL    HW128118   3.216   6.934   2.681
 9073SOL    HW228119   3.178   0.068   2.650
 9074SOL     OW28120   1.831   2.165   2.036
 9074SOL    HW128121   1.756   2.166   2.102
 9074SOL    HW228122   1.808   2.223   1.958
 9075SOL     OW28123   1.116   1.463   2.179
 9075SOL    HW128124   1.022   1.492   2.162
 9075SOL    HW228125   1.122   1.415   2.266
 9076SOL     OW28126   6.754   2.028   5.798
 9076SOL    HW128127   6.801   2.067   5.719
 9076SOL    HW228128   6.777   1.931   5.807
 9077SOL     OW28129   4.215   0.370   0.276
 9077SOL    HW128130   4.177   0.458   0.247
 9077SOL    HW228131   4.311   0.365   0.249
 9078SOL     OW28132   4.356   3.378   6.219
 9078SOL    HW128133   4.455   3.364   6.230
 9078SOL    HW228134   4.336   3.395   6.123
 9079SOL     OW28135   3.357   0.459   4.339
 9079SOL    HW128136   3.305   0.545   4.340
 9079SOL    HW228137   3.439   0.471   4.283
 9080SOL     OW28138   4.334   2.405   6.411
 9080SOL    HW128139   4.245   2.359   6.424
 9080SOL    HW228140   4.329   2.464   6.331
 9081SOL     OW28141   3.546   7.004   2.430
 9081SOL    HW128142   3.643   0.003   2.430
 9081SOL    HW228143   3.526   6.939   2.504
 9082SOL     OW28144   1.891   0.393   5.705
 9082SOL    HW128145   1.966   0.331   5.683
 9082SOL    HW228146   1.809   0.339   5.724
 9083SOL     OW28147   3.265   5.675   6.195
 9083SOL    HW128148   3.282   5.710   6.103
 9083SOL    HW228149   3.349   5.677   6.248
 9084SOL     OW28150   3.089   4.005   4.647
 9084SOL    HW128151   3.141   4.062   4.583
 9084SOL    HW228152   3.024   4.062   4.697
 9085SOL     OW28153   2.455   6.982   1.922
 9085SOL    HW128154   2.458   6.983   1.822
 9085SOL    HW228155   2.377   0.015   1.954
 9086SOL     OW28156   1.265   4.371   0.589
 9086SOL    HW128157   1.283   4.290   0.532
 9086SOL    HW228158   1.257   4.344   0.684
 9087SOL     OW28159   4.318   2.130   1.666
 9087SOL    HW128160   4.330   2.035   1.636
 9087SOL    HW228161   4.335   2.136   1.764
 9088SOL     OW28162   0.086   6.903   0.637
 9088SOL    HW128163   0.182   6.911   0.608
 9088SOL    HW228164   0.038   6.840   0.576
 9089SOL     OW28165   5.259   5.615   5.872
 9089SOL    HW128166   5.260   5.626   5.971
 9089SOL    HW228167   5.168   5.583   5.844
 9090SOL     OW28168   0.168   1.429   4.235
 9090SOL    HW128169   0.130   1.338   4.251
 9090SOL    HW228170   0.189   1.440   4.138
 9091SOL     OW28171   3.318   4.310   6.758
 9091SOL    HW128172   3.324   4.221   6.803
 9091SOL    HW228173   3.382   4.373   6.801
 9092SOL     OW28174   6.603   0.951   7.002
 9092SOL    HW128175   6.615   0.994   6.913
 9092SOL    HW228176   6.528   0.995   0.030
 9093SOL     OW28177   0.954   5.708   5.714
 9093SOL    HW128178   1.044   5.689   5.753
 9093SOL    HW228179   0.884   5.662   5.769
 9094SOL     OW28180   6.528   4.501   3.185
 9094SOL    HW128181   6.488   4.438   3.119
 9094SOL    HW228182   6.508   4.595   3.158
 9095SOL     OW28183   4.956   4.543   6.350
 9095SOL    HW128184   4.998   4.539   6.259
 9095SOL    HW228185   4.904   4.628   6.359
 9096SOL     OW28186   6.308   5.067   2.683
 9096SOL    HW128187   6.347   5.158   2.675
 9096SOL    HW228188   6.221   5.063   2.634
 9097SOL     OW28189   1.138   1.646   1.051
 9097SOL    HW128190   1.216   1.706   1.037
 9097SOL    HW228191   1.064   1.671   0.989
 9098SOL     OW28192   3.117   2.109   4.489
 9098SOL    HW128193   3.185   2.057   4.438
 9098SOL    HW228194   3.155   2.135   4.578
 9099SOL     OW28195   3.614   3.169   6.102
 9099SOL    HW128196   3.595   3.161   6.004
 9099SOL    HW228197   3.683   3.240   6.116
 9100SOL     OW28198   0.003   3.352   3.253
 9100SOL    HW128199   0.026   3.280   3.319
 9100SOL    HW228200   0.065   3.348   3.175
 9101SOL     OW28201   2.665   2.498   1.767
 9101SOL    HW128202   2.742   2.478   1.828
 9101SOL    HW228203   2.670   2.440   1.686
 9102SOL     OW28204   4.007   6.207   2.097
 9102SOL    HW128205   3.962   6.204   2.187
 9102SOL    HW228206   3.939   6.192   2.026
 9103SOL     OW28207   5.828   2.706   6.838
 9103SOL    HW128208   5.828   2.673   6.744
 9103SOL    HW228209   5.871   2.797   6.842
 9104SOL     OW28210   6.790   6.572   1.435
 9104SOL    HW128211   6.834   6.661   1.437
 9104SOL    HW228212   6.773   6.540   1.528
 9105SOL     OW28213   0.777   1.185   6.478
 9105SOL    HW128214   0.854   1.142   6.431
 9105SOL    HW228215   0.794   1.283   6.487
 9106SOL     OW28216   5.451   3.788   1.403
 9106SOL    HW128217   5.549   3.778   1.424
 9106SOL    HW228218   5.427   3.725   1.329
 9107SOL     OW28219   2.124   0.893   6.731
 9107SOL    HW128220   2.061   0.872   6.805
 9107SOL    HW228221   2.083   0.865   6.644
 9108SOL     OW28222   4.916   4.147   5.064
 9108SOL    HW128223   5.001   4.199   5.062
 9108SOL    HW228224   4.931   4.058   5.022
 9109SOL     OW28225   6.351   3.480   3.003
 9109SOL    HW128226   6.360   3.462   3.101
 9109SOL    HW228227   6.335   3.394   2.955
 9110SOL     OW28228   1.927   5.092   4.445
 9110SOL    HW128229   1.927   5.046   4.357
 9110SOL    HW228230   1.833   5.111   4.473
 9111SOL     OW28231   4.738   2.387   0.008
 9111SOL    HW128232   4.812   2.453   0.020
 9111SOL    HW228233   4.656   2.420   0.055
 9112SOL     OW28234   1.799   5.972   2.531
 9112SOL    HW128235   1.769   5.896   2.589
 9112SOL    HW228236   1.787   6.058   2.581
 9113SOL     OW28237   5.162   2.724   2.706
 9113SOL    HW128238   5.123   2.634   2.687
 9113SOL    HW228239   5.141   2.785   2.630
 9114SOL     OW28240   6.673   5.295   3.609
 9114SOL    HW128241   6.575   5.284   3.628
 9114SOL    HW228242   6.716   5.344   3.685
 9115SOL     OW28243   6.163   5.586   5.051
 9115SOL    HW128244   6.217   5.564   5.132
 9115SOL    HW228245   6.212   5.556   4.969
 9116SOL     OW28246   0.325   6.775   3.034
 9116SOL    HW128247   0.342   6.752   3.130
 9116SOL    HW228248   0.239   6.827   3.027
 9117SOL     OW28249   3.671   2.801   5.839
 9117SOL    HW128250   3.652   2.709   5.872
 9117SOL    HW228251   3.689   2.797   5.740
 9118SOL     OW28252   6.611   3.381   0.286
 9118SOL    HW128253   6.522   3.355   0.324
 9118SOL    HW228254   6.597   3.425   0.197
 9119SOL     OW28255   3.609   0.987   2.246
 9119SOL    HW128256   3.696   0.937   2.243
 9119SOL    HW228257   3.574   0.997   2.153
 9120SOL     OW28258   0.101   1.930   5.709
 9120SOL    HW128259   0.074   2.007   5.651
 9120SOL    HW228260   0.174   1.959   5.771
 9121SOL     OW28261   3.308   5.996   4.745
 9121SOL    HW128262   3.338   6.091   4.760
 9121SOL    HW228263   3.329   5.942   4.826
 9122SOL     OW28264   2.567   4.598   2.004
 9122SOL    HW128265   2.655   4.614   1.959
 9122SOL    HW228266   2.499   4.571   1.935
 9123SOL     OW28267   2.084   0.557   4.502
 9123SOL    HW128268   2.019   0.486   4.532
 9123SOL    HW228269   2.148   0.518   4.437
 9124SOL     OW28270   3.954   5.265   0.433
 9124SOL    HW128271   3.867   5.301   0.400
 9124SOL    HW228272   3.946   5.242   0.530
 9125SOL     OW28273   4.013   4.553   1.151
 9125SOL    HW128274   3.981   4.628   1.094
 9125SOL    HW228275   3.964   4.469   1.126
 9126SOL     OW28276   5.097   3.988   1.717
 9126SOL    HW128277   5.131   4.079   1.738
 9126SOL    HW228278   5.173   3.931   1.684
 9127SOL     OW28279   0.074   1.725   5.970
 9127SOL    HW128280   0.051   1.779   5.889
 9127SOL    HW228281   0.164   1.753   6.004
 9128SOL     OW28282   6.444   2.074   5.424
 9128SOL    HW128283   6.354   2.080   5.381
 9128SOL    HW228284   6.473   2.165   5.453
 9129SOL     OW28285   6.169   1.820   0.271
 9129SOL    HW128286   6.123   1.780   0.192
 9129SOL    HW228287   6.120   1.795   0.355
 9130SOL     OW28288   1.431   4.423   6.289
 9130SOL    HW128289   1.386   4.387   6.207
 9130SOL    HW228290   1.385   4.389   6.371
 9131SOL     OW28291   4.917   3.377   6.217
 9131SOL    HW128292   4.952   3.454   6.271
 9131SOL    HW228293   4.879   3.412   6.131
 9132SOL     OW28294   1.056   5.234   4.260
 9132SOL    HW128295   0.963   5.269   4.274
 9132SOL    HW228296   1.078   5.238   4.162
 9133SOL     OW28297   3.682   0.388   0.931
 9133SOL    HW128298   3.637   0.402   0.843
 9133SOL    HW228299   3.619   0.412   1.005
 9134SOL     OW28300   4.127   4.999   1.167
 9134SOL    HW128301   4.197   4.962   1.227
 9134SOL    HW228302   4.042   5.012   1.219
 9135SOL     OW28303   0.784   6.773   1.493
 9135SOL    HW128304   0.845   6.740   1.565
 9135SOL    HW228305   0.815   6.739   1.404
 9136SOL     OW28306   4.945   6.150   5.486
 9136SOL    HW128307   4.960   6.239   5.443
 9136SOL    HW228308   4.874   6.100   5.437
 9137SOL     OW28309   3.873   0.745   6.684
 9137SOL    HW128310   3.841   0.667   6.738
 9137SOL    HW228311   3.795   0.791   6.643
 9138SOL     OW28312   0.904   3.975   6.449
 9138SOL    HW128313   0.871   4.060   6.491
 9138SOL    HW228314   0.870   3.969   6.355
 9139SOL     OW28315   1.265   1.346   1.980
 9139SOL    HW128316   1.220   1.257   1.974
 9139SOL    HW228317   1.225   1.398   2.056
 9140SOL     OW28318   1.263   4.309   1.653
 9140SOL    HW128319   1.188   4.263   1.700
 9140SOL    HW228320   1.246   4.407   1.651
 9141SOL     OW28321   6.369   6.803   0.522
 9141SOL    HW128322   6.463   6.815   0.490
 9141SOL    HW228323   6.365   6.727   0.587
 9142SOL     OW28324   0.696   3.731   1.433
 9142SOL    HW128325   0.650   3.813   1.399
 9142SOL    HW228326   0.628   3.665   1.465
 9143SOL     OW28327   6.970   3.939   1.306
 9143SOL    HW128328   6.924   3.988   1.232
 9143SOL    HW228329   0.040   3.976   1.318
 9144SOL     OW28330   3.712   5.496   4.581
 9144SOL    HW128331   3.650   5.442   4.638
 9144SOL    HW228332   3.806   5.465   4.596
 9145SOL     OW28333   1.238   5.861   6.556
 9145SOL    HW128334   1.318   5.910   6.591
 9145SOL    HW228335   1.194   5.812   6.631
 9146SOL     OW28336   5.238   3.763   2.471
 9146SOL    HW128337   5.206   3.680   2.425
 9146SOL    HW228338   5.185   3.776   2.555
 9147SOL     OW28339   6.708   0.438   5.020
 9147SOL    HW128340   6.712   0.362   5.084
 9147SOL    HW228341   6.801   0.462   4.991
 9148SOL     OW28342   5.700   6.858   1.833
 9148SOL    HW128343   5.748   6.924   1.775
 9148SOL    HW228344   5.739   6.860   1.925
 9149SOL     OW28345   5.643   3.067   1.913
 9149SOL    HW128346   5.553   3.035   1.883
 9149SOL    HW228347   5.649   3.166   1.902
 9150SOL     OW28348   3.470   4.544   0.815
 9150SOL    HW128349   3.417   4.556   0.731
 9150SOL    HW228350   3.568   4.538   0.793
 9151SOL     OW28351   2.204   4.091   3.142
 9151SOL    HW128352   2.266   4.074   3.065
 9151SOL    HW228353   2.114   4.118   3.106
 9152SOL     OW28354   1.767   4.522   4.617
 9152SOL    HW128355   1.738   4.433   4.582
 9152SOL    HW228356   1.858   4.514   4.657
 9153SOL     OW28357   0.293   2.535   6.826
 9153SOL    HW128358   0.272   2.438   6.817
 9153SOL    HW228359   0.211   2.589   6.808
 9154SOL     OW28360   5.090   3.945   3.724
 9154SOL    HW128361   5.060   4.037   3.747
 9154SOL    HW228362   5.164   3.950   3.657
 9155SOL     OW28363   2.256   4.624   2.887
 9155SOL    HW128364   2.250   4.724   2.885
 9155SOL    HW228365   2.223   4.590   2.975
 9156SOL     OW28366   6.440   2.501   1.875
 9156SOL    HW128367   6.481   2.570   1.935
 9156SOL    HW228368   6.340   2.504   1.885
 9157SOL     OW28369   3.241   4.227   6.495
 9157SOL    HW128370   3.257   4.242   6.593
 9157SOL    HW228371   3.190   4.304   6.457
 9158SOL     OW28372   6.446   3.733   4.319
 9158SOL    HW128373   6.488   3.822   4.337
 9158SOL    HW228374   6.380   3.742   4.244
 9159SOL     OW28375   1.802   0.242   3.789
 9159SOL    HW128376   1.885   0.263   3.839
 9159SOL    HW228377   1.815   0.262   3.692
 9160SOL     OW28378   0.181   5.923   5.671
 9160SOL    HW128379   0.088   5.893   5.646
 9160SOL    HW228380   0.235   5.845   5.701
 9161SOL     OW28381   6.375   4.728   3.400
 9161SOL    HW128382   6.299   4.714   3.337
 9161SOL    HW228383   6.397   4.642   3.446
 9162SOL     OW28384   3.852   0.351   2.986
 9162SOL    HW128385   3.822   0.314   3.074
 9162SOL    HW228386   3.813   0.442   2.974
 9163SOL     OW28387   6.875   3.631   2.941
 9163SOL    HW128388   6.829   3.718   2.920
 9163SOL    HW228389   6.807   3.565   2.973
 9164SOL     OW28390   1.798   1.107   6.911
 9164SOL    HW128391   1.729   1.040   6.884
 9164SOL    HW228392   1.754   1.183   6.959
 9165SOL     OW28393   4.662   1.576   6.096
 9165SOL    HW128394   4.628   1.660   6.136
 9165SOL    HW228395   4.663   1.584   5.996
 9166SOL     OW28396   4.435   5.082   0.987
 9166SOL    HW128397   4.450   5.181   0.992
 9166SOL    HW228398   4.388   5.060   0.901
 9167SOL     OW28399   1.613   2.426   6.135
 9167SOL    HW128400   1.709   2.415   6.161
 9167SOL    HW228401   1.589   2.357   6.066
 9168SOL     OW28402   6.839   6.093   6.685
 9168SOL    HW128403   6.919   6.070   6.741
 9168SOL    HW228404   6.771   6.020   6.693
 9169SOL     OW28405   6.206   6.040   6.201
 9169SOL    HW128406   6.270   6.096   6.148
 9169SOL    HW228407   6.114   6.079   6.194
 9170SOL     OW28408   1.976   0.794   6.533
 9170SOL    HW128409   1.883   0.778   6.568
 9170SOL    HW228410   2.027   0.708   6.535
 9171SOL     OW28411   3.286   5.405   0.452
 9171SOL    HW128412   3.205   5.373   0.402
 9171SOL    HW228413   3.263   5.489   0.502
 9172SOL     OW28414   4.538   2.092   4.519
 9172SOL    HW128415   4.594   2.156   4.572
 9172SOL    HW228416   4.518   2.012   4.575
 9173SOL     OW28417   5.914   3.016   4.408
 9173SOL    HW128418   5.857   2.950   4.456
 9173SOL    HW228419   6.006   3.015   4.446
 9174SOL     OW28420   0.920   6.043   6.890
 9174SOL    HW128421   0.944   5.999   6.977
 9174SOL    HW228422   0.979   6.122   6.876
 9175SOL     OW28423   1.253   6.808   6.891
 9175SOL    HW128424   1.281   6.873   6.821
 9175SOL    HW228425   1.317   6.812   6.968
 9176SOL     OW28426   2.707   6.762   1.119
 9176SOL    HW128427   2.751   6.835   1.171
 9176SOL    HW228428   2.773   6.690   1.100
 9177SOL     OW28429   1.434   2.666   4.059
 9177SOL    HW128430   1.416   2.573   4.091
 9177SOL    HW228431   1.533   2.677   4.045
 9178SOL     OW28432   2.382   5.279   6.169
 9178SOL    HW128433   2.303   5.260   6.228
 9178SOL    HW228434   2.452   5.326   6.222
 9179SOL     OW28435   2.207   5.999   5.224
 9179SOL    HW128436   2.238   6.012   5.129
 9179SOL    HW228437   2.112   6.029   5.232
 9180SOL     OW28438   6.518   2.457   3.714
 9180SOL    HW128439   6.511   2.554   3.693
 9180SOL    HW228440   6.426   2.419   3.725
 9181SOL     OW28441   5.100   2.744   3.670
 9181SOL    HW128442   5.111   2.675   3.741
 9181SOL    HW228443   5.054   2.704   3.591
 9182SOL     OW28444   3.091   1.058   3.398
 9182SOL    HW128445   3.052   0.998   3.328
 9182SOL    HW228446   3.054   1.150   3.387
 9183SOL     OW28447   5.012   4.086   6.231
 9183SOL    HW128448   5.071   4.005   6.238
 9183SOL    HW228449   4.962   4.084   6.144
 9184SOL     OW28450   3.682   2.303   1.022
 9184SOL    HW128451   3.682   2.403   1.032
 9184SOL    HW228452   3.644   2.278   0.933
 9185SOL     OW28453   0.516   6.575   5.798
 9185SOL    HW128454   0.526   6.523   5.713
 9185SOL    HW228455   0.568   6.529   5.871
 9186SOL     OW28456   4.825   0.228   5.333
 9186SOL    HW128457   4.880   0.158   5.379
 9186SOL    HW228458   4.857   0.319   5.360
 9187SOL     OW28459   4.172   2.130   6.769
 9187SOL    HW128460   4.230   2.185   6.829
 9187SOL    HW228461   4.093   2.185   6.742
 9188SOL     OW28462   0.986   0.504   1.432
 9188SOL    HW128463   1.061   0.570   1.444
 9188SOL    HW228464   0.972   0.453   1.516
 9189SOL     OW28465   2.753   0.091   3.301
 9189SOL    HW128466   2.832   0.121   3.355
 9189SOL    HW228467   2.695   0.031   3.357
 9190SOL     OW28468   6.885   3.424   5.095
 9190SOL    HW128469   6.905   3.429   4.997
 9190SOL    HW228470   6.949   3.481   5.145
 9191SOL     OW28471   4.749   6.832   6.567
 9191SOL    HW128472   4.753   6.826   6.467
 9191SOL    HW228473   4.766   6.926   6.595
 9192SOL     OW28474   5.989   3.295   6.059
 9192SOL    HW128475   5.991   3.280   5.960
 9192SOL    HW228476   5.953   3.213   6.104
 9193SOL     OW28477   3.493   3.889   4.088
 9193SOL    HW128478   3.396   3.891   4.109
 9193SOL    HW228479   3.545   3.864   4.170
 9194SOL     OW28480   3.389   5.918   1.883
 9194SOL    HW128481   3.387   5.965   1.971
 9194SOL    HW228482   3.410   5.822   1.896
 9195SOL     OW28483   2.394   2.482   4.497
 9195SOL    HW128484   2.414   2.569   4.542
 9195SOL    HW228485   2.468   2.418   4.515
 9196SOL     OW28486   5.962   0.114   3.654
 9196SOL    HW128487   5.990   0.198   3.701
 9196SOL    HW228488   5.863   0.104   3.658
 9197SOL     OW28489   3.606   4.912   0.485
 9197SOL    HW128490   3.601   4.813   0.491
 9197SOL    HW228491   3.648   4.948   0.569
 9198SOL     OW28492   5.629   4.292   5.974
 9198SOL    HW128493   5.710   4.307   5.916
 9198SOL    HW228494   5.629   4.358   6.049
 9199SOL     OW28495   0.338   3.080   6.269
 9199SOL    HW128496   0.296   3.154   6.321
 9199SOL    HW228497   0.434   3.100   6.253
 9200SOL     OW28498   2.079   5.663   6.756
 9200SOL    HW128499   2.032   5.710   6.681
 9200SOL    HW228500   2.023   5.586   6.787
 9201SOL     OW28501   0.623   3.810   0.960
 9201SOL    HW128502   0.710   3.762   0.949
 9201SOL    HW228503   0.582   3.825   0.869
 9202SOL     OW28504   0.970   5.722   4.231
 9202SOL    HW128505   0.917   5.731   4.316
 9202SOL    HW228506   1.038   5.649   4.242
 9203SOL     OW28507   5.278   2.362   6.178
 9203SOL    HW128508   5.254   2.267   6.195
 9203SOL    HW228509   5.374   2.367   6.151
 9204SOL     OW28510   5.192   3.768   3.358
 9204SOL    HW128511   5.140   3.704   3.301
 9204SOL    HW228512   5.281   3.729   3.380
 9205SOL     OW28513   5.260   4.031   2.404
 9205SOL    HW128514   5.308   4.091   2.469
 9205SOL    HW228515   5.250   3.940   2.444
 9206SOL     OW28516   3.015   0.260   4.174
 9206SOL    HW128517   3.093   0.225   4.226
 9206SOL    HW228518   3.002   0.357   4.195
 9207SOL     OW28519   3.432   6.435   5.601
 9207SOL    HW128520   3.436   6.415   5.699
 9207SOL    HW228521   3.352   6.492   5.582
 9208SOL     OW28522   5.747   4.457   2.441
 9208SOL    HW128523   5.692   4.449   2.359
 9208SOL    HW228524   5.715   4.534   2.496
 9209SOL     OW28525   4.303   0.572   1.958
 9209SOL    HW128526   4.254   0.507   1.901
 9209SOL    HW228527   4.355   0.523   2.028
 9210SOL     OW28528   0.610   1.003   1.604
 9210SOL    HW128529   0.585   1.094   1.570
 9210SOL    HW228530   0.539   0.969   1.664
 9211SOL     OW28531   5.171   2.461   5.935
 9211SOL    HW128532   5.180   2.392   5.863
 9211SOL    HW228533   5.207   2.425   6.021
 9212SOL     OW28534   4.770   4.244   4.788
 9212SOL    HW128535   4.808   4.301   4.715
 9212SOL    HW228536   4.826   4.253   4.871
 9213SOL     OW28537   4.855   5.908   4.491
 9213SOL    HW128538   4.896   5.997   4.474
 9213SOL    HW228539   4.777   5.918   4.554
 9214SOL     OW28540   0.135   2.467   5.555
 9214SOL    HW128541   0.206   2.490   5.489
 9214SOL    HW228542   0.046   2.497   5.519
 9215SOL     OW28543   0.652   4.450   2.507
 9215SOL    HW128544   0.603   4.434   2.593
 9215SOL    HW228545   0.645   4.369   2.450
 9216SOL     OW28546   2.572   6.769   4.724
 9216SOL    HW128547   2.565   6.672   4.700
 9216SOL    HW228548   2.514   6.823   4.663
 9217SOL     OW28549   5.532   1.537   6.798
 9217SOL    HW128550   5.595   1.459   6.797
 9217SOL    HW228551   5.550   1.595   6.719
 9218SOL     OW28552   4.370   1.382   6.726
 9218SOL    HW128553   4.385   1.374   6.628
 9218SOL    HW228554   4.370   1.479   6.751
 9219SOL     OW28555   4.518   3.136   5.358
 9219SOL    HW128556   4.598   3.088   5.323
 9219SOL    HW228557   4.540   3.232   5.373
 9220SOL     OW28558   1.868   5.850   2.282
 9220SOL    HW128559   1.881   5.752   2.297
 9220SOL    HW228560   1.862   5.897   2.370
 9221SOL     OW28561   2.337   0.137   5.493
 9221SOL    HW128562   2.385   0.053   5.467
 9221SOL    HW228563   2.259   0.151   5.432
 9222SOL     OW28564   2.629   4.707   4.882
 9222SOL    HW128565   2.656   4.791   4.834
 9222SOL    HW228566   2.709   4.669   4.929
 9223SOL     OW28567   1.189   2.363   3.970
 9223SOL    HW128568   1.118   2.400   4.030
 9223SOL    HW228569   1.153   2.351   3.878
 9224SOL     OW28570   1.238   3.218   3.494
 9224SOL    HW128571   1.312   3.265   3.447
 9224SOL    HW228572   1.257   3.120   3.496
 9225SOL     OW28573   3.824   6.179   6.107
 9225SOL    HW128574   3.849   6.087   6.078
 9225SOL    HW228575   3.883   6.246   6.061
 9226SOL     OW28576   1.279   0.611   1.442
 9226SOL    HW128577   1.291   0.532   1.383
 9226SOL    HW228578   1.317   0.591   1.533
 9227SOL     OW28579   2.308   5.891   1.174
 9227SOL    HW128580   2.352   5.895   1.085
 9227SOL    HW228581   2.215   5.855   1.163
 9228SOL     OW28582   1.868   2.412   6.673
 9228SOL    HW128583   1.801   2.376   6.609
 9228SOL    HW228584   1.833   2.495   6.716
 9229SOL     OW28585   0.846   4.952   6.296
 9229SOL    HW128586   0.804   4.961   6.206
 9229SOL    HW228587   0.774   4.939   6.365
 9230SOL     OW28588   4.935   2.519   3.030
 9230SOL    HW128589   4.872   2.479   3.097
 9230SOL    HW228590   4.888   2.591   2.979
 9231SOL     OW28591   0.826   4.385   5.095
 9231SOL    HW128592   0.859   4.424   5.009
 9231SOL    HW228593   0.826   4.455   5.166
 9232SOL     OW28594   2.954   5.934   1.131
 9232SOL    HW128595   3.001   5.890   1.208
 9232SOL    HW228596   2.860   5.955   1.157
 9233SOL     OW28597   1.178   6.850   0.275
 9233SOL    HW128598   1.265   6.897   0.282
 9233SOL    HW228599   1.188   6.755   0.306
 9234SOL     OW28600   2.512   5.905   0.674
 9234SOL    HW128601   2.588   5.900   0.609
 9234SOL    HW228602   2.427   5.878   0.627
 9235SOL     OW28603   2.313   2.756   3.087
 9235SOL    HW128604   2.264   2.813   3.153
 9235SOL    HW228605   2.324   2.806   3.002
 9236SOL     OW28606   2.420   3.334   6.729
 9236SOL    HW128607   2.457   3.423   6.701
 9236SOL    HW228608   2.495   3.269   6.738
 9237SOL     OW28609   0.101   5.879   2.644
 9237SOL    HW128610   0.054   5.913   2.726
 9237SOL    HW228611   0.120   5.781   2.655
 9238SOL     OW28612   2.932   2.438   6.101
 9238SOL    HW128613   2.837   2.454   6.126
 9238SOL    HW228614   2.936   2.395   6.010
 9239SOL     OW28615   6.605   4.583   6.468
 9239SOL    HW128616   6.527   4.521   6.470
 9239SOL    HW228617   6.658   4.567   6.385
 9240SOL     OW28618   5.097   2.960   2.556
 9240SOL    HW128619   5.005   2.993   2.536
 9240SOL    HW228620   5.154   3.036   2.588
 9241SOL     OW28621   0.441   5.459   0.583
 9241SOL    HW128622   0.465   5.547   0.626
 9241SOL    HW228623   0.382   5.476   0.504
 9242SOL     OW28624   2.205   3.323   1.666
 9242SOL    HW128625   2.130   3.384   1.642
 9242SOL    HW228626   2.254   3.359   1.746
 9243SOL     OW28627   0.773   0.393   1.996
 9243SOL    HW128628   0.707   0.368   1.925
 9243SOL    HW228629   0.801   0.312   2.046
 9244SOL     OW28630   2.549   6.493   6.335
 9244SOL    HW128631   2.454   6.524   6.320
 9244SOL    HW228632   2.599   6.497   6.248
 9245SOL     OW28633   7.021   4.554   3.826
 9245SOL    HW128634   0.071   4.488   3.850
 9245SOL    HW228635   0.000   4.630   3.891
 9246SOL     OW28636   6.146   0.411   3.828
 9246SOL    HW128637   6.243   0.438   3.832
 9246SOL    HW228638   6.104   0.450   3.746
 9247SOL     OW28639   3.861   5.283   3.478
 9247SOL    HW128640   3.780   5.325   3.438
 9247SOL    HW228641   3.938   5.346   3.473
 9248SOL     OW28642   2.920   1.910   5.133
 9248SOL    HW128643   2.945   1.893   5.228
 9248SOL    HW228644   2.858   1.838   5.102
 9249SOL     OW28645   4.540   5.323   1.260
 9249SOL    HW128646   4.502   5.337   1.169
 9249SOL    HW228647   4.500   5.240   1.301
 9250SOL     OW28648   6.945   2.905   4.055
 9250SOL    HW128649   6.925   2.811   4.028
 9250SOL    HW228650   6.900   2.925   4.142
 9251SOL     OW28651   4.599   1.919   1.981
 9251SOL    HW128652   4.526   1.985   2.000
 9251SOL    HW228653   4.586   1.881   1.890
 9252SOL     OW28654   5.488   0.637   4.678
 9252SOL    HW128655   5.559   0.573   4.648
 9252SOL    HW228656   5.498   0.654   4.776
 9253SOL     OW28657   5.126   5.199   5.979
 9253SOL    HW128658   5.202   5.175   6.040
 9253SOL    HW228659   5.056   5.247   6.032
 9254SOL     OW28660   4.923   5.153   2.667
 9254SOL    HW128661   4.985   5.104   2.729
 9254SOL    HW228662   4.852   5.090   2.634
 9255SOL     OW28663   5.269   3.276   6.471
 9255SOL    HW128664   5.237   3.369   6.488
 9255SOL    HW228665   5.354   3.260   6.521
 9256SOL     OW28666   2.188   0.108   1.776
 9256SOL    HW128667   2.214   0.013   1.759
 9256SOL    HW228668   2.261   0.169   1.745
 9257SOL     OW28669   5.880   5.803   2.996
 9257SOL    HW128670   5.805   5.758   2.947
 9257SOL    HW228671   5.849   5.827   3.088
 9258SOL     OW28672   4.102   3.323   1.370
 9258SOL    HW128673   4.152   3.356   1.450
 9258SOL    HW228674   4.062   3.234   1.389
 9259SOL     OW28675   1.577   1.020   0.335
 9259SOL    HW128676   1.520   1.060   0.407
 9259SOL    HW228677   1.663   1.071   0.329
 9260SOL     OW28678   6.888   2.923   5.577
 9260SOL    HW128679   6.963   2.935   5.642
 9260SOL    HW228680   6.806   2.891   5.626
 9261SOL     OW28681   4.712   0.823   6.532
 9261SOL    HW128682   4.736   0.731   6.501
 9261SOL    HW228683   4.792   0.882   6.523
 9262SOL     OW28684   1.222   6.096   5.321
 9262SOL    HW128685   1.123   6.104   5.332
 9262SOL    HW228686   1.258   6.033   5.390
 9263SOL     OW28687   3.194   5.215   2.417
 9263SOL    HW128688   3.097   5.230   2.437
 9263SOL    HW228689   3.214   5.117   2.421
 9264SOL     OW28690   4.532   3.240   0.179
 9264SOL    HW128691   4.585   3.186   0.243
 9264SOL    HW228692   4.434   3.221   0.192
 9265SOL     OW28693   3.886   2.813   6.488
 9265SOL    HW128694   3.956   2.876   6.520
 9265SOL    HW228695   3.873   2.825   6.389
 9266SOL     OW28696   0.348   5.908   1.134
 9266SOL    HW128697   0.325   5.977   1.066
 9266SOL    HW228698   0.446   5.892   1.135
 9267SOL     OW28699   0.708   2.108   4.110
 9267SOL    HW128700   0.647   2.089   4.187
 9267SOL    HW228701   0.800   2.074   4.131
 9268SOL     OW28702   0.960   6.534   2.373
 9268SOL    HW128703   0.996   6.516   2.465
 9268SOL    HW228704   1.025   6.591   2.323
 9269SOL     OW28705   3.711   0.046   6.255
 9269SOL    HW128706   3.768   0.128   6.262
 9269SOL    HW228707   3.692   0.026   6.159
 9270SOL     OW28708   3.902   0.535   5.448
 9270SOL    HW128709   3.817   0.489   5.423
 9270SOL    HW228710   3.897   0.564   5.544
 9271SOL     OW28711   6.730   0.365   0.276
 9271SOL    HW128712   6.708   0.380   0.180
 9271SOL    HW228713   6.698   0.274   0.304
 9272SOL     OW28714   0.808   6.088   6.211
 9272SOL    HW128715   0.811   6.155   6.286
 9272SOL    HW228716   0.837   5.999   6.245
 9273SOL     OW28717   5.894   6.106   2.674
 9273SOL    HW128718   5.798   6.112   2.703
 9273SOL    HW228719   5.934   6.197   2.673
 9274SOL     OW28720   6.866   2.460   6.799
 9274SOL    HW128721   6.848   2.365   6.776
 9274SOL    HW228722   6.840   2.477   6.894
 9275SOL     OW28723   0.203   6.604   0.083
 9275SOL    HW128724   0.229   6.650   0.168
 9275SOL    HW228725   0.262   6.635   0.009
 9276SOL     OW28726   1.950   5.286   6.657
 9276SOL    HW128727   1.873   5.343   6.626
 9276SOL    HW228728   2.033   5.312   6.607
 9277SOL     OW28729   3.659   5.515   2.260
 9277SOL    HW128730   3.589   5.444   2.256
 9277SOL    HW228731   3.688   5.529   2.355
 9278SOL     OW28732   1.136   0.575   5.684
 9278SOL    HW128733   1.190   0.656   5.665
 9278SOL    HW228734   1.126   0.521   5.600
 9279SOL     OW28735   3.857   6.907   1.960
 9279SOL    HW128736   3.860   6.999   1.999
 9279SOL    HW228737   3.805   6.847   2.020
 9280SOL     OW28738   2.369   1.561   2.418
 9280SOL    HW128739   2.458   1.518   2.426
 9280SOL    HW228740   2.335   1.552   2.325
 9281SOL     OW28741   3.673   4.033   6.190
 9281SOL    HW128742   3.753   4.090   6.172
 9281SOL    HW228743   3.590   4.087   6.174
 9282SOL     OW28744   4.311   0.909   4.382
 9282SOL    HW128745   4.316   1.008   4.388
 9282SOL    HW228746   4.239   0.883   4.317
 9283SOL     OW28747   5.081   0.329   5.462
 9283SOL    HW128748   5.100   0.258   5.530
 9283SOL    HW228749   5.116   0.299   5.373
 9284SOL     OW28750   2.849   3.708   5.527
 9284SOL    HW128751   2.912   3.630   5.530
 9284SOL    HW228752   2.790   3.701   5.447
 9285SOL     OW28753   5.289   3.196   0.657
 9285SOL    HW128754   5.269   3.202   0.755
 9285SOL    HW228755   5.265   3.105   0.624
 9286SOL     OW28756   5.052   5.259   0.571
 9286SOL    HW128757   5.140   5.212   0.567
 9286SOL    HW228758   5.057   5.331   0.641
 9287SOL     OW28759   3.631   4.467   5.580
 9287SOL    HW128760   3.723   4.428   5.579
 9287SOL    HW228761   3.569   4.405   5.629
 9288SOL     OW28762   4.746   1.916   2.679
 9288SOL    HW128763   4.682   1.930   2.604
 9288SOL    HW228764   4.817   1.851   2.651
 9289SOL     OW28765   4.267   1.055   0.041
 9289SOL    HW128766   4.319   0.998   7.000
 9289SOL    HW228767   4.291   1.151   0.026
 9290SOL     OW28768   6.218   1.118   3.837
 9290SOL    HW128769   6.313   1.102   3.863
 9290SOL    HW228770   6.160   1.046   3.876
 9291SOL     OW28771   1.665   5.979   6.316
 9291SOL    HW128772   1.691   5.912   6.386
 9291SOL    HW228773   1.746   6.028   6.286
 9292SOL     OW28774   1.698   1.312   0.038
 9292SOL    HW128775   1.763   1.310   0.113
 9292SOL    HW228776   1.605   1.324   0.074
 9293SOL     OW28777   5.577   3.489   6.199
 9293SOL    HW128778   5.652   3.453   6.255
 9293SOL    HW228779   5.511   3.416   6.181
 9294SOL     OW28780   5.185   1.124   6.483
 9294SOL    HW128781   5.177   1.131   6.583
 9294SOL    HW228782   5.146   1.206   6.441
 9295SOL     OW28783   6.632   0.847   5.143
 9295SOL    HW128784   6.595   0.754   5.142
 9295SOL    HW228785   6.567   0.909   5.099
 9296SOL     OW28786   1.859   5.139   0.424
 9296SOL    HW128787   1.867   5.227   0.472
 9296SOL    HW228788   1.951   5.102   0.409
 9297SOL     OW28789   0.473   6.499   3.235
 9297SOL    HW128790   0.388   6.510   3.286
 9297SOL    HW228791   0.463   6.425   3.168
 9298SOL     OW28792   1.146   6.427   6.429
 9298SOL    HW128793   1.137   6.509   6.373
 9298SOL    HW228794   1.225   6.374   6.399
 9299SOL     OW28795   0.906   1.665   4.113
 9299SOL    HW128796   0.990   1.648   4.062
 9299SOL    HW228797   0.925   1.665   4.211
 9300SOL     OW28798   0.315   5.253   5.223
 9300SOL    HW128799   0.386   5.252   5.152
 9300SOL    HW228800   0.319   5.340   5.271
 9301SOL     OW28801   6.377   4.163   5.187
 9301SOL    HW128802   6.336   4.225   5.119
 9301SOL    HW228803   6.450   4.211   5.236
 9302SOL     OW28804   1.920   3.423   4.528
 9302SOL    HW128805   1.867   3.373   4.459
 9302SOL    HW228806   1.900   3.385   4.618
 9303SOL     OW28807   2.764   4.130   0.195
 9303SOL    HW128808   2.674   4.137   0.151
 9303SOL    HW228809   2.831   4.096   0.129
 9304SOL     OW28810   4.587   4.958   0.420
 9304SOL    HW128811   4.594   4.927   0.515
 9304SOL    HW228812   4.634   4.892   0.361
 9305SOL     OW28813   3.669   1.045   0.689
 9305SOL    HW128814   3.601   0.990   0.641
 9305SOL    HW228815   3.761   1.017   0.661
 9306SOL     OW28816   0.380   4.362   5.444
 9306SOL    HW128817   0.471   4.399   5.423
 9306SOL    HW228818   0.365   4.365   5.542
 9307SOL     OW28819   1.543   4.337   0.470
 9307SOL    HW128820   1.526   4.435   0.464
 9307SOL    HW228821   1.522   4.293   0.383
 9308SOL     OW28822   1.401   4.559   1.856
 9308SOL    HW128823   1.440   4.497   1.925
 9308SOL    HW228824   1.468   4.571   1.782
 9309SOL     OW28825   4.202   6.310   5.666
 9309SOL    HW128826   4.123   6.372   5.667
 9309SOL    HW228827   4.208   6.265   5.577
 9310SOL     OW28828   5.675   6.252   5.526
 9310SOL    HW128829   5.731   6.238   5.607
 9310SOL    HW228830   5.661   6.164   5.479
 9311SOL     OW28831   5.561   4.777   1.329
 9311SOL    HW128832   5.470   4.817   1.340
 9311SOL    HW228833   5.612   4.829   1.260
 9312SOL     OW28834   1.230   2.293   0.835
 9312SOL    HW128835   1.322   2.331   0.826
 9312SOL    HW228836   1.171   2.332   0.764
 9313SOL     OW28837   0.140   0.270   1.364
 9313SOL    HW128838   0.190   0.320   1.294
 9313SOL    HW228839   0.140   0.173   1.343
 9314SOL     OW28840   6.641   3.636   0.782
 9314SOL    HW128841   6.585   3.561   0.818
 9314SOL    HW228842   6.672   3.694   0.857
 9315SOL     OW28843   6.274   0.326   6.044
 9315SOL    HW128844   6.328   0.303   5.963
 9315SOL    HW228845   6.287   0.422   6.066
 9316SOL     OW28846   5.688   0.055   5.190
 9316SOL    HW128847   5.778   0.033   5.152
 9316SOL    HW228848   5.697   0.080   5.286
 9317SOL     OW28849   4.001   5.406   2.885
 9317SOL    HW128850   3.945   5.354   2.821
 9317SOL    HW228851   3.959   5.401   2.976
 9318SOL     OW28852   4.495   7.012   0.064
 9318SOL    HW128853   4.471   0.006   0.159
 9318SOL    HW228854   4.418   0.017   0.005
 9319SOL     OW28855   2.626   2.998   0.637
 9319SOL    HW128856   2.578   3.034   0.558
 9319SOL    HW228857   2.577   2.918   0.673
 9320SOL     OW28858   4.496   0.485   5.436
 9320SOL    HW128859   4.523   0.390   5.418
 9320SOL    HW228860   4.399   0.497   5.414
 9321SOL     OW28861   1.151   1.311   5.980
 9321SOL    HW128862   1.171   1.247   5.906
 9321SOL    HW228863   1.235   1.358   6.008
 9322SOL     OW28864   0.048   4.414   6.115
 9322SOL    HW128865   0.000   4.349   6.174
 9322SOL    HW228866   0.033   4.389   6.019
 9323SOL     OW28867   2.449   2.020   5.038
 9323SOL    HW128868   2.438   2.109   5.080
 9323SOL    HW228869   2.406   1.950   5.095
 9324SOL     OW28870   2.194   3.911   2.417
 9324SOL    HW128871   2.234   3.932   2.328
 9324SOL    HW228872   2.115   3.852   2.404
 9325SOL     OW28873   0.520   6.458   0.743
 9325SOL    HW128874   0.617   6.481   0.739
 9325SOL    HW228875   0.502   6.379   0.685
 9326SOL     OW28876   3.178   4.694   6.969
 9326SOL    HW128877   3.199   4.706   0.044
 9326SOL    HW228878   3.224   4.765   6.916
 9327SOL     OW28879   4.585   0.007   2.817
 9327SOL    HW128880   4.598   0.083   2.880
 9327SOL    HW228881   4.549   0.041   2.730
 9328SOL     OW28882   1.905   0.624   4.886
 9328SOL    HW128883   1.850   0.655   4.963
 9328SOL    HW228884   1.850   0.564   4.827
 9329SOL     OW28885   6.440   5.866   0.661
 9329SOL    HW128886   6.479   5.775   0.644
 9329SOL    HW228887   6.464   5.896   0.753
 9330SOL     OW28888   0.306   0.184   6.294
 9330SOL    HW128889   0.377   0.114   6.305
 9330SOL    HW228890   0.244   0.157   6.220
 9331SOL     OW28891   2.189   1.660   6.327
 9331SOL    HW128892   2.278   1.664   6.372
 9331SOL    HW228893   2.121   1.706   6.384
 9332SOL     OW28894   4.338   5.740   0.829
 9332SOL    HW128895   4.400   5.768   0.756
 9332SOL    HW228896   4.307   5.646   0.812
 9333SOL     OW28897   3.603   5.432   6.803
 9333SOL    HW128898   3.663   5.470   6.733
 9333SOL    HW228899   3.568   5.505   6.861
 9334SOL     OW28900   5.172   0.144   4.691
 9334SOL    HW128901   5.141   0.224   4.640
 9334SOL    HW228902   5.112   0.066   4.671
 9335SOL     OW28903   1.412   1.128   0.514
 9335SOL    HW128904   1.395   1.226   0.502
 9335SOL    HW228905   1.327   1.077   0.502
 9336SOL     OW28906   5.590   0.150   4.223
 9336SOL    HW128907   5.630   0.239   4.245
 9336SOL    HW228908   5.493   0.151   4.244
 9337SOL     OW28909   5.351   0.948   6.357
 9337SOL    HW128910   5.384   0.863   6.399
 9337SOL    HW228911   5.295   0.998   6.423
 9338SOL     OW28912   6.928   6.303   1.095
 9338SOL    HW128913   6.947   6.400   1.082
 9338SOL    HW228914   6.977   6.270   1.176
 9339SOL     OW28915   5.589   5.815   0.509
 9339SOL    HW128916   5.544   5.871   0.579
 9339SOL    HW228917   5.595   5.868   0.424
 9340SOL     OW28918   4.148   4.755   2.744
 9340SOL    HW128919   4.230   4.703   2.770
 9340SOL    HW228920   4.138   4.754   2.645
 9341SOL     OW28921   6.738   4.019   0.527
 9341SOL    HW128922   6.817   4.071   0.493
 9341SOL    HW228923   6.691   4.072   0.598
 9342SOL     OW28924   2.774   0.637   4.443
 9342SOL    HW128925   2.736   0.646   4.535
 9342SOL    HW228926   2.707   0.670   4.376
 9343SOL     OW28927   4.972   3.566   2.016
 9343SOL    HW128928   4.957   3.511   2.098
 9343SOL    HW228929   5.030   3.515   1.952
 9344SOL     OW28930   5.129   5.814   6.773
 9344SOL    HW128931   5.062   5.872   6.727
 9344SOL    HW228932   5.205   5.870   6.805
 9345SOL     OW28933   0.078   4.847   0.892
 9345SOL    HW128934   0.135   4.804   0.962
 9345SOL    HW228935   7.007   4.812   0.899
 9346SOL     OW28936   5.139   6.807   1.786
 9346SOL    HW128937   5.140   6.877   1.715
 9346SOL    HW228938   5.107   6.720   1.748
 9347SOL     OW28939   3.133   5.586   0.653
 9347SOL    HW128940   3.066   5.644   0.605
 9347SOL    HW228941   3.103   5.571   0.747
 9348SOL     OW28942   2.623   5.382   3.173
 9348SOL    HW128943   2.681   5.325   3.114
 9348SOL    HW228944   2.617   5.474   3.134
 9349SOL     OW28945   6.362   5.997   2.228
 9349SOL    HW128946   6.390   6.022   2.136
 9349SOL    HW228947   6.390   5.903   2.248
 9350SOL     OW28948   0.352   1.939   4.459
 9350SOL    HW128949   0.331   1.959   4.555
 9350SOL    HW228950   0.269   1.910   4.412
 9351SOL     OW28951   2.657   0.479   6.213
 9351SOL    HW128952   2.709   0.558   6.246
 9351SOL    HW228953   2.705   0.438   6.135
 9352SOL     OW28954   2.532   2.931   5.947
 9352SOL    HW128955   2.616   2.981   5.924
 9352SOL    HW228956   2.457   2.964   5.890
 9353SOL     OW28957   1.932   4.121   1.909
 9353SOL    HW128958   1.980   4.041   1.874
 9353SOL    HW228959   1.877   4.095   1.989
 9354SOL     OW28960   6.348   1.941   0.598
 9354SOL    HW128961   6.261   1.893   0.604
 9354SOL    HW228962   6.362   1.972   0.504
 9355SOL     OW28963   6.365   1.152   4.424
 9355SOL    HW128964   6.381   1.085   4.497
 9355SOL    HW228965   6.349   1.242   4.465
 9356SOL     OW28966   4.311   5.121   1.462
 9356SOL    HW128967   4.225   5.163   1.432
 9356SOL    HW228968   4.320   5.032   1.419
 9357SOL     OW28969   3.065   3.648   6.752
 9357SOL    HW128970   2.974   3.662   6.791
 9357SOL    HW228971   3.110   3.572   6.800
 9358SOL     OW28972   6.203   3.538   1.943
 9358SOL    HW128973   6.247   3.471   1.883
 9358SOL    HW228974   6.263   3.618   1.953
 9359SOL     OW28975   1.056   3.209   5.808
 9359SOL    HW128976   1.021   3.139   5.747
 9359SOL    HW228977   1.042   3.299   5.767
 9360SOL     OW28978   1.048   6.800   5.949
 9360SOL    HW128979   1.062   6.851   5.864
 9360SOL    HW228980   1.026   6.705   5.928
 9361SOL     OW28981   2.747   6.327   3.692
 9361SOL    HW128982   2.671   6.303   3.631
 9361SOL    HW228983   2.769   6.424   3.680
 9362SOL     OW28984   1.444   1.751   1.927
 9362SOL    HW128985   1.428   1.661   1.968
 9362SOL    HW228986   1.541   1.760   1.904
 9363SOL     OW28987   4.098   5.331   1.712
 9363SOL    HW128988   4.038   5.351   1.789
 9363SOL    HW228989   4.149   5.413   1.686
 9364SOL     OW28990   4.387   3.671   5.969
 9364SOL    HW128991   4.433   3.682   6.057
 9364SOL    HW228992   4.343   3.581   5.966
 9365SOL     OW28993   2.951   1.853   5.416
 9365SOL    HW128994   2.962   1.925   5.484
 9365SOL    HW228995   2.887   1.784   5.449
 9366SOL     OW28996   2.928   1.011   0.159
 9366SOL    HW128997   2.923   1.106   0.191
 9366SOL    HW228998   2.966   1.009   0.066
 9367SOL     OW28999   0.217   5.808   3.197
 9367SOL    HW129000   0.187   5.727   3.147
 9367SOL    HW229001   0.264   5.781   3.281
 9368SOL     OW29002   2.384   1.640   3.345
 9368SOL    HW129003   2.379   1.715   3.279
 9368SOL    HW229004   2.391   1.553   3.296
 9369SOL     OW29005   0.045   0.792   5.504
 9369SOL    HW129006   0.084   0.818   5.592
 9369SOL    HW229007   0.033   0.692   5.501
 9370SOL     OW29008   4.971   0.411   2.433
 9370SOL    HW129009   4.978   0.505   2.400
 9370SOL    HW229010   4.987   0.409   2.532
 9371SOL     OW29011   2.328   4.870   0.962
 9371SOL    HW129012   2.292   4.951   0.916
 9371SOL    HW229013   2.337   4.795   0.896
 9372SOL     OW29014   5.900   6.095   2.998
 9372SOL    HW129015   5.906   5.995   2.993
 9372SOL    HW229016   5.812   6.124   2.961
 9373SOL     OW29017   3.944   2.185   2.628
 9373SOL    HW129018   3.863   2.128   2.642
 9373SOL    HW229019   3.991   2.199   2.716
 9374SOL     OW29020   6.641   3.783   0.568
 9374SOL    HW129021   6.675   3.877   0.559
 9374SOL    HW229022   6.652   3.753   0.662
 9375SOL     OW29023   6.567   1.774   3.210
 9375SOL    HW129024   6.533   1.818   3.126
 9375SOL    HW229025   6.530   1.822   3.290
 9376SOL     OW29026   2.640   4.288   1.516
 9376SOL    HW129027   2.549   4.290   1.473
 9376SOL    HW229028   2.659   4.195   1.549
 9377SOL     OW29029   1.547   5.604   3.929
 9377SOL    HW129030   1.521   5.605   4.025
 9377SOL    HW229031   1.475   5.645   3.874
 9378SOL     OW29032   0.626   0.432   5.277
 9378SOL    HW129033   0.680   0.454   5.195
 9378SOL    HW229034   0.529   0.446   5.258
 9379SOL     OW29035   4.796   5.584   5.593
 9379SOL    HW129036   4.710   5.545   5.626
 9379SOL    HW229037   4.829   5.532   5.515
 9380SOL     OW29038   5.751   4.796   4.841
 9380SOL    HW129039   5.689   4.861   4.886
 9380SOL    HW229040   5.793   4.737   4.910
 9381SOL     OW29041   2.840   2.770   5.968
 9381SOL    HW129042   2.922   2.741   6.017
 9381SOL    HW229043   2.806   2.856   6.006
 9382SOL     OW29044   3.469   1.287   3.089
 9382SOL    HW129045   3.490   1.192   3.110
 9382SOL    HW229046   3.419   1.328   3.165
 9383SOL     OW29047   1.814   5.896   4.542
 9383SOL    HW129048   1.840   5.985   4.578
 9383SOL    HW229049   1.896   5.841   4.525
 9384SOL     OW29050   2.992   6.136   1.429
 9384SOL    HW129051   2.989   6.039   1.408
 9384SOL    HW229052   2.960   6.151   1.523
 9385SOL     OW29053   4.304   0.680   3.438
 9385SOL    HW129054   4.286   0.584   3.462
 9385SOL    HW229055   4.223   0.719   3.396
 9386SOL     OW29056   2.441   6.195   4.102
 9386SOL    HW129057   2.372   6.244   4.048
 9386SOL    HW229058   2.406   6.104   4.126
 9387SOL     OW29059   3.087   1.756   0.190
 9387SOL    HW129060   3.021   1.825   0.161
 9387SOL    HW229061   3.166   1.801   0.231
 9388SOL     OW29062   1.941   5.673   3.110
 9388SOL    HW129063   1.850   5.633   3.118
 9388SOL    HW229064   1.946   5.758   3.163
 9389SOL     OW29065   1.307   6.584   5.074
 9389SOL    HW129066   1.265   6.524   5.142
 9389SOL    HW229067   1.403   6.600   5.098
 9390SOL     OW29068   3.508   5.278   4.713
 9390SOL    HW129069   3.413   5.292   4.740
 9390SOL    HW229070   3.522   5.182   4.687
 9391SOL     OW29071   2.389   0.680   4.810
 9391SOL    HW129072   2.470   0.714   4.761
 9391SOL    HW229073   2.308   0.728   4.777
 9392SOL     OW29074   6.980   0.220   5.461
 9392SOL    HW129075   6.945   0.185   5.548
 9392SOL    HW229076   6.937   0.170   5.386
 9393SOL     OW29077   2.699   6.926   5.210
 9393SOL    HW129078   2.663   6.908   5.118
 9393SOL    HW229079   2.787   6.973   5.202
 9394SOL     OW29080   0.277   1.472   2.132
 9394SOL    HW129081   0.344   1.532   2.177
 9394SOL    HW229082   0.243   1.406   2.199
 9395SOL     OW29083   2.463   1.472   0.215
 9395SOL    HW129084   2.477   1.483   0.117
 9395SOL    HW229085   2.540   1.511   0.265
 9396SOL     OW29086   1.712   5.559   3.633
 9396SOL    HW129087   1.769   5.508   3.568
 9396SOL    HW229088   1.696   5.651   3.598
 9397SOL     OW29089   3.202   0.210   0.019
 9397SOL    HW129090   3.240   0.150   0.089
 9397SOL    HW229091   3.125   0.165   6.996
 9398SOL     OW29092   0.537   0.190   5.425
 9398SOL    HW129093   0.569   0.280   5.395
 9398SOL    HW229094   0.556   0.178   5.522
 9399SOL     OW29095   6.768   1.908   6.324
 9399SOL    HW129096   6.729   1.982   6.380
 9399SOL    HW229097   6.855   1.939   6.285
 9400SOL     OW29098   4.228   1.677   1.884
 9400SOL    HW129099   4.180   1.705   1.967
 9400SOL    HW229100   4.307   1.621   1.909
 9401SOL     OW29101   5.262   6.837   3.657
 9401SOL    HW129102   5.292   6.921   3.703
 9401SOL    HW229103   5.185   6.797   3.707
 9402SOL     OW29104   1.083   4.685   3.682
 9402SOL    HW129105   1.110   4.732   3.766
 9402SOL    HW229106   0.984   4.679   3.678
 9403SOL     OW29107   5.869   1.743   2.058
 9403SOL    HW129108   5.946   1.752   2.120
 9403SOL    HW229109   5.792   1.699   2.105
 9404SOL     OW29110   1.107   3.535   6.395
 9404SOL    HW129111   1.175   3.519   6.466
 9404SOL    HW229112   1.029   3.585   6.433
 9405SOL     OW29113   0.919   5.840   1.969
 9405SOL    HW129114   0.906   5.935   1.942
 9405SOL    HW229115   0.833   5.802   2.003
 9406SOL     OW29116   6.776   2.743   5.815
 9406SOL    HW129117   6.855   2.684   5.827
 9406SOL    HW229118   6.786   2.825   5.872
 9407SOL     OW29119   2.644   5.289   3.586
 9407SOL    HW129120   2.568   5.268   3.524
 9407SOL    HW229121   2.730   5.259   3.545
 9408SOL     OW29122   3.941   1.872   6.531
 9408SOL    HW129123   3.967   1.890   6.625
 9408SOL    HW229124   3.957   1.776   6.509
 9409SOL     OW29125   5.930   4.350   6.854
 9409SOL    HW129126   5.888   4.379   6.940
 9409SOL    HW229127   6.028   4.372   6.856
 9410SOL     OW29128   3.160   6.285   1.883
 9410SOL    HW129129   3.177   6.322   1.974
 9410SOL    HW229130   3.234   6.314   1.822
 9411SOL     OW29131   3.528   3.402   2.107
 9411SOL    HW129132   3.434   3.369   2.105
 9411SOL    HW229133   3.535   3.477   2.173
 9412SOL     OW29134   0.218   3.002   1.604
 9412SOL    HW129135   0.152   2.964   1.669
 9412SOL    HW229136   0.187   2.983   1.511
 9413SOL     OW29137   3.256   6.344   4.042
 9413SOL    HW129138   3.283   6.347   4.138
 9413SOL    HW229139   3.310   6.275   3.995
 9414SOL     OW29140   2.982   0.886   3.215
 9414SOL    HW129141   3.048   0.843   3.153
 9414SOL    HW229142   2.912   0.820   3.241
 9415SOL     OW29143   2.631   0.213   1.788
 9415SOL    HW129144   2.717   0.186   1.832
 9415SOL    HW229145   2.609   0.308   1.813
 9416SOL     OW29146   0.619   1.852   1.003
 9416SOL    HW129147   0.638   1.785   0.932
 9416SOL    HW229148   0.520   1.860   1.017
 9417SOL     OW29149   3.727   6.508   6.004
 9417SOL    HW129150   3.733   6.494   6.102
 9417SOL    HW229151   3.749   6.603   5.982
 9418SOL     OW29152   3.529   6.156   1.430
 9418SOL    HW129153   3.444   6.171   1.480
 9418SOL    HW229154   3.601   6.214   1.469
 9419SOL     OW29155   3.312   5.513   5.791
 9419SOL    HW129156   3.303   5.431   5.848
 9419SOL    HW229157   3.403   5.516   5.750
 9420SOL     OW29158   6.524   2.871   5.277
 9420SOL    HW129159   6.516   2.886   5.179
 9420SOL    HW229160   6.604   2.919   5.312
 9421SOL     OW29161   1.777   6.902   4.826
 9421SOL    HW129162   1.875   6.891   4.846
 9421SOL    HW229163   1.730   6.815   4.842
 9422SOL     OW29164   5.110   5.918   3.368
 9422SOL    HW129165   5.072   5.825   3.375
 9422SOL    HW229166   5.099   5.965   3.455
 9423SOL     OW29167   3.888   0.521   4.035
 9423SOL    HW129168   3.853   0.445   4.089
 9423SOL    HW229169   3.890   0.496   3.939
 9424SOL     OW29170   4.838   0.454   4.978
 9424SOL    HW129171   4.919   0.397   4.965
 9424SOL    HW229172   4.806   0.445   5.073
 9425SOL     OW29173   6.456   3.481   6.479
 9425SOL    HW129174   6.386   3.436   6.535
 9425SOL    HW229175   6.416   3.508   6.391
 9426SOL     OW29176   3.159   2.106   0.320
 9426SOL    HW129177   3.143   2.162   0.239
 9426SOL    HW229178   3.072   2.066   0.350
 9427SOL     OW29179   2.776   5.791   4.457
 9427SOL    HW129180   2.864   5.783   4.411
 9427SOL    HW229181   2.752   5.704   4.499
 9428SOL     OW29182   5.765   0.936   1.214
 9428SOL    HW129183   5.847   0.878   1.217
 9428SOL    HW229184   5.789   1.024   1.173
 9429SOL     OW29185   2.138   3.317   2.234
 9429SOL    HW129186   2.044   3.283   2.232
 9429SOL    HW229187   2.154   3.375   2.155
 9430SOL     OW29188   0.376   4.452   2.423
 9430SOL    HW129189   0.277   4.452   2.409
 9430SOL    HW229190   0.399   4.397   2.504
 9431SOL     OW29191   5.737   4.089   1.472
 9431SOL    HW129192   5.719   4.126   1.563
 9431SOL    HW229193   5.779   4.159   1.415
 9432SOL     OW29194   4.412   0.472   3.672
 9432SOL    HW129195   4.397   0.457   3.574
 9432SOL    HW229196   4.500   0.518   3.686
 9433SOL     OW29197   3.703   5.104   3.248
 9433SOL    HW129198   3.623   5.050   3.222
 9433SOL    HW229199   3.782   5.045   3.257
 9434SOL     OW29200   5.177   5.165   3.637
 9434SOL    HW129201   5.245   5.239   3.635
 9434SOL    HW229202   5.167   5.132   3.731
 9435SOL     OW29203   0.775   2.699   4.723
 9435SOL    HW129204   0.796   2.765   4.794
 9435SOL    HW229205   0.858   2.645   4.703
 9436SOL     OW29206   1.075   3.183   1.899
 9436SOL    HW129207   1.031   3.205   1.986
 9436SOL    HW229208   1.172   3.205   1.904
 9437SOL     OW29209   2.447   6.270   3.273
 9437SOL    HW129210   2.456   6.267   3.372
 9437SOL    HW229211   2.537   6.280   3.231
 9438SOL     OW29212   0.020   0.131   1.951
 9438SOL    HW129213   6.958   0.118   2.004
 9438SOL    HW229214   7.021   0.182   1.868
 9439SOL     OW29215   0.297   3.233   1.525
 9439SOL    HW129216   0.288   3.241   1.426
 9439SOL    HW229217   0.255   3.148   1.556
 9440SOL     OW29218   4.138   4.902   3.781
 9440SOL    HW129219   4.180   4.988   3.756
 9440SOL    HW229220   4.118   4.849   3.698
 9441SOL     OW29221   1.429   3.561   5.210
 9441SOL    HW129222   1.442   3.651   5.253
 9441SOL    HW229223   1.413   3.573   5.112
 9442SOL     OW29224   4.481   3.539   0.206
 9442SOL    HW129225   4.548   3.469   0.227
 9442SOL    HW229226   4.526   3.628   0.202
 9443SOL     OW29227   2.672   5.425   1.193
 9443SOL    HW129228   2.649   5.418   1.290
 9443SOL    HW229229   2.662   5.335   1.150
 9444SOL     OW29230   1.646   4.127   6.553
 9444SOL    HW129231   1.683   4.046   6.599
 9444SOL    HW229232   1.573   4.099   6.491
 9445SOL     OW29233   5.739   3.516   3.000
 9445SOL    HW129234   5.803   3.567   3.057
 9445SOL    HW229235   5.648   3.517   3.042
 9446SOL     OW29236   6.548   6.208   4.236
 9446SOL    HW129237   6.610   6.283   4.257
 9446SOL    HW229238   6.463   6.220   4.287
 9447SOL     OW29239   6.174   3.287   4.299
 9447SOL    HW129240   6.081   3.271   4.266
 9447SOL    HW229241   6.217   3.200   4.322
 9448SOL     OW29242   0.077   6.562   6.779
 9448SOL    HW129243   0.067   6.466   6.807
 9448SOL    HW229244   7.010   6.606   6.780
 9449SOL     OW29245   6.666   5.677   6.988
 9449SOL    HW129246   6.591   5.661   6.923
 9449SOL    HW229247   6.715   5.592   7.004
 9450SOL     OW29248   2.874   5.822   5.309
 9450SOL    HW129249   2.956   5.782   5.350
 9450SOL    HW229250   2.852   5.775   5.224
 9451SOL     OW29251   4.272   6.286   6.102
 9451SOL    HW129252   4.271   6.352   6.028
 9451SOL    HW229253   4.342   6.216   6.084
 9452SOL     OW29254   1.442   3.840   0.485
 9452SOL    HW129255   1.509   3.894   0.433
 9452SOL    HW229256   1.366   3.815   0.425
 9453SOL     OW29257   2.051   5.120   3.245
 9453SOL    HW129258   2.090   5.144   3.333
 9453SOL    HW229259   2.046   5.201   3.187
 9454SOL     OW29260   2.705   3.627   6.975
 9454SOL    HW129261   2.669   3.719   6.991
 9454SOL    HW229262   2.647   3.561   7.022
 9455SOL     OW29263   3.742   1.842   2.782
 9455SOL    HW129264   3.657   1.788   2.781
 9455SOL    HW229265   3.820   1.780   2.777
 9456SOL     OW29266   1.195   3.482   0.862
 9456SOL    HW129267   1.125   3.509   0.795
 9456SOL    HW229268   1.186   3.384   0.881
 9457SOL     OW29269   2.151   3.818   5.032
 9457SOL    HW129270   2.124   3.852   4.942
 9457SOL    HW229271   2.239   3.859   5.058
 9458SOL     OW29272   1.730   3.466   0.403
 9458SOL    HW129273   1.727   3.485   0.501
 9458SOL    HW229274   1.819   3.428   0.378
 9459SOL     OW29275   5.129   4.757   2.936
 9459SOL    HW129276   5.043   4.758   2.987
 9459SOL    HW229277   5.190   4.688   2.975
 9460SOL     OW29278   0.510   2.607   4.021
 9460SOL    HW129279   0.524   2.508   4.021
 9460SOL    HW229280   0.471   2.634   4.109
 9461SOL     OW29281   6.284   1.731   2.574
 9461SOL    HW129282   6.278   1.826   2.542
 9461SOL    HW229283   6.195   1.701   2.606
 9462SOL     OW29284   2.097   3.828   2.677
 9462SOL    HW129285   2.135   3.851   2.588
 9462SOL    HW229286   2.101   3.729   2.691
 9463SOL     OW29287   0.355   0.981   1.757
 9463SOL    HW129288   0.264   0.970   1.717
 9463SOL    HW229289   0.363   1.072   1.797
 9464SOL     OW29290   5.916   0.509   1.283
 9464SOL    HW129291   5.962   0.591   1.249
 9464SOL    HW229292   5.830   0.534   1.327
 9465SOL     OW29293   1.537   5.479   2.916
 9465SOL    HW129294   1.457   5.539   2.917
 9465SOL    HW229295   1.510   5.386   2.941
 9466SOL     OW29296   4.492   5.071   5.831
 9466SOL    HW129297   4.429   5.092   5.757
 9466SOL    HW229298   4.577   5.033   5.793
 9467SOL     OW29299   0.674   2.509   1.448
 9467SOL    HW129300   0.635   2.586   1.500
 9467SOL    HW229301   0.741   2.461   1.505
 9468SOL     OW29302   6.023   2.659   5.885
 9468SOL    HW129303   6.106   2.639   5.834
 9468SOL    HW229304   6.012   2.757   5.896
 9469SOL     OW29305   6.189   6.353   1.487
 9469SOL    HW129306   6.113   6.385   1.542
 9469SOL    HW229307   6.157   6.334   1.394
 9470SOL     OW29308   4.090   3.941   5.401
 9470SOL    HW129309   4.111   3.874   5.330
 9470SOL    HW229310   4.172   3.993   5.424
 9471SOL     OW29311   6.379   1.404   4.519
 9471SOL    HW129312   6.307   1.463   4.557
 9471SOL    HW229313   6.462   1.415   4.573
 9472SOL     OW29314   5.704   3.442   4.603
 9472SOL    HW129315   5.689   3.520   4.542
 9472SOL    HW229316   5.701   3.474   4.698
 9473SOL     OW29317   2.778   5.502   5.306
 9473SOL    HW129318   2.743   5.450   5.384
 9473SOL    HW229319   2.712   5.573   5.281
 9474SOL     OW29320   0.294   3.149   0.291
 9474SOL    HW129321   0.287   3.129   0.389
 9474SOL    HW229322   0.219   3.106   0.242
 9475SOL     OW29323   3.135   3.402   6.866
 9475SOL    HW129324   3.198   3.329   6.838
 9475SOL    HW229325   3.048   3.361   6.893
 9476SOL     OW29326   2.929   3.677   5.034
 9476SOL    HW129327   2.992   3.644   5.105
 9476SOL    HW229328   2.975   3.745   4.977
 9477SOL     OW29329   0.676   3.787   2.010
 9477SOL    HW129330   0.753   3.748   1.960
 9477SOL    HW229331   0.593   3.738   1.986
 9478SOL     OW29332   5.528   3.416   6.709
 9478SOL    HW129333   5.512   3.392   6.804
 9478SOL    HW229334   5.521   3.334   6.652
 9479SOL     OW29335   4.488   6.503   6.814
 9479SOL    HW129336   4.565   6.439   6.805
 9479SOL    HW229337   4.493   6.571   6.740
 9480SOL     OW29338   5.079   3.631   1.041
 9480SOL    HW129339   4.981   3.642   1.055
 9480SOL    HW229340   5.121   3.721   1.025
 9481SOL     OW29341   5.155   3.436   2.517
 9481SOL    HW129342   5.068   3.474   2.547
 9481SOL    HW229343   5.139   3.352   2.465
 9482SOL     OW29344   6.639   0.881   3.149
 9482SOL    HW129345   6.698   0.957   3.122
 9482SOL    HW229346   6.581   0.854   3.071
 9483SOL     OW29347   0.785   1.619   1.684
 9483SOL    HW129348   0.712   1.577   1.630
 9483SOL    HW229349   0.873   1.601   1.640
 9484SOL     OW29350   3.354   1.036   3.444
 9484SOL    HW129351   3.336   0.984   3.528
 9484SOL    HW229352   3.268   1.067   3.404
 9485SOL     OW29353   0.813   0.116   1.424
 9485SOL    HW129354   0.811   0.075   1.333
 9485SOL    HW229355   0.726   0.161   1.443
 9486SOL     OW29356   2.798   6.205   1.070
 9486SOL    HW129357   2.745   6.135   1.118
 9486SOL    HW229358   2.805   6.287   1.128
 9487SOL     OW29359   3.201   3.031   3.324
 9487SOL    HW129360   3.227   3.116   3.370
 9487SOL    HW229361   3.172   3.051   3.231
 9488SOL     OW29362   1.123   6.256   0.774
 9488SOL    HW129363   1.103   6.314   0.695
 9488SOL    HW229364   1.144   6.313   0.853
 9489SOL     OW29365   4.189   4.212   1.351
 9489SOL    HW129366   4.256   4.284   1.336
 9489SOL    HW229367   4.126   4.208   1.273
 9490SOL     OW29368   6.811   5.583   1.091
 9490SOL    HW129369   6.746   5.577   1.016
 9490SOL    HW229370   6.883   5.514   1.080
 9491SOL     OW29371   6.877   3.871   3.770
 9491SOL    HW129372   6.833   3.934   3.834
 9491SOL    HW229373   6.871   3.778   3.805
 9492SOL     OW29374   3.440   2.861   3.082
 9492SOL    HW129375   3.362   2.849   3.143
 9492SOL    HW229376   3.522   2.881   3.135
 9493SOL     OW29377   3.701   5.476   3.783
 9493SOL    HW129378   3.736   5.385   3.757
 9493SOL    HW229379   3.617   5.495   3.732
 9494SOL     OW29380   4.226   4.794   1.798
 9494SOL    HW129381   4.195   4.733   1.725
 9494SOL    HW229382   4.267   4.876   1.757
 9495SOL     OW29383   6.773   1.698   3.403
 9495SOL    HW129384   6.713   1.737   3.332
 9495SOL    HW229385   6.717   1.656   3.474
 9496SOL     OW29386   5.834   4.988   1.296
 9496SOL    HW129387   5.905   5.006   1.228
 9496SOL    HW229388   5.748   5.028   1.266
 9497SOL     OW29389   5.707   6.182   6.731
 9497SOL    HW129390   5.613   6.196   6.761
 9497SOL    HW229391   5.732   6.253   6.665
 9498SOL     OW29392   5.448   6.760   4.841
 9498SOL    HW129393   5.388   6.839   4.854
 9498SOL    HW229394   5.537   6.791   4.809
 9499SOL     OW29395   1.889   5.000   6.401
 9499SOL    HW129396   1.930   4.932   6.339
 9499SOL    HW229397   1.878   4.960   6.492
 9500SOL     OW29398   5.526   0.451   0.733
 9500SOL    HW129399   5.545   0.390   0.810
 9500SOL    HW229400   5.569   0.416   0.650
 9501SOL     OW29401   3.005   1.475   4.909
 9501SOL    HW129402   3.086   1.518   4.949
 9501SOL    HW229403   2.985   1.389   4.955
 9502SOL     OW29404   6.996   2.441   5.253
 9502SOL    HW129405   0.056   2.493   5.276
 9502SOL    HW229406   6.922   2.468   5.315
 9503SOL     OW29407   0.211   2.092   1.524
 9503SOL    HW129408   0.304   2.086   1.487
 9503SOL    HW229409   0.182   2.002   1.557
 9504SOL     OW29410   6.800   2.093   0.764
 9504SOL    HW129411   6.748   2.009   0.782
 9504SOL    HW229412   6.753   2.171   0.806
 9505SOL     OW29413   5.366   5.079   3.310
 9505SOL    HW129414   5.437   5.143   3.339
 9505SOL    HW229415   5.407   5.000   3.265
 9506SOL     OW29416   0.539   2.500   6.506
 9506SOL    HW129417   0.448   2.540   6.510
 9506SOL    HW229418   0.606   2.567   6.539
 9507SOL     OW29419   1.144   1.822   3.036
 9507SOL    HW129420   1.178   1.728   3.047
 9507SOL    HW229421   1.094   1.849   3.118
 9508SOL     OW29422   6.778   4.092   1.129
 9508SOL    HW129423   6.708   4.061   1.193
 9508SOL    HW229424   6.775   4.192   1.122
 9509SOL     OW29425   0.397   0.873   5.169
 9509SOL    HW129426   0.458   0.823   5.232
 9509SOL    HW229427   0.348   0.944   5.219
 9510SOL     OW29428   1.169   3.720   2.339
 9510SOL    HW129429   1.262   3.708   2.305
 9510SOL    HW229430   1.135   3.635   2.378
 9511SOL     OW29431   0.387   1.346   0.236
 9511SOL    HW129432   0.448   1.396   0.298
 9511SOL    HW229433   0.305   1.400   0.219
 9512SOL     OW29434   5.870   1.563   1.448
 9512SOL    HW129435   5.797   1.521   1.502
 9512SOL    HW229436   5.894   1.652   1.489
 9513SOL     OW29437   1.661   3.696   6.009
 9513SOL    HW129438   1.678   3.648   5.923
 9513SOL    HW229439   1.716   3.779   6.012
 9514SOL     OW29440   2.166   4.492   6.523
 9514SOL    HW129441   2.197   4.580   6.559
 9514SOL    HW229442   2.233   4.458   6.457
 9515SOL     OW29443   1.319   6.487   1.617
 9515SOL    HW129444   1.251   6.461   1.548
 9515SOL    HW229445   1.408   6.446   1.593
 9516SOL     OW29446   5.297   3.831   4.981
 9516SOL    HW129447   5.310   3.827   5.080
 9516SOL    HW229448   5.268   3.923   4.955
 9517SOL     OW29449   0.705   4.391   1.360
 9517SOL    HW129450   0.748   4.375   1.449
 9517SOL    HW229451   0.753   4.465   1.312
 9518SOL     OW29452   1.275   1.556   0.245
 9518SOL    HW129453   1.350   1.554   0.178
 9518SOL    HW229454   1.236   1.647   0.248
 9519SOL     OW29455   3.481   4.190   4.268
 9519SOL    HW129456   3.453   4.147   4.354
 9519SOL    HW229457   3.450   4.285   4.267
 9520SOL     OW29458   1.053   1.258   3.348
 9520SOL    HW129459   1.051   1.274   3.249
 9520SOL    HW229460   1.148   1.248   3.378
 9521SOL     OW29461   4.611   5.000   1.361
 9521SOL    HW129462   4.637   5.045   1.447
 9521SOL    HW229463   4.585   4.906   1.379
 9522SOL     OW29464   3.901   5.008   1.341
 9522SOL    HW129465   3.815   4.962   1.365
 9522SOL    HW229466   3.930   5.065   1.418
 9523SOL     OW29467   2.714   4.914   4.729
 9523SOL    HW129468   2.788   4.964   4.775
 9523SOL    HW229469   2.680   4.967   4.652
 9524SOL     OW29470   2.712   3.282   0.590
 9524SOL    HW129471   2.761   3.196   0.605
 9524SOL    HW229472   2.743   3.350   0.657
 9525SOL     OW29473   2.216   2.167   6.281
 9525SOL    HW129474   2.286   2.106   6.245
 9525SOL    HW229475   2.160   2.118   6.348
 9526SOL     OW29476   5.640   4.912   1.108
 9526SOL    HW129477   5.557   4.948   1.066
 9526SOL    HW229478   5.697   4.869   1.038
 9527SOL     OW29479   0.728   0.896   4.582
 9527SOL    HW129480   0.675   0.923   4.662
 9527SOL    HW229481   0.800   0.963   4.564
 9528SOL     OW29482   0.002   1.852   1.141
 9528SOL    HW129483   6.975   1.929   1.180
 9528SOL    HW229484   0.101   1.864   1.156
 9529SOL     OW29485   6.085   3.291   6.364
 9529SOL    HW129486   6.082   3.192   6.379
 9529SOL    HW229487   6.049   3.313   6.274
 9530SOL     OW29488   1.819   2.807   3.319
 9530SOL    HW129489   1.882   2.852   3.255
 9530SOL    HW229490   1.734   2.783   3.272
 9531SOL     OW29491   5.119   4.886   2.467
 9531SOL    HW129492   5.105   4.915   2.562
 9531SOL    HW229493   5.041   4.830   2.438
 9532SOL     OW29494   0.191   6.166   1.169
 9532SOL    HW129495   0.127   6.208   1.232
 9532SOL    HW229496   0.284   6.173   1.206
 9533SOL     OW29497   6.782   5.697   5.273
 9533SOL    HW129498   6.802   5.718   5.177
 9533SOL    HW229499   6.867   5.698   5.325
 9534SOL     OW29500   6.576   3.837   5.802
 9534SOL    HW129501   6.553   3.739   5.806
 9534SOL    HW229502   6.492   3.890   5.797
 9535SOL     OW29503   1.458   0.513   5.947
 9535SOL    HW129504   1.475   0.511   5.849
 9535SOL    HW229505   1.542   0.490   5.996
 9536SOL     OW29506   3.007   4.122   5.703
 9536SOL    HW129507   3.068   4.100   5.627
 9536SOL    HW229508   2.984   4.220   5.700
 9537SOL     OW29509   3.035   0.541   4.593
 9537SOL    HW129510   2.960   0.478   4.611
 9537SOL    HW229511   3.029   0.573   4.498
 9538SOL     OW29512   5.948   0.915   3.370
 9538SOL    HW129513   5.874   0.849   3.375
 9538SOL    HW229514   5.912   1.008   3.381
 9539SOL     OW29515   3.573   3.820   4.352
 9539SOL    HW129516   3.479   3.785   4.355
 9539SOL    HW229517   3.636   3.750   4.382
 9540SOL     OW29518   6.078   4.412   4.439
 9540SOL    HW129519   6.002   4.456   4.486
 9540SOL    HW229520   6.165   4.449   4.473
 9541SOL     OW29521   2.872   0.467   5.730
 9541SOL    HW129522   2.852   0.561   5.757
 9541SOL    HW229523   2.793   0.429   5.681
 9542SOL     OW29524   4.906   4.311   4.547
 9542SOL    HW129525   4.908   4.215   4.521
 9542SOL    HW229526   4.940   4.367   4.472
 9543SOL     OW29527   3.660   0.636   5.959
 9543SOL    HW129528   3.718   0.685   6.024
 9543SOL    HW229529   3.641   0.695   5.881
 9544SOL     OW29530   6.795   1.999   3.337
 9544SOL    HW129531   6.802   2.095   3.364
 9544SOL    HW229532   6.830   1.941   3.411
 9545SOL     OW29533   5.723   5.660   4.679
 9545SOL    HW129534   5.643   5.662   4.740
 9545SOL    HW229535   5.693   5.644   4.585
 9546SOL     OW29536   4.240   2.091   4.905
 9546SOL    HW129537   4.236   2.176   4.853
 9546SOL    HW229538   4.305   2.100   4.980
 9547SOL     OW29539   2.846   5.085   4.135
 9547SOL    HW129540   2.853   4.986   4.150
 9547SOL    HW229541   2.783   5.102   4.059
 9548SOL     OW29542   5.762   4.569   5.760
 9548SOL    HW129543   5.797   4.639   5.698
 9548SOL    HW229544   5.663   4.580   5.769
 9549SOL     OW29545   2.642   3.013   1.085
 9549SOL    HW129546   2.665   3.031   1.181
 9549SOL    HW229547   2.543   3.020   1.072
 9550SOL     OW29548   6.998   1.353   0.243
 9550SOL    HW129549   6.959   1.363   0.334
 9550SOL    HW229550   6.933   1.306   0.184
 9551SOL     OW29551   5.744   1.739   6.078
 9551SOL    HW129552   5.774   1.662   6.021
 9551SOL    HW229553   5.706   1.703   6.163
 9552SOL     OW29554   1.692   0.046   4.130
 9552SOL    HW129555   1.624   0.111   4.165
 9552SOL    HW229556   1.657   0.002   4.048
 9553SOL     OW29557   6.085   2.565   6.535
 9553SOL    HW129558   6.149   2.560   6.612
 9553SOL    HW229559   6.136   2.561   6.449
 9554SOL     OW29560   2.696   0.117   1.444
 9554SOL    HW129561   2.790   0.118   1.479
 9554SOL    HW229562   2.650   0.202   1.470
 9555SOL     OW29563   0.795   0.477   3.025
 9555SOL    HW129564   0.809   0.560   2.971
 9555SOL    HW229565   0.834   0.398   2.978
 9556SOL     OW29566   1.784   3.801   1.561
 9556SOL    HW129567   1.831   3.874   1.611
 9556SOL    HW229568   1.842   3.721   1.556
 9557SOL     OW29569   6.694   6.160   1.911
 9557SOL    HW129570   6.703   6.213   1.826
 9557SOL    HW229571   6.775   6.102   1.923
 9558SOL     OW29572   5.859   6.272   4.989
 9558SOL    HW129573   5.856   6.370   4.970
 9558SOL    HW229574   5.865   6.257   5.087
 9559SOL     OW29575   0.395   4.995   1.575
 9559SOL    HW129576   0.335   4.996   1.655
 9559SOL    HW229577   0.398   5.086   1.535
 9560SOL     OW29578   1.799   1.960   3.252
 9560SOL    HW129579   1.871   2.008   3.302
 9560SOL    HW229580   1.731   1.925   3.317
 9561SOL     OW29581   1.996   0.317   0.693
 9561SOL    HW129582   1.959   0.315   0.786
 9561SOL    HW229583   2.019   0.411   0.668
 9562SOL     OW29584   2.261   0.506   5.442
 9562SOL    HW129585   2.202   0.487   5.364
 9562SOL    HW229586   2.240   0.443   5.517
 9563SOL     OW29587   6.669   6.357   0.458
 9563SOL    HW129588   6.758   6.384   0.495
 9563SOL    HW229589   6.630   6.286   0.515
 9564SOL     OW29590   2.810   0.492   0.655
 9564SOL    HW129591   2.840   0.522   0.565
 9564SOL    HW229592   2.715   0.460   0.650
 9565SOL     OW29593   3.733   0.345   4.841
 9565SOL    HW129594   3.833   0.352   4.849
 9565SOL    HW229595   3.696   0.293   4.917
 9566SOL     OW29596   1.842   4.800   0.092
 9566SOL    HW129597   1.769   4.868   0.091
 9566SOL    HW229598   1.830   4.737   0.015
 9567SOL     OW29599   5.056   4.852   1.249
 9567SOL    HW129600   5.021   4.764   1.282
 9567SOL    HW229601   4.982   4.919   1.247
 9568SOL     OW29602   3.917   2.592   6.643
 9568SOL    HW129603   3.860   2.529   6.590
 9568SOL    HW229604   3.917   2.682   6.599
 9569SOL     OW29605   0.004   1.575   2.411
 9569SOL    HW129606   6.960   1.540   2.477
 9569SOL    HW229607   0.045   1.660   2.445
 9570SOL     OW29608   0.947   3.253   2.125
 9570SOL    HW129609   0.884   3.208   2.188
 9570SOL    HW229610   0.946   3.352   2.141
 9571SOL     OW29611   3.846   4.142   5.937
 9571SOL    HW129612   3.888   4.186   5.858
 9571SOL    HW229613   3.747   4.136   5.923
 9572SOL     OW29614   2.308   5.242   1.639
 9572SOL    HW129615   2.297   5.329   1.687
 9572SOL    HW229616   2.321   5.168   1.705
 9573SOL     OW29617   0.550   2.601   6.797
 9573SOL    HW129618   0.544   2.669   6.724
 9573SOL    HW229619   0.460   2.558   6.810
 9574SOL     OW29620   4.101   3.483   3.405
 9574SOL    HW129621   4.050   3.557   3.361
 9574SOL    HW229622   4.175   3.522   3.460
 9575SOL     OW29623   0.366   1.231   1.385
 9575SOL    HW129624   0.427   1.250   1.461
 9575SOL    HW229625   0.273   1.260   1.408
 9576SOL     OW29626   1.605   0.478   1.959
 9576SOL    HW129627   1.662   0.465   1.877
 9576SOL    HW229628   1.665   0.488   2.039
 9577SOL     OW29629   0.770   0.661   5.995
 9577SOL    HW129630   0.675   0.692   5.982
 9577SOL    HW229631   0.780   0.624   6.087
 9578SOL     OW29632   0.360   4.012   3.802
 9578SOL    HW129633   0.426   4.083   3.776
 9578SOL    HW229634   0.405   3.923   3.805
 9579SOL     OW29635   1.683   5.123   2.537
 9579SOL    HW129636   1.646   5.215   2.521
 9579SOL    HW229637   1.616   5.055   2.509
 9580SOL     OW29638   4.822   3.248   0.648
 9580SOL    HW129639   4.749   3.289   0.594
 9580SOL    HW229640   4.862   3.172   0.597
 9581SOL     OW29641   0.301   5.409   5.738
 9581SOL    HW129642   0.280   5.332   5.679
 9581SOL    HW229643   0.251   5.400   5.825
 9582SOL     OW29644   4.612   5.218   6.398
 9582SOL    HW129645   4.649   5.240   6.307
 9582SOL    HW229646   4.663   5.269   6.467
 9583SOL     OW29647   3.847   4.344   1.056
 9583SOL    HW129648   3.772   4.307   1.001
 9583SOL    HW229649   3.924   4.281   1.054
 9584SOL     OW29650   6.792   5.456   0.091
 9584SOL    HW129651   6.874   5.418   0.049
 9584SOL    HW229652   6.813   5.486   0.184
 9585SOL     OW29653   6.843   0.514   4.404
 9585SOL    HW129654   6.795   0.602   4.401
 9585SOL    HW229655   6.783   0.444   4.443
 9586SOL     OW29656   5.788   4.761   2.335
 9586SOL    HW129657   5.806   4.823   2.260
 9586SOL    HW229658   5.874   4.723   2.369
 9587SOL     OW29659   6.886   1.162   1.820
 9587SOL    HW129660   6.886   1.136   1.917
 9587SOL    HW229661   6.813   1.112   1.773
 9588SOL     OW29662   6.620   1.481   1.486
 9588SOL    HW129663   6.572   1.549   1.431
 9588SOL    HW229664   6.623   1.511   1.581
 9589SOL     OW29665   2.435   4.824   5.988
 9589SOL    HW129666   2.515   4.825   6.048
 9589SOL    HW229667   2.354   4.802   6.041
 9590SOL     OW29668   6.615   3.265   2.170
 9590SOL    HW129669   6.524   3.242   2.205
 9590SOL    HW229670   6.683   3.250   2.241
 9591SOL     OW29671   3.495   6.316   6.346
 9591SOL    HW129672   3.571   6.359   6.394
 9591SOL    HW229673   3.432   6.275   6.412
 9592SOL     OW29674   3.689   4.234   0.828
 9592SOL    HW129675   3.592   4.208   0.827
 9592SOL    HW229676   3.742   4.164   0.877
 9593SOL     OW29677   0.029   1.455   5.229
 9593SOL    HW129678   7.007   1.365   5.222
 9593SOL    HW229679   6.994   1.515   5.284
 9594SOL     OW29680   1.347   6.156   2.942
 9594SOL    HW129681   1.270   6.154   3.005
 9594SOL    HW229682   1.421   6.210   2.982
 9595SOL     OW29683   0.974   4.155   5.226
 9595SOL    HW129684   1.032   4.197   5.156
 9595SOL    HW229685   0.878   4.175   5.205
 9596SOL     OW29686   0.106   5.497   6.851
 9596SOL    HW129687   0.176   5.434   6.816
 9596SOL    HW229688   0.027   5.444   6.882
 9597SOL     OW29689   0.619   4.560   1.640
 9597SOL    HW129690   0.672   4.484   1.678
 9597SOL    HW229691   0.524   4.533   1.629
 9598SOL     OW29692   1.183   3.431   4.158
 9598SOL    HW129693   1.207   3.340   4.125
 9598SOL    HW229694   1.258   3.494   4.140
 9599SOL     OW29695   3.892   6.777   4.809
 9599SOL    HW129696   3.814   6.794   4.870
 9599SOL    HW229697   3.931   6.864   4.780
 9600SOL     OW29698   2.094   0.192   6.674
 9600SOL    HW129699   2.145   0.214   6.757
 9600SOL    HW229700   2.159   0.170   6.601
 9601SOL     OW29701   5.271   3.789   1.619
 9601SOL    HW129702   5.288   3.726   1.695
 9601SOL    HW229703   5.345   3.782   1.553
 9602SOL     OW29704   6.751   5.014   6.570
 9602SOL    HW129705   6.819   4.979   6.634
 9602SOL    HW229706   6.785   5.004   6.477
 9603SOL     OW29707   3.660   1.921   4.237
 9603SOL    HW129708   3.692   1.827   4.250
 9603SOL    HW229709   3.578   1.936   4.292
 9604SOL     OW29710   4.215   0.457   6.738
 9604SOL    HW129711   4.182   0.545   6.705
 9604SOL    HW229712   4.185   0.385   6.677
 9605SOL     OW29713   0.819   5.620   3.773
 9605SOL    HW129714   0.791   5.539   3.721
 9605SOL    HW229715   0.767   5.626   3.857
 9606SOL     OW29716   2.269   6.516   6.270
 9606SOL    HW129717   2.258   6.535   6.173
 9606SOL    HW229718   2.179   6.518   6.315
 9607SOL     OW29719   1.447   1.412   0.891
 9607SOL    HW129720   1.362   1.445   0.850
 9607SOL    HW229721   1.490   1.486   0.942
 9608SOL     OW29722   6.324   6.350   2.363
 9608SOL    HW129723   6.365   6.408   2.433
 9608SOL    HW229724   6.333   6.254   2.390
 9609SOL     OW29725   2.165   4.082   6.414
 9609SOL    HW129726   2.138   4.027   6.493
 9609SOL    HW229727   2.264   4.097   6.417
 9610SOL     OW29728   1.959   5.030   4.184
 9610SOL    HW129729   1.893   5.104   4.167
 9610SOL    HW229730   2.044   5.049   4.135
 9611SOL     OW29731   0.229   6.319   6.640
 9611SOL    HW129732   0.304   6.385   6.640
 9611SOL    HW229733   0.188   6.316   6.731
 9612SOL     OW29734   0.822   4.048   1.818
 9612SOL    HW129735   0.803   3.971   1.758
 9612SOL    HW229736   0.826   4.017   1.913
 9613SOL     OW29737   4.579   6.283   3.407
 9613SOL    HW129738   4.566   6.208   3.342
 9613SOL    HW229739   4.538   6.366   3.370
 9614SOL     OW29740   4.143   2.453   0.455
 9614SOL    HW129741   4.111   2.547   0.465
 9614SOL    HW229742   4.094   2.394   0.519
 9615SOL     OW29743   0.583   6.931   1.082
 9615SOL    HW129744   0.490   6.947   1.115
 9615SOL    HW229745   0.588   6.951   0.984
 9616SOL     OW29746   4.597   3.343   1.120
 9616SOL    HW129747   4.542   3.264   1.149
 9616SOL    HW229748   4.545   3.396   1.052
 9617SOL     OW29749   1.814   3.062   3.875
 9617SOL    HW129750   1.858   3.136   3.926
 9617SOL    HW229751   1.763   3.003   3.938
 9618SOL     OW29752   3.419   0.029   5.608
 9618SOL    HW129753   3.451   6.979   5.669
 9618SOL    HW229754   3.485   0.043   5.534
 9619SOL     OW29755   0.836   6.667   7.015
 9619SOL    HW129756   0.884   6.593   0.038
 9619SOL    HW229757   0.900   6.741   6.995
 9620SOL     OW29758   4.085   2.760   6.846
 9620SOL    HW129759   4.103   2.741   6.942
 9620SOL    HW229760   4.028   2.687   6.807
 9621SOL     OW29761   1.012   0.913   2.636
 9621SOL    HW129762   0.971   0.946   2.721
 9621SOL    HW229763   1.012   0.813   2.637
 9622SOL     OW29764   6.634   0.781   0.384
 9622SOL    HW129765   6.649   0.731   0.470
 9622SOL    HW229766   6.652   0.720   0.307
 9623SOL     OW29767   3.690   4.951   5.128
 9623SOL    HW129768   3.684   5.012   5.049
 9623SOL    HW229769   3.776   4.900   5.124
 9624SOL     OW29770   6.105   4.502   3.418
 9624SOL    HW129771   6.149   4.413   3.431
 9624SOL    HW229772   6.143   4.568   3.482
 9625SOL     OW29773   5.010   5.323   6.898
 9625SOL    HW129774   4.929   5.376   6.872
 9625SOL    HW229775   4.988   5.263   6.975
 9626SOL     OW29776   2.431   6.503   0.010
 9626SOL    HW129777   2.451   6.515   0.107
 9626SOL    HW229778   2.516   6.498   6.980
 9627SOL     OW29779   0.228   4.528   3.101
 9627SOL    HW129780   0.155   4.574   3.150
 9627SOL    HW229781   0.210   4.532   3.002
 9628SOL     OW29782   6.142   4.735   6.851
 9628SOL    HW129783   6.144   4.719   6.753
 9628SOL    HW229784   6.210   4.804   6.876
 9629SOL     OW29785   0.153   6.481   2.611
 9629SOL    HW129786   0.065   6.527   2.601
 9629SOL    HW229787   0.160   6.441   2.703
 9630SOL     OW29788   5.992   6.583   5.499
 9630SOL    HW129789   6.079   6.631   5.506
 9630SOL    HW229790   5.918   6.649   5.483
 9631SOL     OW29791   6.058   0.700   6.987
 9631SOL    HW129792   6.105   0.716   6.900
 9631SOL    HW229793   5.964   0.732   6.980
 9632SOL     OW29794   1.984   5.508   2.598
 9632SOL    HW129795   1.956   5.412   2.608
 9632SOL    HW229796   1.957   5.559   2.679
 9633SOL     OW29797   5.091   4.865   6.656
 9633SOL    HW129798   5.048   4.836   6.569
 9633SOL    HW229799   5.088   4.964   6.663
 9634SOL     OW29800   0.982   6.771   4.866
 9634SOL    HW129801   0.976   6.840   4.793
 9634SOL    HW229802   0.956   6.681   4.829
 9635SOL     OW29803   1.670   4.397   5.512
 9635SOL    HW129804   1.740   4.454   5.469
 9635SOL    HW229805   1.709   4.351   5.592
 9636SOL     OW29806   4.131   1.731   6.131
 9636SOL    HW129807   4.055   1.795   6.140
 9636SOL    HW229808   4.120   1.657   6.198
 9637SOL     OW29809   2.170   2.120   0.256
 9637SOL    HW129810   2.119   2.203   0.233
 9637SOL    HW229811   2.257   2.144   0.299
 9638SOL     OW29812   0.044   3.399   0.023
 9638SOL    HW129813   0.115   3.402   0.094
 9638SOL    HW229814   6.999   3.329   0.047
 9639SOL     OW29815   4.977   1.649   1.908
 9639SOL    HW129816   5.072   1.620   1.897
 9639SOL    HW229817   4.964   1.738   1.863
 9640SOL     OW29818   3.093   1.712   2.871
 9640SOL    HW129819   3.086   1.790   2.809
 9640SOL    HW229820   3.065   1.740   2.963
 9641SOL     OW29821   5.134   6.340   0.936
 9641SOL    HW129822   5.102   6.435   0.935
 9641SOL    HW229823   5.065   6.281   0.892
 9642SOL     OW29824   2.117   6.063   4.320
 9642SOL    HW129825   2.141   6.058   4.224
 9642SOL    HW229826   2.052   6.137   4.335
 9643SOL     OW29827   6.253   4.637   4.077
 9643SOL    HW129828   6.300   4.686   4.149
 9643SOL    HW229829   6.306   4.642   3.993
 9644SOL     OW29830   0.031   5.086   4.475
 9644SOL    HW129831   0.124   5.086   4.438
 9644SOL    HW229832   0.006   5.179   4.502
 9645SOL     OW29833   3.256   4.901   3.532
 9645SOL    HW129834   3.263   4.852   3.619
 9645SOL    HW229835   3.195   4.850   3.470
 9646SOL     OW29836   2.788   4.763   2.188
 9646SOL    HW129837   2.810   4.720   2.101
 9646SOL    HW229838   2.726   4.703   2.239
 9647SOL     OW29839   1.055   5.552   1.436
 9647SOL    HW129840   0.956   5.567   1.440
 9647SOL    HW229841   1.076   5.489   1.361
 9648SOL     OW29842   3.531   2.172   7.010
 9648SOL    HW129843   3.615   2.150   6.959
 9648SOL    HW229844   3.506   2.267   6.993
 9649SOL     OW29845   2.602   4.900   7.012
 9649SOL    HW129846   2.656   4.886   0.073
 9649SOL    HW229847   2.627   4.988   6.970
 9650SOL     OW29848   4.926   4.687   3.109
 9650SOL    HW129849   4.866   4.757   3.071
 9650SOL    HW229850   4.874   4.603   3.125
 9651SOL     OW29851   6.550   0.649   0.168
 9651SOL    HW129852   6.478   0.716   0.154
 9651SOL    HW229853   6.510   0.561   0.194
 9652SOL     OW29854   2.338   4.399   0.945
 9652SOL    HW129855   2.321   4.345   0.863
 9652SOL    HW229856   2.402   4.473   0.923
 9653SOL     OW29857   4.208   5.169   5.185
 9653SOL    HW129858   4.125   5.225   5.185
 9653SOL    HW229859   4.215   5.119   5.098
 9654SOL     OW29860   3.728   3.170   2.557
 9654SOL    HW129861   3.817   3.152   2.515
 9654SOL    HW229862   3.715   3.109   2.636
 9655SOL     OW29863   6.728   1.495   6.891
 9655SOL    HW129864   6.804   1.554   6.919
 9655SOL    HW229865   6.730   1.410   6.944
 9656SOL     OW29866   4.548   1.991   1.144
 9656SOL    HW129867   4.645   1.995   1.168
 9656SOL    HW229868   4.538   1.951   1.054
 9657SOL     OW29869   5.863   2.004   3.811
 9657SOL    HW129870   5.908   1.959   3.888
 9657SOL    HW229871   5.815   1.937   3.755
 9658SOL     OW29872   5.744   1.873   2.407
 9658SOL    HW129873   5.833   1.915   2.425
 9658SOL    HW229874   5.695   1.858   2.492
 9659SOL     OW29875   7.004   3.015   0.643
 9659SOL    HW129876   0.038   3.063   0.711
 9659SOL    HW229877   6.908   3.041   0.655
 9660SOL     OW29878   0.108   6.553   2.137
 9660SOL    HW129879   0.120   6.649   2.109
 9660SOL    HW229880   0.160   6.537   2.221
 9661SOL     OW29881   3.367   6.390   1.747
 9661SOL    HW129882   3.405   6.298   1.739
 9661SOL    HW229883   3.438   6.453   1.778
 9662SOL     OW29884   4.406   2.852   5.322
 9662SOL    HW129885   4.454   2.940   5.315
 9662SOL    HW229886   4.442   2.790   5.253
 9663SOL     OW29887   6.750   6.153   3.747
 9663SOL    HW129888   6.777   6.129   3.653
 9663SOL    HW229889   6.674   6.218   3.744
 9664SOL     OW29890   5.672   6.368   4.493
 9664SOL    HW129891   5.639   6.443   4.437
 9664SOL    HW229892   5.715   6.299   4.435
 9665SOL     OW29893   5.521   6.391   0.091
 9665SOL    HW129894   5.479   6.481   0.084
 9665SOL    HW229895   5.504   6.353   0.182
 9666SOL     OW29896   6.378   3.720   1.671
 9666SOL    HW129897   6.445   3.645   1.670
 9666SOL    HW229898   6.302   3.697   1.610
 9667SOL     OW29899   3.790   3.390   5.302
 9667SOL    HW129900   3.789   3.459   5.374
 9667SOL    HW229901   3.770   3.300   5.341
 9668SOL     OW29902   6.948   0.802   6.180
 9668SOL    HW129903   6.912   0.843   6.096
 9668SOL    HW229904   6.985   0.711   6.159
 9669SOL     OW29905   1.594   0.142   2.367
 9669SOL    HW129906   1.528   0.141   2.443
 9669SOL    HW229907   1.546   0.161   2.281
 9670SOL     OW29908   6.208   4.485   6.906
 9670SOL    HW129909   6.210   4.584   6.892
 9670SOL    HW229910   6.233   4.464   7.001
 9671SOL     OW29911   5.966   4.611   0.299
 9671SOL    HW129912   5.892   4.677   0.317
 9671SOL    HW229913   5.980   4.603   0.200
 9672SOL     OW29914   1.470   6.035   3.865
 9672SOL    HW129915   1.429   5.949   3.837
 9672SOL    HW229916   1.522   6.074   3.788
 9673SOL     OW29917   5.463   3.713   0.633
 9673SOL    HW129918   5.368   3.724   0.660
 9673SOL    HW229919   5.480   3.617   0.611
 9674SOL     OW29920   2.502   6.659   3.035
 9674SOL    HW129921   2.557   6.725   3.086
 9674SOL    HW229922   2.561   6.609   2.971
 9675SOL     OW29923   5.718   2.526   0.551
 9675SOL    HW129924   5.626   2.541   0.514
 9675SOL    HW229925   5.778   2.599   0.518
 9676SOL     OW29926   1.403   3.529   5.652
 9676SOL    HW129927   1.407   3.574   5.741
 9676SOL    HW229928   1.326   3.566   5.600
 9677SOL     OW29929   0.940   5.012   4.896
 9677SOL    HW129930   0.883   5.000   4.815
 9677SOL    HW229931   1.026   4.964   4.883
 9678SOL     OW29932   3.307   3.656   3.079
 9678SOL    HW129933   3.332   3.716   3.155
 9678SOL    HW229934   3.336   3.562   3.099
 9679SOL     OW29935   2.591   1.006   2.350
 9679SOL    HW129936   2.637   1.015   2.439
 9679SOL    HW229937   2.655   1.030   2.277
 9680SOL     OW29938   5.332   0.998   2.693
 9680SOL    HW129939   5.378   0.992   2.782
 9680SOL    HW229940   5.324   1.094   2.666
 9681SOL     OW29941   3.072   1.557   0.522
 9681SOL    HW129942   3.069   1.473   0.576
 9681SOL    HW229943   3.042   1.538   0.429
 9682SOL     OW29944   5.148   4.698   3.723
 9682SOL    HW129945   5.094   4.782   3.717
 9682SOL    HW229946   5.110   4.629   3.662
 9683SOL     OW29947   3.023   5.288   0.317
 9683SOL    HW129948   2.942   5.325   0.272
 9683SOL    HW229949   3.075   5.231   0.253
 9684SOL     OW29950   0.117   3.344   5.299
 9684SOL    HW129951   0.086   3.439   5.301
 9684SOL    HW229952   0.193   3.332   5.362
 9685SOL     OW29953   2.759   4.757   1.306
 9685SOL    HW129954   2.716   4.838   1.346
 9685SOL    HW229955   2.858   4.761   1.319
 9686SOL     OW29956   6.616   1.536   6.533
 9686SOL    HW129957   6.602   1.437   6.534
 9686SOL    HW229958   6.529   1.582   6.549
 9687SOL     OW29959   1.679   0.369   4.027
 9687SOL    HW129960   1.753   0.323   4.075
 9687SOL    HW229961   1.686   0.349   3.929
 9688SOL     OW29962   0.425   3.221   2.575
 9688SOL    HW129963   0.512   3.251   2.614
 9688SOL    HW229964   0.352   3.234   2.642
 9689SOL     OW29965   1.064   4.931   6.628
 9689SOL    HW129966   1.051   4.974   6.538
 9689SOL    HW229967   1.099   4.838   6.615
 9690SOL     OW29968   5.654   5.457   0.184
 9690SOL    HW129969   5.685   5.373   0.229
 9690SOL    HW229970   5.636   5.439   0.088
 9691SOL     OW29971   2.834   5.132   1.361
 9691SOL    HW129972   2.792   5.115   1.272
 9691SOL    HW229973   2.841   5.231   1.376
 9692SOL     OW29974   3.899   5.183   2.773
 9692SOL    HW129975   3.945   5.110   2.722
 9692SOL    HW229976   3.800   5.171   2.768
 9693SOL     OW29977   6.310   4.965   1.754
 9693SOL    HW129978   6.226   5.012   1.729
 9693SOL    HW229979   6.303   4.929   1.847
 9694SOL     OW29980   2.487   1.109   0.521
 9694SOL    HW129981   2.507   1.135   0.427
 9694SOL    HW229982   2.544   1.031   0.547
 9695SOL     OW29983   7.016   3.686   2.689
 9695SOL    HW129984   0.087   3.658   2.712
 9695SOL    HW229985   6.956   3.671   2.768
 9696SOL     OW29986   5.228   3.466   0.879
 9696SOL    HW129987   5.174   3.469   0.795
 9696SOL    HW229988   5.175   3.506   0.954
 9697SOL     OW29989   0.480   5.533   6.730
 9697SOL    HW129990   0.473   5.590   6.648
 9697SOL    HW229991   0.502   5.439   6.703
 9698SOL     OW29992   4.536   1.330   6.065
 9698SOL    HW129993   4.437   1.343   6.064
 9698SOL    HW229994   4.581   1.418   6.081
 9699SOL     OW29995   6.946   4.909   6.717
 9699SOL    HW129996   6.934   4.901   6.816
 9699SOL    HW229997   6.918   4.823   6.673
 9700SOL     OW29998   4.567   5.464   4.724
 9700SOL    HW129999   4.590   5.450   4.821
 9700SOL    HW230000   4.556   5.375   4.679
 9701SOL     OW30001   3.814   5.063   5.418
 9701SOL    HW130002   3.760   5.005   5.478
 9701SOL    HW230003   3.868   5.006   5.355
 9702SOL     OW30004   4.654   0.756   6.836
 9702SOL    HW130005   4.670   0.739   6.739
 9702SOL    HW230006   4.742   0.766   6.883
 9703SOL     OW30007   4.644   4.534   3.233
 9703SOL    HW130008   4.691   4.467   3.176
 9703SOL    HW230009   4.613   4.491   3.317
 9704SOL     OW30010   3.578   0.908   2.882
 9704SOL    HW130011   3.556   1.003   2.863
 9704SOL    HW230012   3.548   0.885   2.975
 9705SOL     OW30013   5.958   4.598   6.124
 9705SOL    HW130014   5.875   4.568   6.171
 9705SOL    HW230015   6.034   4.604   6.189
 9706SOL     OW30016   0.583   3.509   0.700
 9706SOL    HW130017   0.665   3.466   0.737
 9706SOL    HW230018   0.555   3.461   0.617
 9707SOL     OW30019   6.958   4.741   2.226
 9707SOL    HW130020   6.984   4.837   2.240
 9707SOL    HW230021   7.020   4.699   2.159
 9708SOL     OW30022   1.400   2.194   2.367
 9708SOL    HW130023   1.383   2.230   2.459
 9708SOL    HW230024   1.318   2.147   2.334
 9709SOL     OW30025   6.064   6.525   3.382
 9709SOL    HW130026   6.089   6.611   3.426
 9709SOL    HW230027   6.119   6.513   3.300
 9710SOL     OW30028   0.390   0.795   1.967
 9710SOL    HW130029   0.318   0.832   2.025
 9710SOL    HW230030   0.404   0.857   1.889
 9711SOL     OW30031   2.030   4.786   5.854
 9711SOL    HW130032   1.952   4.842   5.881
 9711SOL    HW230033   2.058   4.811   5.761
 9712SOL     OW30034   5.887   3.769   6.594
 9712SOL    HW130035   5.962   3.812   6.645
 9712SOL    HW230036   5.860   3.684   6.640
 9713SOL     OW30037   0.856   4.944   3.416
 9713SOL    HW130038   0.864   5.023   3.476
 9713SOL    HW230039   0.818   4.973   3.328
 9714SOL     OW30040   3.182   0.018   0.522
 9714SOL    HW130041   3.173   0.096   0.583
 9714SOL    HW230042   3.092   7.001   0.504
 9715SOL     OW30043   5.173   3.833   6.562
 9715SOL    HW130044   5.257   3.886   6.556
 9715SOL    HW230045   5.096   3.894   6.579
 9716SOL     OW30046   4.024   3.410   6.900
 9716SOL    HW130047   4.052   3.493   6.852
 9716SOL    HW230048   4.038   3.423   6.999
 9717SOL     OW30049   5.192   6.460   6.182
 9717SOL    HW130050   5.196   6.426   6.276
 9717SOL    HW230051   5.267   6.421   6.129
 9718SOL     OW30052   5.003   2.619   0.388
 9718SOL    HW130053   4.988   2.541   0.448
 9718SOL    HW230054   5.012   2.702   0.443
 9719SOL     OW30055   6.523   1.736   5.686
 9719SOL    HW130056   6.459   1.806   5.719
 9719SOL    HW230057   6.612   1.778   5.669
 9720SOL     OW30058   6.812   5.393   2.060
 9720SOL    HW130059   6.869   5.457   2.112
 9720SOL    HW230060   6.779   5.437   1.977
 9721SOL     OW30061   0.244   2.394   1.473
 9721SOL    HW130062   0.160   2.448   1.477
 9721SOL    HW230063   0.223   2.302   1.438
 9722SOL     OW30064   6.601   0.642   4.259
 9722SOL    HW130065   6.529   0.681   4.315
 9722SOL    HW230066   6.607   0.691   4.172
 9723SOL     OW30067   1.836   6.846   2.604
 9723SOL    HW130068   1.867   6.872   2.695
 9723SOL    HW230069   1.894   6.889   2.535
 9724SOL     OW30070   1.817   4.550   0.495
 9724SOL    HW130071   1.749   4.597   0.438
 9724SOL    HW230072   1.906   4.594   0.484
 9725SOL     OW30073   3.608   4.944   6.533
 9725SOL    HW130074   3.622   4.906   6.625
 9725SOL    HW230075   3.694   4.942   6.482
 9726SOL     OW30076   5.090   0.692   4.522
 9726SOL    HW130077   5.183   0.657   4.515
 9726SOL    HW230078   5.091   0.792   4.528
 9727SOL     OW30079   0.858   4.027   5.938
 9727SOL    HW130080   0.954   4.009   5.957
 9727SOL    HW230081   0.811   4.053   6.023
 9728SOL     OW30082   0.184   0.774   5.750
 9728SOL    HW130083   0.125   0.702   5.785
 9728SOL    HW230084   0.238   0.811   5.826
 9729SOL     OW30085   1.147   3.911   3.522
 9729SOL    HW130086   1.166   3.960   3.607
 9729SOL    HW230087   1.137   3.977   3.448
 9730SOL     OW30088   0.915   3.565   3.825
 9730SOL    HW130089   0.996   3.623   3.827
 9730SOL    HW230090   0.893   3.534   3.917
 9731SOL     OW30091   4.775   4.255   1.083
 9731SOL    HW130092   4.855   4.218   1.130
 9731SOL    HW230093   4.702   4.271   1.150
 9732SOL     OW30094   6.042   5.806   3.816
 9732SOL    HW130095   6.138   5.833   3.808
 9732SOL    HW230096   6.019   5.740   3.745
 9733SOL     OW30097   5.753   5.265   0.713
 9733SOL    HW130098   5.736   5.167   0.697
 9733SOL    HW230099   5.782   5.307   0.627
 9734SOL     OW30100   6.486   1.587   2.404
 9734SOL    HW130101   6.441   1.514   2.352
 9734SOL    HW230102   6.416   1.648   2.442
 9735SOL     OW30103   2.604   4.644   3.459
 9735SOL    HW130104   2.565   4.557   3.429
 9735SOL    HW230105   2.574   4.663   3.553
 9736SOL     OW30106   6.463   1.833   6.347
 9736SOL    HW130107   6.563   1.841   6.348
 9736SOL    HW230108   6.427   1.851   6.438
 9737SOL     OW30109   5.955   2.717   3.998
 9737SOL    HW130110   5.990   2.681   3.912
 9737SOL    HW230111   5.896   2.649   4.042
 9738SOL     OW30112   1.443   0.023   1.178
 9738SOL    HW130113   1.401   6.955   1.184
 9738SOL    HW230114   1.539   0.017   1.206
 9739SOL     OW30115   6.469   4.686   2.015
 9739SOL    HW130116   6.443   4.607   1.959
 9739SOL    HW230117   6.566   4.681   2.037
 9740SOL     OW30118   6.747   2.026   3.002
 9740SOL    HW130119   6.818   1.993   3.064
 9740SOL    HW230120   6.662   1.976   3.020
 9741SOL     OW30121   4.308   1.407   3.366
 9741SOL    HW130122   4.223   1.355   3.355
 9741SOL    HW230123   4.385   1.344   3.375
 9742SOL     OW30124   4.344   0.110   0.927
 9742SOL    HW130125   4.409   0.186   0.932
 9742SOL    HW230126   4.254   0.141   0.956
 9743SOL     OW30127   0.801   2.071   5.186
 9743SOL    HW130128   0.841   2.120   5.263
 9743SOL    HW230129   0.818   2.123   5.102
 9744SOL     OW30130   0.195   6.897   2.706
 9744SOL    HW130131   0.284   6.907   2.751
 9744SOL    HW230132   0.137   6.975   2.730
 9745SOL     OW30133   5.974   2.255   5.651
 9745SOL    HW130134   5.890   2.230   5.700
 9745SOL    HW230135   5.964   2.233   5.554
 9746SOL     OW30136   6.517   0.842   5.577
 9746SOL    HW130137   6.513   0.833   5.676
 9746SOL    HW230138   6.429   0.874   5.543
 9747SOL     OW30139   2.373   0.975   1.366
 9747SOL    HW130140   2.283   0.950   1.402
 9747SOL    HW230141   2.392   1.070   1.387
 9748SOL     OW30142   0.627   1.200   3.241
 9748SOL    HW130143   0.682   1.276   3.275
 9748SOL    HW230144   0.532   1.228   3.232
 9749SOL     OW30145   2.318   1.499   5.217
 9749SOL    HW130146   2.333   1.421   5.278
 9749SOL    HW230147   2.277   1.467   5.131
 9750SOL     OW30148   5.690   4.528   3.625
 9750SOL    HW130149   5.650   4.445   3.662
 9750SOL    HW230150   5.726   4.510   3.533
 9751SOL     OW30151   0.528   1.075   0.824
 9751SOL    HW130152   0.448   1.042   0.773
 9751SOL    HW230153   0.545   1.015   0.902
 9752SOL     OW30154   4.707   1.853   5.853
 9752SOL    HW130155   4.780   1.786   5.869
 9752SOL    HW230156   4.746   1.945   5.848
 9753SOL     OW30157   5.619   6.132   5.882
 9753SOL    HW130158   5.658   6.220   5.856
 9753SOL    HW230159   5.520   6.141   5.892
 9754SOL     OW30160   0.998   1.356   6.762
 9754SOL    HW130161   0.972   1.445   6.723
 9754SOL    HW230162   0.917   1.313   6.802
 9755SOL     OW30163   4.184   3.525   4.859
 9755SOL    HW130164   4.155   3.475   4.940
 9755SOL    HW230165   4.284   3.522   4.852
 9756SOL     OW30166   6.314   3.586   1.094
 9756SOL    HW130167   6.303   3.610   0.998
 9756SOL    HW230168   6.362   3.660   1.142
 9757SOL     OW30169   6.223   3.503   3.665
 9757SOL    HW130170   6.245   3.583   3.609
 9757SOL    HW230171   6.307   3.453   3.684
 9758SOL     OW30172   2.542   0.072   6.700
 9758SOL    HW130173   2.642   0.076   6.698
 9758SOL    HW230174   2.504   0.131   6.629
 9759SOL     OW30175   1.885   6.693   6.899
 9759SOL    HW130176   1.869   6.792   6.901
 9759SOL    HW230177   1.932   6.668   6.815
 9760SOL     OW30178   4.712   2.945   5.256
 9760SOL    HW130179   4.681   2.862   5.210
 9760SOL    HW230180   4.770   2.920   5.334
 9761SOL     OW30181   5.978   0.726   2.510
 9761SOL    HW130182   6.047   0.775   2.458
 9761SOL    HW230183   5.917   0.677   2.448
 9762SOL     OW30184   3.566   1.659   4.451
 9762SOL    HW130185   3.515   1.575   4.438
 9762SOL    HW230186   3.503   1.737   4.450
 9763SOL     OW30187   5.257   2.339   1.898
 9763SOL    HW130188   5.167   2.369   1.864
 9763SOL    HW230189   5.328   2.399   1.862
 9764SOL     OW30190   0.560   2.864   2.848
 9764SOL    HW130191   0.467   2.887   2.875
 9764SOL    HW230192   0.581   2.771   2.876
 9765SOL     OW30193   6.752   1.282   3.325
 9765SOL    HW130194   6.663   1.314   3.293
 9765SOL    HW230195   6.818   1.358   3.323
 9766SOL     OW30196   2.852   0.361   2.990
 9766SOL    HW130197   2.862   0.287   2.923
 9766SOL    HW230198   2.808   0.325   3.072
 9767SOL     OW30199   4.786   1.393   5.126
 9767SOL    HW130200   4.696   1.437   5.132
 9767SOL    HW230201   4.804   1.342   5.211
 9768SOL     OW30202   5.892   2.035   3.401
 9768SOL    HW130203   5.822   2.072   3.340
 9768SOL    HW230204   5.925   2.108   3.461
 9769SOL     OW30205   2.926   0.773   2.720
 9769SOL    HW130206   2.829   0.764   2.744
 9769SOL    HW230207   2.962   0.684   2.693
 9770SOL     OW30208   5.806   6.571   0.290
 9770SOL    HW130209   5.850   6.488   0.256
 9770SOL    HW230210   5.713   6.549   0.318
 9771SOL     OW30211   2.715   5.120   1.117
 9771SOL    HW130212   2.794   5.115   1.056
 9771SOL    HW230213   2.650   5.048   1.093
 9772SOL     OW30214   1.046   6.051   2.867
 9772SOL    HW130215   1.004   5.963   2.892
 9772SOL    HW230216   1.099   6.086   2.944
 9773SOL     OW30217   5.240   5.737   4.465
 9773SOL    HW130218   5.262   5.697   4.376
 9773SOL    HW230219   5.165   5.687   4.507
 9774SOL     OW30220   7.017   4.868   1.947
 9774SOL    HW130221   6.945   4.826   1.892
 9774SOL    HW230222   6.984   4.954   1.986
 9775SOL     OW30223   2.053   0.822   3.679
 9775SOL    HW130224   2.015   0.879   3.606
 9775SOL    HW230225   1.982   0.760   3.714
 9776SOL     OW30226   1.080   4.652   4.138
 9776SOL    HW130227   1.028   4.581   4.092
 9776SOL    HW230228   1.024   4.734   4.148
 9777SOL     OW30229   5.705   4.534   6.257
 9777SOL    HW130230   5.697   4.435   6.259
 9777SOL    HW230231   5.615   4.575   6.249
 9778SOL     OW30232   0.524   0.878   3.414
 9778SOL    HW130233   0.597   0.904   3.350
 9778SOL    HW230234   0.491   0.787   3.391
 9779SOL     OW30235   1.817   1.039   4.925
 9779SOL    HW130236   1.740   1.014   4.984
 9779SOL    HW230237   1.783   1.068   4.835
 9780SOL     OW30238   2.805   1.801   1.173
 9780SOL    HW130239   2.706   1.810   1.163
 9780SOL    HW230240   2.826   1.713   1.216
 9781SOL     OW30241   1.809   3.766   4.329
 9781SOL    HW130242   1.804   3.716   4.416
 9781SOL    HW230243   1.808   3.700   4.253
 9782SOL     OW30244   6.576   0.755   1.613
 9782SOL    HW130245   6.516   0.766   1.534
 9782SOL    HW230246   6.672   0.763   1.584
 9783SOL     OW30247   5.106   1.891   3.158
 9783SOL    HW130248   5.106   1.938   3.070
 9783SOL    HW230249   5.110   1.958   3.232
 9784SOL     OW30250   4.085   1.382   4.617
 9784SOL    HW130251   3.994   1.419   4.635
 9784SOL    HW230252   4.118   1.334   4.698
 9785SOL     OW30253   0.606   3.481   5.922
 9785SOL    HW130254   0.634   3.575   5.938
 9785SOL    HW230255   0.540   3.478   5.847
 9786SOL     OW30256   2.599   4.449   0.213
 9786SOL    HW130257   2.672   4.492   0.159
 9786SOL    HW230258   2.639   4.404   0.293
 9787SOL     OW30259   4.751   3.526   1.647
 9787SOL    HW130260   4.795   3.608   1.611
 9787SOL    HW230261   4.820   3.454   1.658
 9788SOL     OW30262   0.927   0.769   3.476
 9788SOL    HW130263   0.953   0.690   3.532
 9788SOL    HW230264   0.929   0.743   3.379
 9789SOL     OW30265   1.003   5.188   0.459
 9789SOL    HW130266   1.062   5.202   0.538
 9789SOL    HW230267   0.997   5.273   0.406
 9790SOL     OW30268   5.617   4.260   5.519
 9790SOL    HW130269   5.583   4.321   5.591
 9790SOL    HW230270   5.557   4.264   5.440
 9791SOL     OW30271   0.497   0.931   2.969
 9791SOL    HW130272   0.549   0.925   3.054
 9791SOL    HW230273   0.560   0.926   2.891
 9792SOL     OW30274   5.409   5.638   1.948
 9792SOL    HW130275   5.488   5.697   1.935
 9792SOL    HW230276   5.436   5.542   1.937
 9793SOL     OW30277   5.185   5.708   3.130
 9793SOL    HW130278   5.226   5.700   3.221
 9793SOL    HW230279   5.086   5.693   3.136
 9794SOL     OW30280   6.492   3.850   0.148
 9794SOL    HW130281   6.590   3.871   0.148
 9794SOL    HW230282   6.449   3.894   0.227
 9795SOL     OW30283   2.176   1.920   4.124
 9795SOL    HW130284   2.223   2.003   4.156
 9795SOL    HW230285   2.233   1.840   4.144
 9796SOL     OW30286   4.450   2.406   1.545
 9796SOL    HW130287   4.364   2.400   1.597
 9796SOL    HW230288   4.506   2.326   1.565
 9797SOL     OW30289   2.494   5.167   6.838
 9797SOL    HW130290   2.575   5.177   6.897
 9797SOL    HW230291   2.411   5.168   6.895
 9798SOL     OW30292   2.789   0.347   1.276
 9798SOL    HW130293   2.764   0.272   1.336
 9798SOL    HW230294   2.760   0.434   1.316
 9799SOL     OW30295   3.432   3.951   3.360
 9799SOL    HW130296   3.362   4.004   3.312
 9799SOL    HW230297   3.407   3.854   3.361
 9800SOL     OW30298   3.453   6.265   4.764
 9800SOL    HW130299   3.395   6.345   4.778
 9800SOL    HW230300   3.549   6.289   4.781
 9801SOL     OW30301   4.578   3.806   0.211
 9801SOL    HW130302   4.619   3.866   0.279
 9801SOL    HW230303   4.493   3.848   0.177
 9802SOL     OW30304   0.980   3.049   1.664
 9802SOL    HW130305   0.948   2.954   1.670
 9802SOL    HW230306   0.986   3.089   1.755
 9803SOL     OW30307   6.945   1.731   6.968
 9803SOL    HW130308   0.017   1.756   6.991
 9803SOL    HW230309   6.899   1.696   0.027
 9804SOL     OW30310   0.878   6.269   3.019
 9804SOL    HW130311   0.963   6.225   3.050
 9804SOL    HW230312   0.890   6.368   3.017
 9805SOL     OW30313   0.896   6.518   5.894
 9805SOL    HW130314   0.806   6.493   5.928
 9805SOL    HW230315   0.886   6.578   5.814
 9806SOL     OW30316   1.535   0.815   1.304
 9806SOL    HW130317   1.574   0.863   1.225
 9806SOL    HW230318   1.441   0.845   1.317
 9807SOL     OW30319   2.476   3.203   0.368
 9807SOL    HW130320   2.478   3.172   0.273
 9807SOL    HW230321   2.389   3.250   0.385
 9808SOL     OW30322   5.006   0.934   5.410
 9808SOL    HW130323   4.998   0.836   5.391
 9808SOL    HW230324   4.971   0.986   5.333
 9809SOL     OW30325   0.786   2.179   6.615
 9809SOL    HW130326   0.799   2.176   6.516
 9809SOL    HW230327   0.775   2.086   6.649
 9810SOL     OW30328   2.490   2.567   4.045
 9810SOL    HW130329   2.410   2.507   4.057
 9810SOL    HW230330   2.460   2.662   4.045
 9811SOL     OW30331   5.578   5.250   3.817
 9811SOL    HW130332   5.624   5.164   3.797
 9811SOL    HW230333   5.551   5.253   3.913
 9812SOL     OW30334   3.217   2.647   5.587
 9812SOL    HW130335   3.181   2.564   5.545
 9812SOL    HW230336   3.159   2.673   5.664
 9813SOL     OW30337   5.995   0.765   6.467
 9813SOL    HW130338   5.947   0.685   6.431
 9813SOL    HW230339   5.936   0.813   6.532
 9814SOL     OW30340   0.113   0.829   0.372
 9814SOL    HW130341   0.152   0.913   0.335
 9814SOL    HW230342   0.048   0.851   0.445
 9815SOL     OW30343   5.741   4.040   2.960
 9815SOL    HW130344   5.792   4.063   2.877
 9815SOL    HW230345   5.723   3.942   2.962
 9816SOL     OW30346   0.294   1.823   6.076
 9816SOL    HW130347   0.271   1.857   6.167
 9816SOL    HW230348   0.330   1.898   6.021
 9817SOL     OW30349   2.577   5.678   2.588
 9817SOL    HW130350   2.554   5.680   2.490
 9817SOL    HW230351   2.509   5.730   2.639
 9818SOL     OW30352   1.774   0.933   4.232
 9818SOL    HW130353   1.833   0.930   4.313
 9818SOL    HW230354   1.762   1.028   4.203
 9819SOL     OW30355   4.796   3.018   4.569
 9819SOL    HW130356   4.834   3.039   4.658
 9819SOL    HW230357   4.860   2.962   4.517
 9820SOL     OW30358   3.614   3.405   5.782
 9820SOL    HW130359   3.675   3.458   5.841
 9820SOL    HW230360   3.582   3.324   5.831
 9821SOL     OW30361   5.005   0.951   0.570
 9821SOL    HW130362   5.061   1.031   0.548
 9821SOL    HW230363   4.914   0.961   0.529
 9822SOL     OW30364   2.299   5.649   3.680
 9822SOL    HW130365   2.386   5.604   3.696
 9822SOL    HW230366   2.236   5.627   3.754
 9823SOL     OW30367   2.392   0.243   1.653
 9823SOL    HW130368   2.383   0.196   1.565
 9823SOL    HW230369   2.471   0.206   1.702
 9824SOL     OW30370   1.680   5.751   4.293
 9824SOL    HW130371   1.731   5.817   4.348
 9824SOL    HW230372   1.741   5.709   4.226
 9825SOL     OW30373   5.383   6.819   4.048
 9825SOL    HW130374   5.338   6.828   4.136
 9825SOL    HW230375   5.481   6.837   4.058
 9826SOL     OW30376   3.514   6.075   5.377
 9826SOL    HW130377   3.587   6.066   5.310
 9826SOL    HW230378   3.445   6.004   5.361
 9827SOL     OW30379   1.823   4.182   3.450
 9827SOL    HW130380   1.877   4.105   3.483
 9827SOL    HW230381   1.884   4.254   3.418
 9828SOL     OW30382   3.383   2.621   5.286
 9828SOL    HW130383   3.339   2.538   5.252
 9828SOL    HW230384   3.327   2.700   5.264
 9829SOL     OW30385   5.003   6.016   6.643
 9829SOL    HW130386   4.904   6.008   6.659
 9829SOL    HW230387   5.019   6.051   6.550
 9830SOL     OW30388   5.251   1.623   1.881
 9830SOL    HW130389   5.339   1.668   1.890
 9830SOL    HW230390   5.259   1.527   1.910
 9831SOL     OW30391   0.927   4.331   2.573
 9831SOL    HW130392   0.835   4.335   2.612
 9831SOL    HW230393   0.946   4.238   2.541
 9832SOL     OW30394   5.114   5.458   1.849
 9832SOL    HW130395   5.127   5.526   1.777
 9832SOL    HW230396   5.200   5.411   1.867
 9833SOL     OW30397   3.399   3.403   3.257
 9833SOL    HW130398   3.465   3.328   3.247
 9833SOL    HW230399   3.316   3.369   3.300
 9834SOL     OW30400   2.120   4.311   5.490
 9834SOL    HW130401   2.058   4.379   5.451
 9834SOL    HW230402   2.214   4.331   5.460
 9835SOL     OW30403   3.700   3.400   4.321
 9835SOL    HW130404   3.733   3.361   4.407
 9835SOL    HW230405   3.631   3.339   4.282
 9836SOL     OW30406   0.603   4.008   4.259
 9836SOL    HW130407   0.504   4.022   4.255
 9836SOL    HW230408   0.622   3.912   4.281
 9837SOL     OW30409   4.851   0.741   2.768
 9837SOL    HW130410   4.876   0.644   2.771
 9837SOL    HW230411   4.923   0.795   2.812
 9838SOL     OW30412   1.561   6.932   0.470
 9838SOL    HW130413   1.572   6.839   0.505
 9838SOL    HW230414   1.638   6.988   0.499
 9839SOL     OW30415   5.034   6.510   3.151
 9839SOL    HW130416   4.975   6.456   3.211
 9839SOL    HW230417   4.992   6.518   3.061
 9840SOL     OW30418   5.038   2.000   0.752
 9840SOL    HW130419   4.947   1.963   0.734
 9840SOL    HW230420   5.066   2.057   0.675
 9841SOL     OW30421   1.156   4.317   3.991
 9841SOL    HW130422   1.207   4.403   3.989
 9841SOL    HW230423   1.159   4.279   4.084
 9842SOL     OW30424   3.622   3.470   1.429
 9842SOL    HW130425   3.539   3.423   1.399
 9842SOL    HW230426   3.631   3.459   1.528
 9843SOL     OW30427   6.437   0.326   1.505
 9843SOL    HW130428   6.369   0.286   1.444
 9843SOL    HW230429   6.529   0.304   1.473
 9844SOL     OW30430   6.155   1.346   4.007
 9844SOL    HW130431   6.203   1.308   4.087
 9844SOL    HW230432   6.156   1.279   3.933
 9845SOL     OW30433   1.679   1.822   3.484
 9845SOL    HW130434   1.703   1.740   3.535
 9845SOL    HW230435   1.599   1.865   3.526
 9846SOL     OW30436   4.557   2.260   0.807
 9846SOL    HW130437   4.605   2.305   0.732
 9846SOL    HW230438   4.490   2.195   0.771
 9847SOL     OW30439   4.078   3.696   2.469
 9847SOL    HW130440   3.979   3.690   2.487
 9847SOL    HW230441   4.128   3.667   2.550
 9848SOL     OW30442   4.484   4.840   5.986
 9848SOL    HW130443   4.490   4.927   5.937
 9848SOL    HW230444   4.472   4.857   6.084
 9849SOL     OW30445   0.851   0.338   6.574
 9849SOL    HW130446   0.804   0.423   6.551
 9849SOL    HW230447   0.945   0.358   6.602
 9850SOL     OW30448   0.213   0.901   4.046
 9850SOL    HW130449   0.213   0.801   4.052
 9850SOL    HW230450   0.177   0.929   3.958
 9851SOL     OW30451   2.413   0.446   4.442
 9851SOL    HW130452   2.490   0.383   4.439
 9851SOL    HW230453   2.382   0.466   4.349
 9852SOL     OW30454   1.731   1.289   5.045
 9852SOL    HW130455   1.809   1.230   5.023
 9852SOL    HW230456   1.749   1.382   5.013
 9853SOL     OW30457   6.632   3.319   5.132
 9853SOL    HW130458   6.701   3.248   5.117
 9853SOL    HW230459   6.677   3.404   5.158
 9854SOL     OW30460   0.400   5.961   4.246
 9854SOL    HW130461   0.476   5.898   4.231
 9854SOL    HW230462   0.350   5.974   4.161
 9855SOL     OW30463   2.069   3.684   0.451
 9855SOL    HW130464   2.131   3.609   0.428
 9855SOL    HW230465   2.114   3.744   0.518
 9856SOL     OW30466   5.324   4.537   3.875
 9856SOL    HW130467   5.251   4.585   3.826
 9856SOL    HW230468   5.373   4.601   3.933
 9857SOL     OW30469   5.213   2.261   2.810
 9857SOL    HW130470   5.254   2.351   2.794
 9857SOL    HW230471   5.158   2.235   2.731
 9858SOL     OW30472   0.432   6.689   1.342
 9858SOL    HW130473   0.471   6.758   1.403
 9858SOL    HW230474   0.335   6.707   1.328
 9859SOL     OW30475   6.549   5.306   3.885
 9859SOL    HW130476   6.485   5.313   3.809
 9859SOL    HW230477   6.610   5.385   3.885
 9860SOL     OW30478   1.776   2.475   4.939
 9860SOL    HW130479   1.752   2.566   4.971
 9860SOL    HW230480   1.857   2.442   4.987
 9861SOL     OW30481   2.672   0.357   3.320
 9861SOL    HW130482   2.712   0.370   3.410
 9861SOL    HW230483   2.688   0.263   3.289
 9862SOL     OW30484   2.412   3.969   0.431
 9862SOL    HW130485   2.411   3.872   0.453
 9862SOL    HW230486   2.344   3.988   0.360
 9863SOL     OW30487   3.200   6.223   1.269
 9863SOL    HW130488   3.162   6.178   1.188
 9863SOL    HW230489   3.144   6.202   1.349
 9864SOL     OW30490   3.371   0.585   4.953
 9864SOL    HW130491   3.319   0.512   4.908
 9864SOL    HW230492   3.458   0.599   4.904
 9865SOL     OW30493   1.235   6.510   4.121
 9865SOL    HW130494   1.259   6.422   4.079
 9865SOL    HW230495   1.317   6.566   4.131
 9866SOL     OW30496   6.323   4.478   5.444
 9866SOL    HW130497   6.294   4.384   5.426
 9866SOL    HW230498   6.255   4.523   5.503
 9867SOL     OW30499   6.443   1.899   3.000
 9867SOL    HW130500   6.448   1.967   2.926
 9867SOL    HW230501   6.355   1.908   3.047
 9868SOL     OW30502   0.938   3.222   4.429
 9868SOL    HW130503   0.973   3.314   4.412
 9868SOL    HW230504   0.888   3.220   4.516
 9869SOL     OW30505   0.557   2.838   0.895
 9869SOL    HW130506   0.519   2.777   0.826
 9869SOL    HW230507   0.640   2.798   0.934
 9870SOL     OW30508   4.370   6.449   2.674
 9870SOL    HW130509   4.327   6.369   2.633
 9870SOL    HW230510   4.447   6.420   2.731
 9871SOL     OW30511   6.456   3.444   5.752
 9871SOL    HW130512   6.368   3.490   5.763
 9871SOL    HW230513   6.470   3.421   5.656
 9872SOL     OW30514   2.831   5.530   4.859
 9872SOL    HW130515   2.738   5.510   4.828
 9872SOL    HW230516   2.885   5.564   4.782
 9873SOL     OW30517   2.262   2.536   0.104
 9873SOL    HW130518   2.180   2.478   0.104
 9873SOL    HW230519   2.310   2.528   0.191
 9874SOL     OW30520   0.703   3.060   5.539
 9874SOL    HW130521   0.722   3.123   5.614
 9874SOL    HW230522   0.625   3.003   5.563
 9875SOL     OW30523   6.175   5.638   2.701
 9875SOL    HW130524   6.098   5.701   2.690
 9875SOL    HW230525   6.185   5.583   2.618
 9876SOL     OW30526   5.464   1.099   3.577
 9876SOL    HW130527   5.379   1.060   3.614
 9876SOL    HW230528   5.541   1.067   3.631
 9877SOL     OW30529   6.910   4.710   4.403
 9877SOL    HW130530   6.944   4.616   4.406
 9877SOL    HW230531   6.955   4.758   4.328
 9878SOL     OW30532   2.559   3.637   5.775
 9878SOL    HW130533   2.597   3.707   5.836
 9878SOL    HW230534   2.621   3.559   5.771
 9879SOL     OW30535   6.651   4.594   5.567
 9879SOL    HW130536   6.675   4.504   5.532
 9879SOL    HW230537   6.586   4.584   5.643
 9880SOL     OW30538   2.183   0.805   0.782
 9880SOL    HW130539   2.248   0.878   0.803
 9880SOL    HW230540   2.143   0.771   0.867
 9881SOL     OW30541   6.676   1.613   4.182
 9881SOL    HW130542   6.603   1.623   4.115
 9881SOL    HW230543   6.666   1.526   4.231
 9882SOL     OW30544   3.286   3.845   5.794
 9882SOL    HW130545   3.259   3.941   5.787
 9882SOL    HW230546   3.321   3.827   5.886
 9883SOL     OW30547   0.836   6.679   1.241
 9883SOL    HW130548   0.834   6.772   1.204
 9883SOL    HW230549   0.751   6.633   1.219
 9884SOL     OW30550   4.168   1.869   1.079
 9884SOL    HW130551   4.204   1.890   1.170
 9884SOL    HW230552   4.187   1.946   1.017
 9885SOL     OW30553   0.774   3.205   4.715
 9885SOL    HW130554   0.702   3.265   4.680
 9885SOL    HW230555   0.747   3.171   4.805
 9886SOL     OW30556   6.813   6.170   2.220
 9886SOL    HW130557   6.848   6.235   2.152
 9886SOL    HW230558   6.843   6.198   2.311
 9887SOL     OW30559   3.308   0.152   0.268
 9887SOL    HW130560   3.242   0.142   0.342
 9887SOL    HW230561   3.392   0.193   0.304
 9888SOL     OW30562   5.563   5.800   3.362
 9888SOL    HW130563   5.499   5.877   3.356
 9888SOL    HW230564   5.628   5.816   3.437
 9889SOL     OW30565   0.958   5.058   2.238
 9889SOL    HW130566   0.999   5.147   2.260
 9889SOL    HW230567   1.023   5.003   2.186
 9890SOL     OW30568   0.331   3.285   0.964
 9890SOL    HW130569   0.411   3.227   0.949
 9890SOL    HW230570   0.294   3.269   1.055
 9891SOL     OW30571   5.693   4.602   1.500
 9891SOL    HW130572   5.654   4.679   1.450
 9891SOL    HW230573   5.649   4.517   1.471
 9892SOL     OW30574   1.964   5.899   3.294
 9892SOL    HW130575   2.032   5.954   3.246
 9892SOL    HW230576   2.009   5.847   3.367
 9893SOL     OW30577   6.162   6.626   2.465
 9893SOL    HW130578   6.213   6.650   2.548
 9893SOL    HW230579   6.192   6.536   2.433
 9894SOL     OW30580   2.622   1.628   6.183
 9894SOL    HW130581   2.614   1.566   6.261
 9894SOL    HW230582   2.718   1.636   6.156
 9895SOL     OW30583   6.337   1.982   5.746
 9895SOL    HW130584   6.252   1.929   5.757
 9895SOL    HW230585   6.330   2.038   5.664
 9896SOL     OW30586   5.185   2.188   6.958
 9896SOL    HW130587   5.169   2.204   0.033
 9896SOL    HW230588   5.098   2.184   6.909
 9897SOL     OW30589   5.026   0.682   2.296
 9897SOL    HW130590   5.004   0.681   2.199
 9897SOL    HW230591   5.037   0.776   2.326
 9898SOL     OW30592   0.365   4.970   4.697
 9898SOL    HW130593   0.330   4.887   4.653
 9898SOL    HW230594   0.296   5.006   4.760
 9899SOL     OW30595   6.581   4.676   2.720
 9899SOL    HW130596   6.620   4.707   2.633
 9899SOL    HW230597   6.530   4.591   2.705
 9900SOL     OW30598   2.104   2.286   3.000
 9900SOL    HW130599   2.121   2.211   2.935
 9900SOL    HW230600   2.008   2.313   2.995
 9901SOL     OW30601   1.579   1.686   0.520
 9901SOL    HW130602   1.544   1.754   0.584
 9901SOL    HW230603   1.678   1.675   0.534
 9902SOL     OW30604   3.889   3.495   1.339
 9902SOL    HW130605   3.943   3.418   1.372
 9902SOL    HW230606   3.798   3.491   1.379
 9903SOL     OW30607   4.635   6.713   2.317
 9903SOL    HW130608   4.718   6.741   2.269
 9903SOL    HW230609   4.658   6.639   2.380
 9904SOL     OW30610   6.781   3.806   6.913
 9904SOL    HW130611   6.810   3.771   7.003
 9904SOL    HW230612   6.730   3.891   6.926
 9905SOL     OW30613   1.668   6.382   0.194
 9905SOL    HW130614   1.607   6.366   0.116
 9905SOL    HW230615   1.716   6.297   0.216
 9906SOL     OW30616   1.830   3.625   6.832
 9906SOL    HW130617   1.780   3.711   6.827
 9906SOL    HW230618   1.851   3.605   6.928
 9907SOL     OW30619   1.999   0.022   3.600
 9907SOL    HW130620   2.097   0.027   3.619
 9907SOL    HW230621   1.972   0.103   3.547
 9908SOL     OW30622   0.687   4.075   5.253
 9908SOL    HW130623   0.697   3.986   5.210
 9908SOL    HW230624   0.666   4.144   5.183
 9909SOL     OW30625   3.881   0.445   3.446
 9909SOL    HW130626   3.962   0.415   3.495
 9909SOL    HW230627   3.799   0.418   3.496
 9910SOL     OW30628   0.891   5.192   1.563
 9910SOL    HW130629   0.838   5.118   1.522
 9910SOL    HW230630   0.977   5.156   1.598
 9911SOL     OW30631   4.601   5.525   2.522
 9911SOL    HW130632   4.508   5.490   2.522
 9911SOL    HW230633   4.602   5.619   2.554
 9912SOL     OW30634   4.231   0.939   1.495
 9912SOL    HW130635   4.210   0.895   1.408
 9912SOL    HW230636   4.190   0.886   1.570
 9913SOL     OW30637   6.734   3.162   2.413
 9913SOL    HW130638   6.721   3.221   2.492
 9913SOL    HW230639   6.661   3.094   2.409
 9914SOL     OW30640   0.622   0.348   5.672
 9914SOL    HW130641   0.713   0.364   5.711
 9914SOL    HW230642   0.562   0.424   5.695
 9915SOL     OW30643   4.904   2.978   4.179
 9915SOL    HW130644   4.890   2.888   4.219
 9915SOL    HW230645   4.876   2.976   4.082
 9916SOL     OW30646   2.310   2.418   3.501
 9916SOL    HW130647   2.262   2.347   3.553
 9916SOL    HW230648   2.316   2.391   3.405
 9917SOL     OW30649   3.142   3.384   4.297
 9917SOL    HW130650   3.134   3.421   4.204
 9917SOL    HW230651   3.237   3.395   4.328
 9918SOL     OW30652   0.583   2.325   0.856
 9918SOL    HW130653   0.612   2.246   0.910
 9918SOL    HW230654   0.485   2.317   0.835
 9919SOL     OW30655   2.468   5.698   1.260
 9919SOL    HW130656   2.503   5.641   1.185
 9919SOL    HW230657   2.410   5.770   1.222
 9920SOL     OW30658   3.471   0.783   3.114
 9920SOL    HW130659   3.491   0.819   3.206
 9920SOL    HW230660   3.375   0.756   3.109
 9921SOL     OW30661   5.346   6.206   4.438
 9921SOL    HW130662   5.307   6.117   4.463
 9921SOL    HW230663   5.445   6.198   4.433
 9922SOL     OW30664   4.777   4.242   0.708
 9922SOL    HW130665   4.786   4.266   0.612
 9922SOL    HW230666   4.778   4.143   0.718
 9923SOL     OW30667   6.874   3.378   0.356
 9923SOL    HW130668   6.908   3.468   0.384
 9923SOL    HW230669   6.779   3.386   0.327
 9924SOL     OW30670   5.604   2.461   3.143
 9924SOL    HW130671   5.605   2.519   3.061
 9924SOL    HW230672   5.519   2.477   3.194
 9925SOL     OW30673   2.019   4.526   4.803
 9925SOL    HW130674   2.032   4.447   4.863
 9925SOL    HW230675   2.103   4.580   4.799
 9926SOL     OW30676   3.134   2.218   1.322
 9926SOL    HW130677   3.058   2.155   1.304
 9926SOL    HW230678   3.215   2.189   1.270
 9927SOL     OW30679   0.808   2.178   1.247
 9927SOL    HW130680   0.765   2.095   1.283
 9927SOL    HW230681   0.900   2.186   1.285
 9928SOL     OW30682   5.884   3.893   2.521
 9928SOL    HW130683   5.914   3.812   2.570
 9928SOL    HW230684   5.849   3.960   2.586
 9929SOL     OW30685   3.240   4.449   5.672
 9929SOL    HW130686   3.269   4.507   5.595
 9929SOL    HW230687   3.142   4.434   5.668
 9930SOL     OW30688   0.613   0.280   5.969
 9930SOL    HW130689   0.518   0.310   5.962
 9930SOL    HW230690   0.620   0.185   5.940
 9931SOL     OW30691   0.034   5.538   5.163
 9931SOL    HW130692   7.016   5.447   5.175
 9931SOL    HW230693   0.049   5.580   5.252
 9932SOL     OW30694   1.343   1.965   6.930
 9932SOL    HW130695   1.271   1.944   6.864
 9932SOL    HW230696   1.414   2.019   6.885
 9933SOL     OW30697   1.535   0.735   3.902
 9933SOL    HW130698   1.454   0.713   3.955
 9933SOL    HW230699   1.615   0.694   3.945
 9934SOL     OW30700   6.235   2.134   6.916
 9934SOL    HW130701   6.306   2.137   6.845
 9934SOL    HW230702   6.262   2.193   6.992
 9935SOL     OW30703   2.203   1.182   0.450
 9935SOL    HW130704   2.291   1.152   0.487
 9935SOL    HW230705   2.146   1.218   0.524
 9936SOL     OW30706   6.466   5.115   6.602
 9936SOL    HW130707   6.403   5.038   6.586
 9936SOL    HW230708   6.560   5.083   6.594
 9937SOL     OW30709   1.688   0.851   2.797
 9937SOL    HW130710   1.595   0.885   2.807
 9937SOL    HW230711   1.694   0.758   2.832
 9938SOL     OW30712   5.626   0.300   3.874
 9938SOL    HW130713   5.543   0.283   3.928
 9938SOL    HW230714   5.642   0.399   3.868
 9939SOL     OW30715   2.366   3.042   1.073
 9939SOL    HW130716   2.366   3.131   1.117
 9939SOL    HW230717   2.363   3.053   0.973
 9940SOL     OW30718   0.926   1.039   3.549
 9940SOL    HW130719   0.966   1.095   3.476
 9940SOL    HW230720   0.920   0.944   3.518
 9941SOL     OW30721   2.757   5.361   5.550
 9941SOL    HW130722   2.714   5.338   5.637
 9941SOL    HW230723   2.851   5.328   5.550
 9942SOL     OW30724   4.636   5.337   1.971
 9942SOL    HW130725   4.687   5.390   2.038
 9942SOL    HW230726   4.539   5.360   1.978
 9943SOL     OW30727   0.899   4.236   6.504
 9943SOL    HW130728   0.937   4.247   6.596
 9943SOL    HW230729   0.957   4.282   6.437
 9944SOL     OW30730   6.765   5.660   6.342
 9944SOL    HW130731   6.677   5.658   6.294
 9944SOL    HW230732   6.765   5.736   6.407
 9945SOL     OW30733   5.595   3.842   6.855
 9945SOL    HW130734   5.594   3.929   6.806
 9945SOL    HW230735   5.568   3.769   6.792
 9946SOL     OW30736   6.518   0.111   3.231
 9946SOL    HW130737   6.565   0.078   3.313
 9946SOL    HW230738   6.583   0.118   3.155
 9947SOL     OW30739   2.000   1.665   3.934
 9947SOL    HW130740   1.944   1.664   4.017
 9947SOL    HW230741   1.955   1.719   3.864
 9948SOL     OW30742   6.640   5.472   5.329
 9948SOL    HW130743   6.675   5.400   5.269
 9948SOL    HW230744   6.700   5.552   5.324
 9949SOL     OW30745   6.852   5.230   4.191
 9949SOL    HW130746   6.837   5.263   4.285
 9949SOL    HW230747   6.813   5.138   4.182
 9950SOL     OW30748   6.774   5.230   5.633
 9950SOL    HW130749   6.816   5.181   5.557
 9950SOL    HW230750   6.699   5.287   5.599
 9951SOL     OW30751   1.563   1.992   2.484
 9951SOL    HW130752   1.524   2.037   2.403
 9951SOL    HW230753   1.512   1.907   2.502
 9952SOL     OW30754   1.697   4.217   1.264
 9952SOL    HW130755   1.617   4.277   1.254
 9952SOL    HW230756   1.669   4.132   1.308
 9953SOL     OW30757   5.439   2.455   3.694
 9953SOL    HW130758   5.408   2.549   3.675
 9953SOL    HW230759   5.450   2.443   3.792
 9954SOL     OW30760   1.415   0.620   4.743
 9954SOL    HW130761   1.509   0.593   4.762
 9954SOL    HW230762   1.367   0.635   4.830
 9955SOL     OW30763   4.058   3.886   6.601
 9955SOL    HW130764   4.032   3.802   6.553
 9955SOL    HW230765   3.977   3.929   6.640
 9956SOL     OW30766   0.811   3.647   2.402
 9956SOL    HW130767   0.763   3.560   2.412
 9956SOL    HW230768   0.871   3.662   2.481
 9957SOL     OW30769   5.252   6.985   1.983
 9957SOL    HW130770   5.207   6.909   1.936
 9957SOL    HW230771   5.334   7.011   1.933
 9958SOL     OW30772   2.993   5.845   5.627
 9958SOL    HW130773   3.000   5.842   5.726
 9958SOL    HW230774   2.967   5.937   5.597
 9959SOL     OW30775   4.149   3.395   2.571
 9959SOL    HW130776   4.189   3.476   2.613
 9959SOL    HW230777   4.088   3.351   2.637
 9960SOL     OW30778   0.568   6.295   1.008
 9960SOL    HW130779   0.587   6.383   0.965
 9960SOL    HW230780   0.565   6.223   0.938
 9961SOL     OW30781   2.410   4.365   2.584
 9961SOL    HW130782   2.470   4.347   2.506
 9961SOL    HW230783   2.361   4.281   2.608
 9962SOL     OW30784   3.905   0.756   2.156
 9962SOL    HW130785   3.849   0.721   2.081
 9962SOL    HW230786   3.922   0.854   2.143
 9963SOL     OW30787   2.594   3.542   6.650
 9963SOL    HW130788   2.620   3.568   6.743
 9963SOL    HW230789   2.558   3.621   6.601
 9964SOL     OW30790   3.733   4.964   5.884
 9964SOL    HW130791   3.749   4.880   5.935
 9964SOL    HW230792   3.754   5.043   5.941
 9965SOL     OW30793   3.232   5.586   4.719
 9965SOL    HW130794   3.302   5.653   4.745
 9965SOL    HW230795   3.260   5.495   4.752
 9966SOL     OW30796   2.551   5.579   1.739
 9966SOL    HW130797   2.578   5.490   1.775
 9966SOL    HW230798   2.607   5.651   1.782
 9967SOL     OW30799   6.304   4.803   2.744
 9967SOL    HW130800   6.376   4.767   2.804
 9967SOL    HW230801   6.300   4.903   2.754
 9968SOL     OW30802   4.106   5.692   6.475
 9968SOL    HW130803   4.202   5.699   6.446
 9968SOL    HW230804   4.059   5.626   6.417
 9969SOL     OW30805   1.641   2.835   4.475
 9969SOL    HW130806   1.569   2.861   4.411
 9969SOL    HW230807   1.697   2.915   4.497
 9970SOL     OW30808   6.600   5.149   1.721
 9970SOL    HW130809   6.695   5.126   1.705
 9970SOL    HW230810   6.541   5.095   1.660
 9971SOL     OW30811   2.589   3.839   1.114
 9971SOL    HW130812   2.608   3.743   1.094
 9971SOL    HW230813   2.629   3.897   1.043
 9972SOL     OW30814   2.900   4.558   0.680
 9972SOL    HW130815   2.861   4.633   0.734
 9972SOL    HW230816   2.842   4.477   0.688
 9973SOL     OW30817   4.099   2.189   4.278
 9973SOL    HW130818   4.153   2.191   4.362
 9973SOL    HW230819   4.004   2.169   4.299
 9974SOL     OW30820   0.125   3.258   2.987
 9974SOL    HW130821   0.135   3.258   2.887
 9974SOL    HW230822   0.069   3.179   3.014
 9975SOL     OW30823   0.134   5.025   6.573
 9975SOL    HW130824   0.064   4.994   6.637
 9975SOL    HW230825   0.142   4.958   6.499
 9976SOL     OW30826   0.507   5.102   5.444
 9976SOL    HW130827   0.440   5.149   5.388
 9976SOL    HW230828   0.560   5.039   5.387
 9977SOL     OW30829   5.882   5.270   6.019
 9977SOL    HW130830   5.871   5.356   5.971
 9977SOL    HW230831   5.939   5.208   5.964
 9978SOL     OW30832   6.374   1.356   5.451
 9978SOL    HW130833   6.349   1.414   5.529
 9978SOL    HW230834   6.433   1.407   5.389
 9979SOL     OW30835   6.947   4.053   6.458
 9979SOL    HW130836   7.006   3.977   6.433
 9979SOL    HW230837   6.959   4.074   6.556
 9980SOL     OW30838   1.536   0.444   0.611
 9980SOL    HW130839   1.549   0.365   0.670
 9980SOL    HW230840   1.540   0.528   0.666
 9981SOL     OW30841   3.041   2.274   0.723
 9981SOL    HW130842   3.071   2.364   0.754
 9981SOL    HW230843   3.025   2.215   0.802
 9982SOL     OW30844   1.105   1.264   3.870
 9982SOL    HW130845   1.145   1.347   3.830
 9982SOL    HW230846   1.005   1.274   3.875
 9983SOL     OW30847   0.576   1.060   2.253
 9983SOL    HW130848   0.552   1.132   2.319
 9983SOL    HW230849   0.603   1.102   2.166
 9984SOL     OW30850   0.672   6.796   0.170
 9984SOL    HW130851   0.732   6.766   0.096
 9984SOL    HW230852   0.616   6.720   0.201
 9985SOL     OW30853   3.364   6.442   1.250
 9985SOL    HW130854   3.320   6.357   1.280
 9985SOL    HW230855   3.299   6.496   1.197
 9986SOL     OW30856   5.897   4.813   0.670
 9986SOL    HW130857   5.918   4.716   0.662
 9986SOL    HW230858   5.944   4.864   0.598
 9987SOL     OW30859   6.488   2.139   2.863
 9987SOL    HW130860   6.527   2.218   2.912
 9987SOL    HW230861   6.417   2.171   2.801
 9988SOL     OW30862   6.810   5.324   4.458
 9988SOL    HW130863   6.716   5.329   4.492
 9988SOL    HW230864   6.861   5.405   4.488
 9989SOL     OW30865   6.248   3.887   2.655
 9989SOL    HW130866   6.149   3.876   2.667
 9989SOL    HW230867   6.287   3.927   2.738
 9990SOL     OW30868   2.252   6.598   3.545
 9990SOL    HW130869   2.213   6.616   3.454
 9990SOL    HW230870   2.180   6.610   3.614
 9991SOL     OW30871   2.121   3.091   4.285
 9991SOL    HW130872   2.189   3.037   4.236
 9991SOL    HW230873   2.158   3.119   4.373
 9992SOL     OW30874   4.246   3.438   0.603
 9992SOL    HW130875   4.329   3.479   0.565
 9992SOL    HW230876   4.253   3.435   0.703
 9993SOL     OW30877   4.135   6.743   3.388
 9993SOL    HW130878   4.183   6.794   3.316
 9993SOL    HW230879   4.194   6.732   3.467
 9994SOL     OW30880   6.988   4.118   2.417
 9994SOL    HW130881   6.931   4.036   2.414
 9994SOL    HW230882   6.962   4.179   2.342
 9995SOL     OW30883   3.360   0.249   3.604
 9995SOL    HW130884   3.279   0.307   3.602
 9995SOL    HW230885   3.342   0.168   3.660
 9996SOL     OW30886   2.792   3.284   1.856
 9996SOL    HW130887   2.695   3.302   1.838
 9996SOL    HW230888   2.842   3.370   1.864
 9997SOL     OW30889   4.955   1.022   1.830
 9997SOL    HW130890   4.925   1.079   1.754
 9997SOL    HW230891   5.024   0.957   1.797
 9998SOL     OW30892   5.513   3.664   2.434
 9998SOL    HW130893   5.415   3.680   2.446
 9998SOL    HW230894   5.551   3.733   2.373
 9999SOL     OW30895   0.244   5.861   4.980
 9999SOL    HW130896   0.273   5.922   5.054
 9999SOL    HW230897   0.249   5.909   4.893
10000SOL     OW30898   5.703   1.985   6.822
10000SOL    HW130899   5.745   1.915   6.880
10000SOL    HW230900   5.651   2.048   6.878
10001SOL     OW30901   4.170   0.786   1.297
10001SOL    HW130902   4.073   0.793   1.278
10001SOL    HW230903   4.193   0.691   1.319
10002SOL     OW30904   1.608   0.979   2.022
10002SOL    HW130905   1.614   1.079   2.028
10002SOL    HW230906   1.627   0.950   1.928
10003SOL     OW30907   3.012   2.153   2.256
10003SOL    HW130908   3.111   2.152   2.243
10003SOL    HW230909   2.970   2.208   2.184
10004SOL     OW30910   5.612   3.101   5.047
10004SOL    HW130911   5.656   3.078   4.960
10004SOL    HW230912   5.524   3.054   5.053
10005SOL     OW30913   2.996   5.684   2.325
10005SOL    HW130914   2.924   5.695   2.256
10005SOL    HW230915   3.086   5.690   2.282
10006SOL     OW30916   6.003   0.144   5.664
10006SOL    HW130917   6.018   0.176   5.758
10006SOL    HW230918   6.075   0.079   5.640
10007SOL     OW30919   0.753   3.154   4.114
10007SOL    HW130920   0.822   3.168   4.043
10007SOL    HW230921   0.676   3.104   4.076
10008SOL     OW30922   4.493   1.151   3.474
10008SOL    HW130923   4.412   1.144   3.532
10008SOL    HW230924   4.522   1.060   3.445
10009SOL     OW30925   1.664   4.568   1.564
10009SOL    HW130926   1.629   4.477   1.585
10009SOL    HW230927   1.711   4.605   1.645
10010SOL     OW30928   2.458   6.064   0.224
10010SOL    HW130929   2.457   6.049   0.125
10010SOL    HW230930   2.369   6.037   0.262
10011SOL     OW30931   0.725   3.741   6.707
10011SOL    HW130932   0.809   3.701   6.670
10011SOL    HW230933   0.659   3.668   6.726
10012SOL     OW30934   5.259   6.988   2.255
10012SOL    HW130935   5.277   6.985   2.157
10012SOL    HW230936   5.179   0.023   2.272
10013SOL     OW30937   1.575   1.731   3.959
10013SOL    HW130938   1.651   1.724   4.024
10013SOL    HW230939   1.583   1.817   3.908
10014SOL     OW30940   0.880   1.557   1.197
10014SOL    HW130941   0.789   1.569   1.235
10014SOL    HW230942   0.877   1.488   1.124
10015SOL     OW30943   4.330   5.428   6.981
10015SOL    HW130944   4.273   5.484   6.921
10015SOL    HW230945   4.303   5.332   6.972
10016SOL     OW30946   1.526   0.730   4.280
10016SOL    HW130947   1.462   0.696   4.211
10016SOL    HW230948   1.580   0.804   4.242
10017SOL     OW30949   1.633   1.783   2.865
10017SOL    HW130950   1.626   1.744   2.773
10017SOL    HW230951   1.544   1.821   2.892
10018SOL     OW30952   6.720   4.323   6.117
10018SOL    HW130953   6.795   4.281   6.168
10018SOL    HW230954   6.667   4.253   6.070
10019SOL     OW30955   0.802   2.112   3.248
10019SOL    HW130956   0.811   2.133   3.150
10019SOL    HW230957   0.705   2.101   3.271
10020SOL     OW30958   0.329   0.865   1.359
10020SOL    HW130959   0.307   0.925   1.282
10020SOL    HW230960   0.371   0.919   1.433
10021SOL     OW30961   1.168   1.976   2.541
10021SOL    HW130962   1.119   1.893   2.566
10021SOL    HW230963   1.143   2.003   2.448
10022SOL     OW30964   3.706   6.788   0.770
10022SOL    HW130965   3.648   6.794   0.851
10022SOL    HW230966   3.800   6.770   0.797
10023SOL     OW30967   2.084   4.759   5.151
10023SOL    HW130968   2.105   4.662   5.139
10023SOL    HW230969   2.033   4.793   5.072
10024SOL     OW30970   1.886   6.191   1.544
10024SOL    HW130971   1.900   6.220   1.639
10024SOL    HW230972   1.969   6.209   1.491
10025SOL     OW30973   2.156   2.708   1.947
10025SOL    HW130974   2.059   2.733   1.946
10025SOL    HW230975   2.165   2.610   1.960
10026SOL     OW30976   4.754   6.995   3.363
10026SOL    HW130977   4.784   6.958   3.275
10026SOL    HW230978   4.820   6.970   3.433
10027SOL     OW30979   0.685   3.173   4.992
10027SOL    HW130980   0.754   3.223   5.045
10027SOL    HW230981   0.619   3.131   5.054
10028SOL     OW30982   1.614   1.869   2.191
10028SOL    HW130983   1.635   1.839   2.098
10028SOL    HW230984   1.613   1.790   2.252
10029SOL     OW30985   1.806   1.686   4.122
10029SOL    HW130986   1.846   1.763   4.172
10029SOL    HW230987   1.779   1.614   4.186
10030SOL     OW30988   3.121   0.309   4.972
10030SOL    HW130989   3.074   0.393   5.000
10030SOL    HW230990   3.151   0.317   4.877
10031SOL     OW30991   5.872   4.449   4.186
10031SOL    HW130992   5.862   4.412   4.279
10031SOL    HW230993   5.957   4.415   4.146
10032SOL     OW30994   3.958   0.668   5.197
10032SOL    HW130995   3.944   0.625   5.286
10032SOL    HW230996   4.017   0.748   5.207
10033SOL     OW30997   4.517   2.576   4.173
10033SOL    HW130998   4.440   2.513   4.177
10033SOL    HW230999   4.579   2.559   4.250
10034SOL     OW31000   3.586   0.442   4.189
10034SOL    HW131001   3.534   0.378   4.133
10034SOL    HW231002   3.674   0.401   4.213
10035SOL     OW31003   6.685   4.986   1.937
10035SOL    HW131004   6.675   5.075   1.892
10035SOL    HW231005   6.700   4.915   1.868
10036SOL     OW31006   6.362   0.680   0.927
10036SOL    HW131007   6.351   0.634   1.015
10036SOL    HW231008   6.421   0.625   0.868
10037SOL     OW31009   5.957   1.431   0.303
10037SOL    HW131010   5.945   1.392   0.212
10037SOL    HW231011   6.052   1.420   0.332
10038SOL     OW31012   4.542   0.938   6.331
10038SOL    HW131013   4.638   0.946   6.358
10038SOL    HW231014   4.503   0.854   6.370
10039SOL     OW31015   3.839   6.438   5.402
10039SOL    HW131016   3.752   6.394   5.423
10039SOL    HW231017   3.831   6.489   5.316
10040SOL     OW31018   4.410   5.924   6.218
10040SOL    HW131019   4.438   5.993   6.152
10040SOL    HW231020   4.449   5.835   6.192
10041SOL     OW31021   4.181   5.607   6.813
10041SOL    HW131022   4.172   5.706   6.820
10041SOL    HW231023   4.151   5.576   6.723
10042SOL     OW31024   1.577   2.207   5.321
10042SOL    HW131025   1.545   2.116   5.294
10042SOL    HW231026   1.677   2.208   5.325
10043SOL     OW31027   0.611   2.596   4.542
10043SOL    HW131028   0.519   2.599   4.582
10043SOL    HW231029   0.677   2.633   4.607
10044SOL     OW31030   2.996   1.640   4.697
10044SOL    HW131031   3.013   1.567   4.762
10044SOL    HW231032   2.906   1.680   4.714
10045SOL     OW31033   5.077   6.764   3.870
10045SOL    HW131034   4.987   6.758   3.828
10045SOL    HW231035   5.077   6.836   3.940
10046SOL     OW31036   1.863   3.524   1.186
10046SOL    HW131037   1.950   3.571   1.205
10046SOL    HW231038   1.787   3.582   1.214
10047SOL     OW31039   6.248   3.156   4.799
10047SOL    HW131040   6.323   3.222   4.795
10047SOL    HW231041   6.260   3.096   4.878
10048SOL     OW31042   6.030   1.514   2.411
10048SOL    HW131043   6.027   1.414   2.421
10048SOL    HW231044   6.031   1.556   2.502
10049SOL     OW31045   0.372   0.330   6.931
10049SOL    HW131046   0.419   0.381   7.004
10049SOL    HW231047   0.387   0.232   6.943
10050SOL     OW31048   5.811   2.460   4.463
10050SOL    HW131049   5.855   2.538   4.507
10050SOL    HW231050   5.869   2.426   4.388
10051SOL     OW31051   5.912   2.252   5.293
10051SOL    HW131052   5.885   2.206   5.209
10051SOL    HW231053   6.003   2.220   5.321
10052SOL     OW31054   2.658   2.196   2.696
10052SOL    HW131055   2.645   2.288   2.659
10052SOL    HW231056   2.587   2.177   2.764
10053SOL     OW31057   3.330   6.007   2.126
10053SOL    HW131058   3.236   6.004   2.161
10053SOL    HW231059   3.388   6.060   2.189
10054SOL     OW31060   5.038   5.100   6.271
10054SOL    HW131061   4.963   5.165   6.260
10054SOL    HW231062   5.102   5.134   6.340
10055SOL     OW31063   6.292   1.885   4.976
10055SOL    HW131064   6.339   1.965   4.938
10055SOL    HW231065   6.196   1.908   4.992
10056SOL     OW31066   5.862   4.131   2.736
10056SOL    HW131067   5.787   4.150   2.673
10056SOL    HW231068   5.865   4.201   2.807
10057SOL     OW31069   3.866   1.597   4.629
10057SOL    HW131070   3.837   1.657   4.703
10057SOL    HW231071   3.883   1.652   4.547
10058SOL     OW31072   0.484   3.980   4.661
10058SOL    HW131073   0.424   3.900   4.669
10058SOL    HW231074   0.579   3.949   4.653
10059SOL     OW31075   5.265   0.643   1.224
10059SOL    HW131076   5.212   0.687   1.296
10059SOL    HW231077   5.284   0.709   1.151
10060SOL     OW31078   1.581   1.550   1.284
10060SOL    HW131079   1.670   1.594   1.293
10060SOL    HW231080   1.588   1.454   1.310
10061SOL     OW31081   4.693   1.619   4.339
10061SOL    HW131082   4.791   1.634   4.329
10061SOL    HW231083   4.644   1.678   4.274
10062SOL     OW31084   6.471   0.462   4.104
10062SOL    HW131085   6.513   0.526   4.167
10062SOL    HW231086   6.531   0.383   4.092
10063SOL     OW31087   2.262   0.676   3.781
10063SOL    HW131088   2.211   0.742   3.725
10063SOL    HW231089   2.287   0.597   3.724
10064SOL     OW31090   5.022   6.597   0.079
10064SOL    HW131091   5.031   6.633   0.172
10064SOL    HW231092   5.089   6.525   0.064
10065SOL     OW31093   2.107   0.434   2.046
10065SOL    HW131094   2.201   0.464   2.060
10065SOL    HW231095   2.102   0.379   1.963
10066SOL     OW31096   0.769   2.498   3.894
10066SOL    HW131097   0.677   2.497   3.854
10066SOL    HW231098   0.806   2.405   3.894
10067SOL     OW31099   6.556   3.935   5.233
10067SOL    HW131100   6.528   3.851   5.188
10067SOL    HW231101   6.504   4.012   5.195
10068SOL     OW31102   0.297   3.502   3.497
10068SOL    HW131103   0.209   3.484   3.540
10068SOL    HW231104   0.355   3.421   3.507
10069SOL     OW31105   2.390   5.057   3.011
10069SOL    HW131106   2.419   5.051   3.107
10069SOL    HW231107   2.407   5.149   2.977
10070SOL     OW31108   6.468   6.797   5.079
10070SOL    HW131109   6.547   6.774   5.023
10070SOL    HW231110   6.384   6.769   5.032
10071SOL     OW31111   5.992   5.663   4.317
10071SOL    HW131112   6.086   5.633   4.332
10071SOL    HW231113   5.984   5.707   4.228
10072SOL     OW31114   0.024   6.566   3.868
10072SOL    HW131115   0.017   6.501   3.943
10072SOL    HW231116   6.974   6.549   3.801
10073SOL     OW31117   5.972   4.518   5.490
10073SOL    HW131118   5.926   4.435   5.461
10073SOL    HW231119   6.031   4.498   5.569
10074SOL     OW31120   1.225   0.828   5.600
10074SOL    HW131121   1.263   0.870   5.518
10074SOL    HW231122   1.255   0.878   5.681
10075SOL     OW31123   1.956   2.867   2.912
10075SOL    HW131124   1.991   2.932   2.846
10075SOL    HW231125   1.932   2.781   2.866
10076SOL     OW31126   0.121   0.271   4.170
10076SOL    HW131127   0.213   0.270   4.132
10076SOL    HW231128   0.113   0.345   4.237
10077SOL     OW31129   4.009   3.170   6.317
10077SOL    HW131130   4.044   3.142   6.227
10077SOL    HW231131   4.052   3.115   6.388
10078SOL     OW31132   0.406   5.563   3.877
10078SOL    HW131133   0.374   5.651   3.841
10078SOL    HW231134   0.328   5.513   3.915
10079SOL     OW31135   6.843   3.952   3.321
10079SOL    HW131136   6.777   3.899   3.375
10079SOL    HW231137   6.902   4.004   3.382
10080SOL     OW31138   4.548   1.298   5.770
10080SOL    HW131139   4.581   1.204   5.762
10080SOL    HW231140   4.536   1.322   5.866
10081SOL     OW31141   6.811   0.555   0.887
10081SOL    HW131142   6.771   0.647   0.880
10081SOL    HW231143   6.821   0.531   0.984
10082SOL     OW31144   0.380   5.618   1.517
10082SOL    HW131145   0.448   5.633   1.445
10082SOL    HW231146   0.408   5.540   1.573
10083SOL     OW31147   4.252   1.068   3.674
10083SOL    HW131148   4.237   0.971   3.659
10083SOL    HW231149   4.174   1.107   3.724
10084SOL     OW31150   1.974   0.904   5.365
10084SOL    HW131151   1.937   0.996   5.358
10084SOL    HW231152   1.961   0.870   5.458
10085SOL     OW31153   2.672   6.007   1.205
10085SOL    HW131154   2.687   6.037   1.299
10085SOL    HW231155   2.596   5.943   1.202
10086SOL     OW31156   4.215   5.868   2.456
10086SOL    HW131157   4.301   5.847   2.409
10086SOL    HW231158   4.234   5.917   2.541
10087SOL     OW31159   6.869   0.024   3.625
10087SOL    HW131160   6.802   6.972   3.616
10087SOL    HW231161   6.827   0.111   3.598
10088SOL     OW31162   6.661   0.263   1.392
10088SOL    HW131163   6.745   0.308   1.362
10088SOL    HW231164   6.602   0.245   1.313
10089SOL     OW31165   2.815   1.994   2.416
10089SOL    HW131166   2.738   2.058   2.410
10089SOL    HW231167   2.884   2.019   2.348
10090SOL     OW31168   1.338   4.872   1.660
10090SOL    HW131169   1.325   4.836   1.752
10090SOL    HW231170   1.252   4.866   1.609
10091SOL     OW31171   0.463   4.307   6.361
10091SOL    HW131172   0.491   4.236   6.425
10091SOL    HW231173   0.369   4.335   6.380
10092SOL     OW31174   2.471   2.292   5.617
10092SOL    HW131175   2.511   2.200   5.623
10092SOL    HW231176   2.409   2.306   5.694
10093SOL     OW31177   6.827   2.894   4.672
10093SOL    HW131178   6.915   2.920   4.635
10093SOL    HW231179   6.792   2.966   4.731
10094SOL     OW31180   2.873   6.125   1.703
10094SOL    HW131181   2.847   6.186   1.778
10094SOL    HW231182   2.932   6.052   1.738
10095SOL     OW31183   5.836   1.897   5.226
10095SOL    HW131184   5.854   1.953   5.145
10095SOL    HW231185   5.921   1.881   5.276
10096SOL     OW31186   4.489   5.341   3.003
10096SOL    HW131187   4.449   5.262   2.955
10096SOL    HW231188   4.574   5.367   2.958
10097SOL     OW31189   0.741   1.105   0.338
10097SOL    HW131190   0.819   1.122   0.397
10097SOL    HW231191   0.656   1.125   0.388
10098SOL     OW31192   2.829   0.226   5.272
10098SOL    HW131193   2.731   0.225   5.254
10098SOL    HW231194   2.857   0.317   5.301
10099SOL     OW31195   0.322   5.092   1.179
10099SOL    HW131196   0.285   4.999   1.176
10099SOL    HW231197   0.418   5.090   1.150
10100SOL     OW31198   4.542   0.087   4.942
10100SOL    HW131199   4.501   0.012   4.891
10100SOL    HW231200   4.584   0.152   4.879
10101SOL     OW31201   6.360   3.797   2.022
10101SOL    HW131202   6.459   3.787   2.032
10101SOL    HW231203   6.318   3.810   2.112
10102SOL     OW31204   0.461   1.270   2.685
10102SOL    HW131205   0.413   1.353   2.713
10102SOL    HW231206   0.411   1.190   2.719
10103SOL     OW31207   2.424   0.560   5.764
10103SOL    HW131208   2.381   0.476   5.732
10103SOL    HW231209   2.498   0.585   5.701
10104SOL     OW31210   1.933   1.892   4.267
10104SOL    HW131211   1.929   1.906   4.366
10104SOL    HW231212   2.027   1.905   4.235
10105SOL     OW31213   1.447   0.768   0.227
10105SOL    HW131214   1.367   0.791   0.172
10105SOL    HW231215   1.510   0.846   0.230
10106SOL     OW31216   3.729   6.265   0.357
10106SOL    HW131217   3.671   6.229   0.430
10106SOL    HW231218   3.677   6.269   0.272
10107SOL     OW31219   5.954   1.408   5.721
10107SOL    HW131220   6.021   1.434   5.791
10107SOL    HW231221   5.910   1.323   5.748
10108SOL     OW31222   6.383   0.413   6.960
10108SOL    HW131223   6.467   0.372   6.997
10108SOL    HW231224   6.399   0.510   6.939
10109SOL     OW31225   5.576   0.418   0.440
10109SOL    HW131226   5.493   0.452   0.396
10109SOL    HW231227   5.650   0.483   0.426
10110SOL     OW31228   3.834   5.000   4.781
10110SOL    HW131229   3.763   5.063   4.814
10110SOL    HW231230   3.823   4.986   4.683
10111SOL     OW31231   5.866   3.377   3.275
10111SOL    HW131232   5.919   3.453   3.237
10111SOL    HW231233   5.903   3.291   3.241
10112SOL     OW31234   5.626   3.590   3.608
10112SOL    HW131235   5.718   3.602   3.645
10112SOL    HW231236   5.590   3.501   3.635
10113SOL     OW31237   4.047   7.007   0.136
10113SOL    HW131238   4.004   6.993   0.225
10113SOL    HW231239   4.120   6.941   0.122
10114SOL     OW31240   4.724   1.731   1.333
10114SOL    HW131241   4.631   1.734   1.296
10114SOL    HW231242   4.772   1.816   1.310
10115SOL     OW31243   3.584   0.813   5.246
10115SOL    HW131244   3.641   0.744   5.202
10115SOL    HW231245   3.529   0.860   5.177
10116SOL     OW31246   0.565   6.562   0.316
10116SOL    HW131247   0.649   6.596   0.360
10116SOL    HW231248   0.579   6.468   0.287
10117SOL     OW31249   6.586   5.998   6.234
10117SOL    HW131250   6.489   5.982   6.252
10117SOL    HW231251   6.596   6.069   6.164
10118SOL     OW31252   2.577   4.594   2.736
10118SOL    HW131253   2.598   4.572   2.831
10118SOL    HW231254   2.519   4.523   2.696
10119SOL     OW31255   6.968   5.756   4.705
10119SOL    HW131256   0.037   5.798   4.705
10119SOL    HW231257   6.974   5.663   4.740
10120SOL     OW31258   2.118   3.574   4.674
10120SOL    HW131259   2.144   3.490   4.721
10120SOL    HW231260   2.120   3.558   4.575
10121SOL     OW31261   6.089   3.245   6.951
10121SOL    HW131262   6.125   3.228   6.859
10121SOL    HW231263   6.160   3.284   7.008
10122SOL     OW31264   6.186   2.998   2.444
10122SOL    HW131265   6.184   2.990   2.344
10122SOL    HW231266   6.093   2.998   2.480
10123SOL     OW31267   5.360   5.808   0.081
10123SOL    HW131268   5.267   5.773   0.073
10123SOL    HW231269   5.420   5.735   0.115
10124SOL     OW31270   1.297   4.133   0.406
10124SOL    HW131271   1.269   4.048   0.362
10124SOL    HW231272   1.305   4.205   0.337
10125SOL     OW31273   1.914   0.933   2.096
10125SOL    HW131274   1.947   0.844   2.064
10125SOL    HW231275   1.816   0.939   2.081
10126SOL     OW31276   0.007   0.028   6.815
10126SOL    HW131277   0.015   0.050   6.912
10126SOL    HW231278   6.996   0.108   6.765
10127SOL     OW31279   2.964   4.606   6.205
10127SOL    HW131280   2.922   4.569   6.122
10127SOL    HW231281   3.027   4.679   6.181
10128SOL     OW31282   2.596   1.112   0.269
10128SOL    HW131283   2.566   1.079   0.179
10128SOL    HW231284   2.696   1.112   0.272
10129SOL     OW31285   6.130   1.770   2.326
10129SOL    HW131286   6.084   1.847   2.372
10129SOL    HW231287   6.105   1.685   2.372
10130SOL     OW31288   1.338   2.952   1.344
10130SOL    HW131289   1.348   2.968   1.245
10130SOL    HW231290   1.428   2.949   1.386
10131SOL     OW31291   1.095   6.860   5.100
10131SOL    HW131292   1.133   6.775   5.138
10131SOL    HW231293   1.047   6.839   5.014
10132SOL     OW31294   3.568   0.660   4.008
10132SOL    HW131295   3.512   0.733   4.048
10132SOL    HW231296   3.579   0.586   4.074
10133SOL     OW31297   3.659   6.477   0.549
10133SOL    HW131298   3.594   6.533   0.600
10133SOL    HW231299   3.622   6.385   0.537
10134SOL     OW31300   6.595   6.705   2.464
10134SOL    HW131301   6.656   6.734   2.537
10134SOL    HW231302   6.647   6.693   2.379
10135SOL     OW31303   4.919   3.391   3.191
10135SOL    HW131304   4.882   3.372   3.282
10135SOL    HW231305   4.947   3.305   3.148
10136SOL     OW31306   5.331   1.315   2.307
10136SOL    HW131307   5.400   1.274   2.247
10136SOL    HW231308   5.276   1.242   2.348
10137SOL     OW31309   6.979   3.230   4.481
10137SOL    HW131310   6.953   3.224   4.385
10137SOL    HW231311   0.037   3.289   4.491
10138SOL     OW31312   5.839   3.599   0.307
10138SOL    HW131313   5.922   3.581   0.253
10138SOL    HW231314   5.765   3.539   0.276
10139SOL     OW31315   2.879   3.461   3.527
10139SOL    HW131316   2.891   3.386   3.593
10139SOL    HW231317   2.870   3.547   3.576
10140SOL     OW31318   6.466   5.805   6.784
10140SOL    HW131319   6.531   5.839   6.716
10140SOL    HW231320   6.463   5.868   6.861
10141SOL     OW31321   4.098   0.819   5.652
10141SOL    HW131322   4.188   0.825   5.696
10141SOL    HW231323   4.054   0.908   5.652
10142SOL     OW31324   6.670   0.115   6.017
10142SOL    HW131325   6.657   0.149   6.110
10142SOL    HW231326   6.608   0.163   5.955
10143SOL     OW31327   5.239   1.162   0.125
10143SOL    HW131328   5.166   1.195   0.184
10143SOL    HW231329   5.327   1.173   0.171
10144SOL     OW31330   3.468   0.865   5.808
10144SOL    HW131331   3.563   0.893   5.790
10144SOL    HW231332   3.466   0.803   5.887
10145SOL     OW31333   2.693   5.224   3.850
10145SOL    HW131334   2.663   5.227   3.755
10145SOL    HW231335   2.682   5.132   3.886
10146SOL     OW31336   4.591   4.430   4.874
10146SOL    HW131337   4.498   4.421   4.909
10146SOL    HW231338   4.632   4.339   4.865
10147SOL     OW31339   4.991   3.923   5.723
10147SOL    HW131340   5.067   3.865   5.692
10147SOL    HW231341   4.905   3.873   5.712
10148SOL     OW31342   5.188   4.741   6.338
10148SOL    HW131343   5.097   4.773   6.366
10148SOL    HW231344   5.208   4.656   6.387
10149SOL     OW31345   5.913   3.639   1.616
10149SOL    HW131346   5.844   3.706   1.587
10149SOL    HW231347   5.997   3.652   1.563
10150SOL     OW31348   3.771   3.440   1.088
10150SOL    HW131349   3.806   3.466   1.179
10150SOL    HW231350   3.678   3.476   1.077
10151SOL     OW31351   0.729   5.682   6.762
10151SOL    HW131352   0.641   5.634   6.765
10151SOL    HW231353   0.768   5.685   6.854
10152SOL     OW31354   6.787   6.306   4.359
10152SOL    HW131355   6.882   6.287   4.386
10152SOL    HW231356   6.726   6.278   4.433
10153SOL     OW31357   4.208   5.690   3.278
10153SOL    HW131358   4.203   5.742   3.193
10153SOL    HW231359   4.222   5.593   3.257
10154SOL     OW31360   3.880   6.025   5.019
10154SOL    HW131361   3.974   6.005   5.045
10154SOL    HW231362   3.860   5.984   4.930
10155SOL     OW31363   3.590   2.295   6.109
10155SOL    HW131364   3.629   2.342   6.188
10155SOL    HW231365   3.491   2.311   6.106
10156SOL     OW31366   5.822   0.857   2.251
10156SOL    HW131367   5.916   0.865   2.283
10156SOL    HW231368   5.780   0.776   2.292
10157SOL     OW31369   0.459   2.169   0.363
10157SOL    HW131370   0.537   2.196   0.419
10157SOL    HW231371   0.488   2.098   0.298
10158SOL     OW31372   6.501   5.704   1.119
10158SOL    HW131373   6.537   5.697   1.211
10158SOL    HW231374   6.576   5.715   1.054
10159SOL     OW31375   2.438   3.259   0.676
10159SOL    HW131376   2.534   3.264   0.648
10159SOL    HW231377   2.381   3.246   0.595
10160SOL     OW31378   1.566   2.915   2.242
10160SOL    HW131379   1.511   2.933   2.161
10160SOL    HW231380   1.577   2.816   2.254
10161SOL     OW31381   4.480   3.550   0.992
10161SOL    HW131382   4.556   3.609   0.963
10161SOL    HW231383   4.434   3.591   1.071
10162SOL     OW31384   3.854   4.680   0.960
10162SOL    HW131385   3.924   4.745   0.929
10162SOL    HW231386   3.763   4.719   0.944
10163SOL     OW31387   6.375   3.912   6.954
10163SOL    HW131388   6.422   3.881   0.014
10163SOL    HW231389   6.435   3.901   6.875
10164SOL     OW31390   6.102   3.561   3.910
10164SOL    HW131391   6.153   3.487   3.955
10164SOL    HW231392   6.113   3.553   3.811
10165SOL     OW31393   6.700   1.230   3.640
10165SOL    HW131394   6.607   1.200   3.664
10165SOL    HW231395   6.715   1.215   3.542
10166SOL     OW31396   3.381   1.668   2.154
10166SOL    HW131397   3.396   1.659   2.056
10166SOL    HW231398   3.467   1.695   2.198
10167SOL     OW31399   1.533   4.496   6.887
10167SOL    HW131400   1.569   4.403   6.893
10167SOL    HW231401   1.512   4.530   6.979
10168SOL     OW31402   6.032   2.819   6.251
10168SOL    HW131403   6.093   2.869   6.189
10168SOL    HW231404   6.018   2.726   6.217
10169SOL     OW31405   0.167   3.901   3.595
10169SOL    HW131406   0.220   3.946   3.666
10169SOL    HW231407   0.229   3.860   3.528
10170SOL     OW31408   6.168   5.495   5.598
10170SOL    HW131409   6.180   5.546   5.683
10170SOL    HW231410   6.177   5.397   5.617
10171SOL     OW31411   0.137   2.179   5.164
10171SOL    HW131412   0.229   2.141   5.177
10171SOL    HW231413   0.139   2.277   5.184
10172SOL     OW31414   0.897   5.926   5.525
10172SOL    HW131415   0.911   5.845   5.583
10172SOL    HW231416   0.913   6.008   5.580
10173SOL     OW31417   1.941   2.655   0.690
10173SOL    HW131418   1.877   2.678   0.617
10173SOL    HW231419   1.973   2.561   0.678
10174SOL     OW31420   5.054   5.098   3.324
10174SOL    HW131421   4.962   5.092   3.364
10174SOL    HW231422   5.048   5.091   3.225
10175SOL     OW31423   5.630   2.189   3.026
10175SOL    HW131424   5.677   2.183   2.938
10175SOL    HW231425   5.629   2.284   3.057
10176SOL     OW31426   0.436   3.131   5.146
10176SOL    HW131427   0.503   3.094   5.210
10176SOL    HW231428   0.433   3.231   5.156
10177SOL     OW31429   2.029   0.991   1.802
10177SOL    HW131430   2.036   1.004   1.901
10177SOL    HW231431   2.070   0.904   1.776
10178SOL     OW31432   0.025   0.921   6.878
10178SOL    HW131433   6.976   0.858   6.911
10178SOL    HW231434   0.080   0.875   6.809
10179SOL     OW31435   0.611   2.777   6.567
10179SOL    HW131436   0.678   2.778   6.492
10179SOL    HW231437   0.545   2.850   6.553
10180SOL     OW31438   4.079   1.028   6.182
10180SOL    HW131439   4.177   1.012   6.172
10180SOL    HW231440   4.047   0.990   6.269
10181SOL     OW31441   6.273   3.376   2.159
10181SOL    HW131442   6.319   3.415   2.239
10181SOL    HW231443   6.230   3.449   2.106
10182SOL     OW31444   4.461   0.922   1.668
10182SOL    HW131445   4.396   0.923   1.592
10182SOL    HW231446   4.464   1.013   1.710
10183SOL     OW31447   6.367   2.794   6.045
10183SOL    HW131448   6.309   2.780   5.965
10183SOL    HW231449   6.408   2.886   6.041
10184SOL     OW31450   4.201   1.446   6.275
10184SOL    HW131451   4.299   1.466   6.275
10184SOL    HW231452   4.182   1.371   6.212
10185SOL     OW31453   6.217   5.963   3.076
10185SOL    HW131454   6.209   5.866   3.055
10185SOL    HW231455   6.126   6.004   3.082
10186SOL     OW31456   5.160   3.810   3.963
10186SOL    HW131457   5.142   3.880   3.895
10186SOL    HW231458   5.202   3.852   4.044
10187SOL     OW31459   1.121   3.639   6.733
10187SOL    HW131460   1.110   3.604   6.826
10187SOL    HW231461   1.168   3.571   6.677
10188SOL     OW31462   4.073   4.590   0.338
10188SOL    HW131463   3.977   4.609   0.320
10188SOL    HW231464   4.130   4.638   0.271
10189SOL     OW31465   0.528   0.910   6.789
10189SOL    HW131466   0.522   0.980   6.861
10189SOL    HW231467   0.482   0.943   6.707
10190SOL     OW31468   4.628   2.994   1.322
10190SOL    HW131469   4.648   2.997   1.420
10190SOL    HW231470   4.711   3.017   1.271
10191SOL     OW31471   4.517   5.668   6.926
10191SOL    HW131472   4.527   5.608   6.846
10191SOL    HW231473   4.423   5.667   6.957
10192SOL     OW31474   4.133   1.288   5.476
10192SOL    HW131475   4.085   1.362   5.523
10192SOL    HW231476   4.231   1.309   5.472
10193SOL     OW31477   3.777   2.941   2.042
10193SOL    HW131478   3.724   2.881   2.101
10193SOL    HW231479   3.726   3.025   2.024
10194SOL     OW31480   4.803   6.590   5.622
10194SOL    HW131481   4.778   6.529   5.547
10194SOL    HW231482   4.860   6.540   5.688
10195SOL     OW31483   6.579   6.044   0.436
10195SOL    HW131484   6.567   6.048   0.535
10195SOL    HW231485   6.642   5.970   0.413
10196SOL     OW31486   3.934   2.149   3.821
10196SOL    HW131487   3.903   2.055   3.834
10196SOL    HW231488   3.980   2.181   3.903
10197SOL     OW31489   5.268   1.913   4.685
10197SOL    HW131490   5.225   1.867   4.762
10197SOL    HW231491   5.333   1.852   4.641
10198SOL     OW31492   2.992   6.781   2.578
10198SOL    HW131493   2.944   6.766   2.664
10198SOL    HW231494   3.056   6.857   2.589
10199SOL     OW31495   1.285   2.832   0.691
10199SOL    HW131496   1.329   2.828   0.601
10199SOL    HW231497   1.335   2.774   0.755
10200SOL     OW31498   4.867   3.092   5.755
10200SOL    HW131499   4.773   3.120   5.775
10200SOL    HW231500   4.904   3.041   5.833
10201SOL     OW31501   1.268   4.968   0.084
10201SOL    HW131502   1.193   4.912   0.049
10201SOL    HW231503   1.352   4.913   0.084
10202SOL     OW31504   3.019   4.895   0.114
10202SOL    HW131505   2.929   4.900   0.158
10202SOL    HW231506   3.009   4.860   0.021
10203SOL     OW31507   0.054   2.540   2.580
10203SOL    HW131508   0.029   2.635   2.563
10203SOL    HW231509   0.122   2.536   2.653
10204SOL     OW31510   4.245   5.419   6.364
10204SOL    HW131511   4.301   5.499   6.340
10204SOL    HW231512   4.148   5.444   6.360
10205SOL     OW31513   2.484   0.954   1.937
10205SOL    HW131514   2.441   1.010   1.866
10205SOL    HW231515   2.415   0.922   2.001
10206SOL     OW31516   6.907   0.251   6.731
10206SOL    HW131517   6.827   0.308   6.748
10206SOL    HW231518   6.989   0.300   6.761
10207SOL     OW31519   0.812   2.194   0.073
10207SOL    HW131520   0.737   2.137   0.107
10207SOL    HW231521   0.773   2.271   0.022
10208SOL     OW31522   6.193   5.230   3.978
10208SOL    HW131523   6.156   5.163   4.042
10208SOL    HW231524   6.263   5.285   4.023
10209SOL     OW31525   0.241   6.632   6.592
10209SOL    HW131526   0.226   6.589   6.503
10209SOL    HW231527   0.163   6.612   6.652
10210SOL     OW31528   4.559   6.430   0.878
10210SOL    HW131529   4.551   6.483   0.793
10210SOL    HW231530   4.620   6.352   0.862
10211SOL     OW31531   4.908   6.168   4.461
10211SOL    HW131532   4.993   6.153   4.410
10211SOL    HW231533   4.909   6.259   4.502
10212SOL     OW31534   0.410   0.120   5.681
10212SOL    HW131535   0.446   0.212   5.698
10212SOL    HW231536   0.313   0.117   5.704
10213SOL     OW31537   5.318   2.995   1.921
10213SOL    HW131538   5.224   2.978   1.891
10213SOL    HW231539   5.348   2.920   1.981
10214SOL     OW31540   0.428   1.471   1.912
10214SOL    HW131541   0.370   1.471   1.831
10214SOL    HW231542   0.372   1.485   1.993
10215SOL     OW31543   3.727   3.307   3.780
10215SOL    HW131544   3.768   3.397   3.765
10215SOL    HW231545   3.653   3.315   3.847
10216SOL     OW31546   0.072   1.120   1.278
10216SOL    HW131547   0.133   1.120   1.199
10216SOL    HW231548   7.021   1.053   1.264
10217SOL     OW31549   1.922   2.211   3.763
10217SOL    HW131550   1.923   2.294   3.820
10217SOL    HW231551   1.956   2.134   3.816
10218SOL     OW31552   0.706   0.740   1.514
10218SOL    HW131553   0.686   0.829   1.554
10218SOL    HW231554   0.684   0.668   1.580
10219SOL     OW31555   0.305   2.331   2.512
10219SOL    HW131556   0.226   2.302   2.567
10219SOL    HW231557   0.322   2.428   2.527
10220SOL     OW31558   4.319   1.405   1.642
10220SOL    HW131559   4.261   1.331   1.608
10220SOL    HW231560   4.295   1.491   1.596
10221SOL     OW31561   1.890   4.114   4.894
10221SOL    HW131562   1.890   4.188   4.827
10221SOL    HW231563   1.953   4.042   4.865
10222SOL     OW31564   3.278   4.245   5.248
10222SOL    HW131565   3.331   4.310   5.304
10222SOL    HW231566   3.185   4.238   5.284
10223SOL     OW31567   2.917   5.097   0.934
10223SOL    HW131568   3.005   5.057   0.961
10223SOL    HW231569   2.932   5.161   0.858
10224SOL     OW31570   6.477   2.401   5.765
10224SOL    HW131571   6.493   2.497   5.743
10224SOL    HW231572   6.510   2.343   5.690
10225SOL     OW31573   1.801   6.008   5.894
10225SOL    HW131574   1.832   6.097   5.927
10225SOL    HW231575   1.881   5.951   5.872
10226SOL     OW31576   1.983   0.079   6.244
10226SOL    HW131577   2.017   0.030   6.324
10226SOL    HW231578   1.972   0.176   6.265
10227SOL     OW31579   5.197   4.559   6.988
10227SOL    HW131580   5.243   4.598   0.046
10227SOL    HW231581   5.135   4.486   7.018
10228SOL     OW31582   1.159   5.822   2.089
10228SOL    HW131583   1.061   5.825   2.072
10228SOL    HW231584   1.205   5.774   2.014
10229SOL     OW31585   2.128   2.413   4.542
10229SOL    HW131586   2.067   2.437   4.466
10229SOL    HW231587   2.218   2.455   4.526
10230SOL     OW31588   6.436   6.295   3.235
10230SOL    HW131589   6.465   6.211   3.190
10230SOL    HW231590   6.439   6.371   3.170
10231SOL     OW31591   6.427   4.573   5.213
10231SOL    HW131592   6.501   4.639   5.232
10231SOL    HW231593   6.419   4.510   5.290
10232SOL     OW31594   3.375   1.528   3.722
10232SOL    HW131595   3.337   1.620   3.714
10232SOL    HW231596   3.473   1.534   3.742
10233SOL     OW31597   3.830   3.889   5.358
10233SOL    HW131598   3.926   3.912   5.346
10233SOL    HW231599   3.785   3.958   5.414
10234SOL     OW31600   5.495   1.184   0.564
10234SOL    HW131601   5.562   1.111   0.582
10234SOL    HW231602   5.533   1.272   0.591
10235SOL     OW31603   2.925   2.024   1.253
10235SOL    HW131604   2.897   1.928   1.257
10235SOL    HW231605   2.887   2.066   1.171
10236SOL     OW31606   1.436   1.201   1.733
10236SOL    HW131607   1.494   1.227   1.810
10236SOL    HW231608   1.420   1.102   1.734
10237SOL     OW31609   6.984   4.441   6.485
10237SOL    HW131610   6.924   4.472   6.411
10237SOL    HW231611   6.928   4.413   6.563
10238SOL     OW31612   3.954   3.930   2.280
10238SOL    HW131613   3.974   3.855   2.343
10238SOL    HW231614   3.885   3.990   2.321
10239SOL     OW31615   2.238   3.418   5.664
10239SOL    HW131616   2.287   3.452   5.584
10239SOL    HW231617   2.169   3.485   5.692
10240SOL     OW31618   2.214   4.136   2.564
10240SOL    HW131619   2.194   4.048   2.521
10240SOL    HW231620   2.189   4.132   2.661
10241SOL     OW31621   0.025   6.003   3.394
10241SOL    HW131622   0.101   5.982   3.332
10241SOL    HW231623   6.960   5.984   3.348
10242SOL     OW31624   0.827   1.336   1.830
10242SOL    HW131625   0.885   1.385   1.765
10242SOL    HW231626   0.776   1.402   1.885
10243SOL     OW31627   2.566   4.858   2.879
10243SOL    HW131628   2.529   4.790   2.815
10243SOL    HW231629   2.491   4.908   2.922
10244SOL     OW31630   1.917   4.661   0.997
10244SOL    HW131631   1.960   4.719   1.066
10244SOL    HW231632   1.871   4.584   1.042
10245SOL     OW31633   3.770   4.490   0.739
10245SOL    HW131634   3.812   4.553   0.805
10245SOL    HW231635   3.752   4.403   0.783
10246SOL     OW31636   2.947   3.285   3.761
10246SOL    HW131637   2.970   3.224   3.837
10246SOL    HW231638   3.001   3.369   3.769
10247SOL     OW31639   0.179   4.291   6.433
10247SOL    HW131640   0.110   4.362   6.438
10247SOL    HW231641   0.179   4.238   6.518
10248SOL     OW31642   1.592   6.865   2.747
10248SOL    HW131643   1.569   6.768   2.745
10248SOL    HW231644   1.686   6.878   2.715
10249SOL     OW31645   2.298   6.350   6.481
10249SOL    HW131646   2.290   6.399   6.394
10249SOL    HW231647   2.285   6.252   6.465
10250SOL     OW31648   6.611   2.890   2.212
10250SOL    HW131649   6.656   2.932   2.132
10250SOL    HW231650   6.567   2.804   2.184
10251SOL     OW31651   2.431   1.418   4.638
10251SOL    HW131652   2.438   1.492   4.571
10251SOL    HW231653   2.389   1.338   4.595
10252SOL     OW31654   3.796   5.209   6.006
10252SOL    HW131655   3.732   5.281   5.978
10252SOL    HW231656   3.886   5.250   6.024
10253SOL     OW31657   2.922   6.987   0.433
10253SOL    HW131658   2.920   0.012   0.345
10253SOL    HW231659   2.829   6.959   0.457
10254SOL     OW31660   4.605   1.115   5.491
10254SOL    HW131661   4.648   1.034   5.451
10254SOL    HW231662   4.505   1.106   5.484
10255SOL     OW31663   2.415   6.175   0.638
10255SOL    HW131664   2.476   6.185   0.559
10255SOL    HW231665   2.370   6.085   0.634
10256SOL     OW31666   5.021   1.620   1.589
10256SOL    HW131667   4.934   1.649   1.548
10256SOL    HW231668   5.003   1.549   1.658
10257SOL     OW31669   2.009   4.908   4.685
10257SOL    HW131670   2.057   4.970   4.747
10257SOL    HW231671   1.969   4.960   4.610
10258SOL     OW31672   3.290   1.044   3.727
10258SOL    HW131673   3.298   1.127   3.782
10258SOL    HW231674   3.193   1.025   3.709
10259SOL     OW31675   0.635   5.241   3.477
10259SOL    HW131676   0.610   5.149   3.446
10259SOL    HW231677   0.731   5.244   3.502
10260SOL     OW31678   1.550   0.923   3.705
10260SOL    HW131679   1.641   0.964   3.709
10260SOL    HW231680   1.536   0.867   3.787
10261SOL     OW31681   6.916   4.751   2.691
10261SOL    HW131682   6.865   4.683   2.745
10261SOL    HW231683   6.910   4.729   2.594
10262SOL     OW31684   2.484   6.952   5.397
10262SOL    HW131685   2.552   6.924   5.329
10262SOL    HW231686   2.397   6.907   5.378
10263SOL     OW31687   5.333   0.235   6.821
10263SOL    HW131688   5.381   0.242   6.908
10263SOL    HW231689   5.372   0.160   6.768
10264SOL     OW31690   6.124   0.028   6.837
10264SOL    HW131691   6.112   6.975   6.902
10264SOL    HW231692   6.177   7.017   6.758
10265SOL     OW31693   2.204   3.008   1.597
10265SOL    HW131694   2.237   2.936   1.658
10265SOL    HW231695   2.281   3.047   1.547
10266SOL     OW31696   4.020   3.545   4.014
10266SOL    HW131697   3.981   3.454   4.029
10266SOL    HW231698   4.035   3.590   4.102
10267SOL     OW31699   5.707   2.857   6.536
10267SOL    HW131700   5.743   2.765   6.544
10267SOL    HW231701   5.756   2.919   6.598
10268SOL     OW31702   5.901   5.778   2.273
10268SOL    HW131703   5.829   5.762   2.340
10268SOL    HW231704   5.878   5.859   2.218
10269SOL     OW31705   0.356   3.588   6.939
10269SOL    HW131706   0.363   3.505   6.993
10269SOL    HW231707   0.260   3.608   6.920
10270SOL     OW31708   3.911   4.826   2.891
10270SOL    HW131709   3.992   4.814   2.835
10270SOL    HW231710   3.924   4.780   2.979
10271SOL     OW31711   3.425   2.875   5.917
10271SOL    HW131712   3.405   2.925   6.001
10271SOL    HW231713   3.524   2.863   5.909
10272SOL     OW31714   1.504   1.236   4.927
10272SOL    HW131715   1.421   1.254   4.980
10272SOL    HW231716   1.584   1.267   4.978
10273SOL     OW31717   2.802   5.853   2.675
10273SOL    HW131718   2.703   5.854   2.685
10273SOL    HW231719   2.830   5.768   2.631
10274SOL     OW31720   0.726   5.713   4.993
10274SOL    HW131721   0.811   5.668   4.964
10274SOL    HW231722   0.648   5.654   4.973
10275SOL     OW31723   0.044   6.370   1.567
10275SOL    HW131724   0.118   6.435   1.585
10275SOL    HW231725   6.979   6.413   1.588
10276SOL     OW31726   5.170   4.900   5.513
10276SOL    HW131727   5.167   4.945   5.602
10276SOL    HW231728   5.226   4.953   5.450
10277SOL     OW31729   1.615   5.290   3.619
10277SOL    HW131730   1.613   5.257   3.714
10277SOL    HW231731   1.628   5.389   3.618
10278SOL     OW31732   0.222   1.920   4.730
10278SOL    HW131733   0.153   1.855   4.697
10278SOL    HW231734   0.186   1.970   4.809
10279SOL     OW31735   2.412   5.215   4.425
10279SOL    HW131736   2.491   5.216   4.363
10279SOL    HW231737   2.393   5.121   4.453
10280SOL     OW31738   0.101   3.186   0.831
10280SOL    HW131739   0.171   3.218   0.895
10280SOL    HW231740   0.022   3.246   0.836
10281SOL     OW31741   5.693   1.462   2.135
10281SOL    HW131742   5.654   1.551   2.158
10281SOL    HW231743   5.792   1.470   2.127
10282SOL     OW31744   4.998   3.208   4.258
10282SOL    HW131745   5.047   3.192   4.344
10282SOL    HW231746   4.953   3.124   4.229
10283SOL     OW31747   1.290   3.410   0.458
10283SOL    HW131748   1.339   3.488   0.498
10283SOL    HW231749   1.330   3.325   0.493
10284SOL     OW31750   5.403   2.966   5.146
10284SOL    HW131751   5.453   2.988   5.229
10284SOL    HW231752   5.344   2.886   5.163
10285SOL     OW31753   5.718   0.041   2.307
10285SOL    HW131754   5.716   7.014   2.220
10285SOL    HW231755   5.812   0.042   2.342
10286SOL     OW31756   3.113   1.873   3.113
10286SOL    HW131757   3.166   1.939   3.059
10286SOL    HW231758   3.176   1.805   3.152
10287SOL     OW31759   1.866   6.934   1.507
10287SOL    HW131760   1.927   6.864   1.544
10287SOL    HW231761   1.870   7.016   1.565
10288SOL     OW31762   4.732   6.212   3.132
10288SOL    HW131763   4.653   6.176   3.181
10288SOL    HW231764   4.771   6.289   3.183
10289SOL     OW31765   1.999   6.631   0.145
10289SOL    HW131766   2.018   6.726   0.167
10289SOL    HW231767   1.966   6.624   0.051
10290SOL     OW31768   3.071   3.903   2.672
10290SOL    HW131769   3.113   3.980   2.624
10290SOL    HW231770   3.073   3.822   2.613
10291SOL     OW31771   4.595   1.070   2.938
10291SOL    HW131772   4.497   1.089   2.934
10291SOL    HW231773   4.637   1.092   2.850
10292SOL     OW31774   1.675   0.980   5.174
10292SOL    HW131775   1.716   1.068   5.196
10292SOL    HW231776   1.575   0.988   5.176
10293SOL     OW31777   2.188   4.540   2.623
10293SOL    HW131778   2.255   4.470   2.595
10293SOL    HW231779   2.203   4.563   2.719
10294SOL     OW31780   5.775   3.275   2.899
10294SOL    HW131781   5.760   3.365   2.939
10294SOL    HW231782   5.871   3.248   2.911
10295SOL     OW31783   6.426   4.207   5.740
10295SOL    HW131784   6.414   4.153   5.823
10295SOL    HW231785   6.379   4.161   5.664
10296SOL     OW31786   5.073   1.447   0.243
10296SOL    HW131787   4.998   1.422   0.304
10296SOL    HW231788   5.038   1.463   0.151
10297SOL     OW31789   1.690   6.847   6.671
10297SOL    HW131790   1.757   6.921   6.676
10297SOL    HW231791   1.601   6.884   6.644
10298SOL     OW31792   2.677   4.514   1.695
10298SOL    HW131793   2.765   4.509   1.741
10298SOL    HW231794   2.657   4.426   1.652
10299SOL     OW31795   5.022   5.046   3.058
10299SOL    HW131796   5.101   5.079   3.006
10299SOL    HW231797   5.034   4.949   3.077
10300SOL     OW31798   1.327   3.702   3.579
10300SOL    HW131799   1.301   3.617   3.533
10300SOL    HW231800   1.255   3.770   3.566
10301SOL     OW31801   5.039   2.640   4.719
10301SOL    HW131802   4.948   2.643   4.760
10301SOL    HW231803   5.107   2.622   4.790
10302SOL     OW31804   2.066   6.853   4.079
10302SOL    HW131805   2.125   6.933   4.069
10302SOL    HW231806   2.021   6.857   4.169
10303SOL     OW31807   2.001   6.243   2.809
10303SOL    HW131808   1.914   6.288   2.789
10303SOL    HW231809   2.033   6.271   2.900
10304SOL     OW31810   5.496   0.315   1.798
10304SOL    HW131811   5.451   0.312   1.888
10304SOL    HW231812   5.429   0.343   1.729
10305SOL     OW31813   1.072   4.429   7.019
10305SOL    HW131814   1.145   4.362   7.011
10305SOL    HW231815   1.083   4.500   6.949
10306SOL     OW31816   4.566   6.829   5.890
10306SOL    HW131817   4.501   6.828   5.967
10306SOL    HW231818   4.607   6.738   5.882
10307SOL     OW31819   2.556   1.989   5.590
10307SOL    HW131820   2.616   1.934   5.648
10307SOL    HW231821   2.562   1.957   5.496
10308SOL     OW31822   2.393   4.440   3.420
10308SOL    HW131823   2.380   4.408   3.326
10308SOL    HW231824   2.360   4.534   3.428
10309SOL     OW31825   6.888   1.677   5.349
10309SOL    HW131826   6.818   1.707   5.284
10309SOL    HW231827   6.965   1.741   5.346
10310SOL     OW31828   3.271   3.631   1.029
10310SOL    HW131829   3.262   3.682   1.114
10310SOL    HW231830   3.193   3.568   1.020
10311SOL     OW31831   6.834   6.288   0.103
10311SOL    HW131832   6.778   6.223   0.051
10311SOL    HW231833   6.833   6.377   0.058
10312SOL     OW31834   3.829   6.554   2.444
10312SOL    HW131835   3.749   6.523   2.393
10312SOL    HW231836   3.845   6.650   2.426
10313SOL     OW31837   5.052   6.516   1.388
10313SOL    HW131838   5.139   6.551   1.354
10313SOL    HW231839   4.992   6.497   1.310
10314SOL     OW31840   6.682   0.857   1.931
10314SOL    HW131841   6.662   0.910   1.849
10314SOL    HW231842   6.600   0.853   1.989
10315SOL     OW31843   4.963   6.160   4.952
10315SOL    HW131844   5.047   6.189   4.999
10315SOL    HW231845   4.914   6.094   5.009
10316SOL     OW31846   6.313   1.660   4.252
10316SOL    HW131847   6.350   1.616   4.170
10316SOL    HW231848   6.214   1.673   4.241
10317SOL     OW31849   4.237   5.796   4.712
10317SOL    HW131850   4.165   5.864   4.699
10317SOL    HW231851   4.234   5.761   4.806
10318SOL     OW31852   4.816   5.696   6.243
10318SOL    HW131853   4.726   5.719   6.206
10318SOL    HW231854   4.829   5.741   6.331
10319SOL     OW31855   1.333   2.585   5.219
10319SOL    HW131856   1.411   2.527   5.198
10319SOL    HW231857   1.363   2.679   5.232
10320SOL     OW31858   0.510   0.486   3.070
10320SOL    HW131859   0.605   0.470   3.043
10320SOL    HW231860   0.508   0.520   3.164
10321SOL     OW31861   4.022   1.300   2.318
10321SOL    HW131862   4.028   1.288   2.218
10321SOL    HW231863   3.966   1.226   2.356
10322SOL     OW31864   6.567   5.643   5.696
10322SOL    HW131865   6.505   5.721   5.689
10322SOL    HW231866   6.577   5.616   5.792
10323SOL     OW31867   5.926   2.936   5.598
10323SOL    HW131868   5.924   2.865   5.528
10323SOL    HW231869   6.021   2.966   5.612
10324SOL     OW31870   3.385   3.433   2.446
10324SOL    HW131871   3.414   3.357   2.505
10324SOL    HW231872   3.465   3.486   2.419
10325SOL     OW31873   0.239   3.736   2.338
10325SOL    HW131874   0.251   3.746   2.437
10325SOL    HW231875   0.329   3.727   2.295
10326SOL     OW31876   4.251   3.583   0.056
10326SOL    HW131877   4.265   3.662   7.019
10326SOL    HW231878   4.332   3.570   0.114
10327SOL     OW31879   2.525   1.743   1.735
10327SOL    HW131880   2.583   1.718   1.812
10327SOL    HW231881   2.438   1.695   1.741
10328SOL     OW31882   6.010   2.771   1.057
10328SOL    HW131883   5.970   2.680   1.050
10328SOL    HW231884   5.957   2.826   1.122
10329SOL     OW31885   3.483   0.281   4.008
10329SOL    HW131886   3.560   0.280   3.945
10329SOL    HW231887   3.402   0.243   3.964
10330SOL     OW31888   4.269   0.385   2.275
10330SOL    HW131889   4.350   0.413   2.222
10330SOL    HW231890   4.264   0.439   2.359
10331SOL     OW31891   0.190   1.511   5.020
10331SOL    HW131892   0.253   1.433   5.025
10331SOL    HW231893   0.124   1.506   5.095
10332SOL     OW31894   6.140   1.082   0.748
10332SOL    HW131895   6.120   0.985   0.764
10332SOL    HW231896   6.232   1.090   0.710
10333SOL     OW31897   6.153   4.047   4.818
10333SOL    HW131898   6.103   4.090   4.743
10333SOL    HW231899   6.140   3.948   4.813
10334SOL     OW31900   4.232   6.179   3.514
10334SOL    HW131901   4.141   6.215   3.494
10334SOL    HW231902   4.246   6.176   3.613
10335SOL     OW31903   2.860   4.562   6.792
10335SOL    HW131904   2.837   4.522   6.703
10335SOL    HW231905   2.911   4.496   6.847
10336SOL     OW31906   6.738   6.677   2.738
10336SOL    HW131907   6.768   6.590   2.777
10336SOL    HW231908   6.668   6.718   2.797
10337SOL     OW31909   0.271   6.952   5.928
10337SOL    HW131910   0.239   6.981   6.018
10337SOL    HW231911   0.215   6.995   5.857
10338SOL     OW31912   2.213   6.380   2.381
10338SOL    HW131913   2.179   6.474   2.383
10338SOL    HW231914   2.139   6.317   2.407
10339SOL     OW31915   3.586   5.304   0.478
10339SOL    HW131916   3.646   5.330   0.403
10339SOL    HW231917   3.493   5.289   0.443
10340SOL     OW31918   2.111   5.537   1.087
10340SOL    HW131919   2.126   5.510   1.182
10340SOL    HW231920   2.056   5.621   1.084
10341SOL     OW31921   2.078   3.572   1.331
10341SOL    HW131922   2.169   3.557   1.370
10341SOL    HW231923   2.011   3.574   1.405
10342SOL     OW31924   0.782   6.992   5.470
10342SOL    HW131925   0.829   6.937   5.401
10342SOL    HW231926   0.718   6.935   5.521
10343SOL     OW31927   3.605   5.689   0.143
10343SOL    HW131928   3.551   5.753   0.196
10343SOL    HW231929   3.547   5.612   0.115
10344SOL     OW31930   4.424   4.213   1.524
10344SOL    HW131931   4.389   4.218   1.617
10344SOL    HW231932   4.397   4.126   1.482
10345SOL     OW31933   1.418   1.311   0.127
10345SOL    HW131934   1.393   1.281   0.219
10345SOL    HW231935   1.337   1.347   0.081
10346SOL     OW31936   6.323   6.802   1.057
10346SOL    HW131937   6.400   6.764   1.006
10346SOL    HW231938   6.289   6.884   1.011
10347SOL     OW31939   5.080   1.870   2.052
10347SOL    HW131940   5.136   1.952   2.067
10347SOL    HW231941   5.140   1.794   2.026
10348SOL     OW31942   6.442   1.500   0.223
10348SOL    HW131943   6.503   1.530   0.297
10348SOL    HW231944   6.485   1.425   0.173
10349SOL     OW31945   0.137   1.275   1.490
10349SOL    HW131946   0.122   1.191   1.437
10349SOL    HW231947   0.049   1.314   1.517
10350SOL     OW31948   1.878   6.638   5.345
10350SOL    HW131949   1.851   6.673   5.256
10350SOL    HW231950   1.978   6.628   5.348
10351SOL     OW31951   4.443   5.172   6.100
10351SOL    HW131952   4.349   5.148   6.125
10351SOL    HW231953   4.468   5.127   6.014
10352SOL     OW31954   4.615   2.379   6.464
10352SOL    HW131955   4.523   2.356   6.432
10352SOL    HW231956   4.614   2.469   6.508
10353SOL     OW31957   0.053   2.940   5.769
10353SOL    HW131958   0.092   2.955   5.860
10353SOL    HW231959   0.056   2.843   5.747
10354SOL     OW31960   5.804   2.557   2.194
10354SOL    HW131961   5.856   2.640   2.216
10354SOL    HW231962   5.714   2.582   2.159
10355SOL     OW31963   2.094   0.194   2.355
10355SOL    HW131964   1.997   0.206   2.332
10355SOL    HW231965   2.142   0.281   2.343
10356SOL     OW31966   0.256   4.283   5.906
10356SOL    HW131967   0.175   4.333   5.877
10356SOL    HW231968   0.238   4.238   5.993
10357SOL     OW31969   3.104   3.083   6.591
10357SOL    HW131970   3.011   3.116   6.607
10357SOL    HW231971   3.123   3.082   6.493
10358SOL     OW31972   6.378   3.106   3.621
10358SOL    HW131973   6.296   3.147   3.661
10358SOL    HW231974   6.401   3.023   3.671
10359SOL     OW31975   0.131   1.839   1.599
10359SOL    HW131976   0.130   1.823   1.698
10359SOL    HW231977   0.042   1.815   1.561
10360SOL     OW31978   4.356   5.678   1.934
10360SOL    HW131979   4.406   5.625   2.002
10360SOL    HW231980   4.415   5.698   1.856
10361SOL     OW31981   2.630   0.565   2.941
10361SOL    HW131982   2.719   0.521   2.943
10361SOL    HW231983   2.614   0.606   2.851
10362SOL     OW31984   0.591   5.276   3.935
10362SOL    HW131985   0.632   5.330   3.862
10362SOL    HW231986   0.608   5.320   4.023
10363SOL     OW31987   4.480   2.425   1.026
10363SOL    HW131988   4.509   2.383   0.940
10363SOL    HW231989   4.433   2.357   1.082
10364SOL     OW31990   3.802   3.704   2.460
10364SOL    HW131991   3.749   3.779   2.499
10364SOL    HW231992   3.746   3.620   2.459
10365SOL     OW31993   4.964   4.533   5.144
10365SOL    HW131994   4.916   4.611   5.105
10365SOL    HW231995   5.002   4.477   5.070
10366SOL     OW31996   4.335   0.048   4.383
10366SOL    HW131997   4.318   6.978   4.349
10366SOL    HW231998   4.377   0.103   4.311
10367SOL     OW31999   6.937   1.415   1.561
10367SOL    HW132000   6.844   1.391   1.591
10367SOL    HW232001   6.941   1.513   1.542
10368SOL     OW32002   2.275   0.911   2.105
10368SOL    HW132003   2.229   1.000   2.103
10368SOL    HW232004   2.207   0.838   2.119
10369SOL     OW32005   3.969   1.293   5.267
10369SOL    HW132006   3.956   1.206   5.220
10369SOL    HW232007   4.031   1.280   5.344
10370SOL     OW32008   5.741   1.528   5.313
10370SOL    HW132009   5.729   1.433   5.284
10370SOL    HW232010   5.663   1.582   5.283
10371SOL     OW32011   1.914   5.626   4.138
10371SOL    HW132012   1.988   5.559   4.150
10371SOL    HW232013   1.879   5.619   4.045
10372SOL     OW32014   1.696   1.001   0.801
10372SOL    HW132015   1.748   1.086   0.798
10372SOL    HW232016   1.625   1.003   0.730
10373SOL     OW32017   1.671   6.661   4.852
10373SOL    HW132018   1.613   6.583   4.829
10373SOL    HW232019   1.766   6.633   4.857
10374SOL     OW32020   3.550   1.045   3.239
10374SOL    HW132021   3.494   1.017   3.317
10374SOL    HW232022   3.646   1.023   3.257
10375SOL     OW32023   2.857   1.640   6.482
10375SOL    HW132024   2.865   1.658   6.580
10375SOL    HW232025   2.824   1.722   6.435
10376SOL     OW32026   1.334   5.756   3.842
10376SOL    HW132027   1.251   5.759   3.898
10376SOL    HW232028   1.309   5.737   3.747
10377SOL     OW32029   6.883   1.077   3.794
10377SOL    HW132030   6.885   0.983   3.759
10377SOL    HW232031   6.814   1.129   3.743
10378SOL     OW32032   6.261   0.330   5.584
10378SOL    HW132033   6.307   0.243   5.568
10378SOL    HW232034   6.288   0.396   5.514
10379SOL     OW32035   3.030   6.652   4.217
10379SOL    HW132036   2.973   6.585   4.264
10379SOL    HW232037   3.046   6.622   4.123
10380SOL     OW32038   0.827   2.114   4.518
10380SOL    HW132039   0.796   2.176   4.446
10380SOL    HW232040   0.850   2.166   4.600
10381SOL     OW32041   4.271   4.173   0.556
10381SOL    HW132042   4.274   4.076   0.582
10381SOL    HW232043   4.311   4.185   0.466
10382SOL     OW32044   2.150   5.111   0.822
10382SOL    HW132045   2.113   5.192   0.867
10382SOL    HW232046   2.245   5.126   0.798
10383SOL     OW32047   0.275   3.985   0.760
10383SOL    HW132048   0.329   3.963   0.678
10383SOL    HW232049   0.300   3.923   0.834
10384SOL     OW32050   6.970   0.418   1.077
10384SOL    HW132051   0.047   0.426   1.091
10384SOL    HW232052   6.952   0.351   1.004
10385SOL     OW32053   3.511   6.860   5.799
10385SOL    HW132054   3.479   6.804   5.876
10385SOL    HW232055   3.562   6.803   5.736
10386SOL     OW32056   6.214   1.604   5.342
10386SOL    HW132057   6.287   1.600   5.411
10386SOL    HW232058   6.132   1.558   5.378
10387SOL     OW32059   4.690   1.565   2.499
10387SOL    HW132060   4.759   1.622   2.455
10387SOL    HW232061   4.698   1.574   2.599
10388SOL     OW32062   2.164   6.065   2.289
10388SOL    HW132063   2.162   5.966   2.307
10388SOL    HW232064   2.134   6.114   2.370
10389SOL     OW32065   0.194   6.628   1.100
10389SOL    HW132066   0.159   6.632   1.194
10389SOL    HW232067   0.217   6.533   1.078
10390SOL     OW32068   2.067   2.226   1.613
10390SOL    HW132069   2.075   2.133   1.646
10390SOL    HW232070   2.152   2.276   1.631
10391SOL     OW32071   0.674   5.593   4.001
10391SOL    HW132072   0.589   5.579   3.950
10391SOL    HW232073   0.668   5.548   4.090
10392SOL     OW32074   6.948   4.104   6.734
10392SOL    HW132075   6.858   4.069   6.763
10392SOL    HW232076   6.965   4.193   6.776
10393SOL     OW32077   2.036   2.380   2.110
10393SOL    HW132078   1.949   2.336   2.087
10393SOL    HW232079   2.086   2.401   2.026
10394SOL     OW32080   2.340   6.246   4.438
10394SOL    HW132081   2.304   6.171   4.383
10394SOL    HW232082   2.439   6.237   4.447
10395SOL     OW32083   0.127   0.930   3.128
10395SOL    HW132084   0.108   1.007   3.189
10395SOL    HW232085   0.215   0.889   3.152
10396SOL     OW32086   2.643   0.159   3.880
10396SOL    HW132087   2.565   0.165   3.819
10396SOL    HW232088   2.619   0.103   3.959
10397SOL     OW32089   2.600   1.941   3.993
10397SOL    HW132090   2.654   1.969   3.913
10397SOL    HW232091   2.578   2.021   4.048
10398SOL     OW32092   5.297   2.348   0.547
10398SOL    HW132093   5.374   2.351   0.483
10398SOL    HW232094   5.328   2.381   0.637
10399SOL     OW32095   4.200   1.874   4.520
10399SOL    HW132096   4.165   1.874   4.613
10399SOL    HW232097   4.201   1.967   4.484
10400SOL     OW32098   3.903   5.744   0.805
10400SOL    HW132099   3.871   5.785   0.890
10400SOL    HW232100   3.837   5.764   0.732
10401SOL     OW32101   0.275   0.631   2.293
10401SOL    HW132102   0.205   0.653   2.361
10401SOL    HW232103   0.325   0.714   2.270
10402SOL     OW32104   0.087   2.675   5.755
10402SOL    HW132105   0.101   2.599   5.690
10402SOL    HW232106   0.085   2.638   5.848
10403SOL     OW32107   5.068   0.976   2.795
10403SOL    HW132108   5.025   1.066   2.803
10403SOL    HW232109   5.160   0.986   2.757
10404SOL     OW32110   0.116   6.815   4.198
10404SOL    HW132111   0.168   6.900   4.202
10404SOL    HW232112   0.055   6.816   4.119
10405SOL     OW32113   0.962   5.551   4.993
10405SOL    HW132114   0.971   5.607   5.075
10405SOL    HW232115   1.024   5.473   4.999
10406SOL     OW32116   2.250   3.194   5.254
10406SOL    HW132117   2.329   3.136   5.231
10406SOL    HW232118   2.277   3.258   5.326
10407SOL     OW32119   2.272   0.635   6.660
10407SOL    HW132120   2.187   0.634   6.608
10407SOL    HW232121   2.251   0.636   6.758
10408SOL     OW32122   3.742   6.515   2.003
10408SOL    HW132123   3.841   6.512   1.989
10408SOL    HW232124   3.696   6.526   1.915
10409SOL     OW32125   0.489   3.771   0.703
10409SOL    HW132126   0.484   3.674   0.678
10409SOL    HW232127   0.540   3.820   0.632
10410SOL     OW32128   5.370   2.111   1.303
10410SOL    HW132129   5.388   2.054   1.223
10410SOL    HW232130   5.326   2.056   1.374
10411SOL     OW32131   4.049   5.601   4.486
10411SOL    HW132132   4.059   5.637   4.393
10411SOL    HW232133   4.139   5.576   4.521
10412SOL     OW32134   6.683   1.045   0.661
10412SOL    HW132135   6.768   1.033   0.714
10412SOL    HW232136   6.706   1.062   0.566
10413SOL     OW32137   6.904   2.142   1.434
10413SOL    HW132138   6.978   2.129   1.500
10413SOL    HW232139   6.882   2.240   1.429
10414SOL     OW32140   3.965   5.927   6.013
10414SOL    HW132141   4.057   5.950   6.048
10414SOL    HW232142   3.973   5.860   5.939
10415SOL     OW32143   2.215   4.015   3.647
10415SOL    HW132144   2.255   4.082   3.709
10415SOL    HW232145   2.231   4.041   3.552
10416SOL     OW32146   6.354   0.285   4.989
10416SOL    HW132147   6.443   0.317   4.955
10416SOL    HW232148   6.331   0.333   5.073
10417SOL     OW32149   4.836   4.968   4.269
10417SOL    HW132150   4.869   5.043   4.211
10417SOL    HW232151   4.737   4.971   4.275
10418SOL     OW32152   5.872   4.099   5.997
10418SOL    HW132153   5.953   4.103   6.055
10418SOL    HW232154   5.862   4.186   5.949
10419SOL     OW32155   3.265   0.178   5.230
10419SOL    HW132156   3.247   0.234   5.311
10419SOL    HW232157   3.179   0.142   5.194
10420SOL     OW32158   6.938   3.340   3.851
10420SOL    HW132159   6.866   3.288   3.899
10420SOL    HW232160   6.939   3.315   3.755
10421SOL     OW32161   1.462   3.454   4.927
10421SOL    HW132162   1.489   3.388   4.857
10421SOL    HW232163   1.388   3.511   4.893
10422SOL     OW32164   6.823   3.627   5.490
10422SOL    HW132165   6.864   3.643   5.400
10422SOL    HW232166   6.802   3.714   5.534
10423SOL     OW32167   4.617   4.861   5.111
10423SOL    HW132168   4.672   4.805   5.049
10423SOL    HW232169   4.634   4.958   5.091
10424SOL     OW32170   3.936   2.687   0.541
10424SOL    HW132171   3.837   2.676   0.537
10424SOL    HW232172   3.961   2.736   0.624
10425SOL     OW32173   1.023   5.711   2.570
10425SOL    HW132174   1.106   5.673   2.528
10425SOL    HW232175   0.983   5.641   2.630
10426SOL     OW32176   5.436   3.868   5.677
10426SOL    HW132177   5.355   3.829   5.633
10426SOL    HW232178   5.426   3.864   5.776
10427SOL     OW32179   5.028   7.007   6.947
10427SOL    HW132180   5.011   6.958   6.862
10427SOL    HW232181   5.120   6.985   6.981
10428SOL     OW32182   2.593   1.684   4.075
10428SOL    HW132183   2.671   1.668   4.136
10428SOL    HW232184   2.598   1.777   4.039
10429SOL     OW32185   0.940   4.052   2.882
10429SOL    HW132186   0.872   3.979   2.880
10429SOL    HW232187   1.014   4.027   2.944
10430SOL     OW32188   3.586   6.452   4.478
10430SOL    HW132189   3.646   6.374   4.460
10430SOL    HW232190   3.624   6.506   4.553
10431SOL     OW32191   2.906   0.497   4.238
10431SOL    HW132192   2.859   0.550   4.308
10431SOL    HW232193   2.842   0.475   4.164
10432SOL     OW32194   0.150   2.109   5.493
10432SOL    HW132195   0.099   2.082   5.412
10432SOL    HW232196   0.182   2.203   5.482
10433SOL     OW32197   6.866   6.528   2.486
10433SOL    HW132198   6.785   6.509   2.541
10433SOL    HW232199   6.903   6.618   2.510
10434SOL     OW32200   4.020   6.341   4.823
10434SOL    HW132201   3.965   6.365   4.742
10434SOL    HW232202   3.960   6.314   4.897
10435SOL     OW32203   2.122   1.931   6.462
10435SOL    HW132204   2.047   1.990   6.493
10435SOL    HW232205   2.188   1.920   6.536
10436SOL     OW32206   6.311   4.097   4.285
10436SOL    HW132207   6.264   4.015   4.318
10436SOL    HW232208   6.380   4.071   4.218
10437SOL     OW32209   6.387   4.988   5.089
10437SOL    HW132210   6.352   5.081   5.099
10437SOL    HW232211   6.329   4.937   5.025
10438SOL     OW32212   0.419   5.822   6.127
10438SOL    HW132213   0.405   5.741   6.185
10438SOL    HW232214   0.364   5.814   6.044
10439SOL     OW32215   5.380   0.872   4.543
10439SOL    HW132216   5.429   0.954   4.571
10439SOL    HW232217   5.403   0.797   4.604
10440SOL     OW32218   0.325   6.654   6.883
10440SOL    HW132219   0.256   6.605   6.829
10440SOL    HW232220   0.328   6.750   6.854
10441SOL     OW32221   2.884   1.604   1.335
10441SOL    HW132222   2.795   1.605   1.380
10441SOL    HW232223   2.901   1.514   1.296
10442SOL     OW32224   3.854   6.781   5.213
10442SOL    HW132225   3.895   6.841   5.144
10442SOL    HW232226   3.838   6.832   5.297
10443SOL     OW32227   6.134   2.642   3.148
10443SOL    HW132228   6.086   2.664   3.063
10443SOL    HW232229   6.232   2.646   3.132
10444SOL     OW32230   3.952   5.359   1.955
10444SOL    HW132231   4.016   5.408   2.014
10444SOL    HW232232   3.867   5.411   1.949
10445SOL     OW32233   0.777   3.605   2.838
10445SOL    HW132234   0.760   3.702   2.858
10445SOL    HW232235   0.871   3.593   2.805
10446SOL     OW32236   2.027   3.754   6.457
10446SOL    HW132237   2.062   3.808   6.380
10446SOL    HW232238   1.986   3.816   6.525
10447SOL     OW32239   6.959   0.780   2.588
10447SOL    HW132240   0.023   0.804   2.634
10447SOL    HW232241   6.884   0.790   2.653
10448SOL     OW32242   3.453   0.499   2.590
10448SOL    HW132243   3.462   0.598   2.580
10448SOL    HW232244   3.445   0.476   2.687
10449SOL     OW32245   2.665   5.657   6.571
10449SOL    HW132246   2.695   5.596   6.644
10449SOL    HW232247   2.607   5.729   6.609
10450SOL     OW32248   7.002   1.639   6.726
10450SOL    HW132249   6.974   1.662   6.819
10450SOL    HW232250   6.970   1.547   6.703
10451SOL     OW32251   3.336   6.633   3.011
10451SOL    HW132252   3.377   6.635   3.103
10451SOL    HW232253   3.359   6.547   2.967
10452SOL     OW32254   6.834   3.046   3.345
10452SOL    HW132255   6.770   3.080   3.413
10452SOL    HW232256   6.787   2.981   3.285
10453SOL     OW32257   4.838   6.391   1.631
10453SOL    HW132258   4.746   6.428   1.621
10453SOL    HW232259   4.898   6.460   1.671
10454SOL     OW32260   5.060   1.694   0.473
10454SOL    HW132261   5.123   1.718   0.547
10454SOL    HW232262   4.979   1.752   0.479
10455SOL     OW32263   6.986   6.214   3.924
10455SOL    HW132264   6.905   6.187   3.871
10455SOL    HW232265   6.966   6.298   3.974
10456SOL     OW32266   0.762   5.253   0.723
10456SOL    HW132267   0.774   5.333   0.781
10456SOL    HW232268   0.727   5.281   0.634
10457SOL     OW32269   4.525   3.107   0.427
10457SOL    HW132270   4.427   3.085   0.429
10457SOL    HW232271   4.577   3.022   0.416
10458SOL     OW32272   6.173   0.335   6.783
10458SOL    HW132273   6.223   0.382   6.856
10458SOL    HW232274   6.170   0.237   6.804
10459SOL     OW32275   4.141   5.436   1.320
10459SOL    HW132276   4.127   5.391   1.232
10459SOL    HW232277   4.057   5.482   1.348
10460SOL     OW32278   1.548   3.930   1.855
10460SOL    HW132279   1.565   4.028   1.856
10460SOL    HW232280   1.545   3.896   1.761
10461SOL     OW32281   5.987   4.616   5.223
10461SOL    HW132282   6.070   4.586   5.176
10461SOL    HW232283   6.000   4.610   5.322
10462SOL     OW32284   6.011   2.400   3.278
10462SOL    HW132285   6.036   2.487   3.234
10462SOL    HW232286   5.923   2.369   3.243
10463SOL     OW32287   4.084   2.062   6.016
10463SOL    HW132288   4.035   2.033   6.099
10463SOL    HW232289   4.021   2.057   5.938
10464SOL     OW32290   5.696   6.493   2.271
10464SOL    HW132291   5.779   6.539   2.240
10464SOL    HW232292   5.619   6.557   2.266
10465SOL     OW32293   4.885   5.750   1.289
10465SOL    HW132294   4.846   5.753   1.381
10465SOL    HW232295   4.841   5.676   1.237
10466SOL     OW32296   4.909   4.940   5.433
10466SOL    HW132297   4.923   4.895   5.345
10466SOL    HW232298   4.994   4.935   5.486
10467SOL     OW32299   1.753   2.292   0.503
10467SOL    HW132300   1.745   2.314   0.600
10467SOL    HW232301   1.737   2.194   0.490
10468SOL     OW32302   3.952   5.025   3.457
10468SOL    HW132303   3.986   4.999   3.366
10468SOL    HW232304   3.937   5.124   3.459
10469SOL     OW32305   4.312   4.469   5.939
10469SOL    HW132306   4.330   4.372   5.923
10469SOL    HW232307   4.379   4.504   6.005
10470SOL     OW32308   2.113   1.950   3.606
10470SOL    HW132309   2.070   1.996   3.528
10470SOL    HW232310   2.195   1.901   3.575
10471SOL     OW32311   2.255   0.270   0.534
10471SOL    HW132312   2.300   0.353   0.500
10471SOL    HW232313   2.173   0.295   0.584
10472SOL     OW32314   3.431   5.870   0.279
10472SOL    HW132315   3.457   5.799   0.344
10472SOL    HW232316   3.341   5.849   0.241
10473SOL     OW32317   6.423   6.782   6.513
10473SOL    HW132318   6.415   6.713   6.585
10473SOL    HW232319   6.477   6.859   6.546
10474SOL     OW32320   4.125   0.772   4.223
10474SOL    HW132321   4.045   0.808   4.174
10474SOL    HW232322   4.094   0.725   4.306
10475SOL     OW32323   3.511   6.817   1.798
10475SOL    HW132324   3.563   6.885   1.849
10475SOL    HW232325   3.479   6.857   1.712
10476SOL     OW32326   5.771   6.721   6.042
10476SOL    HW132327   5.827   6.707   6.123
10476SOL    HW232328   5.741   6.816   6.037
10477SOL     OW32329   6.955   1.197   4.892
10477SOL    HW132330   7.001   1.262   4.831
10477SOL    HW232331   6.953   1.107   4.849
10478SOL     OW32332   6.792   6.775   0.084
10478SOL    HW132333   6.840   6.689   0.102
10478SOL    HW232334   6.828   6.847   0.143
10479SOL     OW32335   6.952   1.855   2.211
10479SOL    HW132336   7.004   1.783   2.166
10479SOL    HW232337   6.872   1.814   2.255
10480SOL     OW32338   0.783   0.921   2.403
10480SOL    HW132339   0.803   0.954   2.496
10480SOL    HW232340   0.716   0.981   2.360
10481SOL     OW32341   2.127   6.123   3.608
10481SOL    HW132342   2.208   6.157   3.656
10481SOL    HW232343   2.047   6.136   3.666
10482SOL     OW32344   6.230   5.168   4.351
10482SOL    HW132345   6.295   5.124   4.413
10482SOL    HW232346   6.279   5.219   4.281
10483SOL     OW32347   5.931   5.338   0.928
10483SOL    HW132348   5.915   5.289   1.014
10483SOL    HW232349   5.868   5.304   0.858
10484SOL     OW32350   5.719   1.611   1.773
10484SOL    HW132351   5.730   1.525   1.822
10484SOL    HW232352   5.799   1.669   1.788
10485SOL     OW32353   3.659   3.994   0.344
10485SOL    HW132354   3.662   4.044   0.430
10485SOL    HW232355   3.637   3.898   0.362
10486SOL     OW32356   0.203   0.372   0.862
10486SOL    HW132357   0.124   0.416   0.819
10486SOL    HW232358   0.225   0.418   0.948
10487SOL     OW32359   4.956   0.344   1.690
10487SOL    HW132360   4.915   0.347   1.599
10487SOL    HW232361   4.975   0.437   1.721
10488SOL     OW32362   3.487   1.563   5.966
10488SOL    HW132363   3.441   1.641   5.923
10488SOL    HW232364   3.572   1.543   5.917
10489SOL     OW32365   0.679   6.711   5.521
10489SOL    HW132366   0.614   6.758   5.580
10489SOL    HW232367   0.770   6.715   5.561
10490SOL     OW32368   6.005   1.891   0.783
10490SOL    HW132369   5.933   1.835   0.742
10490SOL    HW232370   6.052   1.839   0.854
10491SOL     OW32371   1.953   2.789   0.345
10491SOL    HW132372   1.988   2.791   0.251
10491SOL    HW232373   1.871   2.731   0.349
10492SOL     OW32374   5.858   4.332   5.832
10492SOL    HW132375   5.939   4.304   5.781
10492SOL    HW232376   5.815   4.409   5.786
10493SOL     OW32377   3.504   0.866   1.998
10493SOL    HW132378   3.594   0.833   1.968
10493SOL    HW232379   3.453   0.790   2.039
10494SOL     OW32380   5.373   4.201   5.971
10494SOL    HW132381   5.333   4.161   5.889
10494SOL    HW232382   5.473   4.203   5.962
10495SOL     OW32383   2.366   6.720   6.818
10495SOL    HW132384   2.364   6.819   6.827
10495SOL    HW232385   2.364   6.678   6.909
10496SOL     OW32386   0.279   4.171   6.810
10496SOL    HW132387   0.340   4.137   6.881
10496SOL    HW232388   0.301   4.126   6.723
10497SOL     OW32389   2.135   6.846   2.026
10497SOL    HW132390   2.165   6.940   2.043
10497SOL    HW232391   2.049   6.847   1.976
10498SOL     OW32392   3.365   5.810   1.393
10498SOL    HW132393   3.324   5.889   1.348
10498SOL    HW232394   3.333   5.726   1.348
10499SOL     OW32395   3.467   6.471   2.434
10499SOL    HW132396   3.437   6.388   2.388
10499SOL    HW232397   3.387   6.522   2.467
10500SOL     OW32398   6.994   2.038   6.243
10500SOL    HW132399   0.027   1.964   6.283
10500SOL    HW232400   7.003   2.120   6.300
10501SOL     OW32401   1.872   5.986   2.890
10501SOL    HW132402   1.853   5.936   2.805
10501SOL    HW232403   1.897   6.080   2.868
10502SOL     OW32404   2.501   0.473   1.277
10502SOL    HW132405   2.569   0.505   1.342
10502SOL    HW232406   2.545   0.449   1.190
10503SOL     OW32407   4.659   2.854   0.427
10503SOL    HW132408   4.700   2.837   0.516
10503SOL    HW232409   4.665   2.771   0.371
10504SOL     OW32410   1.507   1.741   6.482
10504SOL    HW132411   1.438   1.723   6.552
10504SOL    HW232412   1.582   1.675   6.492
10505SOL     OW32413   5.427   5.590   0.250
10505SOL    HW132414   5.390   5.541   0.171
10505SOL    HW232415   5.521   5.561   0.267
10506SOL     OW32416   0.090   5.007   0.214
10506SOL    HW132417   0.142   4.979   0.133
10506SOL    HW232418   0.095   5.107   0.223
10507SOL     OW32419   1.993   0.427   0.104
10507SOL    HW132420   1.969   0.463   0.194
10507SOL    HW232421   1.921   0.365   0.073
10508SOL     OW32422   6.266   6.972   4.832
10508SOL    HW132423   6.236   6.883   4.865
10508SOL    HW232424   6.360   6.964   4.797
10509SOL     OW32425   0.629   5.807   4.226
10509SOL    HW132426   0.686   5.805   4.309
10509SOL    HW232427   0.680   5.768   4.150
10510SOL     OW32428   4.481   6.109   6.000
10510SOL    HW132429   4.457   6.109   5.903
10510SOL    HW232430   4.575   6.141   6.012
10511SOL     OW32431   4.041   1.269   2.020
10511SOL    HW132432   4.093   1.193   1.983
10511SOL    HW232433   4.044   1.346   1.957
10512SOL     OW32434   4.114   0.471   5.744
10512SOL    HW132435   4.086   0.376   5.733
10512SOL    HW232436   4.085   0.503   5.834
10513SOL     OW32437   6.243   2.713   4.451
10513SOL    HW132438   6.271   2.787   4.389
10513SOL    HW232439   6.273   2.626   4.414
10514SOL     OW32440   7.019   4.123   0.619
10514SOL    HW132441   0.074   4.063   0.597
10514SOL    HW232442   6.968   4.084   0.696
10515SOL     OW32443   0.892   3.189   2.742
10515SOL    HW132444   0.933   3.169   2.831
10515SOL    HW232445   0.823   3.120   2.720
10516SOL     OW32446   3.950   1.327   0.478
10516SOL    HW132447   3.885   1.394   0.514
10516SOL    HW232448   3.916   1.290   0.392
10517SOL     OW32449   0.721   2.488   2.143
10517SOL    HW132450   0.689   2.507   2.050
10517SOL    HW232451   0.816   2.458   2.140
10518SOL     OW32452   0.793   5.172   6.663
10518SOL    HW132453   0.779   5.073   6.672
10518SOL    HW232454   0.840   5.191   6.577
10519SOL     OW32455   2.233   3.142   6.658
10519SOL    HW132456   2.310   3.201   6.682
10519SOL    HW232457   2.165   3.194   6.605
10520SOL     OW32458   0.935   2.725   6.620
10520SOL    HW132459   0.839   2.755   6.616
10520SOL    HW232460   0.989   2.780   6.556
10521SOL     OW32461   6.084   6.416   2.078
10521SOL    HW132462   6.178   6.447   2.092
10521SOL    HW232463   6.073   6.383   1.985
10522SOL     OW32464   6.799   0.598   6.007
10522SOL    HW132465   6.850   0.607   5.921
10522SOL    HW232466   6.863   0.579   6.082
10523SOL     OW32467   6.853   5.113   3.760
10523SOL    HW132468   6.822   5.170   3.684
10523SOL    HW232469   6.896   5.030   3.725
10524SOL     OW32470   1.562   0.612   4.525
10524SOL    HW132471   1.488   0.612   4.593
10524SOL    HW232472   1.534   0.666   4.446
10525SOL     OW32473   3.888   6.261   6.388
10525SOL    HW132474   3.881   6.225   6.295
10525SOL    HW232475   3.870   6.188   6.454
10526SOL     OW32476   1.156   6.708   3.765
10526SOL    HW132477   1.120   6.621   3.730
10526SOL    HW232478   1.136   6.781   3.700
10527SOL     OW32479   6.799   1.648   4.943
10527SOL    HW132480   6.769   1.695   4.860
10527SOL    HW232481   6.785   1.707   5.022
10528SOL     OW32482   2.026   3.565   6.181
10528SOL    HW132483   2.078   3.637   6.225
10528SOL    HW232484   2.072   3.477   6.195
10529SOL     OW32485   2.376   5.661   3.998
10529SOL    HW132486   2.343   5.715   3.921
10529SOL    HW232487   2.432   5.585   3.964
10530SOL     OW32488   2.259   0.112   6.454
10530SOL    HW132489   2.307   0.179   6.397
10530SOL    HW232490   2.291   0.020   6.431
10531SOL     OW32491   1.477   3.040   3.916
10531SOL    HW132492   1.545   3.022   3.986
10531SOL    HW232493   1.516   3.099   3.845
10532SOL     OW32494   1.247   5.085   5.531
10532SOL    HW132495   1.245   4.985   5.540
10532SOL    HW232496   1.222   5.111   5.438
10533SOL     OW32497   2.712   1.280   4.875
10533SOL    HW132498   2.654   1.247   4.949
10533SOL    HW232499   2.691   1.376   4.857
10534SOL     OW32500   6.267   5.973   1.248
10534SOL    HW132501   6.253   5.873   1.249
10534SOL    HW232502   6.287   6.005   1.341
10535SOL     OW32503   0.714   2.100   0.994
10535SOL    HW132504   0.678   2.007   0.994
10535SOL    HW232505   0.756   2.120   1.083
10536SOL     OW32506   3.665   0.600   2.989
10536SOL    HW132507   3.596   0.666   3.017
10536SOL    HW232508   3.727   0.641   2.922
10537SOL     OW32509   4.241   5.193   4.078
10537SOL    HW132510   4.201   5.224   3.992
10537SOL    HW232511   4.195   5.238   4.155
10538SOL     OW32512   4.846   1.892   0.416
10538SOL    HW132513   4.803   1.950   0.486
10538SOL    HW232514   4.789   1.893   0.334
10539SOL     OW32515   0.689   3.861   0.532
10539SOL    HW132516   0.747   3.812   0.467
10539SOL    HW232517   0.730   3.949   0.554
10540SOL     OW32518   1.798   2.785   5.041
10540SOL    HW132519   1.707   2.800   5.001
10540SOL    HW232520   1.860   2.858   5.011
10541SOL     OW32521   3.701   4.057   2.337
10541SOL    HW132522   3.629   4.046   2.406
10541SOL    HW232523   3.672   4.125   2.270
10542SOL     OW32524   6.744   0.411   5.476
10542SOL    HW132525   6.676   0.388   5.407
10542SOL    HW232526   6.835   0.409   5.435
10543SOL     OW32527   0.603   1.121   5.257
10543SOL    HW132528   0.699   1.099   5.273
10543SOL    HW232529   0.569   1.068   5.180
10544SOL     OW32530   2.200   6.669   1.806
10544SOL    HW132531   2.113   6.622   1.818
10544SOL    HW232532   2.213   6.735   1.880
10545SOL     OW32533   6.039   1.234   2.410
10545SOL    HW132534   6.080   1.225   2.319
10545SOL    HW232535   5.963   1.170   2.419
10546SOL     OW32536   1.975   0.988   0.065
10546SOL    HW132537   1.918   1.025   7.013
10546SOL    HW232538   1.985   0.889   0.052
10547SOL     OW32539   5.895   2.821   2.243
10547SOL    HW132540   5.865   2.867   2.159
10547SOL    HW232541   5.830   2.842   2.317
10548SOL     OW32542   5.507   4.657   4.456
10548SOL    HW132543   5.575   4.681   4.387
10548SOL    HW232544   5.438   4.597   4.415
10549SOL     OW32545   6.760   6.717   1.826
10549SOL    HW132546   6.815   6.776   1.885
10549SOL    HW232547   6.694   6.772   1.775
10550SOL     OW32548   4.385   5.699   3.700
10550SOL    HW132549   4.322   5.730   3.772
10550SOL    HW232550   4.457   5.768   3.687
10551SOL     OW32551   1.504   2.670   6.173
10551SOL    HW132552   1.532   2.703   6.082
10551SOL    HW232553   1.526   2.573   6.181
10552SOL     OW32554   3.183   1.491   6.527
10552SOL    HW132555   3.166   1.492   6.428
10552SOL    HW232556   3.185   1.585   6.561
10553SOL     OW32557   0.789   4.802   1.596
10553SOL    HW132558   0.752   4.845   1.513
10553SOL    HW232559   0.752   4.710   1.605
10554SOL     OW32560   5.726   5.097   0.074
10554SOL    HW132561   5.656   5.078   0.005
10554SOL    HW232562   5.813   5.116   0.029
10555SOL     OW32563   1.854   3.532   0.622
10555SOL    HW132564   1.904   3.477   0.689
10555SOL    HW232565   1.919   3.578   0.562
10556SOL     OW32566   2.245   2.201   5.451
10556SOL    HW132567   2.336   2.238   5.468
10556SOL    HW232568   2.238   2.109   5.489
10557SOL     OW32569   2.290   2.884   2.869
10557SOL    HW132570   2.290   2.831   2.784
10557SOL    HW232571   2.228   2.962   2.860
10558SOL     OW32572   3.627   1.336   3.746
10558SOL    HW132573   3.621   1.277   3.827
10558SOL    HW232574   3.677   1.419   3.769
10559SOL     OW32575   5.098   0.258   0.853
10559SOL    HW132576   5.189   0.233   0.820
10559SOL    HW232577   5.079   0.354   0.831
10560SOL     OW32578   3.565   5.973   3.242
10560SOL    HW132579   3.560   5.925   3.155
10560SOL    HW232580   3.576   6.071   3.225
10561SOL     OW32581   3.204   4.213   0.459
10561SOL    HW132582   3.298   4.245   0.452
10561SOL    HW232583   3.169   4.191   0.368
10562SOL     OW32584   4.709   5.392   0.353
10562SOL    HW132585   4.678   5.453   0.279
10562SOL    HW232586   4.809   5.385   0.350
10563SOL     OW32587   0.803   1.380   3.376
10563SOL    HW132588   0.808   1.374   3.476
10563SOL    HW232589   0.869   1.317   3.336
10564SOL     OW32590   5.557   6.511   1.428
10564SOL    HW132591   5.633   6.448   1.412
10564SOL    HW232592   5.593   6.603   1.443
10565SOL     OW32593   7.014   0.538   6.185
10565SOL    HW132594   0.023   0.453   6.145
10565SOL    HW232595   0.008   0.536   6.284
10566SOL     OW32596   3.887   2.562   0.129
10566SOL    HW132597   3.852   2.558   0.036
10566SOL    HW232598   3.972   2.614   0.132
10567SOL     OW32599   3.275   2.154   4.237
10567SOL    HW132600   3.274   2.166   4.138
10567SOL    HW232601   3.194   2.196   4.277
10568SOL     OW32602   6.231   2.261   1.542
10568SOL    HW132603   6.281   2.176   1.558
10568SOL    HW232604   6.198   2.296   1.630
10569SOL     OW32605   5.865   2.018   2.024
10569SOL    HW132606   5.772   2.045   1.998
10569SOL    HW232607   5.871   1.918   2.027
10570SOL     OW32608   1.726   5.169   3.293
10570SOL    HW132609   1.669   5.127   3.363
10570SOL    HW232610   1.815   5.122   3.289
10571SOL     OW32611   6.872   4.936   5.687
10571SOL    HW132612   6.870   4.995   5.768
10571SOL    HW232613   6.911   4.987   5.610
10572SOL     OW32614   6.907   3.734   3.496
10572SOL    HW132615   6.906   3.787   3.581
10572SOL    HW232616   6.918   3.797   3.419
10573SOL     OW32617   4.160   6.920   5.202
10573SOL    HW132618   4.244   6.912   5.148
10573SOL    HW232619   4.184   6.930   5.298
10574SOL     OW32620   1.055   0.993   3.816
10574SOL    HW132621   1.061   1.092   3.818
10574SOL    HW232622   0.982   0.965   3.754
10575SOL     OW32623   6.325   1.366   3.021
10575SOL    HW132624   6.305   1.462   3.004
10575SOL    HW232625   6.246   1.310   2.998
10576SOL     OW32626   6.960   6.362   5.171
10576SOL    HW132627   6.888   6.311   5.125
10576SOL    HW232628   6.919   6.428   5.234
10577SOL     OW32629   1.931   3.021   0.482
10577SOL    HW132630   1.945   3.011   0.581
10577SOL    HW232631   1.965   2.940   0.435
10578SOL     OW32632   5.485   0.981   2.912
10578SOL    HW132633   5.489   1.080   2.924
10578SOL    HW232634   5.570   0.949   2.871
10579SOL     OW32635   4.216   2.112   1.356
10579SOL    HW132636   4.226   2.136   1.453
10579SOL    HW232637   4.119   2.112   1.331
10580SOL     OW32638   6.660   0.435   0.011
10580SOL    HW132639   6.636   0.513   0.068
10580SOL    HW232640   6.700   0.468   6.947
10581SOL     OW32641   6.948   6.955   3.377
10581SOL    HW132642   6.954   6.856   3.366
10581SOL    HW232643   6.898   6.977   3.461
10582SOL     OW32644   5.398   5.068   6.513
10582SOL    HW132645   5.380   4.981   6.559
10582SOL    HW232646   5.463   5.122   6.567
10583SOL     OW32647   4.048   1.466   5.071
10583SOL    HW132648   4.032   1.417   4.986
10583SOL    HW232649   4.012   1.414   5.148
10584SOL     OW32650   6.927   6.567   1.163
10584SOL    HW132651   6.912   6.642   1.099
10584SOL    HW232652   6.943   6.603   1.255
10585SOL     OW32653   2.414   2.646   6.379
10585SOL    HW132654   2.344   2.687   6.321
10585SOL    HW232655   2.430   2.704   6.459
10586SOL     OW32656   6.772   4.942   5.015
10586SOL    HW132657   6.713   5.017   4.987
10586SOL    HW232658   6.833   4.918   4.939
10587SOL     OW32659   6.252   3.742   0.359
10587SOL    HW132660   6.217   3.683   0.287
10587SOL    HW232661   6.283   3.829   0.320
10588SOL     OW32662   0.779   2.923   3.698
10588SOL    HW132663   0.857   2.905   3.638
10588SOL    HW232664   0.745   3.015   3.682
10589SOL     OW32665   5.951   1.321   4.263
10589SOL    HW132666   5.923   1.295   4.171
10589SOL    HW232667   5.983   1.240   4.312
10590SOL     OW32668   1.138   0.348   1.865
10590SOL    HW132669   1.219   0.309   1.822
10590SOL    HW232670   1.097   0.280   1.926
10591SOL     OW32671   1.169   1.844   6.114
10591SOL    HW132672   1.261   1.817   6.144
10591SOL    HW232673   1.166   1.846   6.014
10592SOL     OW32674   5.722   3.822   1.557
10592SOL    HW132675   5.674   3.817   1.645
10592SOL    HW232676   5.714   3.914   1.520
10593SOL     OW32677   2.490   5.215   0.502
10593SOL    HW132678   2.512   5.162   0.420
10593SOL    HW232679   2.518   5.310   0.489
10594SOL     OW32680   5.007   0.011   2.374
10594SOL    HW132681   5.044   0.007   2.466
10594SOL    HW232682   4.939   0.085   2.369
10595SOL     OW32683   3.596   6.674   5.615
10595SOL    HW132684   3.634   6.721   5.536
10595SOL    HW232685   3.557   6.586   5.586
10596SOL     OW32686   4.415   0.177   6.841
10596SOL    HW132687   4.319   0.176   6.870
10596SOL    HW232688   4.468   0.231   6.907
10597SOL     OW32689   3.240   1.220   5.099
10597SOL    HW132690   3.188   1.305   5.087
10597SOL    HW232691   3.313   1.216   5.030
10598SOL     OW32692   3.067   2.539   0.793
10598SOL    HW132693   3.008   2.617   0.812
10598SOL    HW232694   3.161   2.569   0.786
10599SOL     OW32695   5.110   2.562   6.322
10599SOL    HW132696   5.162   2.491   6.275
10599SOL    HW232697   5.169   2.642   6.337
10600SOL     OW32698   2.078   2.340   0.600
10600SOL    HW132699   1.983   2.310   0.587
10600SOL    HW232700   2.097   2.418   0.540
10601SOL     OW32701   1.603   4.576   5.888
10601SOL    HW132702   1.701   4.558   5.893
10601SOL    HW232703   1.560   4.553   5.976
10602SOL     OW32704   3.829   1.636   3.013
10602SOL    HW132705   3.909   1.623   3.072
10602SOL    HW232706   3.800   1.547   2.977
10603SOL     OW32707   3.135   5.749   3.475
10603SOL    HW132708   3.075   5.677   3.508
10603SOL    HW232709   3.131   5.753   3.375
10604SOL     OW32710   5.884   4.760   5.589
10604SOL    HW132711   5.957   4.828   5.585
10604SOL    HW232712   5.918   4.672   5.554
10605SOL     OW32713   2.218   5.980   0.661
10605SOL    HW132714   2.209   5.891   0.706
10605SOL    HW232715   2.136   6.035   0.678
10606SOL     OW32716   6.773   0.830   2.384
10606SOL    HW132717   6.761   0.918   2.339
10606SOL    HW232718   6.862   0.829   2.431
10607SOL     OW32719   4.214   4.785   5.943
10607SOL    HW132720   4.179   4.694   5.965
10607SOL    HW232721   4.313   4.786   5.953
10608SOL     OW32722   5.214   2.208   5.808
10608SOL    HW132723   5.160   2.241   5.730
10608SOL    HW232724   5.264   2.125   5.781
10609SOL     OW32725   3.294   6.750   0.905
10609SOL    HW132726   3.312   6.839   0.947
10609SOL    HW232727   3.241   6.763   0.821
10610SOL     OW32728   1.341   2.764   5.719
10610SOL    HW132729   1.354   2.851   5.672
10610SOL    HW232730   1.350   2.689   5.654
10611SOL     OW32731   4.262   3.741   5.709
10611SOL    HW132732   4.180   3.684   5.717
10611SOL    HW232733   4.342   3.687   5.735
10612SOL     OW32734   2.742   0.728   5.389
10612SOL    HW132735   2.795   0.793   5.335
10612SOL    HW232736   2.678   0.679   5.329
10613SOL     OW32737   6.352   6.946   5.273
10613SOL    HW132738   6.397   6.885   5.208
10613SOL    HW232739   6.281   6.998   5.227
10614SOL     OW32740   6.421   1.919   4.326
10614SOL    HW132741   6.456   1.969   4.247
10614SOL    HW232742   6.378   1.834   4.295
10615SOL     OW32743   3.393   6.710   5.982
10615SOL    HW132744   3.314   6.770   5.994
10615SOL    HW232745   3.407   6.657   6.065
10616SOL     OW32746   2.873   6.286   0.796
10616SOL    HW132747   2.887   6.240   0.884
10616SOL    HW232748   2.775   6.307   0.785
10617SOL     OW32749   2.525   2.241   1.257
10617SOL    HW132750   2.608   2.265   1.307
10617SOL    HW232751   2.458   2.316   1.264
10618SOL     OW32752   6.852   3.705   6.431
10618SOL    HW132753   6.925   3.642   6.403
10618SOL    HW232754   6.826   3.686   6.526
10619SOL     OW32755   0.241   4.119   2.315
10619SOL    HW132756   0.299   4.038   2.327
10619SOL    HW232757   0.146   4.090   2.304
10620SOL     OW32758   1.469   5.279   5.492
10620SOL    HW132759   1.425   5.201   5.536
10620SOL    HW232760   1.568   5.269   5.498
10621SOL     OW32761   1.426   6.465   1.879
10621SOL    HW132762   1.401   6.510   1.793
10621SOL    HW232763   1.343   6.440   1.929
10622SOL     OW32764   4.978   1.341   1.222
10622SOL    HW132765   4.910   1.269   1.218
10622SOL    HW232766   5.025   1.348   1.134
10623SOL     OW32767   6.790   4.655   4.987
10623SOL    HW132768   6.844   4.710   5.051
10623SOL    HW232769   6.746   4.580   5.037
10624SOL     OW32770   0.580   2.202   4.694
10624SOL    HW132771   0.489   2.198   4.735
10624SOL    HW232772   0.573   2.235   4.600
10625SOL     OW32773   0.704   4.305   6.909
10625SOL    HW132774   0.621   4.312   6.964
10625SOL    HW232775   0.681   4.313   6.812
10626SOL     OW32776   2.473   3.363   0.947
10626SOL    HW132777   2.453   3.300   0.871
10626SOL    HW232778   2.401   3.357   1.015
10627SOL     OW32779   5.689   6.614   0.582
10627SOL    HW132780   5.652   6.566   0.502
10627SOL    HW232781   5.786   6.632   0.568
10628SOL     OW32782   4.571   5.548   0.178
10628SOL    HW132783   4.547   5.527   0.083
10628SOL    HW232784   4.626   5.631   0.181
10629SOL     OW32785   2.696   4.821   5.231
10629SOL    HW132786   2.737   4.742   5.187
10629SOL    HW232787   2.661   4.794   5.321
10630SOL     OW32788   6.766   1.450   3.773
10630SOL    HW132789   6.732   1.370   3.724
10630SOL    HW232790   6.799   1.422   3.863
10631SOL     OW32791   2.930   5.125   4.760
10631SOL    HW132792   3.026   5.143   4.736
10631SOL    HW232793   2.917   5.143   4.858
10632SOL     OW32794   6.119   1.895   3.953
10632SOL    HW132795   6.118   1.950   4.037
10632SOL    HW232796   6.184   1.934   3.889
10633SOL     OW32797   2.676   3.588   1.733
10633SOL    HW132798   2.772   3.576   1.758
10633SOL    HW232799   2.638   3.500   1.703
10634SOL     OW32800   3.132   5.911   0.821
10634SOL    HW132801   3.042   5.939   0.790
10634SOL    HW232802   3.124   5.832   0.882
10635SOL     OW32803   3.809   1.334   1.212
10635SOL    HW132804   3.713   1.336   1.237
10635SOL    HW232805   3.820   1.376   1.121
10636SOL     OW32806   0.987   1.435   1.607
10636SOL    HW132807   1.026   1.460   1.518
10636SOL    HW232808   1.049   1.373   1.655
10637SOL     OW32809   2.418   4.463   5.704
10637SOL    HW132810   2.413   4.381   5.647
10637SOL    HW232811   2.375   4.446   5.792
10638SOL     OW32812   0.010   5.266   2.688
10638SOL    HW132813   6.958   5.315   2.734
10638SOL    HW232814   0.066   5.218   2.757
10639SOL     OW32815   1.304   3.466   2.599
10639SOL    HW132816   1.330   3.561   2.579
10639SOL    HW232817   1.274   3.422   2.515
10640SOL     OW32818   3.453   0.254   5.762
10640SOL    HW132819   3.404   0.256   5.849
10640SOL    HW232820   3.424   0.173   5.710
10641SOL     OW32821   3.944   2.148   0.383
10641SOL    HW132822   3.869   2.083   0.371
10641SOL    HW232823   3.939   2.217   0.310
10642SOL     OW32824   7.011   3.050   1.883
10642SOL    HW132825   6.934   3.100   1.845
10642SOL    HW232826   0.031   3.103   1.957
10643SOL     OW32827   2.162   5.303   5.145
10643SOL    HW132828   2.207   5.213   5.139
10643SOL    HW232829   2.107   5.307   5.228
10644SOL     OW32830   5.351   2.496   3.284
10644SOL    HW132831   5.344   2.594   3.266
10644SOL    HW232832   5.274   2.448   3.242
10645SOL     OW32833   1.132   1.474   5.043
10645SOL    HW132834   1.126   1.543   4.971
10645SOL    HW232835   1.094   1.511   5.128
10646SOL     OW32836   7.009   1.013   6.350
10646SOL    HW132837   6.988   0.939   6.286
10646SOL    HW232838   0.006   1.097   6.298
10647SOL     OW32839   3.230   5.423   6.590
10647SOL    HW132840   3.276   5.390   6.673
10647SOL    HW232841   3.239   5.355   6.517
10648SOL     OW32842   5.362   4.173   6.263
10648SOL    HW132843   5.294   4.236   6.300
10648SOL    HW232844   5.354   4.170   6.163
10649SOL     OW32845   0.550   4.186   3.668
10649SOL    HW132846   0.632   4.146   3.628
10649SOL    HW232847   0.573   4.269   3.717
10650SOL     OW32848   1.200   5.927   3.484
10650SOL    HW132849   1.137   5.850   3.476
10650SOL    HW232850   1.165   5.991   3.553
10651SOL     OW32851   4.266   6.938   5.901
10651SOL    HW132852   4.304   6.923   5.992
10651SOL    HW232853   4.322   7.004   5.852
10652SOL     OW32854   3.632   6.693   6.246
10652SOL    HW132855   3.729   6.672   6.260
10652SOL    HW232856   3.624   6.775   6.190
10653SOL     OW32857   5.321   3.574   3.960
10653SOL    HW132858   5.252   3.645   3.946
10653SOL    HW232859   5.411   3.616   3.965
10654SOL     OW32860   4.416   1.428   0.544
10654SOL    HW132861   4.486   1.498   0.556
10654SOL    HW232862   4.455   1.338   0.563
10655SOL     OW32863   2.944   5.714   0.964
10655SOL    HW132864   2.940   5.790   1.029
10655SOL    HW232865   2.853   5.674   0.954
10656SOL     OW32866   6.748   2.431   1.639
10656SOL    HW132867   6.653   2.404   1.655
10656SOL    HW232868   6.762   2.449   1.542
10657SOL     OW32869   6.424   0.454   6.356
10657SOL    HW132870   6.371   0.532   6.392
10657SOL    HW232871   6.458   0.476   6.265
10658SOL     OW32872   6.225   3.942   5.130
10658SOL    HW132873   6.245   3.891   5.046
10658SOL    HW232874   6.291   4.017   5.139
10659SOL     OW32875   6.922   6.254   0.747
10659SOL    HW132876   6.929   6.291   0.654
10659SOL    HW232877   6.892   6.159   0.742
10660SOL     OW32878   5.468   3.668   7.014
10660SOL    HW132879   5.535   3.711   6.953
10660SOL    HW232880   5.414   3.739   0.038
10661SOL     OW32881   6.844   6.473   2.893
10661SOL    HW132882   6.944   6.463   2.890
10661SOL    HW232883   6.813   6.474   2.988
10662SOL     OW32884   5.509   0.709   2.652
10662SOL    HW132885   5.413   0.727   2.632
10662SOL    HW232886   5.537   0.623   2.609
10663SOL     OW32887   0.594   0.323   1.793
10663SOL    HW132888   0.543   0.409   1.805
10663SOL    HW232889   0.615   0.310   1.696
10664SOL     OW32890   1.148   5.103   4.488
10664SOL    HW132891   1.147   5.012   4.447
10664SOL    HW232892   1.102   5.168   4.427
10665SOL     OW32893   0.295   1.006   0.696
10665SOL    HW132894   0.214   1.053   0.661
10665SOL    HW232895   0.276   0.908   0.701
10666SOL     OW32896   3.114   4.103   0.215
10666SOL    HW132897   3.033   4.085   0.159
10666SOL    HW232898   3.195   4.066   0.170
10667SOL     OW32899   4.246   3.274   5.428
10667SOL    HW132900   4.336   3.229   5.426
10667SOL    HW232901   4.182   3.220   5.373
10668SOL     OW32902   1.662   1.829   5.494
10668SOL    HW132903   1.669   1.889   5.415
10668SOL    HW232904   1.602   1.870   5.562
10669SOL     OW32905   6.117   6.618   1.091
10669SOL    HW132906   6.037   6.636   1.148
10669SOL    HW232907   6.185   6.690   1.104
10670SOL     OW32908   4.825   3.972   4.755
10670SOL    HW132909   4.778   4.060   4.751
10670SOL    HW232910   4.811   3.923   4.669
10671SOL     OW32911   2.498   1.843   2.726
10671SOL    HW132912   2.483   1.942   2.726
10671SOL    HW232913   2.411   1.797   2.713
10672SOL     OW32914   6.591   2.278   0.766
10672SOL    HW132915   6.659   2.351   0.763
10672SOL    HW232916   6.503   2.313   0.734
10673SOL     OW32917   1.096   1.175   0.093
10673SOL    HW132918   1.120   1.237   0.019
10673SOL    HW232919   1.115   1.218   0.181
10674SOL     OW32920   3.021   4.752   1.191
10674SOL    HW132921   3.076   4.672   1.213
10674SOL    HW232922   3.008   4.757   1.092
10675SOL     OW32923   1.970   6.962   5.872
10675SOL    HW132924   1.947   6.867   5.849
10675SOL    HW232925   1.926   0.001   5.806
10676SOL     OW32926   6.460   6.330   6.233
10676SOL    HW132927   6.410   6.272   6.168
10676SOL    HW232928   6.554   6.340   6.202
10677SOL     OW32929   0.954   0.562   2.099
10677SOL    HW132930   0.896   0.493   2.056
10677SOL    HW232931   0.904   0.648   2.106
10678SOL     OW32932   3.431   5.636   1.917
10678SOL    HW132933   3.386   5.561   1.868
10678SOL    HW232934   3.495   5.598   1.984
10679SOL     OW32935   5.337   4.486   5.966
10679SOL    HW132936   5.353   4.389   5.948
10679SOL    HW232937   5.371   4.540   5.889
10680SOL     OW32938   2.608   1.581   3.650
10680SOL    HW132939   2.620   1.604   3.554
10680SOL    HW232940   2.682   1.621   3.704
10681SOL     OW32941   0.099   3.971   6.910
10681SOL    HW132942   0.181   4.025   6.890
10681SOL    HW232943   0.022   4.007   6.858
10682SOL     OW32944   2.010   2.152   3.382
10682SOL    HW132945   1.989   2.233   3.328
10682SOL    HW232946   2.098   2.114   3.353
10683SOL     OW32947   3.539   2.142   3.857
10683SOL    HW132948   3.617   2.183   3.810
10683SOL    HW232949   3.569   2.064   3.911
10684SOL     OW32950   4.809   3.629   0.919
10684SOL    HW132951   4.776   3.722   0.936
10684SOL    HW232952   4.814   3.613   0.820
10685SOL     OW32953   6.522   4.164   2.421
10685SOL    HW132954   6.566   4.117   2.497
10685SOL    HW232955   6.426   4.181   2.442
10686SOL     OW32956   2.916   4.985   6.608
10686SOL    HW132957   2.922   4.906   6.669
10686SOL    HW232958   2.994   4.985   6.545
10687SOL     OW32959   6.961   5.130   2.011
10687SOL    HW132960   6.911   5.199   2.063
10687SOL    HW232961   0.033   5.160   1.997
10688SOL     OW32962   0.100   4.604   2.748
10688SOL    HW132963   0.022   4.665   2.745
10688SOL    HW232964   0.184   4.657   2.759
10689SOL     OW32965   0.413   0.232   4.137
10689SOL    HW132966   0.445   0.320   4.172
10689SOL    HW232967   0.485   0.191   4.081
10690SOL     OW32968   6.405   5.247   3.656
10690SOL    HW132969   6.337   5.291   3.597
10690SOL    HW232970   6.369   5.160   3.691
10691SOL     OW32971   0.186   1.224   2.512
10691SOL    HW132972   0.278   1.199   2.544
10691SOL    HW232973   0.128   1.243   2.590
10692SOL     OW32974   3.428   4.892   2.512
10692SOL    HW132975   3.519   4.874   2.548
10692SOL    HW232976   3.434   4.953   2.434
10693SOL     OW32977   1.869   0.181   1.570
10693SOL    HW132978   1.927   0.174   1.489
10693SOL    HW232979   1.918   0.229   1.643
10694SOL     OW32980   4.140   6.193   1.581
10694SOL    HW132981   4.158   6.098   1.608
10694SOL    HW232982   4.141   6.199   1.481
10695SOL     OW32983   6.016   2.220   2.585
10695SOL    HW132984   5.952   2.219   2.661
10695SOL    HW232985   6.005   2.305   2.533
10696SOL     OW32986   6.810   4.316   2.679
10696SOL    HW132987   6.853   4.315   2.589
10696SOL    HW232988   6.843   4.238   2.733
10697SOL     OW32989   0.105   6.324   4.761
10697SOL    HW132990   0.064   6.235   4.783
10697SOL    HW232991   0.067   6.394   4.821
10698SOL     OW32992   3.963   6.329   3.699
10698SOL    HW132993   3.961   6.231   3.721
10698SOL    HW232994   3.963   6.340   3.600
10699SOL     OW32995   4.540   1.972   2.490
10699SOL    HW132996   4.523   1.886   2.443
10699SOL    HW232997   4.454   2.011   2.521
10700SOL     OW32998   0.966   0.061   0.112
10700SOL    HW132999   0.896   0.131   0.129
10700SOL    HW233000   1.044   0.077   0.171
10701SOL     OW33001   3.759   6.165   0.047
10701SOL    HW133002   3.780   6.072   0.076
10701SOL    HW233003   3.841   6.209   0.012
10702SOL     OW33004   6.719   2.649   2.886
10702SOL    HW133005   6.789   2.592   2.843
10702SOL    HW233006   6.655   2.590   2.937
10703SOL     OW33007   3.897   3.314   4.068
10703SOL    HW133008   3.807   3.354   4.087
10703SOL    HW233009   3.886   3.220   4.036
10704SOL     OW33010   5.845   5.715   1.493
10704SOL    HW133011   5.916   5.711   1.564
10704SOL    HW233012   5.862   5.794   1.434
10705SOL     OW33013   7.010   4.269   1.552
10705SOL    HW133014   0.012   4.181   1.592
10705SOL    HW233015   6.923   4.262   1.504
10706SOL     OW33016   4.853   6.599   1.867
10706SOL    HW133017   4.792   6.545   1.925
10706SOL    HW233018   4.911   6.657   1.923
10707SOL     OW33019   0.468   0.233   5.037
10707SOL    HW133020   0.515   0.171   5.101
10707SOL    HW233021   0.435   0.181   4.959
10708SOL     OW33022   4.660   0.842   2.588
10708SOL    HW133023   4.642   0.935   2.619
10708SOL    HW233024   4.719   0.795   2.655
10709SOL     OW33025   6.717   1.363   4.963
10709SOL    HW133026   6.713   1.462   4.981
10709SOL    HW233027   6.812   1.332   4.967
10710SOL     OW33028   0.898   6.525   4.712
10710SOL    HW133029   0.972   6.497   4.651
10710SOL    HW233030   0.810   6.505   4.669
10711SOL     OW33031   2.019   6.660   3.676
10711SOL    HW133032   1.985   6.587   3.617
10711SOL    HW233033   1.952   6.735   3.680
10712SOL     OW33034   3.634   0.284   2.373
10712SOL    HW133035   3.648   0.382   2.382
10712SOL    HW233036   3.561   0.254   2.435
10713SOL     OW33037   1.581   4.251   2.336
10713SOL    HW133038   1.511   4.181   2.330
10713SOL    HW233039   1.547   4.328   2.391
10714SOL     OW33040   6.443   2.414   5.145
10714SOL    HW133041   6.417   2.404   5.241
10714SOL    HW233042   6.524   2.471   5.138
10715SOL     OW33043   4.285   0.774   2.997
10715SOL    HW133044   4.203   0.719   3.013
10715SOL    HW233045   4.345   0.726   2.933
10716SOL     OW33046   0.252   2.883   3.336
10716SOL    HW133047   0.327   2.921   3.389
10716SOL    HW233048   0.218   2.800   3.380
10717SOL     OW33049   0.878   2.167   0.793
10717SOL    HW133050   0.836   2.147   0.881
10717SOL    HW233051   0.873   2.265   0.775
10718SOL     OW33052   6.620   4.235   7.018
10718SOL    HW133053   6.606   4.332   6.997
10718SOL    HW233054   6.669   4.227   0.083
10719SOL     OW33055   4.330   5.732   1.471
10719SOL    HW133056   4.389   5.672   1.418
10719SOL    HW233057   4.268   5.781   1.409
10720SOL     OW33058   0.236   4.200   6.166
10720SOL    HW133059   0.181   4.234   6.242
10720SOL    HW233060   0.313   4.147   6.201
10721SOL     OW33061   6.573   2.383   4.597
10721SOL    HW133062   6.660   2.337   4.616
10721SOL    HW233063   6.580   2.480   4.622
10722SOL     OW33064   6.760   3.420   0.620
10722SOL    HW133065   6.707   3.383   0.544
10722SOL    HW233066   6.739   3.518   0.630
10723SOL     OW33067   6.157   3.832   0.051
10723SOL    HW133068   6.231   3.876   0.000
10723SOL    HW233069   6.085   3.899   0.069
10724SOL     OW33070   3.533   0.297   6.268
10724SOL    HW133071   3.517   0.205   6.233
10724SOL    HW233072   3.613   0.297   6.328
10725SOL     OW33073   6.762   4.962   4.130
10725SOL    HW133074   6.717   4.887   4.179
10725SOL    HW233075   6.735   4.959   4.034
10726SOL     OW33076   5.806   6.664   5.282
10726SOL    HW133077   5.792   6.572   5.320
10726SOL    HW233078   5.724   6.693   5.233
10727SOL     OW33079   1.756   5.197   4.624
10727SOL    HW133080   1.697   5.252   4.684
10727SOL    HW233081   1.798   5.257   4.556
10728SOL     OW33082   5.915   6.630   2.156
10728SOL    HW133083   5.967   6.695   2.212
10728SOL    HW233084   5.977   6.564   2.115
10729SOL     OW33085   6.297   1.532   2.747
10729SOL    HW133086   6.309   1.608   2.683
10729SOL    HW233087   6.363   1.461   2.727
10730SOL     OW33088   2.885   6.581   1.068
10730SOL    HW133089   2.825   6.501   1.074
10730SOL    HW233090   2.962   6.561   1.008
10731SOL     OW33091   2.210   5.464   0.177
10731SOL    HW133092   2.192   5.520   0.097
10731SOL    HW233093   2.273   5.512   0.239
10732SOL     OW33094   6.123   0.422   2.912
10732SOL    HW133095   6.135   0.496   2.846
10732SOL    HW233096   6.090   0.460   2.999
10733SOL     OW33097   5.699   2.432   0.159
10733SOL    HW133098   5.762   2.504   0.186
10733SOL    HW233099   5.749   2.359   0.113
10734SOL     OW33100   1.322   0.692   6.798
10734SOL    HW133101   1.284   0.653   6.714
10734SOL    HW233102   1.275   0.653   6.877
10735SOL     OW33103   1.437   4.697   2.299
10735SOL    HW133104   1.393   4.700   2.209
10735SOL    HW233105   1.496   4.617   2.306
10736SOL     OW33106   0.982   0.934   3.180
10736SOL    HW133107   0.984   0.836   3.199
10736SOL    HW233108   1.067   0.976   3.214
10737SOL     OW33109   0.565   2.631   0.689
10737SOL    HW133110   0.490   2.587   0.739
10737SOL    HW233111   0.540   2.638   0.592
10738SOL     OW33112   2.424   6.998   2.444
10738SOL    HW133113   2.519   6.969   2.450
10738SOL    HW233114   2.364   6.918   2.449
10739SOL     OW33115   6.757   1.268   2.773
10739SOL    HW133116   6.822   1.328   2.725
10739SOL    HW233117   6.755   1.292   2.870
10740SOL     OW33118   1.321   5.480   5.813
10740SOL    HW133119   1.411   5.512   5.842
10740SOL    HW233120   1.315   5.482   5.713
10741SOL     OW33121   1.317   1.264   3.432
10741SOL    HW133122   1.393   1.240   3.373
10741SOL    HW233123   1.328   1.220   3.521
10742SOL     OW33124   5.821   6.906   2.070
10742SOL    HW133125   5.910   6.945   2.095
10742SOL    HW233126   5.818   6.811   2.099
10743SOL     OW33127   2.380   2.757   3.586
10743SOL    HW133128   2.417   2.776   3.495
10743SOL    HW233129   2.422   2.673   3.622
10744SOL     OW33130   2.906   1.735   2.417
10744SOL    HW133131   2.863   1.822   2.440
10744SOL    HW233132   2.850   1.685   2.352
10745SOL     OW33133   1.854   4.807   6.622
10745SOL    HW133134   1.924   4.862   6.667
10745SOL    HW233135   1.886   4.712   6.616
10746SOL     OW33136   1.726   5.740   1.380
10746SOL    HW133137   1.707   5.665   1.316
10746SOL    HW233138   1.711   5.828   1.335
10747SOL     OW33139   5.293   1.590   3.559
10747SOL    HW133140   5.265   1.608   3.465
10747SOL    HW233141   5.213   1.576   3.616
10748SOL     OW33142   5.942   5.927   1.135
10748SOL    HW133143   5.857   5.888   1.100
10748SOL    HW233144   6.017   5.863   1.119
10749SOL     OW33145   0.337   5.043   3.026
10749SOL    HW133146   0.364   4.947   3.022
10749SOL    HW233147   0.238   5.050   3.020
10750SOL     OW33148   4.609   4.490   4.585
10750SOL    HW133149   4.513   4.485   4.555
10750SOL    HW233150   4.613   4.476   4.684
10751SOL     OW33151   0.752   3.313   5.410
10751SOL    HW133152   0.780   3.237   5.468
10751SOL    HW233153   0.790   3.398   5.447
10752SOL     OW33154   6.141   3.743   6.339
10752SOL    HW133155   6.100   3.662   6.298
10752SOL    HW233156   6.076   3.819   6.335
10753SOL     OW33157   6.363   7.002   4.154
10753SOL    HW133158   6.434   6.937   4.126
10753SOL    HW233159   6.402   0.072   4.158
10754SOL     OW33160   1.948   2.394   2.651
10754SOL    HW133161   1.868   2.334   2.651
10754SOL    HW233162   1.983   2.403   2.557
10755SOL     OW33163   6.951   1.649   0.745
10755SOL    HW133164   6.988   1.574   0.800
10755SOL    HW233165   6.962   1.735   0.795
10756SOL     OW33166   6.181   3.349   1.146
10756SOL    HW133167   6.091   3.331   1.107
10756SOL    HW233168   6.226   3.421   1.093
10757SOL     OW33169   0.120   3.398   0.279
10757SOL    HW133170   0.156   3.306   0.294
10757SOL    HW233171   0.037   3.411   0.334
10758SOL     OW33172   0.526   6.054   5.316
10758SOL    HW133173   0.535   5.962   5.356
10758SOL    HW233174   0.609   6.106   5.335
10759SOL     OW33175   2.092   2.966   0.004
10759SOL    HW133176   2.167   2.947   6.962
10759SOL    HW233177   2.033   2.886   0.010
10760SOL     OW33178   0.285   6.609   0.703
10760SOL    HW133179   0.376   6.571   0.716
10760SOL    HW233180   0.223   6.573   0.773
10761SOL     OW33181   0.876   2.418   6.011
10761SOL    HW133182   0.931   2.484   6.062
10761SOL    HW233183   0.936   2.360   5.956
10762SOL     OW33184   4.644   0.806   4.956
10762SOL    HW133185   4.725   0.763   4.917
10762SOL    HW233186   4.609   0.749   5.030
10763SOL     OW33187   4.332   6.822   1.244
10763SOL    HW133188   4.396   6.783   1.310
10763SOL    HW233189   4.379   6.837   1.157
10764SOL     OW33190   5.216   1.600   6.262
10764SOL    HW133191   5.162   1.663   6.319
10764SOL    HW233192   5.291   1.651   6.219
10765SOL     OW33193   5.442   1.627   1.576
10765SOL    HW133194   5.419   1.705   1.517
10765SOL    HW233195   5.381   1.626   1.655
10766SOL     OW33196   2.915   3.594   0.426
10766SOL    HW133197   2.911   3.690   0.397
10766SOL    HW233198   2.991   3.582   0.490
10767SOL     OW33199   1.548   0.183   0.689
10767SOL    HW133200   1.454   0.151   0.671
10767SOL    HW233201   1.612   0.107   0.676
10768SOL     OW33202   5.268   5.691   0.445
10768SOL    HW133203   5.290   5.663   0.539
10768SOL    HW233204   5.336   5.653   0.383
10769SOL     OW33205   2.925   5.177   5.378
10769SOL    HW133206   2.940   5.115   5.301
10769SOL    HW233207   3.003   5.238   5.388
10770SOL     OW33208   5.483   0.387   4.916
10770SOL    HW133209   5.476   0.484   4.893
10770SOL    HW233210   5.503   0.376   5.013
10771SOL     OW33211   4.268   0.258   5.269
10771SOL    HW133212   4.334   0.200   5.318
10771SOL    HW233213   4.310   0.292   5.185
10772SOL     OW33214   6.778   0.259   3.545
10772SOL    HW133215   6.762   0.310   3.460
10772SOL    HW233216   6.718   0.294   3.617
10773SOL     OW33217   6.741   4.652   7.006
10773SOL    HW133218   6.828   4.702   6.998
10773SOL    HW233219   6.684   4.695   0.055
10774SOL     OW33220   1.146   2.411   0.606
10774SOL    HW133221   1.100   2.499   0.617
10774SOL    HW233222   1.242   2.427   0.583
10775SOL     OW33223   2.342   4.687   0.769
10775SOL    HW133224   2.423   4.646   0.809
10775SOL    HW233225   2.262   4.630   0.789
10776SOL     OW33226   0.598   6.623   1.121
10776SOL    HW133227   0.527   6.638   1.190
10776SOL    HW233228   0.615   6.708   1.071
10777SOL     OW33229   4.174   0.252   3.161
10777SOL    HW133230   4.269   0.238   3.135
10777SOL    HW233231   4.114   0.214   3.090
10778SOL     OW33232   6.350   6.876   4.443
10778SOL    HW133233   6.256   6.910   4.431
10778SOL    HW233234   6.380   6.830   4.360
10779SOL     OW33235   0.340   4.753   2.794
10779SOL    HW133236   0.397   4.721   2.718
10779SOL    HW233237   0.396   4.763   2.876
10780SOL     OW33238   0.555   6.253   3.056
10780SOL    HW133239   0.623   6.233   2.985
10780SOL    HW233240   0.593   6.226   3.145
10781SOL     OW33241   4.591   1.795   4.153
10781SOL    HW133242   4.508   1.788   4.208
10781SOL    HW233243   4.656   1.856   4.197
10782SOL     OW33244   6.571   2.710   3.627
10782SOL    HW133245   6.577   2.706   3.527
10782SOL    HW233246   6.660   2.737   3.665
10783SOL     OW33247   1.912   3.185   2.532
10783SOL    HW133248   1.831   3.135   2.564
10783SOL    HW233249   1.970   3.122   2.480
10784SOL     OW33250   2.551   0.154   1.119
10784SOL    HW133251   2.517   0.078   1.175
10784SOL    HW233252   2.626   0.122   1.062
10785SOL     OW33253   1.887   5.334   1.352
10785SOL    HW133254   1.931   5.261   1.298
10785SOL    HW233255   1.948   5.362   1.426
10786SOL     OW33256   5.354   3.222   1.794
10786SOL    HW133257   5.348   3.147   1.860
10786SOL    HW233258   5.401   3.191   1.712
10787SOL     OW33259   3.762   1.354   4.612
10787SOL    HW133260   3.803   1.445   4.623
10787SOL    HW233261   3.729   1.345   4.518
10788SOL     OW33262   2.201   4.391   0.151
10788SOL    HW133263   2.164   4.372   0.242
10788SOL    HW233264   2.261   4.471   0.156
10789SOL     OW33265   5.230   1.310   0.671
10789SOL    HW133266   5.202   1.396   0.714
10789SOL    HW233267   5.317   1.280   0.710
10790SOL     OW33268   0.629   0.849   5.615
10790SOL    HW133269   0.666   0.909   5.686
10790SOL    HW233270   0.533   0.870   5.600
10791SOL     OW33271   1.558   1.828   1.536
10791SOL    HW133272   1.649   1.857   1.567
10791SOL    HW233273   1.565   1.739   1.492
10792SOL     OW33274   3.190   3.253   1.667
10792SOL    HW133275   3.197   3.265   1.766
10792SOL    HW233276   3.186   3.155   1.646
10793SOL     OW33277   5.412   2.410   3.956
10793SOL    HW133278   5.317   2.403   3.986
10793SOL    HW233279   5.467   2.452   4.028
10794SOL     OW33280   3.596   4.202   2.100
10794SOL    HW133281   3.587   4.301   2.111
10794SOL    HW233282   3.537   4.172   2.026
10795SOL     OW33283   6.237   4.290   3.040
10795SOL    HW133284   6.206   4.380   3.072
10795SOL    HW233285   6.160   4.227   3.039
10796SOL     OW33286   3.518   0.012   6.477
10796SOL    HW133287   3.563   6.975   6.544
10796SOL    HW233288   3.581   0.034   6.403
10797SOL     OW33289   4.180   2.613   0.777
10797SOL    HW133290   4.114   2.688   0.783
10797SOL    HW233291   4.192   2.572   0.868
10798SOL     OW33292   2.033   0.053   0.728
10798SOL    HW133293   2.028   0.153   0.724
10798SOL    HW233294   2.037   0.017   0.635
10799SOL     OW33295   3.862   1.878   1.956
10799SOL    HW133296   3.805   1.797   1.968
10799SOL    HW233297   3.821   1.939   1.888
10800SOL     OW33298   1.818   6.159   0.224
10800SOL    HW133299   1.905   6.200   0.197
10800SOL    HW233300   1.824   6.126   0.318
10801SOL     OW33301   1.076   0.649   4.139
10801SOL    HW133302   1.082   0.748   4.123
10801SOL    HW233303   1.076   0.601   4.051
10802SOL     OW33304   2.306   2.923   4.768
10802SOL    HW133305   2.346   2.950   4.855
10802SOL    HW233306   2.291   3.004   4.711
10803SOL     OW33307   5.100   4.402   4.731
10803SOL    HW133308   5.014   4.360   4.704
10803SOL    HW233309   5.129   4.367   4.820
10804SOL     OW33310   0.205   4.366   1.200
10804SOL    HW133311   0.162   4.325   1.120
10804SOL    HW233312   0.305   4.365   1.188
10805SOL     OW33313   3.705   0.492   6.451
10805SOL    HW133314   3.640   0.560   6.416
10805SOL    HW233315   3.684   0.471   6.546
10806SOL     OW33316   5.581   4.058   0.309
10806SOL    HW133317   5.560   3.962   0.330
10806SOL    HW233318   5.662   4.087   0.360
10807SOL     OW33319   3.859   6.759   3.349
10807SOL    HW133320   3.954   6.728   3.344
10807SOL    HW233321   3.820   6.731   3.436
10808SOL     OW33322   6.756   3.901   0.192
10808SOL    HW133323   6.819   3.978   0.199
10808SOL    HW233324   6.757   3.849   0.277
10809SOL     OW33325   2.985   0.574   3.881
10809SOL    HW133326   3.067   0.529   3.918
10809SOL    HW233327   2.992   0.672   3.896
10810SOL     OW33328   1.373   1.463   6.039
10810SOL    HW133329   1.398   1.546   5.989
10810SOL    HW233330   1.441   1.445   6.110
10811SOL     OW33331   3.605   5.194   4.961
10811SOL    HW133332   3.576   5.226   4.870
10811SOL    HW233333   3.526   5.157   5.009
10812SOL     OW33334   0.584   3.429   1.933
10812SOL    HW133335   0.544   3.499   1.992
10812SOL    HW233336   0.520   3.406   1.860
10813SOL     OW33337   3.037   6.219   7.016
10813SOL    HW133338   2.938   6.230   7.020
10813SOL    HW233339   3.059   6.129   6.977
10814SOL     OW33340   0.855   0.577   5.360
10814SOL    HW133341   0.804   0.491   5.346
10814SOL    HW233342   0.867   0.623   5.272
10815SOL     OW33343   4.800   5.265   3.622
10815SOL    HW133344   4.828   5.321   3.544
10815SOL    HW233345   4.738   5.193   3.591
10816SOL     OW33346   1.802   1.430   2.286
10816SOL    HW133347   1.781   1.341   2.326
10816SOL    HW233348   1.839   1.418   2.194
10817SOL     OW33349   5.813   6.787   2.951
10817SOL    HW133350   5.840   6.691   2.964
10817SOL    HW233351   5.815   6.809   2.854
10818SOL     OW33352   5.675   2.550   5.491
10818SOL    HW133353   5.678   2.450   5.500
10818SOL    HW233354   5.726   2.591   5.567
10819SOL     OW33355   0.880   4.135   0.024
10819SOL    HW133356   0.808   4.180   6.992
10819SOL    HW233357   0.909   4.196   0.098
10820SOL     OW33358   6.730   6.952   4.204
10820SOL    HW133359   6.773   6.902   4.129
10820SOL    HW233360   6.797   7.016   4.243
10821SOL     OW33361   5.600   6.621   2.673
10821SOL    HW133362   5.677   6.616   2.609
10821SOL    HW233363   5.571   6.716   2.683
10822SOL     OW33364   1.500   2.442   3.029
10822SOL    HW133365   1.459   2.533   3.030
10822SOL    HW233366   1.477   2.393   3.114
10823SOL     OW33367   1.677   5.500   1.262
10823SOL    HW133368   1.588   5.476   1.301
10823SOL    HW233369   1.744   5.428   1.284
10824SOL     OW33370   4.837   6.748   3.704
10824SOL    HW133371   4.745   6.771   3.734
10824SOL    HW233372   4.838   6.655   3.668
10825SOL     OW33373   2.712   0.875   0.998
10825SOL    HW133374   2.619   0.852   0.969
10825SOL    HW233375   2.778   0.815   0.951
10826SOL     OW33376   6.781   3.406   3.102
10826SOL    HW133377   6.849   3.391   3.174
10826SOL    HW233378   6.772   3.323   3.047
10827SOL     OW33379   6.145   3.854   4.302
10827SOL    HW133380   6.106   3.893   4.219
10827SOL    HW233381   6.139   3.754   4.297
10828SOL     OW33382   1.241   5.527   2.493
10828SOL    HW133383   1.302   5.455   2.462
10828SOL    HW233384   1.267   5.614   2.450
10829SOL     OW33385   3.027   3.415   0.803
10829SOL    HW133386   3.034   3.318   0.827
10829SOL    HW233387   3.050   3.470   0.883
10830SOL     OW33388   5.116   2.064   3.362
10830SOL    HW133389   5.060   2.144   3.385
10830SOL    HW233390   5.211   2.080   3.392
10831SOL     OW33391   5.091   6.560   1.660
10831SOL    HW133392   5.082   6.546   1.562
10831SOL    HW233393   5.128   6.477   1.702
10832SOL     OW33394   0.075   2.601   0.741
10832SOL    HW133395   0.032   2.680   0.785
10832SOL    HW233396   0.026   2.579   0.657
10833SOL     OW33397   1.128   0.524   3.886
10833SOL    HW133398   1.158   0.604   3.835
10833SOL    HW233399   1.146   0.442   3.833
10834SOL     OW33400   1.178   1.817   5.855
10834SOL    HW133401   1.270   1.784   5.832
10834SOL    HW233402   1.145   1.876   5.781
10835SOL     OW33403   5.241   1.776   0.666
10835SOL    HW133404   5.190   1.858   0.690
10835SOL    HW233405   5.334   1.802   0.637
10836SOL     OW33406   0.428   1.235   5.635
10836SOL    HW133407   0.339   1.194   5.611
10836SOL    HW233408   0.463   1.285   5.556
10837SOL     OW33409   0.729   4.998   0.191
10837SOL    HW133410   0.716   5.006   0.092
10837SOL    HW233411   0.824   5.017   0.214
10838SOL     OW33412   5.773   6.734   4.200
10838SOL    HW133413   5.760   6.770   4.292
10838SOL    HW233414   5.734   6.797   4.133
10839SOL     OW33415   2.759   3.104   0.858
10839SOL    HW133416   2.706   3.071   0.779
10839SOL    HW233417   2.715   3.073   0.942
10840SOL     OW33418   3.800   5.878   1.591
10840SOL    HW133419   3.848   5.842   1.511
10840SOL    HW233420   3.705   5.846   1.590
10841SOL     OW33421   3.264   6.165   6.119
10841SOL    HW133422   3.329   6.104   6.074
10841SOL    HW233423   3.201   6.112   6.176
10842SOL     OW33424   6.685   3.828   0.977
10842SOL    HW133425   6.768   3.824   1.031
10842SOL    HW233426   6.656   3.923   0.967
10843SOL     OW33427   0.481   1.577   2.282
10843SOL    HW133428   0.520   1.667   2.263
10843SOL    HW233429   0.539   1.528   2.347
10844SOL     OW33430   0.733   6.622   4.306
10844SOL    HW133431   0.673   6.701   4.302
10844SOL    HW233432   0.708   6.564   4.383
10845SOL     OW33433   2.000   0.478   1.227
10845SOL    HW133434   2.003   0.555   1.163
10845SOL    HW233435   2.045   0.399   1.185
10846SOL     OW33436   4.758   2.805   0.682
10846SOL    HW133437   4.814   2.766   0.755
10846SOL    HW233438   4.665   2.821   0.716
10847SOL     OW33439   2.499   1.989   6.815
10847SOL    HW133440   2.592   1.958   6.794
10847SOL    HW233441   2.500   2.088   6.832
10848SOL     OW33442   3.093   2.421   6.304
10848SOL    HW133443   3.037   2.440   6.223
10848SOL    HW233444   3.075   2.327   6.335
10849SOL     OW33445   3.854   4.954   3.865
10849SOL    HW133446   3.758   4.944   3.838
10849SOL    HW233447   3.912   4.912   3.796
10850SOL     OW33448   4.280   6.572   6.457
10850SOL    HW133449   4.279   6.645   6.526
10850SOL    HW233450   4.374   6.552   6.432
10851SOL     OW33451   3.042   2.489   6.671
10851SOL    HW133452   3.097   2.527   6.597
10851SOL    HW233453   2.989   2.412   6.636
10852SOL     OW33454   0.541   0.076   6.353
10852SOL    HW133455   0.520   7.003   6.374
10852SOL    HW233456   0.633   0.099   6.386
10853SOL     OW33457   3.745   1.731   4.848
10853SOL    HW133458   3.757   1.830   4.846
10853SOL    HW233459   3.653   1.709   4.881
10854SOL     OW33460   6.471   0.190   6.355
10854SOL    HW133461   6.425   0.134   6.286
10854SOL    HW233462   6.435   0.283   6.351
10855SOL     OW33463   2.943   6.432   2.519
10855SOL    HW133464   2.868   6.391   2.572
10855SOL    HW233465   3.024   6.442   2.578
10856SOL     OW33466   6.103   1.009   1.360
10856SOL    HW133467   6.185   1.047   1.402
10856SOL    HW233468   6.127   0.965   1.273
10857SOL     OW33469   5.480   2.809   3.454
10857SOL    HW133470   5.458   2.774   3.545
10857SOL    HW233471   5.398   2.804   3.396
10858SOL     OW33472   1.340   2.943   6.769
10858SOL    HW133473   1.316   2.930   6.672
10858SOL    HW233474   1.426   2.896   6.789
10859SOL     OW33475   1.856   4.164   3.870
10859SOL    HW133476   1.886   4.092   3.933
10859SOL    HW233477   1.800   4.230   3.920
10860SOL     OW33478   0.208   1.405   6.036
10860SOL    HW133479   0.279   1.474   6.029
10860SOL    HW233480   0.156   1.402   5.951
10861SOL     OW33481   3.513   2.767   1.876
10861SOL    HW133482   3.530   2.766   1.974
10861SOL    HW233483   3.575   2.704   1.830
10862SOL     OW33484   2.822   1.406   6.846
10862SOL    HW133485   2.789   1.381   6.938
10862SOL    HW233486   2.905   1.354   6.826
10863SOL     OW33487   3.523   1.169   2.829
10863SOL    HW133488   3.449   1.201   2.769
10863SOL    HW233489   3.509   1.206   2.920
10864SOL     OW33490   2.591   4.540   1.265
10864SOL    HW133491   2.667   4.602   1.287
10864SOL    HW233492   2.610   4.492   1.180
10865SOL     OW33493   5.886   2.403   3.798
10865SOL    HW133494   5.962   2.371   3.854
10865SOL    HW233495   5.915   2.409   3.702
10866SOL     OW33496   5.896   3.557   1.177
10866SOL    HW133497   5.950   3.564   1.094
10866SOL    HW233498   5.907   3.466   1.217
10867SOL     OW33499   2.564   3.412   0.075
10867SOL    HW133500   2.611   3.414   0.162
10867SOL    HW233501   2.551   3.317   0.046
10868SOL     OW33502   1.335   1.903   2.857
10868SOL    HW133503   1.259   1.907   2.922
10868SOL    HW233504   1.301   1.875   2.767
10869NA      NA33505   0.442   2.424   5.997
10870NA      NA33506   4.462   4.657   5.147
10871NA      NA33507   2.433   4.644   2.201
10872NA      NA33508   5.218   4.993   3.476
10873NA      NA33509   4.097   2.229   5.100
10874NA      NA33510   3.466   4.235   1.565
10875NA      NA33511   1.249   4.547   0.442
10876NA      NA33512   4.005   4.264   1.538
10877NA      NA33513   4.833   4.384   0.879
10878NA      NA33514   3.116   0.747   5.461
10879NA      NA33515   5.712   5.562   1.379
10880NA      NA33516   0.962   0.644   5.825
10881NA      NA33517   4.833   4.920   1.926
10882NA      NA33518   3.692   3.168   0.990
   7.02193   7.02193   7.02193
