Generated by trjconv : CNT in water t= 539.00000
33518
    1C        C    1   2.846   2.773   4.748
    1C        C    2   2.899   2.720   4.868
    1C        C    3   2.848   2.777   4.985
    1C        C    4   2.858   2.783   4.260
    1C        C    5   2.906   2.730   4.382
    1C        C    6   2.850   2.776   4.504
    1C        C    7   3.014   2.642   4.624
    1C        C    8   2.900   2.726   4.626
    1C        C    9   3.076   2.604   4.745
    1C        C   10   3.009   2.632   4.866
    1C        C   11   3.179   2.488   4.977
    1C        C   12   3.059   2.560   4.975
    1C        C   13   2.854   2.779   3.772
    1C        C   14   2.909   2.730   3.893
    1C        C   15   2.855   2.780   4.014
    1C        C   16   3.023   2.653   4.134
    1C        C   17   2.908   2.736   4.137
    1C        C   18   3.084   2.620   4.257
    1C        C   19   3.022   2.649   4.381
    1C        C   20   3.211   2.557   4.505
    1C        C   21   3.079   2.610   4.504
    1C        C   22   3.277   2.537   4.627
    1C        C   23   3.208   2.549   4.750
    1C        C   24   3.412   2.480   4.864
    1C        C   25   3.270   2.498   4.867
    1C        C   26   3.490   2.482   4.981
    1C        C   27   2.859   2.776   3.283
    1C        C   28   2.914   2.731   3.406
    1C        C   29   2.861   2.781   3.527
    1C        C   30   3.021   2.645   3.649
    1C        C   31   2.910   2.732   3.651
    1C        C   32   3.081   2.606   3.771
    1C        C   33   3.022   2.646   3.892
    1C        C   34   3.215   2.558   4.016
    1C        C   35   3.083   2.609   4.014
    1C        C   36   3.280   2.538   4.140
    1C        C   37   3.212   2.561   4.261
    1C        C   38   3.417   2.504   4.384
    1C        C   39   3.279   2.534   4.383
    1C        C   40   3.487   2.498   4.507
    1C        C   41   3.415   2.504   4.628
    1C        C   42   3.633   2.483   4.745
    1C        C   43   3.490   2.483   4.746
    1C        C   44   3.707   2.488   4.865
    1C        C   45   3.629   2.481   4.981
    1C        C   46   2.843   2.756   2.794
    1C        C   47   2.899   2.715   2.917
    1C        C   48   2.849   2.767   3.038
    1C        C   49   3.018   2.638   3.160
    1C        C   50   2.907   2.725   3.160
    1C        C   51   3.080   2.606   3.282
    1C        C   52   3.026   2.645   3.407
    1C        C   53   3.212   2.544   3.528
    1C        C   54   3.085   2.606   3.529
    1C        C   55   3.279   2.525   3.651
    1C        C   56   3.209   2.546   3.772
    1C        C   57   3.419   2.507   3.894
    1C        C   58   3.279   2.531   3.893
    1C        C   59   3.488   2.502   4.017
    1C        C   60   3.418   2.506   4.140
    1C        C   61   3.629   2.494   4.261
    1C        C   62   3.487   2.496   4.262
    1C        C   63   3.700   2.501   4.382
    1C        C   64   3.628   2.497   4.504
    1C        C   65   3.838   2.542   4.621
    1C        C   66   3.702   2.505   4.624
    1C        C   67   3.907   2.564   4.742
    1C        C   68   3.842   2.527   4.863
    1C        C   69   4.051   2.583   4.977
    1C        C   70   3.921   2.530   4.978
    1C        C   71   2.829   2.738   2.308
    1C        C   72   2.884   2.693   2.430
    1C        C   73   2.836   2.747   2.551
    1C        C   74   3.013   2.628   2.672
    1C        C   75   2.895   2.706   2.672
    1C        C   76   3.076   2.596   2.794
    1C        C   77   3.014   2.633   2.915
    1C        C   78   3.208   2.545   3.038
    1C        C   79   3.078   2.601   3.037
    1C        C   80   3.275   2.525   3.161
    1C        C   81   3.210   2.549   3.284
    1C        C   82   3.416   2.498   3.402
    1C        C   83   3.276   2.519   3.405
    1C        C   84   3.486   2.498   3.524
    1C        C   85   3.418   2.502   3.648
    1C        C   86   3.628   2.502   3.771
    1C        C   87   3.487   2.494   3.772
    1C        C   88   3.697   2.507   3.895
    1C        C   89   3.629   2.497   4.018
    1C        C   90   3.836   2.545   4.138
    1C        C   91   3.701   2.503   4.140
    1C        C   92   3.905   2.569   4.259
    1C        C   93   3.836   2.537   4.378
    1C        C   94   4.028   2.634   4.501
    1C        C   95   3.903   2.568   4.499
    1C        C   96   4.090   2.676   4.621
    1C        C   97   4.032   2.631   4.741
    1C        C   98   4.196   2.761   4.868
    1C        C   99   4.102   2.653   4.863
    1C        C  100   4.206   2.848   4.977
    1C        C  101   2.832   2.736   2.070
    1C        C  102   2.992   2.593   2.193
    1C        C  103   2.875   2.676   2.189
    1C        C  104   3.065   2.569   2.313
    1C        C  105   3.004   2.618   2.431
    1C        C  106   3.203   2.533   2.553
    1C        C  107   3.074   2.591   2.550
    1C        C  108   3.274   2.516   2.673
    1C        C  109   3.206   2.540   2.795
    1C        C  110   3.413   2.493   2.916
    1C        C  111   3.275   2.520   2.916
    1C        C  112   3.484   2.492   3.038
    1C        C  113   3.415   2.503   3.161
    1C        C  114   3.630   2.495   3.280
    1C        C  115   3.489   2.493   3.281
    1C        C  116   3.698   2.504   3.403
    1C        C  117   3.627   2.506   3.525
    1C        C  118   3.834   2.544   3.646
    1C        C  119   3.697   2.513   3.648
    1C        C  120   3.897   2.572   3.769
    1C        C  121   3.833   2.545   3.892
    1C        C  122   4.021   2.642   4.014
    1C        C  123   3.899   2.570   4.014
    1C        C  124   4.089   2.670   4.134
    1C        C  125   4.031   2.633   4.257
    1C        C  126   4.194   2.768   4.377
    1C        C  127   4.089   2.673   4.380
    1C        C  128   4.241   2.821   4.498
    1C        C  129   4.195   2.770   4.622
    1C        C  130   4.326   2.932   4.743
    1C        C  131   4.245   2.816   4.746
    1C        C  132   4.352   3.007   4.860
    1C        C  133   4.281   2.965   4.973
    1C        C  134   3.173   2.463   2.084
    1C        C  135   3.042   2.514   2.085
    1C        C  136   3.263   2.474   2.191
    1C        C  137   3.198   2.518   2.308
    1C        C  138   3.406   2.476   2.428
    1C        C  139   3.267   2.502   2.430
    1C        C  140   3.481   2.477   2.547
    1C        C  141   3.413   2.490   2.671
    1C        C  142   3.625   2.488   2.790
    1C        C  143   3.483   2.485   2.793
    1C        C  144   3.694   2.501   2.913
    1C        C  145   3.625   2.494   3.036
    1C        C  146   3.836   2.536   3.154
    1C        C  147   3.698   2.503   3.156
    1C        C  148   3.901   2.561   3.277
    1C        C  149   3.835   2.537   3.400
    1C        C  150   4.027   2.627   3.523
    1C        C  151   3.901   2.563   3.522
    1C        C  152   4.085   2.667   3.646
    1C        C  153   4.022   2.638   3.769
    1C        C  154   4.190   2.767   3.888
    1C        C  155   4.076   2.684   3.891
    1C        C  156   4.241   2.817   4.010
    1C        C  157   4.196   2.763   4.133
    1C        C  158   4.335   2.925   4.253
    1C        C  159   4.246   2.815   4.254
    1C        C  160   4.373   2.987   4.374
    1C        C  161   4.324   2.936   4.497
    1C        C  162   4.434   3.114   4.617
    1C        C  163   4.360   2.994   4.621
    1C        C  164   4.462   3.185   4.735
    1C        C  165   4.428   3.126   4.859
    1C        C  166   4.515   3.322   4.975
    1C        C  167   4.477   3.188   4.974
    1C        C  168   3.478   2.434   2.072
    1C        C  169   3.402   2.454   2.189
    1C        C  170   3.621   2.462   2.306
    1C        C  171   3.478   2.461   2.308
    1C        C  172   3.694   2.484   2.425
    1C        C  173   3.622   2.486   2.547
    1C        C  174   3.830   2.536   2.665
    1C        C  175   3.694   2.500   2.667
    1C        C  176   3.895   2.563   2.788
    1C        C  177   3.829   2.541   2.911
    1C        C  178   4.025   2.626   3.033
    1C        C  179   3.901   2.558   3.031
    1C        C  180   4.085   2.664   3.155
    1C        C  181   4.025   2.628   3.277
    1C        C  182   4.196   2.752   3.400
    1C        C  183   4.085   2.665   3.400
    1C        C  184   4.245   2.804   3.522
    1C        C  185   4.195   2.755   3.645
    1C        C  186   4.336   2.917   3.765
    1C        C  187   4.247   2.807   3.765
    1C        C  188   4.375   2.980   3.885
    1C        C  189   4.328   2.928   4.008
    1C        C  190   4.442   3.106   4.127
    1C        C  191   4.370   2.985   4.130
    1C        C  192   4.466   3.173   4.249
    1C        C  193   4.435   3.114   4.374
    1C        C  194   4.501   3.317   4.491
    1C        C  195   4.460   3.182   4.495
    1C        C  196   4.522   3.387   4.611
    1C        C  197   4.508   3.320   4.734
    1C        C  198   4.552   3.534   4.852
    1C        C  199   4.530   3.392   4.855
    1C        C  200   4.589   3.622   4.959
    1C        C  201   3.617   2.417   2.073
    1C        C  202   3.829   2.509   2.182
    1C        C  203   3.695   2.458   2.185
    1C        C  204   3.901   2.536   2.302
    1C        C  205   3.832   2.515   2.423
    1C        C  206   4.025   2.614   2.543
    1C        C  207   3.899   2.549   2.543
    1C        C  208   4.082   2.658   2.665
    1C        C  209   4.022   2.625   2.789
    1C        C  210   4.195   2.750   2.909
    1C        C  211   4.084   2.663   2.910
    1C        C  212   4.250   2.795   3.030
    1C        C  213   4.199   2.748   3.153
    1C        C  214   4.333   2.910   3.274
    1C        C  215   4.246   2.798   3.276
    1C        C  216   4.370   2.971   3.396
    1C        C  217   4.331   2.916   3.520
    1C        C  218   4.434   3.102   3.639
    1C        C  219   4.373   2.975   3.641
    1C        C  220   4.461   3.171   3.759
    1C        C  221   4.443   3.104   3.882
    1C        C  222   4.503   3.307   4.004
    1C        C  223   4.470   3.169   4.004
    1C        C  224   4.513   3.381   4.124
    1C        C  225   4.503   3.309   4.246
    1C        C  226   4.520   3.524   4.367
    1C        C  227   4.510   3.383   4.366
    1C        C  228   4.523   3.599   4.487
    1C        C  229   4.528   3.529   4.609
    1C        C  230   4.502   3.741   4.729
    1C        C  231   4.535   3.603   4.729
    1C        C  232   4.494   3.820   4.846
    1C        C  233   4.549   3.756   4.958
    1C        C  234   4.017   2.611   2.064
    1C        C  235   3.896   2.541   2.063
    1C        C  236   4.086   2.644   2.181
    1C        C  237   4.025   2.605   2.302
    1C        C  238   4.201   2.733   2.423
    1C        C  239   4.089   2.645   2.422
    1C        C  240   4.257   2.781   2.543
    1C        C  241   4.196   2.741   2.664
    1C        C  242   4.333   2.906   2.784
    1C        C  243   4.247   2.794   2.785
    1C        C  244   4.371   2.965   2.906
    1C        C  245   4.338   2.906   3.031
    1C        C  246   4.437   3.094   3.150
    1C        C  247   4.378   2.965   3.152
    1C        C  248   4.455   3.163   3.272
    1C        C  249   4.428   3.100   3.396
    1C        C  250   4.498   3.304   3.515
    1C        C  251   4.460   3.167   3.516
    1C        C  252   4.512   3.374   3.637
    1C        C  253   4.500   3.307   3.761
    1C        C  254   4.526   3.517   3.878
    1C        C  255   4.519   3.376   3.882
    1C        C  256   4.521   3.589   4.000
    1C        C  257   4.528   3.521   4.124
    1C        C  258   4.495   3.733   4.244
    1C        C  259   4.524   3.595   4.244
    1C        C  260   4.469   3.804   4.363
    1C        C  261   4.492   3.736   4.485
    1C        C  262   4.428   3.940   4.603
    1C        C  263   4.478   3.807   4.606
    1C        C  264   4.402   4.009   4.723
    1C        C  265   4.436   3.949   4.846
    1C        C  266   4.326   4.136   4.957
    1C        C  267   4.391   4.013   4.962
    1C        C  268   4.258   2.775   2.061
    1C        C  269   4.199   2.729   2.179
    1C        C  270   4.348   2.885   2.299
    1C        C  271   4.252   2.780   2.300
    1C        C  272   4.383   2.950   2.419
    1C        C  273   4.344   2.892   2.542
    1C        C  274   4.442   3.086   2.660
    1C        C  275   4.378   2.960   2.661
    1C        C  276   4.469   3.152   2.782
    1C        C  277   4.439   3.089   2.904
    1C        C  278   4.504   3.291   3.025
    1C        C  279   4.465   3.155   3.026
    1C        C  280   4.511   3.365   3.145
    1C        C  281   4.496   3.298   3.269
    1C        C  282   4.519   3.509   3.387
    1C        C  283   4.516   3.367   3.390
    1C        C  284   4.517   3.581   3.509
    1C        C  285   4.522   3.514   3.634
    1C        C  286   4.493   3.725   3.751
    1C        C  287   4.518   3.586   3.755
    1C        C  288   4.476   3.792   3.875
    1C        C  289   4.498   3.728   3.999
    1C        C  290   4.427   3.930   4.115
    1C        C  291   4.478   3.798   4.120
    1C        C  292   4.396   3.998   4.235
    1C        C  293   4.421   3.937   4.360
    1C        C  294   4.327   4.128   4.481
    1C        C  295   4.396   4.004   4.481
    1C        C  296   4.287   4.190   4.601
    1C        C  297   4.329   4.132   4.723
    1C        C  298   4.194   4.311   4.841
    1C        C  299   4.286   4.201   4.839
    1C        C  300   4.169   4.401   4.949
    1C        C  301   4.357   2.872   2.064
    1C        C  302   4.469   3.066   2.175
    1C        C  303   4.395   2.943   2.178
    1C        C  304   4.478   3.140   2.296
    1C        C  305   4.450   3.075   2.417
    1C        C  306   4.507   3.284   2.536
    1C        C  307   4.474   3.147   2.536
    1C        C  308   4.515   3.357   2.657
    1C        C  309   4.501   3.290   2.780
    1C        C  310   4.520   3.501   2.898
    1C        C  311   4.513   3.360   2.902
    1C        C  312   4.515   3.575   3.018
    1C        C  313   4.515   3.506   3.142
    1C        C  314   4.487   3.716   3.263
    1C        C  315   4.511   3.577   3.264
    1C        C  316   4.475   3.788   3.384
    1C        C  317   4.490   3.719   3.507
    1C        C  318   4.428   3.924   3.626
    1C        C  319   4.476   3.791   3.628
    1C        C  320   4.393   3.985   3.749
    1C        C  321   4.426   3.924   3.872
    1C        C  322   4.315   4.109   3.993
    1C        C  323   4.393   3.991   3.992
    1C        C  324   4.276   4.171   4.114
    1C        C  325   4.322   4.118   4.237
    1C        C  326   4.186   4.283   4.354
    1C        C  327   4.283   4.180   4.357
    1C        C  328   4.136   4.337   4.474
    1C        C  329   4.193   4.295   4.596
    1C        C  330   4.027   4.436   4.712
    1C        C  331   4.137   4.346   4.716
    1C        C  332   3.972   4.495   4.829
    1C        C  333   4.054   4.481   4.942
    1C        C  334   4.548   3.269   2.062
    1C        C  335   4.536   3.129   2.066
    1C        C  336   4.540   3.352   2.175
    1C        C  337   4.514   3.278   2.293
    1C        C  338   4.518   3.493   2.411
    1C        C  339   4.521   3.352   2.413
    1C        C  340   4.517   3.568   2.530
    1C        C  341   4.524   3.498   2.652
    1C        C  342   4.495   3.708   2.773
    1C        C  343   4.519   3.569   2.774
    1C        C  344   4.474   3.781   2.892
    1C        C  345   4.492   3.714   3.016
    1C        C  346   4.423   3.914   3.137
    1C        C  347   4.472   3.781   3.138
    1C        C  348   4.391   3.978   3.259
    1C        C  349   4.424   3.919   3.383
    1C        C  350   4.318   4.104   3.502
    1C        C  351   4.397   3.987   3.504
    1C        C  352   4.270   4.158   3.624
    1C        C  353   4.312   4.100   3.746
    1C        C  354   4.173   4.260   3.868
    1C        C  355   4.267   4.155   3.868
    1C        C  356   4.121   4.314   3.988
    1C        C  357   4.175   4.270   4.111
    1C        C  358   4.006   4.398   4.232
    1C        C  359   4.126   4.324   4.232
    1C        C  360   3.948   4.442   4.352
    1C        C  361   4.017   4.414   4.472
    1C        C  362   3.827   4.512   4.592
    1C        C  363   3.959   4.462   4.591
    1C        C  364   3.761   4.541   4.713
    1C        C  365   3.839   4.540   4.832
    1C        C  366   3.631   4.599   4.947
    1C        C  367   3.766   4.567   4.949
    1C        C  368   4.507   3.567   2.054
    1C        C  369   4.517   3.491   2.171
    1C        C  370   4.492   3.706   2.288
    1C        C  371   4.512   3.566   2.290
    1C        C  372   4.482   3.779   2.409
    1C        C  373   4.501   3.708   2.529
    1C        C  374   4.428   3.909   2.648
    1C        C  375   4.479   3.778   2.651
    1C        C  376   4.398   3.976   2.769
    1C        C  377   4.422   3.912   2.892
    1C        C  378   4.321   4.098   3.013
    1C        C  379   4.394   3.977   3.014
    1C        C  380   4.273   4.154   3.133
    1C        C  381   4.317   4.099   3.256
    1C        C  382   4.178   4.259   3.377
    1C        C  383   4.274   4.155   3.378
    1C        C  384   4.120   4.305   3.498
    1C        C  385   4.169   4.257   3.621
    1C        C  386   4.005   4.387   3.741
    1C        C  387   4.120   4.305   3.745
    1C        C  388   3.943   4.426   3.863
    1C        C  389   4.006   4.395   3.985
    1C        C  390   3.819   4.493   4.107
    1C        C  391   3.946   4.432   4.108
    1C        C  392   3.750   4.519   4.227
    1C        C  393   3.819   4.500   4.349
    1C        C  394   3.614   4.549   4.473
    1C        C  395   3.753   4.523   4.472
    1C        C  396   3.545   4.568   4.594
    1C        C  397   3.623   4.569   4.712
    1C        C  398   3.413   4.554   4.838
    1C        C  399   3.552   4.580   4.833
    1C        C  400   3.345   4.514   4.954
    1C        C  401   4.508   3.706   2.048
    1C        C  402   4.456   3.915   2.166
    1C        C  403   4.489   3.778   2.167
    1C        C  404   4.409   3.976   2.285
    1C        C  405   4.441   3.915   2.408
    1C        C  406   4.325   4.097   2.526
    1C        C  407   4.401   3.978   2.528
    1C        C  408   4.277   4.153   2.647
    1C        C  409   4.315   4.091   2.768
    1C        C  410   4.176   4.250   2.888
    1C        C  411   4.277   4.151   2.889
    1C        C  412   4.122   4.298   3.009
    1C        C  413   4.172   4.253   3.133
    1C        C  414   4.003   4.378   3.251
    1C        C  415   4.122   4.303   3.256
    1C        C  416   3.943   4.415   3.373
    1C        C  417   4.001   4.381   3.498
    1C        C  418   3.813   4.478   3.619
    1C        C  419   3.941   4.419   3.620
    1C        C  420   3.746   4.502   3.741
    1C        C  421   3.816   4.486   3.863
    1C        C  422   3.612   4.540   3.984
    1C        C  423   3.750   4.512   3.985
    1C        C  424   3.540   4.549   4.105
    1C        C  425   3.611   4.541   4.228
    1C        C  426   3.401   4.551   4.352
    1C        C  427   3.543   4.553   4.351
    1C        C  428   3.333   4.549   4.475
    1C        C  429   3.404   4.558   4.597
    1C        C  430   3.197   4.520   4.724
    1C        C  431   3.336   4.551   4.720
    1C        C  432   3.128   4.495   4.846
    1C        C  433   3.208   4.494   4.961
    1C        C  434   4.386   4.125   2.050
    1C        C  435   4.441   3.996   2.053
    1C        C  436   4.307   4.165   2.162
    1C        C  437   4.340   4.101   2.285
    1C        C  438   4.183   4.252   2.401
    1C        C  439   4.284   4.152   2.403
    1C        C  440   4.128   4.301   2.521
    1C        C  441   4.177   4.253   2.644
    1C        C  442   4.004   4.376   2.763
    1C        C  443   4.120   4.294   2.766
    1C        C  444   3.945   4.414   2.885
    1C        C  445   4.004   4.376   3.008
    1C        C  446   3.813   4.473   3.129
    1C        C  447   3.941   4.414   3.128
    1C        C  448   3.747   4.493   3.253
    1C        C  449   3.816   4.476   3.375
    1C        C  450   3.609   4.529   3.495
    1C        C  451   3.748   4.503   3.496
    1C        C  452   3.540   4.544   3.617
    1C        C  453   3.610   4.539   3.740
    1C        C  454   3.400   4.543   3.863
    1C        C  455   3.541   4.554   3.862
    1C        C  456   3.331   4.532   3.986
    1C        C  457   3.399   4.549   4.108
    1C        C  458   3.193   4.505   4.237
    1C        C  459   3.330   4.539   4.231
    1C        C  460   3.128   4.483   4.360
    1C        C  461   3.195   4.516   4.480
    1C        C  462   3.002   4.433   4.607
    1C        C  463   3.129   4.495   4.603
    1C        C  464   2.936   4.399   4.727
    1C        C  465   2.995   4.442   4.848
    1C        C  466   2.804   4.337   4.961
    1C        C  467   2.909   4.429   4.962
    1C        C  468   4.122   4.282   2.046
    1C        C  469   4.190   4.249   2.163
    1C        C  470   4.007   4.376   2.278
    1C        C  471   4.125   4.296   2.280
    1C        C  472   3.943   4.407   2.399
    1C        C  473   4.010   4.379   2.521
    1C        C  474   3.814   4.469   2.643
    1C        C  475   3.945   4.415   2.641
    1C        C  476   3.748   4.496   2.765
    1C        C  477   3.817   4.475   2.885
    1C        C  478   3.608   4.520   3.008
    1C        C  479   3.747   4.495   3.006
    1C        C  480   3.537   4.529   3.130
    1C        C  481   3.608   4.520   3.252
    1C        C  482   3.396   4.539   3.376
    1C        C  483   3.537   4.536   3.373
    1C        C  484   3.325   4.539   3.498
    1C        C  485   3.399   4.546   3.619
    1C        C  486   3.192   4.501   3.748
    1C        C  487   3.329   4.534   3.741
    1C        C  488   3.126   4.477   3.870
    1C        C  489   3.194   4.498   3.992
    1C        C  490   3.003   4.410   4.118
    1C        C  491   3.128   4.476   4.115
    1C        C  492   2.942   4.380   4.242
    1C        C  493   3.001   4.420   4.364
    1C        C  494   2.830   4.302   4.485
    1C        C  495   2.939   4.392   4.487
    1C        C  496   2.781   4.250   4.607
    1C        C  497   2.825   4.310   4.727
    1C        C  498   2.663   4.169   4.845
    1C        C  499   2.753   4.278   4.845
    1C        C  500   2.593   4.123   4.956
    1C        C  501   4.006   4.360   2.041
    1C        C  502   3.814   4.464   2.154
    1C        C  503   3.944   4.409   2.156
    1C        C  504   3.746   4.483   2.276
    1C        C  505   3.811   4.459   2.399
    1C        C  506   3.608   4.516   2.521
    1C        C  507   3.745   4.483   2.521
    1C        C  508   3.538   4.529   2.643
    1C        C  509   3.609   4.526   2.765
    1C        C  510   3.396   4.529   2.884
    1C        C  511   3.537   4.525   2.886
    1C        C  512   3.326   4.524   3.007
    1C        C  513   3.396   4.536   3.129
    1C        C  514   3.192   4.495   3.256
    1C        C  515   3.328   4.534   3.253
    1C        C  516   3.126   4.468   3.378
    1C        C  517   3.189   4.501   3.500
    1C        C  518   3.005   4.405   3.625
    1C        C  519   3.126   4.477   3.625
    1C        C  520   2.944   4.370   3.747
    1C        C  521   3.000   4.413   3.870
    1C        C  522   2.839   4.280   3.997
    1C        C  523   2.945   4.374   3.994
    1C        C  524   2.791   4.234   4.121
    1C        C  525   2.833   4.291   4.243
    1C        C  526   2.695   4.131   4.366
    1C        C  527   2.782   4.243   4.366
    1C        C  528   2.651   4.077   4.489
    1C        C  529   2.691   4.142   4.608
    1C        C  530   2.584   3.961   4.732
    1C        C  531   2.637   4.092   4.729
    1C        C  532   2.543   3.901   4.855
    1C        C  533   2.533   3.996   4.962
    1C        C  534   3.618   4.559   2.040
    1C        C  535   3.754   4.527   2.043
    1C        C  536   3.537   4.537   2.156
    1C        C  537   3.607   4.512   2.277
    1C        C  538   3.395   4.512   2.402
    1C        C  539   3.536   4.519   2.399
    1C        C  540   3.323   4.514   2.523
    1C        C  541   3.397   4.525   2.643
    1C        C  542   3.186   4.487   2.764
    1C        C  543   3.323   4.523   2.764
    1C        C  544   3.123   4.468   2.889
    1C        C  545   3.189   4.492   3.011
    1C        C  546   3.003   4.396   3.134
    1C        C  547   3.125   4.468   3.135
    1C        C  548   2.946   4.357   3.257
    1C        C  549   3.001   4.403   3.379
    1C        C  550   2.838   4.273   3.506
    1C        C  551   2.945   4.365   3.503
    1C        C  552   2.787   4.226   3.629
    1C        C  553   2.836   4.279   3.750
    1C        C  554   2.702   4.119   3.877
    1C        C  555   2.790   4.230   3.875
    1C        C  556   2.659   4.065   4.000
    1C        C  557   2.700   4.125   4.120
    1C        C  558   2.604   3.939   4.246
    1C        C  559   2.664   4.067   4.244
    1C        C  560   2.573   3.878   4.370
    1C        C  561   2.588   3.951   4.490
    1C        C  562   2.528   3.751   4.616
    1C        C  563   2.560   3.889   4.613
    1C        C  564   2.519   3.683   4.740
    1C        C  565   2.526   3.759   4.859
    1C        C  566   2.526   3.547   4.979
    1C        C  567   2.531   3.686   4.979
    1C        C  568   3.328   4.475   2.043
    1C        C  569   3.397   4.512   2.159
    1C        C  570   3.184   4.485   2.282
    1C        C  571   3.323   4.513   2.281
    1C        C  572   3.115   4.463   2.403
    1C        C  573   3.185   4.483   2.524
    1C        C  574   2.990   4.395   2.648
    1C        C  575   3.116   4.459   2.644
    1C        C  576   2.939   4.350   2.772
    1C        C  577   3.002   4.394   2.890
    1C        C  578   2.831   4.271   3.015
    1C        C  579   2.943   4.356   3.012
    1C        C  580   2.784   4.219   3.139
    1C        C  581   2.837   4.268   3.260
    1C        C  582   2.702   4.109   3.387
    1C        C  583   2.788   4.221   3.384
    1C        C  584   2.665   4.050   3.511
    1C        C  585   2.702   4.114   3.632
    1C        C  586   2.598   3.933   3.757
    1C        C  587   2.663   4.058   3.756
    1C        C  588   2.572   3.870   3.881
    1C        C  589   2.600   3.937   4.002
    1C        C  590   2.533   3.737   4.128
    1C        C  591   2.576   3.872   4.126
    1C        C  592   2.518   3.671   4.252
    1C        C  593   2.529   3.743   4.373
    1C        C  594   2.506   3.536   4.498
    1C        C  595   2.515   3.677   4.497
    1C        C  596   2.510   3.467   4.621
    1C        C  597   2.514   3.541   4.742
    1C        C  598   2.532   3.327   4.862
    1C        C  599   2.525   3.468   4.863
    1C        C  600   2.536   3.250   4.979
    1C        C  601   3.197   4.432   2.047
    1C        C  602   2.986   4.388   2.163
    1C        C  603   3.119   4.441   2.163
    1C        C  604   2.927   4.353   2.287
    1C        C  605   2.988   4.400   2.406
    1C        C  606   2.821   4.266   2.530
    1C        C  607   2.929   4.357   2.527
    1C        C  608   2.772   4.215   2.652
    1C        C  609   2.827   4.264   2.773
    1C        C  610   2.689   4.107   2.898
    1C        C  611   2.775   4.219   2.896
    1C        C  612   2.653   4.050   3.022
    1C        C  613   2.694   4.110   3.143
    1C        C  614   2.590   3.927   3.267
    1C        C  615   2.657   4.052   3.266
    1C        C  616   2.565   3.862   3.390
    1C        C  617   2.596   3.927   3.512
    1C        C  618   2.532   3.729   3.639
    1C        C  619   2.572   3.865   3.636
    1C        C  620   2.514   3.663   3.762
    1C        C  621   2.528   3.736   3.883
    1C        C  622   2.506   3.527   4.010
    1C        C  623   2.516   3.668   4.006
    1C        C  624   2.506   3.457   4.133
    1C        C  625   2.505   3.531   4.253
    1C        C  626   2.539   3.324   4.377
    1C        C  627   2.511   3.463   4.377
    1C        C  628   2.558   3.258   4.500
    1C        C  629   2.541   3.330   4.620
    1C        C  630   2.597   3.122   4.743
    1C        C  631   2.554   3.258   4.741
    1C        C  632   2.622   3.052   4.864
    1C        C  633   2.563   3.113   4.979
    1C        C  634   2.782   4.302   2.055
    1C        C  635   2.897   4.382   2.051
    1C        C  636   2.747   4.228   2.169
    1C        C  637   2.811   4.270   2.288
    1C        C  638   2.676   4.107   2.411
    1C        C  639   2.764   4.217   2.410
    1C        C  640   2.635   4.049   2.534
    1C        C  641   2.680   4.108   2.654
    1C        C  642   2.585   3.920   2.780
    1C        C  643   2.648   4.047   2.777
    1C        C  644   2.560   3.856   2.903
    1C        C  645   2.589   3.924   3.024
    1C        C  646   2.526   3.723   3.149
    1C        C  647   2.566   3.858   3.147
    1C        C  648   2.507   3.655   3.271
    1C        C  649   2.527   3.726   3.392
    1C        C  650   2.503   3.520   3.517
    1C        C  651   2.513   3.661   3.516
    1C        C  652   2.507   3.453   3.641
    1C        C  653   2.501   3.522   3.763
    1C        C  654   2.531   3.318   3.888
    1C        C  655   2.503   3.456   3.888
    1C        C  656   2.553   3.251   4.010
    1C        C  657   2.535   3.319   4.133
    1C        C  658   2.605   3.120   4.259
    1C        C  659   2.557   3.253   4.256
    1C        C  660   2.633   3.056   4.382
    1C        C  661   2.600   3.123   4.502
    1C        C  662   2.710   2.940   4.623
    1C        C  663   2.631   3.057   4.623
    1C        C  664   2.756   2.883   4.744
    1C        C  665   2.702   2.933   4.866
    1C        C  666   2.747   2.873   4.985
    1C        C  667   2.679   4.021   2.057
    1C        C  668   2.683   4.103   2.170
    1C        C  669   2.587   3.911   2.292
    1C        C  670   2.641   4.042   2.291
    1C        C  671   2.554   3.848   2.415
    1C        C  672   2.580   3.919   2.535
    1C        C  673   2.521   3.718   2.661
    1C        C  674   2.557   3.854   2.658
    1C        C  675   2.501   3.650   2.783
    1C        C  676   2.522   3.720   2.904
    1C        C  677   2.504   3.511   3.029
    1C        C  678   2.513   3.652   3.027
    1C        C  679   2.501   3.441   3.152
    1C        C  680   2.494   3.514   3.273
    1C        C  681   2.520   3.307   3.402
    1C        C  682   2.498   3.446   3.396
    1C        C  683   2.551   3.242   3.523
    1C        C  684   2.532   3.314   3.644
    1C        C  685   2.603   3.116   3.770
    1C        C  686   2.552   3.248   3.767
    1C        C  687   2.635   3.055   3.893
    1C        C  688   2.604   3.120   4.015
    1C        C  689   2.718   2.940   4.138
    1C        C  690   2.638   3.057   4.137
    1C        C  691   2.758   2.883   4.261
    1C        C  692   2.713   2.940   4.382
    1C        C  693   2.757   2.881   4.503
    1C        C  694   2.627   3.891   2.055
    1C        C  695   2.525   3.704   2.174
    1C        C  696   2.577   3.835   2.174
    1C        C  697   2.507   3.639   2.298
    1C        C  698   2.512   3.714   2.418
    1C        C  699   2.487   3.506   2.540
    1C        C  700   2.496   3.647   2.541
    1C        C  701   2.501   3.437   2.663
    1C        C  702   2.497   3.508   2.785
    1C        C  703   2.527   3.300   2.910
    1C        C  704   2.501   3.439   2.908
    1C        C  705   2.545   3.232   3.032
    1C        C  706   2.530   3.303   3.154
    1C        C  707   2.594   3.108   3.278
    1C        C  708   2.540   3.239   3.279
    1C        C  709   2.640   3.053   3.400
    1C        C  710   2.610   3.114   3.523
    1C        C  711   2.713   2.933   3.647
    1C        C  712   2.638   3.053   3.648
    1C        C  713   2.757   2.881   3.771
    1C        C  714   2.717   2.940   3.893
    1C        C  715   2.761   2.885   4.016
    1C        C  716   2.448   3.496   2.062
    1C        C  717   2.493   3.629   2.060
    1C        C  718   2.467   3.421   2.182
    1C        C  719   2.488   3.498   2.300
    1C        C  720   2.512   3.290   2.424
    1C        C  721   2.483   3.428   2.422
    1C        C  722   2.542   3.224   2.546
    1C        C  723   2.523   3.298   2.665
    1C        C  724   2.596   3.099   2.789
    1C        C  725   2.543   3.231   2.788
    1C        C  726   2.624   3.036   2.912
    1C        C  727   2.592   3.099   3.035
    1C        C  728   2.711   2.927   3.159
    1C        C  729   2.627   3.040   3.158
    1C        C  730   2.757   2.873   3.281
    1C        C  731   2.719   2.935   3.402
    1C        C  732   2.759   2.879   3.525
    1C        C  733   2.502   3.205   2.068
    1C        C  734   2.482   3.279   2.185
    1C        C  735   2.580   3.085   2.305
    1C        C  736   2.515   3.212   2.307
    1C        C  737   2.616   3.023   2.426
    1C        C  738   2.594   3.093   2.547
    1C        C  739   2.697   2.909   2.670
    1C        C  740   2.625   3.030   2.670
    1C        C  741   2.745   2.858   2.792
    1C        C  742   2.706   2.921   2.913
    1C        C  743   2.752   2.870   3.036
    1C        C  744   2.551   3.075   2.070
    1C        C  745   2.688   2.901   2.185
    1C        C  746   2.606   3.016   2.185
    1C        C  747   2.737   2.847   2.305
    1C        C  748   2.692   2.904   2.427
    1C        C  749   2.738   2.849   2.548
    1C        C  750   2.738   2.839   2.070
    1C        C  751   3.674   2.322   1.974
    1C        O  752   3.716   2.211   2.016
    1C        O  753   3.723   2.362   1.849
    1C        C  754   4.629   3.061   1.973
    1C        O  755   4.602   3.055   1.850
    1C        O  756   4.763   3.040   2.008
    1C        C  757   4.480   4.219   1.985
    1C        O  758   4.528   4.320   2.043
    1C        O  759   4.497   4.231   1.846
    1C        C  760   3.567   4.652   1.937
    1C        O  761   3.646   4.748   1.920
    1C        O  762   3.547   4.594   1.811
    1C        C  763   2.874   4.497   1.961
    1C        O  764   2.915   4.484   1.842
    1C        O  765   2.781   4.601   1.975
    1C        C  766   2.322   3.488   1.983
    1C        O  767   2.321   3.483   1.857
    1C        O  768   2.197   3.513   2.041
    1C        C  769   4.709   3.588   5.039
    1C        O  770   4.708   3.568   5.163
    1C        O  771   4.841   3.597   4.992
    1C        C  772   4.283   4.458   5.025
    1C        O  773   4.289   4.464   5.151
    1C        O  774   4.363   4.554   4.962
    1C        C  775   4.140   2.547   5.090
    1C        O  776   4.240   2.472   5.075
    1C        O  777   4.104   2.572   5.223
    1C        C  778   2.871   4.549   5.039
    1C        O  779   2.791   4.637   4.997
    1C        O  780   2.933   4.588   5.159
    1C        C  781   2.452   3.037   5.042
    1C        O  782   2.356   2.985   4.979
    1C        O  783   2.443   3.024   5.180
    1C        C  784   2.404   4.002   5.034
    1C        O  785   2.293   4.013   4.976
    1C        O  786   2.409   4.001   5.174
    1C        C  787   2.948   2.428   2.010
    1C        O  788   2.926   2.423   1.886
    1C        O  789   2.910   2.310   2.073
    1C        C  790   3.171   2.357   5.046
    1C        O  791   3.118   2.256   4.994
    1C        O  792   3.150   2.344   5.183
    1C        H  793   4.251   3.041   5.042
    1C        H  794   4.121   2.855   5.042
    1C        H  795   4.466   3.141   5.070
    1C        H  796   4.579   3.350   5.056
    1C        H  797   4.572   3.814   5.045
    1C        H  798   4.407   3.972   5.059
    1C        H  799   4.343   4.200   5.041
    1C        H  800   4.048   4.557   5.017
    1C        H  801   3.824   4.617   5.023
    1C        H  802   3.593   4.661   5.026
    1C        H  803   3.401   4.498   5.043
    1C        H  804   3.160   4.530   5.050
    1C        H  805   3.902   2.467   5.063
    1C        H  806   3.667   2.430   5.067
    1C        H  807   3.018   2.585   5.071
    1C        H  808   3.445   2.525   5.068
    1C        H  809   2.920   2.795   5.062
    1C        H  810   2.699   2.896   5.078
    1C        H  811   2.483   3.292   5.062
    1C        H  812   2.576   3.505   5.064
    1C        H  813   2.520   3.734   5.074
    1C        H  814   2.579   4.189   5.039
    1C        H  815   2.771   4.297   5.055
    1C        H  816   2.720   2.887   1.976
    1C        H  817   2.857   2.699   1.973
    1C        H  818   3.202   2.408   1.997
    1C        H  819   3.436   2.458   1.977
    1C        H  820   3.877   2.487   1.973
    1C        H  821   4.067   2.610   1.969
    1C        H  822   4.215   2.758   1.964
    1C        H  823   4.426   2.865   1.983
    1C        H  824   4.609   3.302   1.980
    1C        H  825   4.475   3.517   1.965
    1C        H  826   4.483   3.751   1.954
    1C        H  827   3.815   4.558   1.960
    1C        H  828   3.946   4.342   1.954
    1C        H  829   4.135   4.216   1.963
    1C        H  830   4.430   3.947   1.959
    1C        H  831   2.684   3.827   1.991
    1C        H  832   2.754   4.044   1.984
    1C        H  833   2.754   4.260   1.961
    1C        H  834   3.373   4.465   1.946
    1C        H  835   3.145   4.421   1.955
    1C        H  836   2.575   3.030   1.975
    1C        H  837   2.422   3.220   1.999
    1C        H  838   2.509   3.672   1.964
    2V3OU   H29  839   2.804   3.554   5.966
    2V3OU   C27  840   2.780   3.498   6.060
    2V3OU   H27  841   2.727   3.565   6.133
    2V3OU   H28  842   2.729   3.402   6.032
    2V3OU   O11  843   2.907   3.466   6.116
    2V3OU   C15  844   2.918   3.395   6.233
    2V3OU   C13  845   3.051   3.370   6.275
    2V3OU   C14  846   3.077   3.264   6.363
    2V3OU   C16  847   2.970   3.191   6.413
    2V3OU    H6  848   2.990   3.097   6.467
    2V3OU   C12  849   3.215   3.223   6.397
    2V3OU    O2  850   3.242   3.116   6.456
    2V3OU   C10  851   3.325   3.306   6.347
    2V3OU    C8  852   3.458   3.271   6.371
    2V3OU   O10  853   3.492   3.146   6.414
    2V3OU   H26  854   3.411   3.109   6.453
    2V3OU    C6  855   3.566   3.353   6.326
    2V3OU    C5  856   3.539   3.471   6.258
    2V3OU    C4  857   3.704   3.295   6.327
    2V3OU    H4  858   3.722   3.233   6.419
    2V3OU    H5  859   3.707   3.223   6.240
    2V3OU    C2  860   3.817   3.397   6.311
    2V3OU    O6  861   3.810   3.478   6.429
    2V3OU   H21  862   3.767   3.558   6.394
    2V3OU    C3  863   3.781   3.492   6.197
    2V3OU    H2  864   3.861   3.571   6.188
    2V3OU    H3  865   3.781   3.439   6.099
    2V3OU   C25  866   3.957   3.336   6.297
    2V3OU    O7  867   4.000   3.296   6.189
    2V3OU   C26  868   4.032   3.294   6.422
    2V3OU   H22  869   4.066   3.381   6.484
    2V3OU   H23  870   4.126   3.239   6.396
    2V3OU    O8  871   3.963   3.207   6.511
    2V3OU   H24  872   3.924   3.266   6.577
    2V3OU    C1  873   3.649   3.564   6.217
    2V3OU    H1  874   3.627   3.623   6.123
    2V3OU    O3  875   3.669   3.658   6.323
    2V3OU   C19  876   3.622   3.792   6.311
    2V3OU    H9  877   3.527   3.806   6.251
    2V3OU    O4  878   3.714   3.848   6.220
    2V3OU   C20  879   3.843   3.879   6.274
    2V3OU   H10  880   3.889   3.777   6.283
    2V3OU   C24  881   3.611   3.854   6.451
    2V3OU   H16  882   3.538   3.794   6.512
    2V3OU   H17  883   3.569   3.956   6.433
    2V3OU   C23  884   3.752   3.875   6.505
    2V3OU   H15  885   3.796   3.772   6.525
    2V3OU    N1  886   3.740   3.952   6.627
    2V3OU   H19  887   3.816   3.924   6.686
    2V3OU   H20  888   3.657   3.927   6.677
    2V3OU   C21  889   3.849   3.951   6.409
    2V3OU   H11  890   3.952   3.929   6.451
    2V3OU    O5  891   3.828   4.091   6.416
    2V3OU   H18  892   3.782   4.106   6.501
    2V3OU   C22  893   3.915   3.951   6.161
    2V3OU   H12  894   3.868   4.049   6.133
    2V3OU   H13  895   3.904   3.891   6.067
    2V3OU   H14  896   4.024   3.961   6.182
    2V3OU   C11  897   3.159   3.465   6.244
    2V3OU    O1  898   3.131   3.575   6.192
    2V3OU    C9  899   3.297   3.427   6.278
    2V3OU    C7  900   3.403   3.505   6.233
    2V3OU    O9  901   3.389   3.615   6.151
    2V3OU   H25  902   3.293   3.629   6.145
    2V3OU   C17  903   2.815   3.316   6.289
    2V3OU    H7  904   2.714   3.352   6.271
    2V3OU   C18  905   2.837   3.211   6.377
    2V3OU    H8  906   2.756   3.150   6.418
    3SOL     OW  907   2.987   3.295   4.043
    3SOL    HW1  908   3.079   3.271   4.075
    3SOL    HW2  909   2.942   3.353   4.111
    4SOL     OW  910   6.925   6.074   0.945
    4SOL    HW1  911   6.936   5.987   0.993
    4SOL    HW2  912   6.871   6.060   0.861
    5SOL     OW  913   4.203   2.679   0.676
    5SOL    HW1  914   4.276   2.747   0.679
    5SOL    HW2  915   4.222   2.612   0.604
    6SOL     OW  916   3.746   1.517   2.297
    6SOL    HW1  917   3.819   1.514   2.229
    6SOL    HW2  918   3.692   1.600   2.284
    7SOL     OW  919   2.537   2.565   4.174
    7SOL    HW1  920   2.528   2.625   4.095
    7SOL    HW2  921   2.512   2.472   4.148
    8SOL     OW  922   1.215   2.313   5.314
    8SOL    HW1  923   1.293   2.337   5.371
    8SOL    HW2  924   1.131   2.327   5.366
    9SOL     OW  925   1.582   2.163   6.346
    9SOL    HW1  926   1.666   2.143   6.296
    9SOL    HW2  927   1.555   2.258   6.330
   10SOL     OW  928   5.435   5.484   1.549
   10SOL    HW1  929   5.356   5.515   1.602
   10SOL    HW2  930   5.512   5.468   1.610
   11SOL     OW  931   3.089   2.236   0.542
   11SOL    HW1  932   3.077   2.332   0.518
   11SOL    HW2  933   3.055   2.178   0.468
   12SOL     OW  934   4.972   5.338   1.797
   12SOL    HW1  935   5.003   5.324   1.703
   12SOL    HW2  936   5.017   5.273   1.857
   13SOL     OW  937   5.353   6.075   2.042
   13SOL    HW1  938   5.293   6.144   2.084
   13SOL    HW2  939   5.320   5.983   2.066
   14SOL     OW  940   4.328   6.158   0.328
   14SOL    HW1  941   4.284   6.089   0.272
   14SOL    HW2  942   4.398   6.115   0.385
   15SOL     OW  943   0.565   5.936   6.340
   15SOL    HW1  944   0.549   5.943   6.241
   15SOL    HW2  945   0.652   5.978   6.363
   16SOL     OW  946   2.137   5.685   4.536
   16SOL    HW1  947   2.224   5.712   4.495
   16SOL    HW2  948   2.062   5.713   4.476
   17SOL     OW  949   6.872   1.479   4.608
   17SOL    HW1  950   6.944   1.532   4.563
   17SOL    HW2  951   6.861   1.513   4.702
   18SOL     OW  952   2.957   0.719   5.351
   18SOL    HW1  953   2.893   0.731   5.427
   18SOL    HW2  954   2.934   0.783   5.278
   19SOL     OW  955   2.781   6.145   2.631
   19SOL    HW1  956   2.693   6.097   2.639
   19SOL    HW2  957   2.776   6.232   2.680
   20SOL     OW  958   6.766   2.133   5.850
   20SOL    HW1  959   6.795   2.150   5.756
   20SOL    HW2  960   6.843   2.146   5.912
   21SOL     OW  961   1.897   4.055   2.216
   21SOL    HW1  962   1.883   4.135   2.158
   21SOL    HW2  963   1.985   4.062   2.263
   22SOL     OW  964   0.757   1.172   0.171
   22SOL    HW1  965   0.826   1.245   0.172
   22SOL    HW2  966   0.667   1.212   0.157
   23SOL     OW  967   6.818   5.430   0.435
   23SOL    HW1  968   6.792   5.426   0.338
   23SOL    HW2  969   6.773   5.356   0.484
   24SOL     OW  970   5.227   1.381   0.142
   24SOL    HW1  971   5.162   1.345   0.209
   24SOL    HW2  972   5.214   1.334   0.055
   25SOL     OW  973   1.444   0.809   4.468
   25SOL    HW1  974   1.540   0.785   4.455
   25SOL    HW2  975   1.391   0.779   4.389
   26SOL     OW  976   1.869   0.647   6.284
   26SOL    HW1  977   1.947   0.652   6.347
   26SOL    HW2  978   1.828   0.738   6.276
   27SOL     OW  979   0.074   6.957   2.693
   27SOL    HW1  980   0.026   6.951   2.781
   27SOL    HW2  981   0.154   7.016   2.703
   28SOL     OW  982   1.558   0.503   5.386
   28SOL    HW1  983   1.527   0.573   5.322
   28SOL    HW2  984   1.651   0.524   5.417
   29SOL     OW  985   5.680   1.155   1.538
   29SOL    HW1  986   5.755   1.105   1.494
   29SOL    HW2  987   5.655   1.233   1.481
   30SOL     OW  988   4.793   0.292   5.078
   30SOL    HW1  989   4.698   0.272   5.102
   30SOL    HW2  990   4.799   0.316   4.981
   31SOL     OW  991   6.689   4.708   4.291
   31SOL    HW1  992   6.635   4.640   4.339
   31SOL    HW2  993   6.630   4.784   4.262
   32SOL     OW  994   2.468   1.233   1.120
   32SOL    HW1  995   2.491   1.185   1.036
   32SOL    HW2  996   2.443   1.166   1.190
   33SOL     OW  997   1.854   5.102   5.521
   33SOL    HW1  998   1.917   5.178   5.506
   33SOL    HW2  999   1.901   5.029   5.571
   34SOL     OW 1000   1.749   5.774   5.494
   34SOL    HW1 1001   1.675   5.757   5.429
   34SOL    HW2 1002   1.724   5.737   5.583
   35SOL     OW 1003   1.497   3.373   4.870
   35SOL    HW1 1004   1.520   3.330   4.957
   35SOL    HW2 1005   1.574   3.366   4.807
   36SOL     OW 1006   5.789   1.186   4.024
   36SOL    HW1 1007   5.737   1.264   3.987
   36SOL    HW2 1008   5.886   1.208   4.022
   37SOL     OW 1009   1.533   6.383   4.311
   37SOL    HW1 1010   1.577   6.461   4.267
   37SOL    HW2 1011   1.480   6.333   4.243
   38SOL     OW 1012   1.135   4.171   1.950
   38SOL    HW1 1013   1.123   4.072   1.938
   38SOL    HW2 1014   1.232   4.192   1.959
   39SOL     OW 1015   6.282   5.252   1.194
   39SOL    HW1 1016   6.381   5.244   1.181
   39SOL    HW2 1017   6.262   5.328   1.255
   40SOL     OW 1018   3.792   0.707   6.494
   40SOL    HW1 1019   3.872   0.722   6.552
   40SOL    HW2 1020   3.733   0.638   6.535
   41SOL     OW 1021   5.201   4.020   1.690
   41SOL    HW1 1022   5.243   3.953   1.629
   41SOL    HW2 1023   5.104   4.000   1.701
   42SOL     OW 1024   2.927   3.704   6.573
   42SOL    HW1 1025   2.878   3.689   6.487
   42SOL    HW2 1026   3.025   3.685   6.559
   43SOL     OW 1027   5.144   6.883   5.167
   43SOL    HW1 1028   5.134   6.975   5.130
   43SOL    HW2 1029   5.240   6.866   5.188
   44SOL     OW 1030   6.112   1.117   6.151
   44SOL    HW1 1031   6.143   1.038   6.097
   44SOL    HW2 1032   6.101   1.196   6.091
   45SOL     OW 1033   2.792   4.362   5.731
   45SOL    HW1 1034   2.792   4.426   5.807
   45SOL    HW2 1035   2.815   4.271   5.764
   46SOL     OW 1036   1.103   4.639   4.690
   46SOL    HW1 1037   1.140   4.596   4.772
   46SOL    HW2 1038   1.103   4.574   4.614
   47SOL     OW 1039   6.158   3.962   6.902
   47SOL    HW1 1040   6.235   3.909   6.866
   47SOL    HW2 1041   6.185   4.058   6.909
   48SOL     OW 1042   0.405   4.307   0.419
   48SOL    HW1 1043   0.327   4.368   0.427
   48SOL    HW2 1044   0.435   4.303   0.324
   49SOL     OW 1045   3.272   2.486   6.566
   49SOL    HW1 1046   3.198   2.551   6.583
   49SOL    HW2 1047   3.271   2.460   6.469
   50SOL     OW 1048   5.108   2.277   0.287
   50SOL    HW1 1049   5.090   2.182   0.312
   50SOL    HW2 1050   5.162   2.321   0.360
   51SOL     OW 1051   0.789   6.179   2.268
   51SOL    HW1 1052   0.863   6.193   2.201
   51SOL    HW2 1053   0.825   6.191   2.360
   52SOL     OW 1054   5.506   1.828   2.525
   52SOL    HW1 1055   5.515   1.742   2.576
   52SOL    HW2 1056   5.413   1.835   2.488
   53SOL     OW 1057   4.563   0.856   0.675
   53SOL    HW1 1058   4.640   0.794   0.692
   53SOL    HW2 1059   4.485   0.827   0.730
   54SOL     OW 1060   6.108   6.996   6.569
   54SOL    HW1 1061   6.168   0.052   6.577
   54SOL    HW2 1062   6.054   7.004   6.486
   55SOL     OW 1063   1.883   3.884   5.746
   55SOL    HW1 1064   1.808   3.932   5.791
   55SOL    HW2 1065   1.922   3.816   5.809
   56SOL     OW 1066   0.696   2.307   6.693
   56SOL    HW1 1067   0.752   2.390   6.690
   56SOL    HW2 1068   0.755   2.227   6.708
   57SOL     OW 1069   3.873   5.902   1.448
   57SOL    HW1 1070   3.960   5.928   1.488
   57SOL    HW2 1071   3.798   5.941   1.501
   58SOL     OW 1072   0.942   0.520   6.695
   58SOL    HW1 1073   0.998   0.588   6.648
   58SOL    HW2 1074   0.921   0.552   6.787
   59SOL     OW 1075   4.155   3.033   6.670
   59SOL    HW1 1076   4.110   3.085   6.597
   59SOL    HW2 1077   4.090   3.016   6.744
   60SOL     OW 1078   0.100   3.129   2.549
   60SOL    HW1 1079   0.154   3.057   2.506
   60SOL    HW2 1080   0.007   3.096   2.565
   61SOL     OW 1081   1.346   5.730   3.181
   61SOL    HW1 1082   1.311   5.741   3.088
   61SOL    HW2 1083   1.276   5.757   3.247
   62SOL     OW 1084   5.256   2.755   3.105
   62SOL    HW1 1085   5.219   2.717   3.020
   62SOL    HW2 1086   5.355   2.746   3.106
   63SOL     OW 1087   3.637   0.287   6.159
   63SOL    HW1 1088   3.733   0.316   6.148
   63SOL    HW2 1089   3.580   0.333   6.091
   64SOL     OW 1090   1.799   2.119   6.530
   64SOL    HW1 1091   1.736   2.136   6.455
   64SOL    HW2 1092   1.859   2.042   6.508
   65SOL     OW 1093   1.011   5.072   5.424
   65SOL    HW1 1094   1.055   4.990   5.460
   65SOL    HW2 1095   1.023   5.076   5.325
   66SOL     OW 1096   4.615   1.293   1.206
   66SOL    HW1 1097   4.544   1.262   1.268
   66SOL    HW2 1098   4.700   1.308   1.257
   67SOL     OW 1099   0.266   3.425   1.164
   67SOL    HW1 1100   0.320   3.490   1.217
   67SOL    HW2 1101   0.319   3.395   1.084
   68SOL     OW 1102   0.616   0.936   6.173
   68SOL    HW1 1103   0.615   1.036   6.169
   68SOL    HW2 1104   0.596   0.906   6.267
   69SOL     OW 1105   1.496   6.835   6.601
   69SOL    HW1 1106   1.470   6.858   6.695
   69SOL    HW2 1107   1.498   6.918   6.545
   70SOL     OW 1108   5.037   4.350   3.112
   70SOL    HW1 1109   5.042   4.380   3.017
   70SOL    HW2 1110   4.946   4.311   3.130
   71SOL     OW 1111   4.827   1.815   5.338
   71SOL    HW1 1112   4.876   1.733   5.310
   71SOL    HW2 1113   4.818   1.877   5.259
   72SOL     OW 1114   6.985   1.305   2.106
   72SOL    HW1 1115   6.922   1.348   2.171
   72SOL    HW2 1116   6.936   1.235   2.054
   73SOL     OW 1117   2.514   0.954   1.207
   73SOL    HW1 1118   2.495   0.962   1.305
   73SOL    HW2 1119   2.611   0.973   1.191
   74SOL     OW 1120   2.539   1.121   0.244
   74SOL    HW1 1121   2.527   1.179   0.324
   74SOL    HW2 1122   2.454   1.071   0.226
   75SOL     OW 1123   2.454   2.775   1.213
   75SOL    HW1 1124   2.538   2.721   1.222
   75SOL    HW2 1125   2.430   2.784   1.117
   76SOL     OW 1126   3.694   5.411   6.186
   76SOL    HW1 1127   3.641   5.405   6.271
   76SOL    HW2 1128   3.677   5.329   6.131
   77SOL     OW 1129   6.983   5.031   4.525
   77SOL    HW1 1130   0.019   5.046   4.603
   77SOL    HW2 1131   6.898   4.988   4.555
   78SOL     OW 1132   5.414   1.432   1.580
   78SOL    HW1 1133   5.394   1.526   1.553
   78SOL    HW2 1134   5.492   1.398   1.527
   79SOL     OW 1135   1.248   4.291   4.317
   79SOL    HW1 1136   1.195   4.362   4.363
   79SOL    HW2 1137   1.301   4.240   4.385
   80SOL     OW 1138   3.560   2.155   5.302
   80SOL    HW1 1139   3.495   2.229   5.318
   80SOL    HW2 1140   3.652   2.187   5.323
   81SOL     OW 1141   3.781   5.221   2.550
   81SOL    HW1 1142   3.711   5.271   2.601
   81SOL    HW2 1143   3.742   5.138   2.511
   82SOL     OW 1144   3.360   0.468   2.035
   82SOL    HW1 1145   3.398   0.375   2.032
   82SOL    HW2 1146   3.295   0.474   2.111
   83SOL     OW 1147   5.490   1.107   4.381
   83SOL    HW1 1148   5.488   1.009   4.361
   83SOL    HW2 1149   5.460   1.123   4.475
   84SOL     OW 1150   5.897   2.596   3.128
   84SOL    HW1 1151   5.884   2.612   3.030
   84SOL    HW2 1152   5.813   2.557   3.166
   85SOL     OW 1153   2.169   5.938   3.270
   85SOL    HW1 1154   2.117   5.874   3.326
   85SOL    HW2 1155   2.143   6.032   3.293
   86SOL     OW 1156   4.706   0.941   0.075
   86SOL    HW1 1157   4.679   0.879   0.149
   86SOL    HW2 1158   4.749   0.889   0.002
   87SOL     OW 1159   2.971   2.805   6.808
   87SOL    HW1 1160   2.922   2.766   6.886
   87SOL    HW2 1161   3.048   2.859   6.842
   88SOL     OW 1162   1.709   2.704   1.462
   88SOL    HW1 1163   1.739   2.632   1.524
   88SOL    HW2 1164   1.695   2.789   1.514
   89SOL     OW 1165   3.324   3.854   4.945
   89SOL    HW1 1166   3.275   3.773   4.911
   89SOL    HW2 1167   3.260   3.912   4.995
   90SOL     OW 1168   6.656   4.139   1.880
   90SOL    HW1 1169   6.566   4.108   1.849
   90SOL    HW2 1170   6.725   4.116   1.811
   91SOL     OW 1171   4.371   6.061   1.175
   91SOL    HW1 1172   4.470   6.060   1.183
   91SOL    HW2 1173   4.331   5.995   1.239
   92SOL     OW 1174   5.854   5.003   0.368
   92SOL    HW1 1175   5.915   4.997   0.290
   92SOL    HW2 1176   5.810   4.915   0.383
   93SOL     OW 1177   2.950   3.852   1.858
   93SOL    HW1 1178   3.000   3.767   1.879
   93SOL    HW2 1179   3.000   3.930   1.896
   94SOL     OW 1180   3.084   1.538   4.422
   94SOL    HW1 1181   3.102   1.569   4.328
   94SOL    HW2 1182   3.081   1.438   4.423
   95SOL     OW 1183   0.584   6.948   3.783
   95SOL    HW1 1184   0.579   6.906   3.874
   95SOL    HW2 1185   0.572   0.023   3.791
   96SOL     OW 1186   0.422   5.983   6.570
   96SOL    HW1 1187   0.477   6.004   6.651
   96SOL    HW2 1188   0.483   5.964   6.493
   97SOL     OW 1189   3.556   4.702   5.300
   97SOL    HW1 1190   3.467   4.736   5.330
   97SOL    HW2 1191   3.618   4.779   5.284
   98SOL     OW 1192   0.930   3.175   5.012
   98SOL    HW1 1193   0.935   3.079   5.039
   98SOL    HW2 1194   0.960   3.232   5.089
   99SOL     OW 1195   4.217   4.798   5.096
   99SOL    HW1 1196   4.236   4.717   5.041
   99SOL    HW2 1197   4.144   4.851   5.054
  100SOL     OW 1198   1.483   0.691   5.213
  100SOL    HW1 1199   1.549   0.763   5.233
  100SOL    HW2 1200   1.390   0.728   5.218
  101SOL     OW 1201   5.165   3.195   2.825
  101SOL    HW1 1202   5.201   3.154   2.909
  101SOL    HW2 1203   5.239   3.240   2.775
  102SOL     OW 1204   3.710   0.351   6.953
  102SOL    HW1 1205   3.651   0.402   6.890
  102SOL    HW2 1206   3.804   0.384   6.946
  103SOL     OW 1207   1.343   2.089   1.607
  103SOL    HW1 1208   1.429   2.121   1.648
  103SOL    HW2 1209   1.300   2.022   1.667
  104SOL     OW 1210   0.105   4.550   1.749
  104SOL    HW1 1211   0.068   4.534   1.841
  104SOL    HW2 1212   0.202   4.570   1.755
  105SOL     OW 1213   6.837   0.786   5.168
  105SOL    HW1 1214   6.818   0.803   5.071
  105SOL    HW2 1215   6.894   0.704   5.176
  106SOL     OW 1216   4.392   2.967   1.680
  106SOL    HW1 1217   4.352   3.050   1.718
  106SOL    HW2 1218   4.486   2.957   1.712
  107SOL     OW 1219   4.515   6.675   2.328
  107SOL    HW1 1220   4.469   6.722   2.252
  107SOL    HW2 1221   4.446   6.628   2.383
  108SOL     OW 1222   3.577   1.630   4.789
  108SOL    HW1 1223   3.625   1.592   4.710
  108SOL    HW2 1224   3.638   1.691   4.839
  109SOL     OW 1225   1.930   1.082   5.353
  109SOL    HW1 1226   1.935   1.132   5.439
  109SOL    HW2 1227   2.019   1.085   5.307
  110SOL     OW 1228   4.149   4.586   5.635
  110SOL    HW1 1229   4.113   4.507   5.584
  110SOL    HW2 1230   4.075   4.628   5.687
  111SOL     OW 1231   6.205   3.322   1.894
  111SOL    HW1 1232   6.203   3.319   1.794
  111SOL    HW2 1233   6.159   3.405   1.926
  112SOL     OW 1234   4.615   6.745   4.901
  112SOL    HW1 1235   4.528   6.710   4.936
  112SOL    HW2 1236   4.674   6.768   4.979
  113SOL     OW 1237   0.553   5.052   2.497
  113SOL    HW1 1238   0.593   4.978   2.443
  113SOL    HW2 1239   0.624   5.097   2.551
  114SOL     OW 1240   0.029   2.258   1.834
  114SOL    HW1 1241   6.996   2.202   1.774
  114SOL    HW2 1242   0.023   2.225   1.928
  115SOL     OW 1243   4.345   1.100   2.870
  115SOL    HW1 1244   4.273   1.168   2.856
  115SOL    HW2 1245   4.394   1.085   2.784
  116SOL     OW 1246   6.468   5.763   1.105
  116SOL    HW1 1247   6.550   5.793   1.057
  116SOL    HW2 1248   6.411   5.842   1.126
  117SOL     OW 1249   2.768   1.808   0.210
  117SOL    HW1 1250   2.832   1.800   0.286
  117SOL    HW2 1251   2.675   1.817   0.245
  118SOL     OW 1252   6.996   2.172   2.081
  118SOL    HW1 1253   6.908   2.207   2.114
  118SOL    HW2 1254   7.013   2.082   2.122
  119SOL     OW 1255   6.231   6.424   5.028
  119SOL    HW1 1256   6.242   6.329   4.999
  119SOL    HW2 1257   6.258   6.433   5.124
  120SOL     OW 1258   4.270   1.673   4.572
  120SOL    HW1 1259   4.258   1.720   4.659
  120SOL    HW2 1260   4.188   1.685   4.516
  121SOL     OW 1261   0.342   5.498   6.022
  121SOL    HW1 1262   0.269   5.551   5.978
  121SOL    HW2 1263   0.416   5.559   6.048
  122SOL     OW 1264   6.984   4.908   5.928
  122SOL    HW1 1265   6.960   4.988   5.984
  122SOL    HW2 1266   6.967   4.825   5.981
  123SOL     OW 1267   0.791   3.215   1.202
  123SOL    HW1 1268   0.713   3.258   1.157
  123SOL    HW2 1269   0.859   3.190   1.133
  124SOL     OW 1270   1.974   3.525   6.864
  124SOL    HW1 1271   2.069   3.507   6.837
  124SOL    HW2 1272   1.916   3.449   6.836
  125SOL     OW 1273   4.466   2.196   0.511
  125SOL    HW1 1274   4.468   2.230   0.605
  125SOL    HW2 1275   4.560   2.181   0.479
  126SOL     OW 1276   3.759   3.465   4.734
  126SOL    HW1 1277   3.680   3.513   4.772
  126SOL    HW2 1278   3.769   3.487   4.637
  127SOL     OW 1279   0.269   5.034   6.051
  127SOL    HW1 1280   0.225   5.112   6.006
  127SOL    HW2 1281   0.207   4.994   6.118
  128SOL     OW 1282   4.473   4.335   5.927
  128SOL    HW1 1283   4.564   4.368   5.900
  128SOL    HW2 1284   4.482   4.278   6.009
  129SOL     OW 1285   0.957   4.752   1.349
  129SOL    HW1 1286   1.014   4.817   1.299
  129SOL    HW2 1287   0.948   4.668   1.296
  130SOL     OW 1288   6.182   3.604   4.902
  130SOL    HW1 1289   6.210   3.565   4.989
  130SOL    HW2 1290   6.092   3.568   4.876
  131SOL     OW 1291   1.194   3.386   3.018
  131SOL    HW1 1292   1.269   3.391   3.084
  131SOL    HW2 1293   1.197   3.466   2.958
  132SOL     OW 1294   4.871   2.904   1.594
  132SOL    HW1 1295   4.822   2.988   1.617
  132SOL    HW2 1296   4.821   2.856   1.522
  133SOL     OW 1297   4.272   4.746   6.343
  133SOL    HW1 1298   4.369   4.730   6.327
  133SOL    HW2 1299   4.225   4.659   6.353
  134SOL     OW 1300   6.809   2.224   0.656
  134SOL    HW1 1301   6.790   2.208   0.559
  134SOL    HW2 1302   6.725   2.209   0.709
  135SOL     OW 1303   4.437   4.586   3.715
  135SOL    HW1 1304   4.442   4.611   3.812
  135SOL    HW2 1305   4.389   4.658   3.665
  136SOL     OW 1306   4.114   6.552   6.738
  136SOL    HW1 1307   4.023   6.571   6.702
  136SOL    HW2 1308   4.167   6.501   6.670
  137SOL     OW 1309   2.096   4.185   6.926
  137SOL    HW1 1310   2.163   4.116   6.953
  137SOL    HW2 1311   2.093   4.191   6.826
  138SOL     OW 1312   0.783   6.249   0.048
  138SOL    HW1 1313   0.804   6.154   0.069
  138SOL    HW2 1314   0.867   6.303   0.051
  139SOL     OW 1315   0.436   0.958   1.014
  139SOL    HW1 1316   0.387   0.877   1.047
  139SOL    HW2 1317   0.533   0.949   1.034
  140SOL     OW 1318   3.701   0.041   1.677
  140SOL    HW1 1319   3.759   0.014   1.755
  140SOL    HW2 1320   3.729   0.131   1.645
  141SOL     OW 1321   0.881   1.155   6.738
  141SOL    HW1 1322   0.978   1.180   6.727
  141SOL    HW2 1323   0.870   1.100   6.820
  142SOL     OW 1324   1.803   3.753   6.759
  142SOL    HW1 1325   1.874   3.695   6.799
  142SOL    HW2 1326   1.768   3.709   6.676
  143SOL     OW 1327   4.970   5.639   1.747
  143SOL    HW1 1328   4.997   5.722   1.699
  143SOL    HW2 1329   4.878   5.611   1.717
  144SOL     OW 1330   2.857   5.647   2.947
  144SOL    HW1 1331   2.834   5.560   2.990
  144SOL    HW2 1332   2.920   5.698   3.005
  145SOL     OW 1333   0.527   5.511   3.595
  145SOL    HW1 1334   0.505   5.479   3.503
  145SOL    HW2 1335   0.461   5.473   3.661
  146SOL     OW 1336   6.640   0.836   5.947
  146SOL    HW1 1337   6.656   0.850   5.849
  146SOL    HW2 1338   6.683   0.751   5.976
  147SOL     OW 1339   5.719   0.841   5.104
  147SOL    HW1 1340   5.650   0.913   5.103
  147SOL    HW2 1341   5.796   0.869   5.161
  148SOL     OW 1342   1.866   6.564   1.630
  148SOL    HW1 1343   1.817   6.512   1.701
  148SOL    HW2 1344   1.960   6.531   1.623
  149SOL     OW 1345   1.999   3.096   4.730
  149SOL    HW1 1346   1.989   3.111   4.829
  149SOL    HW2 1347   2.096   3.097   4.706
  150SOL     OW 1348   5.045   2.581   5.869
  150SOL    HW1 1349   5.032   2.482   5.865
  150SOL    HW2 1350   5.139   2.603   5.842
  151SOL     OW 1351   6.146   2.913   1.460
  151SOL    HW1 1352   6.063   2.858   1.475
  151SOL    HW2 1353   6.126   3.009   1.479
  152SOL     OW 1354   7.003   2.883   0.601
  152SOL    HW1 1355   0.006   2.960   0.658
  152SOL    HW2 1356   6.969   2.917   0.513
  153SOL     OW 1357   1.501   1.923   3.723
  153SOL    HW1 1358   1.403   1.936   3.733
  153SOL    HW2 1359   1.532   1.969   3.639
  154SOL     OW 1360   0.034   1.407   3.786
  154SOL    HW1 1361   0.125   1.388   3.749
  154SOL    HW2 1362   0.040   1.477   3.857
  155SOL     OW 1363   5.602   4.996   3.590
  155SOL    HW1 1364   5.676   5.044   3.637
  155SOL    HW2 1365   5.639   4.936   3.519
  156SOL     OW 1366   4.612   0.474   1.675
  156SOL    HW1 1367   4.598   0.389   1.726
  156SOL    HW2 1368   4.665   0.538   1.731
  157SOL     OW 1369   5.020   0.274   1.363
  157SOL    HW1 1370   4.952   0.209   1.396
  157SOL    HW2 1371   4.997   0.301   1.269
  158SOL     OW 1372   0.981   3.446   3.964
  158SOL    HW1 1373   1.025   3.372   4.014
  158SOL    HW2 1374   0.922   3.498   4.027
  159SOL     OW 1375   6.668   5.072   6.713
  159SOL    HW1 1376   6.699   4.987   6.757
  159SOL    HW2 1377   6.695   5.150   6.770
  160SOL     OW 1378   4.141   0.643   1.045
  160SOL    HW1 1379   4.092   0.716   1.093
  160SOL    HW2 1380   4.211   0.605   1.106
  161SOL     OW 1381   0.004   6.912   0.386
  161SOL    HW1 1382   6.957   6.979   0.367
  161SOL    HW2 1383   0.005   6.844   0.312
  162SOL     OW 1384   4.518   6.915   5.859
  162SOL    HW1 1385   4.459   6.969   5.798
  162SOL    HW2 1386   4.558   6.840   5.807
  163SOL     OW 1387   0.868   3.685   2.593
  163SOL    HW1 1388   0.966   3.693   2.613
  163SOL    HW2 1389   0.816   3.731   2.665
  164SOL     OW 1390   1.766   2.172   2.225
  164SOL    HW1 1391   1.775   2.257   2.278
  164SOL    HW2 1392   1.675   2.134   2.241
  165SOL     OW 1393   0.419   6.363   4.405
  165SOL    HW1 1394   0.446   6.454   4.439
  165SOL    HW2 1395   0.386   6.371   4.311
  166SOL     OW 1396   0.622   4.625   3.780
  166SOL    HW1 1397   0.678   4.570   3.840
  166SOL    HW2 1398   0.543   4.661   3.830
  167SOL     OW 1399   1.059   1.208   3.290
  167SOL    HW1 1400   1.078   1.196   3.387
  167SOL    HW2 1401   1.031   1.303   3.273
  168SOL     OW 1402   3.222   3.639   3.174
  168SOL    HW1 1403   3.138   3.633   3.121
  168SOL    HW2 1404   3.201   3.658   3.270
  169SOL     OW 1405   5.428   2.394   7.008
  169SOL    HW1 1406   5.360   2.324   0.005
  169SOL    HW2 1407   5.393   2.484   0.011
  170SOL     OW 1408   6.784   5.309   1.821
  170SOL    HW1 1409   6.699   5.284   1.776
  170SOL    HW2 1410   6.861   5.281   1.763
  171SOL     OW 1411   3.047   2.498   0.529
  171SOL    HW1 1412   3.057   2.567   0.458
  171SOL    HW2 1413   3.108   2.521   0.606
  172SOL     OW 1414   1.459   1.284   0.151
  172SOL    HW1 1415   1.533   1.255   0.091
  172SOL    HW2 1416   1.405   1.205   0.180
  173SOL     OW 1417   5.800   0.648   4.935
  173SOL    HW1 1418   5.795   0.564   4.988
  173SOL    HW2 1419   5.766   0.725   4.989
  174SOL     OW 1420   6.040   3.875   5.475
  174SOL    HW1 1421   6.062   3.949   5.538
  174SOL    HW2 1422   6.113   3.866   5.407
  175SOL     OW 1423   0.268   6.590   2.564
  175SOL    HW1 1424   0.320   6.575   2.480
  175SOL    HW2 1425   0.290   6.680   2.601
  176SOL     OW 1426   6.615   3.911   0.866
  176SOL    HW1 1427   6.700   3.943   0.906
  176SOL    HW2 1428   6.598   3.960   0.780
  177SOL     OW 1429   6.695   2.470   3.740
  177SOL    HW1 1430   6.667   2.561   3.708
  177SOL    HW2 1431   6.651   2.451   3.827
  178SOL     OW 1432   2.049   5.747   4.789
  178SOL    HW1 1433   2.009   5.839   4.789
  178SOL    HW2 1434   2.052   5.713   4.695
  179SOL     OW 1435   3.545   4.161   2.021
  179SOL    HW1 1436   3.598   4.197   2.097
  179SOL    HW2 1437   3.459   4.122   2.055
  180SOL     OW 1438   4.815   1.585   6.631
  180SOL    HW1 1439   4.729   1.637   6.628
  180SOL    HW2 1440   4.869   1.615   6.709
  181SOL     OW 1441   3.737   0.180   5.404
  181SOL    HW1 1442   3.705   0.261   5.452
  181SOL    HW2 1443   3.744   0.199   5.306
  182SOL     OW 1444   3.056   3.184   5.685
  182SOL    HW1 1445   3.008   3.096   5.691
  182SOL    HW2 1446   3.111   3.187   5.602
  183SOL     OW 1447   3.027   1.364   3.298
  183SOL    HW1 1448   3.038   1.384   3.396
  183SOL    HW2 1449   2.932   1.339   3.279
  184SOL     OW 1450   4.969   5.359   3.320
  184SOL    HW1 1451   4.982   5.458   3.326
  184SOL    HW2 1452   5.057   5.313   3.333
  185SOL     OW 1453   0.097   6.782   4.884
  185SOL    HW1 1454   0.121   6.684   4.881
  185SOL    HW2 1455   0.181   6.836   4.878
  186SOL     OW 1456   2.671   5.985   5.980
  186SOL    HW1 1457   2.746   5.981   5.914
  186SOL    HW2 1458   2.591   6.028   5.937
  187SOL     OW 1459   3.890   5.544   1.138
  187SOL    HW1 1460   3.811   5.504   1.092
  187SOL    HW2 1461   3.896   5.641   1.116
  188SOL     OW 1462   1.534   3.717   3.490
  188SOL    HW1 1463   1.611   3.745   3.432
  188SOL    HW2 1464   1.550   3.624   3.523
  189SOL     OW 1465   5.349   4.390   6.023
  189SOL    HW1 1466   5.339   4.465   6.088
  189SOL    HW2 1467   5.418   4.326   6.056
  190SOL     OW 1468   6.003   6.838   0.666
  190SOL    HW1 1469   5.932   6.850   0.597
  190SOL    HW2 1470   6.050   6.751   0.652
  191SOL     OW 1471   1.816   2.397   5.297
  191SOL    HW1 1472   1.877   2.471   5.324
  191SOL    HW2 1473   1.866   2.310   5.301
  192SOL     OW 1474   0.052   6.579   1.464
  192SOL    HW1 1475   0.017   6.540   1.549
  192SOL    HW2 1476   0.123   6.520   1.427
  193SOL     OW 1477   3.066   0.684   1.609
  193SOL    HW1 1478   2.976   0.641   1.605
  193SOL    HW2 1479   3.085   0.712   1.703
  194SOL     OW 1480   4.292   6.200   3.227
  194SOL    HW1 1481   4.361   6.229   3.293
  194SOL    HW2 1482   4.220   6.270   3.221
  195SOL     OW 1483   2.764   0.710   0.976
  195SOL    HW1 1484   2.697   0.719   0.902
  195SOL    HW2 1485   2.733   0.640   1.041
  196SOL     OW 1486   4.699   2.753   1.431
  196SOL    HW1 1487   4.683   2.700   1.515
  196SOL    HW2 1488   4.623   2.739   1.368
  197SOL     OW 1489   1.812   6.087   0.676
  197SOL    HW1 1490   1.902   6.081   0.634
  197SOL    HW2 1491   1.760   6.004   0.657
  198SOL     OW 1492   4.960   6.531   6.679
  198SOL    HW1 1493   5.047   6.490   6.706
  198SOL    HW2 1494   4.910   6.559   6.761
  199SOL     OW 1495   2.007   0.723   3.071
  199SOL    HW1 1496   2.014   0.681   2.981
  199SOL    HW2 1497   2.097   0.724   3.114
  200SOL     OW 1498   1.356   3.878   4.293
  200SOL    HW1 1499   1.265   3.839   4.282
  200SOL    HW2 1500   1.366   3.957   4.232
  201SOL     OW 1501   4.602   1.737   6.702
  201SOL    HW1 1502   4.611   1.836   6.701
  201SOL    HW2 1503   4.556   1.708   6.786
  202SOL     OW 1504   4.160   0.261   3.156
  202SOL    HW1 1505   4.150   0.347   3.205
  202SOL    HW2 1506   4.256   0.247   3.131
  203SOL     OW 1507   5.944   2.593   0.229
  203SOL    HW1 1508   5.985   2.557   0.313
  203SOL    HW2 1509   5.853   2.552   0.217
  204SOL     OW 1510   1.682   6.133   1.190
  204SOL    HW1 1511   1.591   6.166   1.212
  204SOL    HW2 1512   1.675   6.047   1.140
  205SOL     OW 1513   5.198   0.838   1.331
  205SOL    HW1 1514   5.179   0.847   1.429
  205SOL    HW2 1515   5.270   0.903   1.305
  206SOL     OW 1516   0.034   5.980   1.270
  206SOL    HW1 1517   0.028   6.074   1.302
  206SOL    HW2 1518   0.035   5.979   1.170
  207SOL     OW 1519   6.318   1.985   5.858
  207SOL    HW1 1520   6.404   1.977   5.907
  207SOL    HW2 1521   6.308   1.907   5.795
  208SOL     OW 1522   3.951   4.110   6.914
  208SOL    HW1 1523   3.993   4.120   6.824
  208SOL    HW2 1524   3.910   4.197   6.941
  209SOL     OW 1525   0.105   6.145   4.107
  209SOL    HW1 1526   0.118   6.071   4.173
  209SOL    HW2 1527   0.053   6.111   4.029
  210SOL     OW 1528   3.994   2.312   0.621
  210SOL    HW1 1529   4.051   2.258   0.559
  210SOL    HW2 1530   3.913   2.260   0.646
  211SOL     OW 1531   1.091   3.311   1.611
  211SOL    HW1 1532   1.122   3.406   1.604
  211SOL    HW2 1533   1.053   3.295   1.701
  212SOL     OW 1534   1.189   5.454   5.401
  212SOL    HW1 1535   1.261   5.402   5.354
  212SOL    HW2 1536   1.175   5.417   5.492
  213SOL     OW 1537   3.764   2.473   0.261
  213SOL    HW1 1538   3.785   2.414   0.183
  213SOL    HW2 1539   3.806   2.562   0.247
  214SOL     OW 1540   1.400   6.184   3.254
  214SOL    HW1 1541   1.397   6.194   3.155
  214SOL    HW2 1542   1.495   6.192   3.285
  215SOL     OW 1543   3.193   4.113   2.969
  215SOL    HW1 1544   3.221   4.108   2.873
  215SOL    HW2 1545   3.120   4.046   2.985
  216SOL     OW 1546   2.924   0.304   5.608
  216SOL    HW1 1547   2.958   0.392   5.642
  216SOL    HW2 1548   2.883   0.316   5.518
  217SOL     OW 1549   6.833   2.454   5.106
  217SOL    HW1 1550   6.893   2.384   5.143
  217SOL    HW2 1551   6.886   2.516   5.048
  218SOL     OW 1552   2.616   3.902   5.536
  218SOL    HW1 1553   2.688   3.940   5.593
  218SOL    HW2 1554   2.530   3.950   5.554
  219SOL     OW 1555   3.233   5.351   6.888
  219SOL    HW1 1556   3.232   5.432   6.947
  219SOL    HW2 1557   3.145   5.304   6.894
  220SOL     OW 1558   1.582   4.575   0.070
  220SOL    HW1 1559   1.612   4.492   0.116
  220SOL    HW2 1560   1.552   4.642   0.138
  221SOL     OW 1561   5.890   2.425   4.827
  221SOL    HW1 1562   5.893   2.332   4.792
  221SOL    HW2 1563   5.861   2.487   4.754
  222SOL     OW 1564   1.796   6.460   4.656
  222SOL    HW1 1565   1.715   6.412   4.623
  222SOL    HW2 1566   1.776   6.505   4.742
  223SOL     OW 1567   5.742   4.982   2.633
  223SOL    HW1 1568   5.691   4.925   2.698
  223SOL    HW2 1569   5.840   4.964   2.643
  224SOL     OW 1570   4.481   2.044   2.516
  224SOL    HW1 1571   4.502   2.122   2.457
  224SOL    HW2 1572   4.400   2.066   2.571
  225SOL     OW 1573   5.078   6.617   1.144
  225SOL    HW1 1574   4.996   6.630   1.089
  225SOL    HW2 1575   5.158   6.611   1.084
  226SOL     OW 1576   0.528   5.404   2.637
  226SOL    HW1 1577   0.439   5.386   2.594
  226SOL    HW2 1578   0.516   5.465   2.715
  227SOL     OW 1579   1.368   3.667   3.208
  227SOL    HW1 1580   1.466   3.688   3.214
  227SOL    HW2 1581   1.357   3.568   3.195
  228SOL     OW 1582   3.963   6.519   2.512
  228SOL    HW1 1583   4.014   6.530   2.427
  228SOL    HW2 1584   3.990   6.589   2.577
  229SOL     OW 1585   6.678   5.313   2.927
  229SOL    HW1 1586   6.643   5.222   2.945
  229SOL    HW2 1587   6.602   5.373   2.901
  230SOL     OW 1588   0.884   4.517   5.955
  230SOL    HW1 1589   0.868   4.589   6.022
  230SOL    HW2 1590   0.799   4.468   5.937
  231SOL     OW 1591   0.360   2.322   6.514
  231SOL    HW1 1592   0.389   2.227   6.498
  231SOL    HW2 1593   0.371   2.344   6.611
  232SOL     OW 1594   1.134   3.814   6.180
  232SOL    HW1 1595   1.206   3.873   6.217
  232SOL    HW2 1596   1.173   3.749   6.116
  233SOL     OW 1597   3.256   6.991   6.806
  233SOL    HW1 1598   3.181   0.019   6.847
  233SOL    HW2 1599   3.262   7.013   6.708
  234SOL     OW 1600   2.453   4.619   6.235
  234SOL    HW1 1601   2.478   4.662   6.322
  234SOL    HW2 1602   2.356   4.595   6.237
  235SOL     OW 1603   3.248   2.941   5.768
  235SOL    HW1 1604   3.347   2.936   5.752
  235SOL    HW2 1605   3.201   2.964   5.683
  236SOL     OW 1606   0.480   2.159   5.995
  236SOL    HW1 1607   0.549   2.212   6.043
  236SOL    HW2 1608   0.506   2.062   5.998
  237SOL     OW 1609   6.630   6.563   1.814
  237SOL    HW1 1610   6.535   6.575   1.784
  237SOL    HW2 1611   6.671   6.652   1.834
  238SOL     OW 1612   0.213   1.880   2.622
  238SOL    HW1 1613   0.150   1.864   2.698
  238SOL    HW2 1614   0.306   1.856   2.650
  239SOL     OW 1615   6.410   5.441   0.558
  239SOL    HW1 1616   6.390   5.402   0.648
  239SOL    HW2 1617   6.418   5.541   0.566
  240SOL     OW 1618   0.025   2.500   5.395
  240SOL    HW1 1619   7.016   2.434   5.327
  240SOL    HW2 1620   0.043   2.453   5.481
  241SOL     OW 1621   5.320   2.275   4.845
  241SOL    HW1 1622   5.257   2.218   4.898
  241SOL    HW2 1623   5.268   2.346   4.797
  242SOL     OW 1624   2.720   2.247   4.132
  242SOL    HW1 1625   2.769   2.270   4.216
  242SOL    HW2 1626   2.622   2.261   4.146
  243SOL     OW 1627   5.011   1.075   6.880
  243SOL    HW1 1628   4.950   1.003   6.848
  243SOL    HW2 1629   4.957   1.150   6.917
  244SOL     OW 1630   0.955   1.863   5.721
  244SOL    HW1 1631   1.027   1.793   5.724
  244SOL    HW2 1632   0.981   1.935   5.657
  245SOL     OW 1633   4.884   2.940   3.601
  245SOL    HW1 1634   4.859   2.952   3.697
  245SOL    HW2 1635   4.923   2.849   3.588
  246SOL     OW 1636   4.844   2.871   4.245
  246SOL    HW1 1637   4.811   2.952   4.197
  246SOL    HW2 1638   4.797   2.864   4.333
  247SOL     OW 1639   3.052   0.708   2.820
  247SOL    HW1 1640   3.117   0.681   2.749
  247SOL    HW2 1641   3.100   0.764   2.889
  248SOL     OW 1642   0.247   1.909   2.352
  248SOL    HW1 1643   0.212   1.897   2.445
  248SOL    HW2 1644   0.248   2.006   2.329
  249SOL     OW 1645   2.101   5.467   5.143
  249SOL    HW1 1646   2.058   5.377   5.142
  249SOL    HW2 1647   2.032   5.537   5.157
  250SOL     OW 1648   5.558   2.343   0.646
  250SOL    HW1 1649   5.545   2.265   0.585
  250SOL    HW2 1650   5.646   2.387   0.626
  251SOL     OW 1651   2.161   0.872   0.916
  251SOL    HW1 1652   2.194   0.828   1.000
  251SOL    HW2 1653   2.116   0.958   0.939
  252SOL     OW 1654   0.418   2.094   0.083
  252SOL    HW1 1655   0.432   2.006   0.128
  252SOL    HW2 1656   0.494   2.114   0.022
  253SOL     OW 1657   1.862   4.376   6.274
  253SOL    HW1 1658   1.899   4.440   6.208
  253SOL    HW2 1659   1.837   4.291   6.228
  254SOL     OW 1660   4.893   3.941   6.297
  254SOL    HW1 1661   4.965   4.008   6.316
  254SOL    HW2 1662   4.834   3.975   6.224
  255SOL     OW 1663   4.172   2.225   2.126
  255SOL    HW1 1664   4.168   2.196   2.221
  255SOL    HW2 1665   4.207   2.318   2.120
  256SOL     OW 1666   6.584   5.525   1.575
  256SOL    HW1 1667   6.649   5.588   1.618
  256SOL    HW2 1668   6.539   5.570   1.498
  257SOL     OW 1669   2.490   5.639   5.655
  257SOL    HW1 1670   2.467   5.735   5.669
  257SOL    HW2 1671   2.535   5.603   5.736
  258SOL     OW 1672   4.324   5.021   4.132
  258SOL    HW1 1673   4.339   4.987   4.040
  258SOL    HW2 1674   4.314   4.944   4.195
  259SOL     OW 1675   0.887   1.911   2.876
  259SOL    HW1 1676   0.885   2.011   2.863
  259SOL    HW2 1677   0.878   1.866   2.787
  260SOL     OW 1678   6.447   6.589   5.739
  260SOL    HW1 1679   6.528   6.595   5.796
  260SOL    HW2 1680   6.474   6.570   5.644
  261SOL     OW 1681   0.538   1.063   3.863
  261SOL    HW1 1682   0.611   1.009   3.905
  261SOL    HW2 1683   0.560   1.160   3.869
  262SOL     OW 1684   1.211   4.926   1.472
  262SOL    HW1 1685   1.215   5.008   1.415
  262SOL    HW2 1686   1.143   4.939   1.544
  263SOL     OW 1687   0.506   4.430   3.972
  263SOL    HW1 1688   0.584   4.373   3.949
  263SOL    HW2 1689   0.453   4.387   4.046
  264SOL     OW 1690   3.203   4.168   0.218
  264SOL    HW1 1691   3.284   4.180   0.275
  264SOL    HW2 1692   3.124   4.150   0.276
  265SOL     OW 1693   4.102   5.566   3.641
  265SOL    HW1 1694   4.160   5.485   3.636
  265SOL    HW2 1695   4.043   5.570   3.561
  266SOL     OW 1696   4.616   3.604   6.974
  266SOL    HW1 1697   4.596   3.671   0.023
  266SOL    HW2 1698   4.683   3.643   6.911
  267SOL     OW 1699   2.107   2.149   5.955
  267SOL    HW1 1700   2.063   2.118   5.870
  267SOL    HW2 1701   2.045   2.208   6.005
  268SOL     OW 1702   2.090   4.518   3.580
  268SOL    HW1 1703   2.096   4.455   3.657
  268SOL    HW2 1704   2.053   4.605   3.611
  269SOL     OW 1705   2.413   2.022   5.284
  269SOL    HW1 1706   2.483   2.084   5.319
  269SOL    HW2 1707   2.385   2.052   5.193
  270SOL     OW 1708   4.945   6.314   4.937
  270SOL    HW1 1709   5.020   6.378   4.954
  270SOL    HW2 1710   4.979   6.235   4.888
  271SOL     OW 1711   2.356   1.586   0.362
  271SOL    HW1 1712   2.356   1.501   0.308
  271SOL    HW2 1713   2.262   1.614   0.379
  272SOL     OW 1714   4.375   5.343   0.328
  272SOL    HW1 1715   4.320   5.270   0.289
  272SOL    HW2 1716   4.316   5.421   0.351
  273SOL     OW 1717   1.768   5.861   3.928
  273SOL    HW1 1718   1.722   5.775   3.949
  273SOL    HW2 1719   1.849   5.870   3.986
  274SOL     OW 1720   5.953   2.216   1.909
  274SOL    HW1 1721   5.912   2.135   1.866
  274SOL    HW2 1722   5.916   2.299   1.865
  275SOL     OW 1723   6.035   5.621   5.925
  275SOL    HW1 1724   5.994   5.712   5.930
  275SOL    HW2 1725   6.116   5.618   5.983
  276SOL     OW 1726   0.560   0.338   4.174
  276SOL    HW1 1727   0.478   0.281   4.169
  276SOL    HW2 1728   0.543   0.425   4.127
  277SOL     OW 1729   4.030   2.828   5.317
  277SOL    HW1 1730   4.063   2.743   5.277
  277SOL    HW2 1731   3.942   2.813   5.362
  278SOL     OW 1732   5.828   3.922   3.159
  278SOL    HW1 1733   5.815   3.833   3.115
  278SOL    HW2 1734   5.804   3.995   3.095
  279SOL     OW 1735   0.330   3.992   3.582
  279SOL    HW1 1736   0.289   3.945   3.504
  279SOL    HW2 1737   0.262   4.051   3.625
  280SOL     OW 1738   4.315   2.049   3.615
  280SOL    HW1 1739   4.310   1.980   3.543
  280SOL    HW2 1740   4.223   2.078   3.640
  281SOL     OW 1741   4.837   6.040   5.245
  281SOL    HW1 1742   4.825   6.127   5.292
  281SOL    HW2 1743   4.783   5.969   5.290
  282SOL     OW 1744   1.099   2.421   0.127
  282SOL    HW1 1745   1.056   2.336   0.098
  282SOL    HW2 1746   1.119   2.417   0.225
  283SOL     OW 1747   6.121   3.550   3.480
  283SOL    HW1 1748   6.035   3.513   3.446
  283SOL    HW2 1749   6.142   3.635   3.432
  284SOL     OW 1750   5.404   6.784   2.626
  284SOL    HW1 1751   5.396   6.711   2.558
  284SOL    HW2 1752   5.316   6.797   2.672
  285SOL     OW 1753   3.962   6.174   6.271
  285SOL    HW1 1754   3.971   6.230   6.353
  285SOL    HW2 1755   4.048   6.176   6.219
  286SOL     OW 1756   2.629   5.084   5.431
  286SOL    HW1 1757   2.687   5.085   5.512
  286SOL    HW2 1758   2.677   5.039   5.355
  287SOL     OW 1759   3.349   5.492   0.458
  287SOL    HW1 1760   3.341   5.543   0.372
  287SOL    HW2 1761   3.274   5.427   0.465
  288SOL     OW 1762   4.330   1.408   0.257
  288SOL    HW1 1763   4.385   1.390   0.176
  288SOL    HW2 1764   4.375   1.370   0.337
  289SOL     OW 1765   5.245   4.927   4.786
  289SOL    HW1 1766   5.216   4.886   4.699
  289SOL    HW2 1767   5.331   4.885   4.816
  290SOL     OW 1768   3.743   0.547   5.319
  290SOL    HW1 1769   3.833   0.590   5.312
  290SOL    HW2 1770   3.678   0.594   5.259
  291SOL     OW 1771   5.294   1.254   5.066
  291SOL    HW1 1772   5.241   1.234   4.984
  291SOL    HW2 1773   5.275   1.347   5.097
  292SOL     OW 1774   3.410   0.314   3.657
  292SOL    HW1 1775   3.335   0.258   3.622
  292SOL    HW2 1776   3.372   0.391   3.710
  293SOL     OW 1777   5.435   0.380   2.807
  293SOL    HW1 1778   5.362   0.428   2.856
  293SOL    HW2 1779   5.515   0.372   2.867
  294SOL     OW 1780   6.962   1.916   6.220
  294SOL    HW1 1781   6.931   1.926   6.315
  294SOL    HW2 1782   0.017   1.854   6.217
  295SOL     OW 1783   0.495   0.412   4.910
  295SOL    HW1 1784   0.408   0.434   4.865
  295SOL    HW2 1785   0.484   0.420   5.009
  296SOL     OW 1786   0.908   1.781   1.725
  296SOL    HW1 1787   0.879   1.757   1.817
  296SOL    HW2 1788   0.991   1.730   1.702
  297SOL     OW 1789   5.120   3.250   3.579
  297SOL    HW1 1790   5.021   3.258   3.576
  297SOL    HW2 1791   5.147   3.160   3.544
  298SOL     OW 1792   4.292   0.968   5.916
  298SOL    HW1 1793   4.275   1.053   5.865
  298SOL    HW2 1794   4.288   0.987   6.014
  299SOL     OW 1795   0.873   1.380   5.760
  299SOL    HW1 1796   0.914   1.455   5.812
  299SOL    HW2 1797   0.871   1.298   5.816
  300SOL     OW 1798   4.537   6.282   3.887
  300SOL    HW1 1799   4.505   6.372   3.859
  300SOL    HW2 1800   4.629   6.267   3.851
  301SOL     OW 1801   0.181   6.327   5.850
  301SOL    HW1 1802   0.213   6.260   5.783
  301SOL    HW2 1803   0.098   6.371   5.816
  302SOL     OW 1804   6.996   6.903   1.941
  302SOL    HW1 1805   0.019   6.819   1.968
  302SOL    HW2 1806   0.007   6.934   1.853
  303SOL     OW 1807   5.453   6.010   2.530
  303SOL    HW1 1808   5.532   5.952   2.509
  303SOL    HW2 1809   5.387   6.004   2.455
  304SOL     OW 1810   2.148   0.119   4.418
  304SOL    HW1 1811   2.242   0.115   4.383
  304SOL    HW2 1812   2.121   0.028   4.450
  305SOL     OW 1813   1.356   1.734   1.436
  305SOL    HW1 1814   1.423   1.765   1.369
  305SOL    HW2 1815   1.403   1.693   1.514
  306SOL     OW 1816   6.978   0.030   2.298
  306SOL    HW1 1817   6.939   0.084   2.223
  306SOL    HW2 1818   6.931   0.053   2.383
  307SOL     OW 1819   3.602   3.360   3.665
  307SOL    HW1 1820   3.536   3.368   3.740
  307SOL    HW2 1821   3.556   3.374   3.578
  308SOL     OW 1822   6.057   1.433   2.073
  308SOL    HW1 1823   6.097   1.421   2.164
  308SOL    HW2 1824   6.120   1.486   2.016
  309SOL     OW 1825   1.931   4.693   0.105
  309SOL    HW1 1826   2.027   4.720   0.108
  309SOL    HW2 1827   1.919   4.616   0.043
  310SOL     OW 1828   5.057   6.814   4.683
  310SOL    HW1 1829   5.094   6.763   4.760
  310SOL    HW2 1830   4.986   6.759   4.638
  311SOL     OW 1831   1.286   6.702   1.893
  311SOL    HW1 1832   1.307   6.795   1.925
  311SOL    HW2 1833   1.193   6.678   1.921
  312SOL     OW 1834   3.527   0.381   4.305
  312SOL    HW1 1835   3.549   0.403   4.401
  312SOL    HW2 1836   3.440   0.332   4.301
  313SOL     OW 1837   2.939   3.260   2.846
  313SOL    HW1 1838   2.849   3.232   2.877
  313SOL    HW2 1839   3.005   3.187   2.865
  314SOL     OW 1840   2.927   5.618   6.197
  314SOL    HW1 1841   2.994   5.654   6.262
  314SOL    HW2 1842   2.835   5.631   6.233
  315SOL     OW 1843   5.857   0.607   4.231
  315SOL    HW1 1844   5.808   0.670   4.172
  315SOL    HW2 1845   5.828   0.513   4.213
  316SOL     OW 1846   3.448   1.292   5.933
  316SOL    HW1 1847   3.514   1.366   5.948
  316SOL    HW2 1848   3.479   1.235   5.857
  317SOL     OW 1849   0.732   2.326   1.105
  317SOL    HW1 1850   0.643   2.353   1.142
  317SOL    HW2 1851   0.734   2.226   1.094
  318SOL     OW 1852   0.629   0.732   3.496
  318SOL    HW1 1853   0.568   0.793   3.446
  318SOL    HW2 1854   0.657   0.656   3.436
  319SOL     OW 1855   0.270   0.860   2.679
  319SOL    HW1 1856   0.265   0.773   2.730
  319SOL    HW2 1857   0.323   0.846   2.595
  320SOL     OW 1858   4.989   1.567   0.272
  320SOL    HW1 1859   5.064   1.513   0.308
  320SOL    HW2 1860   4.993   1.567   0.172
  321SOL     OW 1861   4.665   2.979   0.790
  321SOL    HW1 1862   4.689   3.067   0.832
  321SOL    HW2 1863   4.661   2.909   0.861
  322SOL     OW 1864   3.432   2.703   6.792
  322SOL    HW1 1865   3.349   2.695   6.848
  322SOL    HW2 1866   3.487   2.779   6.825
  323SOL     OW 1867   1.386   3.366   2.325
  323SOL    HW1 1868   1.390   3.339   2.229
  323SOL    HW2 1869   1.462   3.323   2.375
  324SOL     OW 1870   6.983   0.494   3.249
  324SOL    HW1 1871   0.058   0.483   3.233
  324SOL    HW2 1872   6.933   0.460   3.170
  325SOL     OW 1873   6.349   3.496   0.954
  325SOL    HW1 1874   6.408   3.565   0.997
  325SOL    HW2 1875   6.267   3.541   0.918
  326SOL     OW 1876   0.126   5.867   0.000
  326SOL    HW1 1877   0.033   5.856   0.035
  326SOL    HW2 1878   0.130   5.832   6.930
  327SOL     OW 1879   4.251   6.402   6.587
  327SOL    HW1 1880   4.338   6.359   6.611
  327SOL    HW2 1881   4.192   6.335   6.542
  328SOL     OW 1882   1.256   5.083   3.574
  328SOL    HW1 1883   1.180   5.147   3.563
  328SOL    HW2 1884   1.300   5.068   3.486
  329SOL     OW 1885   3.665   3.128   1.964
  329SOL    HW1 1886   3.581   3.078   1.943
  329SOL    HW2 1887   3.742   3.064   1.968
  330SOL     OW 1888   2.789   3.321   6.930
  330SOL    HW1 1889   2.827   3.269   7.006
  330SOL    HW2 1890   2.738   3.259   6.870
  331SOL     OW 1891   5.146   4.834   4.532
  331SOL    HW1 1892   5.124   4.825   4.435
  331SOL    HW2 1893   5.062   4.844   4.584
  332SOL     OW 1894   5.897   2.294   3.399
  332SOL    HW1 1895   5.818   2.272   3.342
  332SOL    HW2 1896   5.874   2.371   3.459
  333SOL     OW 1897   4.149   6.396   3.903
  333SOL    HW1 1898   4.128   6.299   3.890
  333SOL    HW2 1899   4.242   6.414   3.872
  334SOL     OW 1900   3.260   3.592   4.147
  334SOL    HW1 1901   3.358   3.582   4.129
  334SOL    HW2 1902   3.238   3.551   4.235
  335SOL     OW 1903   3.202   0.922   1.149
  335SOL    HW1 1904   3.222   0.985   1.074
  335SOL    HW2 1905   3.154   0.841   1.113
  336SOL     OW 1906   4.378   1.904   5.051
  336SOL    HW1 1907   4.372   1.804   5.041
  336SOL    HW2 1908   4.310   1.935   5.116
  337SOL     OW 1909   6.784   1.195   5.282
  337SOL    HW1 1910   6.717   1.120   5.277
  337SOL    HW2 1911   6.869   1.160   5.320
  338SOL     OW 1912   4.864   1.503   1.422
  338SOL    HW1 1913   4.944   1.489   1.480
  338SOL    HW2 1914   4.869   1.592   1.378
  339SOL     OW 1915   4.225   4.980   5.882
  339SOL    HW1 1916   4.126   4.988   5.870
  339SOL    HW2 1917   4.270   5.001   5.795
  340SOL     OW 1918   4.951   3.282   5.110
  340SOL    HW1 1919   4.875   3.284   5.045
  340SOL    HW2 1920   5.032   3.241   5.067
  341SOL     OW 1921   6.750   0.203   1.874
  341SOL    HW1 1922   6.716   0.115   1.842
  341SOL    HW2 1923   6.831   0.189   1.931
  342SOL     OW 1924   4.513   1.477   2.174
  342SOL    HW1 1925   4.428   1.483   2.226
  342SOL    HW2 1926   4.513   1.547   2.102
  343SOL     OW 1927   5.202   0.398   0.943
  343SOL    HW1 1928   5.129   0.395   1.010
  343SOL    HW2 1929   5.184   0.331   0.871
  344SOL     OW 1930   6.658   3.270   1.313
  344SOL    HW1 1931   6.733   3.216   1.353
  344SOL    HW2 1932   6.573   3.247   1.360
  345SOL     OW 1933   6.798   2.356   4.187
  345SOL    HW1 1934   6.827   2.356   4.092
  345SOL    HW2 1935   6.707   2.315   4.195
  346SOL     OW 1936   2.024   6.010   2.757
  346SOL    HW1 1937   1.988   6.018   2.664
  346SOL    HW2 1938   2.087   5.932   2.761
  347SOL     OW 1939   2.769   4.790   1.060
  347SOL    HW1 1940   2.709   4.747   0.993
  347SOL    HW2 1941   2.735   4.772   1.153
  348SOL     OW 1942   4.830   4.909   1.937
  348SOL    HW1 1943   4.903   4.856   1.895
  348SOL    HW2 1944   4.766   4.847   1.982
  349SOL     OW 1945   5.447   4.515   0.957
  349SOL    HW1 1946   5.440   4.445   0.886
  349SOL    HW2 1947   5.532   4.503   1.008
  350SOL     OW 1948   2.297   1.805   0.186
  350SOL    HW1 1949   2.330   1.721   0.230
  350SOL    HW2 1950   2.351   1.824   0.105
  351SOL     OW 1951   3.578   4.004   1.150
  351SOL    HW1 1952   3.541   4.067   1.217
  351SOL    HW2 1953   3.600   4.053   1.065
  352SOL     OW 1954   4.455   6.396   2.266
  352SOL    HW1 1955   4.554   6.394   2.281
  352SOL    HW2 1956   4.410   6.428   2.349
  353SOL     OW 1957   2.294   6.945   0.469
  353SOL    HW1 1958   2.265   6.951   0.564
  353SOL    HW2 1959   2.310   6.849   0.446
  354SOL     OW 1960   1.599   2.163   0.804
  354SOL    HW1 1961   1.688   2.194   0.836
  354SOL    HW2 1962   1.586   2.066   0.828
  355SOL     OW 1963   0.523   2.796   3.494
  355SOL    HW1 1964   0.478   2.709   3.471
  355SOL    HW2 1965   0.621   2.789   3.472
  356SOL     OW 1966   2.677   0.508   5.494
  356SOL    HW1 1967   2.603   0.573   5.510
  356SOL    HW2 1968   2.690   0.495   5.395
  357SOL     OW 1969   6.053   5.781   4.558
  357SOL    HW1 1970   6.078   5.701   4.612
  357SOL    HW2 1971   5.984   5.756   4.491
  358SOL     OW 1972   3.384   5.837   6.857
  358SOL    HW1 1973   3.474   5.881   6.853
  358SOL    HW2 1974   3.320   5.886   6.797
  359SOL     OW 1975   1.510   1.976   1.912
  359SOL    HW1 1976   1.427   1.940   1.869
  359SOL    HW2 1977   1.518   2.074   1.891
  360SOL     OW 1978   1.981   3.982   3.604
  360SOL    HW1 1979   2.018   3.951   3.691
  360SOL    HW2 1980   2.053   4.028   3.552
  361SOL     OW 1981   0.145   1.942   1.814
  361SOL    HW1 1982   0.204   2.006   1.863
  361SOL    HW2 1983   0.157   1.955   1.716
  362SOL     OW 1984   3.821   4.067   2.373
  362SOL    HW1 1985   3.892   4.136   2.360
  362SOL    HW2 1986   3.735   4.112   2.398
  363SOL     OW 1987   4.469   5.503   0.889
  363SOL    HW1 1988   4.443   5.483   0.795
  363SOL    HW2 1989   4.496   5.599   0.897
  364SOL     OW 1990   1.124   0.655   0.229
  364SOL    HW1 1991   1.162   0.593   0.298
  364SOL    HW2 1992   1.065   0.602   0.167
  365SOL     OW 1993   6.056   0.789   4.017
  365SOL    HW1 1994   5.958   0.805   4.016
  365SOL    HW2 1995   6.079   0.729   4.093
  366SOL     OW 1996   5.196   1.900   0.089
  366SOL    HW1 1997   5.136   1.949   0.153
  366SOL    HW2 1998   5.143   1.832   0.039
  367SOL     OW 1999   5.491   0.649   6.784
  367SOL    HW1 2000   5.519   0.564   6.739
  367SOL    HW2 2001   5.471   0.718   6.714
  368SOL     OW 2002   1.882   1.900   5.781
  368SOL    HW1 2003   1.912   1.827   5.720
  368SOL    HW2 2004   1.886   1.868   5.876
  369SOL     OW 2005   5.822   4.439   0.349
  369SOL    HW1 2006   5.801   4.373   0.277
  369SOL    HW2 2007   5.737   4.475   0.387
  370SOL     OW 2008   2.431   2.658   3.073
  370SOL    HW1 2009   2.399   2.585   3.133
  370SOL    HW2 2010   2.401   2.746   3.109
  371SOL     OW 2011   1.984   5.824   0.391
  371SOL    HW1 2012   2.024   5.865   0.473
  371SOL    HW2 2013   2.052   5.766   0.346
  372SOL     OW 2014   2.358   5.775   6.011
  372SOL    HW1 2015   2.376   5.822   5.924
  372SOL    HW2 2016   2.445   5.758   6.058
  373SOL     OW 2017   6.595   4.448   2.994
  373SOL    HW1 2018   6.557   4.539   3.010
  373SOL    HW2 2019   6.543   4.380   3.046
  374SOL     OW 2020   2.841   1.579   2.125
  374SOL    HW1 2021   2.763   1.582   2.188
  374SOL    HW2 2022   2.926   1.586   2.176
  375SOL     OW 2023   1.336   6.061   4.443
  375SOL    HW1 2024   1.434   6.070   4.425
  375SOL    HW2 2025   1.289   6.030   4.361
  376SOL     OW 2026   4.199   0.490   3.282
  376SOL    HW1 2027   4.112   0.503   3.329
  376SOL    HW2 2028   4.243   0.579   3.269
  377SOL     OW 2029   3.088   2.077   6.331
  377SOL    HW1 2030   3.100   2.025   6.415
  377SOL    HW2 2031   3.115   2.021   6.253
  378SOL     OW 2032   3.798   1.156   2.041
  378SOL    HW1 2033   3.709   1.200   2.027
  378SOL    HW2 2034   3.830   1.117   1.954
  379SOL     OW 2035   4.236   2.698   6.636
  379SOL    HW1 2036   4.299   2.760   6.589
  379SOL    HW2 2037   4.286   2.619   6.670
  380SOL     OW 2038   4.297   2.341   0.730
  380SOL    HW1 2039   4.388   2.355   0.769
  380SOL    HW2 2040   4.265   2.426   0.688
  381SOL     OW 2041   2.382   4.312   2.971
  381SOL    HW1 2042   2.468   4.309   3.021
  381SOL    HW2 2043   2.318   4.374   3.017
  382SOL     OW 2044   5.998   6.928   7.012
  382SOL    HW1 2045   5.937   6.995   0.032
  382SOL    HW2 2046   5.973   6.917   6.916
  383SOL     OW 2047   4.424   3.456   0.293
  383SOL    HW1 2048   4.431   3.440   0.194
  383SOL    HW2 2049   4.466   3.380   0.342
  384SOL     OW 2050   0.365   3.801   5.173
  384SOL    HW1 2051   0.400   3.746   5.097
  384SOL    HW2 2052   0.435   3.866   5.202
  385SOL     OW 2053   4.638   2.591   0.750
  385SOL    HW1 2054   4.727   2.547   0.738
  385SOL    HW2 2055   4.641   2.683   0.709
  386SOL     OW 2056   4.110   6.437   5.176
  386SOL    HW1 2057   4.127   6.509   5.243
  386SOL    HW2 2058   4.016   6.445   5.142
  387SOL     OW 2059   3.292   6.120   4.445
  387SOL    HW1 2060   3.320   6.037   4.494
  387SOL    HW2 2061   3.278   6.099   4.348
  388SOL     OW 2062   1.528   5.288   5.992
  388SOL    HW1 2063   1.616   5.242   6.006
  388SOL    HW2 2064   1.495   5.323   6.080
  389SOL     OW 2065   2.714   2.951   1.175
  389SOL    HW1 2066   2.643   3.016   1.200
  389SOL    HW2 2067   2.762   2.983   1.094
  390SOL     OW 2068   2.550   0.794   4.925
  390SOL    HW1 2069   2.485   0.848   4.870
  390SOL    HW2 2070   2.643   0.820   4.902
  391SOL     OW 2071   1.489   2.319   6.831
  391SOL    HW1 2072   1.497   2.223   6.858
  391SOL    HW2 2073   1.438   2.369   6.901
  392SOL     OW 2074   3.391   5.927   4.616
  392SOL    HW1 2075   3.369   5.909   4.712
  392SOL    HW2 2076   3.489   5.941   4.607
  393SOL     OW 2077   5.817   4.070   5.643
  393SOL    HW1 2078   5.786   3.976   5.652
  393SOL    HW2 2079   5.917   4.072   5.635
  394SOL     OW 2080   2.025   1.002   6.382
  394SOL    HW1 2081   1.947   0.969   6.329
  394SOL    HW2 2082   2.098   0.933   6.380
  395SOL     OW 2083   0.096   3.254   0.810
  395SOL    HW1 2084   0.108   3.167   0.858
  395SOL    HW2 2085   0.155   3.255   0.728
  396SOL     OW 2086   3.505   3.190   5.220
  396SOL    HW1 2087   3.414   3.197   5.181
  396SOL    HW2 2088   3.499   3.199   5.319
  397SOL     OW 2089   4.101   1.609   6.877
  397SOL    HW1 2090   4.091   1.584   6.973
  397SOL    HW2 2091   4.080   1.530   6.819
  398SOL     OW 2092   0.858   4.534   2.489
  398SOL    HW1 2093   0.951   4.503   2.510
  398SOL    HW2 2094   0.804   4.537   2.573
  399SOL     OW 2095   5.031   4.688   2.237
  399SOL    HW1 2096   4.967   4.634   2.293
  399SOL    HW2 2097   5.060   4.633   2.158
  400SOL     OW 2098   2.748   5.000   4.440
  400SOL    HW1 2099   2.768   4.902   4.430
  400SOL    HW2 2100   2.680   5.013   4.512
  401SOL     OW 2101   5.711   1.183   0.323
  401SOL    HW1 2102   5.623   1.222   0.294
  401SOL    HW2 2103   5.703   1.083   0.324
  402SOL     OW 2104   6.894   4.495   1.037
  402SOL    HW1 2105   6.916   4.585   1.074
  402SOL    HW2 2106   6.917   4.492   0.940
  403SOL     OW 2107   5.060   4.712   0.750
  403SOL    HW1 2108   5.138   4.711   0.813
  403SOL    HW2 2109   4.981   4.754   0.795
  404SOL     OW 2110   0.732   6.494   4.453
  404SOL    HW1 2111   0.771   6.586   4.457
  404SOL    HW2 2112   0.804   6.426   4.462
  405SOL     OW 2113   1.060   2.735   1.390
  405SOL    HW1 2114   0.962   2.750   1.396
  405SOL    HW2 2115   1.097   2.716   1.482
  406SOL     OW 2116   0.975   2.117   3.209
  406SOL    HW1 2117   1.067   2.077   3.209
  406SOL    HW2 2118   0.928   2.090   3.293
  407SOL     OW 2119   3.065   1.736   3.881
  407SOL    HW1 2120   3.144   1.780   3.923
  407SOL    HW2 2121   3.043   1.782   3.795
  408SOL     OW 2122   2.316   0.748   3.755
  408SOL    HW1 2123   2.288   0.686   3.829
  408SOL    HW2 2124   2.410   0.778   3.771
  409SOL     OW 2125   6.836   3.232   4.365
  409SOL    HW1 2126   6.874   3.207   4.276
  409SOL    HW2 2127   6.849   3.157   4.430
  410SOL     OW 2128   3.130   6.795   6.374
  410SOL    HW1 2129   3.178   6.813   6.460
  410SOL    HW2 2130   3.064   6.869   6.357
  411SOL     OW 2131   0.646   3.337   4.903
  411SOL    HW1 2132   0.701   3.420   4.913
  411SOL    HW2 2133   0.697   3.269   4.849
  412SOL     OW 2134   4.487   0.026   2.509
  412SOL    HW1 2135   4.462   0.113   2.467
  412SOL    HW2 2136   4.584   0.026   2.533
  413SOL     OW 2137   2.392   0.269   2.580
  413SOL    HW1 2138   2.315   0.208   2.597
  413SOL    HW2 2139   2.421   0.310   2.667
  414SOL     OW 2140   4.838   4.330   0.934
  414SOL    HW1 2141   4.812   4.299   0.842
  414SOL    HW2 2142   4.757   4.332   0.992
  415SOL     OW 2143   3.753   6.726   2.526
  415SOL    HW1 2144   3.811   6.645   2.518
  415SOL    HW2 2145   3.789   6.799   2.467
  416SOL     OW 2146   3.571   5.641   0.003
  416SOL    HW1 2147   3.664   5.675   0.006
  416SOL    HW2 2148   3.513   5.706   6.979
  417SOL     OW 2149   5.521   4.840   1.588
  417SOL    HW1 2150   5.454   4.814   1.518
  417SOL    HW2 2151   5.507   4.935   1.615
  418SOL     OW 2152   6.432   5.343   0.308
  418SOL    HW1 2153   6.427   5.386   0.398
  418SOL    HW2 2154   6.419   5.244   0.318
  419SOL     OW 2155   5.573   5.928   0.992
  419SOL    HW1 2156   5.570   5.904   0.895
  419SOL    HW2 2157   5.480   5.929   1.029
  420SOL     OW 2158   4.820   4.214   0.067
  420SOL    HW1 2159   4.919   4.224   0.053
  420SOL    HW2 2160   4.775   4.300   0.045
  421SOL     OW 2161   1.365   6.584   6.475
  421SOL    HW1 2162   1.364   6.684   6.482
  421SOL    HW2 2163   1.354   6.544   6.566
  422SOL     OW 2164   5.348   4.698   6.492
  422SOL    HW1 2165   5.373   4.636   6.566
  422SOL    HW2 2166   5.253   4.727   6.503
  423SOL     OW 2167   1.108   3.246   5.711
  423SOL    HW1 2168   1.077   3.293   5.793
  423SOL    HW2 2169   1.155   3.311   5.651
  424SOL     OW 2170   1.999   3.804   0.051
  424SOL    HW1 2171   1.933   3.826   7.003
  424SOL    HW2 2172   2.092   3.808   0.014
  425SOL     OW 2173   2.977   6.794   0.168
  425SOL    HW1 2174   2.929   6.874   0.205
  425SOL    HW2 2175   2.942   6.774   0.077
  426SOL     OW 2176   6.065   4.002   6.164
  426SOL    HW1 2177   6.003   4.039   6.095
  426SOL    HW2 2178   6.157   3.993   6.125
  427SOL     OW 2179   4.804   3.342   0.381
  427SOL    HW1 2180   4.783   3.422   0.325
  427SOL    HW2 2181   4.899   3.348   0.414
  428SOL     OW 2182   3.532   1.916   5.755
  428SOL    HW1 2183   3.606   1.956   5.701
  428SOL    HW2 2184   3.553   1.820   5.774
  429SOL     OW 2185   2.934   5.863   0.281
  429SOL    HW1 2186   2.985   5.942   0.246
  429SOL    HW2 2187   2.844   5.860   0.239
  430SOL     OW 2188   2.639   7.005   4.496
  430SOL    HW1 2189   2.543   7.001   4.523
  430SOL    HW2 2190   2.663   6.924   4.444
  431SOL     OW 2191   3.184   1.454   6.661
  431SOL    HW1 2192   3.267   1.403   6.639
  431SOL    HW2 2193   3.155   1.433   6.754
  432SOL     OW 2194   6.854   1.668   0.884
  432SOL    HW1 2195   6.822   1.586   0.930
  432SOL    HW2 2196   6.845   1.747   0.945
  433SOL     OW 2197   2.940   6.152   4.743
  433SOL    HW1 2198   2.989   6.237   4.719
  433SOL    HW2 2199   3.002   6.075   4.735
  434SOL     OW 2200   6.324   3.417   1.292
  434SOL    HW1 2201   6.338   3.341   1.229
  434SOL    HW2 2202   6.228   3.444   1.290
  435SOL     OW 2203   3.976   3.314   1.080
  435SOL    HW1 2204   4.051   3.276   1.133
  435SOL    HW2 2205   3.893   3.260   1.095
  436SOL     OW 2206   2.637   0.432   0.333
  436SOL    HW1 2207   2.723   0.481   0.316
  436SOL    HW2 2208   2.653   0.362   0.402
  437SOL     OW 2209   6.675   0.216   5.702
  437SOL    HW1 2210   6.733   0.246   5.627
  437SOL    HW2 2211   6.654   0.118   5.691
  438SOL     OW 2212   1.970   3.099   1.451
  438SOL    HW1 2213   2.000   3.146   1.533
  438SOL    HW2 2214   2.031   3.122   1.375
  439SOL     OW 2215   6.246   4.200   2.386
  439SOL    HW1 2216   6.196   4.132   2.333
  439SOL    HW2 2217   6.345   4.185   2.374
  440SOL     OW 2218   1.510   3.075   3.020
  440SOL    HW1 2219   1.412   3.085   3.001
  440SOL    HW2 2220   1.523   3.066   3.119
  441SOL     OW 2221   0.912   1.032   3.128
  441SOL    HW1 2222   0.926   0.943   3.171
  441SOL    HW2 2223   0.966   1.101   3.177
  442SOL     OW 2224   0.081   4.679   6.803
  442SOL    HW1 2225   0.120   4.648   6.717
  442SOL    HW2 2226   7.005   4.684   6.794
  443SOL     OW 2227   1.229   4.438   5.307
  443SOL    HW1 2228   1.161   4.511   5.315
  443SOL    HW2 2229   1.198   4.371   5.239
  444SOL     OW 2230   4.801   3.384   6.543
  444SOL    HW1 2231   4.861   3.367   6.465
  444SOL    HW2 2232   4.856   3.395   6.626
  445SOL     OW 2233   1.856   4.780   2.852
  445SOL    HW1 2234   1.931   4.713   2.843
  445SOL    HW2 2235   1.833   4.817   2.762
  446SOL     OW 2236   3.697   5.092   4.052
  446SOL    HW1 2237   3.621   5.156   4.063
  446SOL    HW2 2238   3.770   5.134   3.998
  447SOL     OW 2239   0.473   6.089   0.166
  447SOL    HW1 2240   0.570   6.073   0.188
  447SOL    HW2 2241   0.423   6.003   0.175
  448SOL     OW 2242   4.532   0.609   6.165
  448SOL    HW1 2243   4.478   0.553   6.101
  448SOL    HW2 2244   4.622   0.626   6.125
  449SOL     OW 2245   5.920   6.543   4.276
  449SOL    HW1 2246   5.849   6.533   4.206
  449SOL    HW2 2247   5.878   6.573   4.362
  450SOL     OW 2248   6.987   5.798   3.521
  450SOL    HW1 2249   0.039   5.733   3.534
  450SOL    HW2 2250   6.907   5.750   3.487
  451SOL     OW 2251   6.032   2.574   3.891
  451SOL    HW1 2252   6.126   2.602   3.871
  451SOL    HW2 2253   6.033   2.489   3.943
  452SOL     OW 2254   6.751   5.077   6.425
  452SOL    HW1 2255   6.679   5.130   6.379
  452SOL    HW2 2256   6.726   5.062   6.520
  453SOL     OW 2257   3.076   0.551   5.571
  453SOL    HW1 2258   3.092   0.624   5.504
  453SOL    HW2 2259   3.160   0.497   5.581
  454SOL     OW 2260   0.931   6.487   0.365
  454SOL    HW1 2261   0.939   6.586   0.353
  454SOL    HW2 2262   0.974   6.460   0.450
  455SOL     OW 2263   4.670   0.753   5.164
  455SOL    HW1 2264   4.665   0.712   5.255
  455SOL    HW2 2265   4.631   0.845   5.166
  456SOL     OW 2266   4.677   5.538   6.798
  456SOL    HW1 2267   4.758   5.561   6.852
  456SOL    HW2 2268   4.703   5.476   6.724
  457SOL     OW 2269   0.870   4.548   1.544
  457SOL    HW1 2270   0.899   4.597   1.463
  457SOL    HW2 2271   0.948   4.498   1.583
  458SOL     OW 2272   6.548   6.349   5.941
  458SOL    HW1 2273   6.455   6.320   5.962
  458SOL    HW2 2274   6.606   6.337   6.022
  459SOL     OW 2275   1.738   0.484   3.624
  459SOL    HW1 2276   1.817   0.522   3.673
  459SOL    HW2 2277   1.653   0.516   3.667
  460SOL     OW 2278   6.720   1.561   3.796
  460SOL    HW1 2279   6.700   1.653   3.830
  460SOL    HW2 2280   6.649   1.533   3.732
  461SOL     OW 2281   5.085   6.064   5.492
  461SOL    HW1 2282   5.135   6.083   5.408
  461SOL    HW2 2283   5.001   6.117   5.493
  462SOL     OW 2284   3.202   2.585   6.915
  462SOL    HW1 2285   3.137   2.581   6.991
  462SOL    HW2 2286   3.155   2.566   6.829
  463SOL     OW 2287   0.213   5.894   1.440
  463SOL    HW1 2288   0.176   5.940   1.520
  463SOL    HW2 2289   0.148   5.903   1.364
  464SOL     OW 2290   1.991   1.193   5.597
  464SOL    HW1 2291   2.081   1.236   5.587
  464SOL    HW2 2292   1.996   1.120   5.665
  465SOL     OW 2293   7.003   3.226   5.362
  465SOL    HW1 2294   6.903   3.223   5.361
  465SOL    HW2 2295   0.014   3.138   5.393
  466SOL     OW 2296   2.555   0.575   3.073
  466SOL    HW1 2297   2.471   0.528   3.046
  466SOL    HW2 2298   2.558   0.584   3.172
  467SOL     OW 2299   1.532   1.277   5.031
  467SOL    HW1 2300   1.470   1.306   4.958
  467SOL    HW2 2301   1.507   1.323   5.116
  468SOL     OW 2302   3.310   4.171   1.767
  468SOL    HW1 2303   3.366   4.253   1.761
  468SOL    HW2 2304   3.266   4.154   1.679
  469SOL     OW 2305   2.871   4.586   6.913
  469SOL    HW1 2306   2.971   4.587   6.903
  469SOL    HW2 2307   2.845   4.517   6.981
  470SOL     OW 2308   3.684   0.544   2.908
  470SOL    HW1 2309   3.722   0.488   2.982
  470SOL    HW2 2310   3.677   0.639   2.938
  471SOL     OW 2311   2.942   1.796   4.868
  471SOL    HW1 2312   2.973   1.799   4.773
  471SOL    HW2 2313   2.880   1.718   4.879
  472SOL     OW 2314   4.334   4.325   5.404
  472SOL    HW1 2315   4.293   4.367   5.485
  472SOL    HW2 2316   4.328   4.388   5.327
  473SOL     OW 2317   1.163   4.189   3.702
  473SOL    HW1 2318   1.136   4.095   3.720
  473SOL    HW2 2319   1.105   4.251   3.755
  474SOL     OW 2320   4.819   4.675   4.801
  474SOL    HW1 2321   4.814   4.732   4.719
  474SOL    HW2 2322   4.882   4.716   4.867
  475SOL     OW 2323   1.218   6.880   6.490
  475SOL    HW1 2324   1.260   6.966   6.518
  475SOL    HW2 2325   1.206   6.879   6.390
  476SOL     OW 2326   0.164   5.115   2.399
  476SOL    HW1 2327   0.088   5.140   2.340
  476SOL    HW2 2328   0.250   5.121   2.348
  477SOL     OW 2329   1.652   5.596   3.961
  477SOL    HW1 2330   1.712   5.524   3.997
  477SOL    HW2 2331   1.572   5.554   3.918
  478SOL     OW 2332   1.420   5.193   3.161
  478SOL    HW1 2333   1.412   5.292   3.169
  478SOL    HW2 2334   1.466   5.156   3.241
  479SOL     OW 2335   3.423   1.664   1.299
  479SOL    HW1 2336   3.421   1.582   1.241
  479SOL    HW2 2337   3.337   1.672   1.350
  480SOL     OW 2338   1.401   6.552   2.616
  480SOL    HW1 2339   1.377   6.593   2.528
  480SOL    HW2 2340   1.319   6.516   2.660
  481SOL     OW 2341   2.779   6.915   1.761
  481SOL    HW1 2342   2.771   6.839   1.826
  481SOL    HW2 2343   2.874   6.943   1.754
  482SOL     OW 2344   5.734   5.106   1.658
  482SOL    HW1 2345   5.780   5.054   1.730
  482SOL    HW2 2346   5.797   5.119   1.581
  483SOL     OW 2347   5.963   1.731   0.971
  483SOL    HW1 2348   5.902   1.773   1.038
  483SOL    HW2 2349   6.058   1.742   0.999
  484SOL     OW 2350   6.774   2.730   5.031
  484SOL    HW1 2351   6.694   2.700   4.980
  484SOL    HW2 2352   6.787   2.829   5.019
  485SOL     OW 2353   3.654   5.423   1.849
  485SOL    HW1 2354   3.682   5.329   1.867
  485SOL    HW2 2355   3.676   5.447   1.754
  486SOL     OW 2356   0.507   0.464   6.506
  486SOL    HW1 2357   0.417   0.431   6.534
  486SOL    HW2 2358   0.506   0.485   6.409
  487SOL     OW 2359   6.603   3.164   6.435
  487SOL    HW1 2360   6.616   3.161   6.534
  487SOL    HW2 2361   6.623   3.256   6.402
  488SOL     OW 2362   0.572   3.151   2.193
  488SOL    HW1 2363   0.610   3.160   2.101
  488SOL    HW2 2364   0.479   3.115   2.187
  489SOL     OW 2365   3.061   6.122   5.829
  489SOL    HW1 2366   3.081   6.173   5.745
  489SOL    HW2 2367   3.073   6.024   5.812
  490SOL     OW 2368   5.165   6.108   4.253
  490SOL    HW1 2369   5.166   6.179   4.183
  490SOL    HW2 2370   5.124   6.143   4.337
  491SOL     OW 2371   0.276   2.465   3.315
  491SOL    HW1 2372   0.374   2.480   3.328
  491SOL    HW2 2373   0.260   2.371   3.285
  492SOL     OW 2374   1.757   1.143   4.740
  492SOL    HW1 2375   1.792   1.049   4.734
  492SOL    HW2 2376   1.769   1.177   4.833
  493SOL     OW 2377   6.338   3.973   3.797
  493SOL    HW1 2378   6.262   3.909   3.790
  493SOL    HW2 2379   6.305   4.067   3.788
  494SOL     OW 2380   6.399   1.916   0.110
  494SOL    HW1 2381   6.312   1.938   0.066
  494SOL    HW2 2382   6.417   1.818   0.099
  495SOL     OW 2383   4.085   4.453   0.859
  495SOL    HW1 2384   4.065   4.370   0.807
  495SOL    HW2 2385   4.119   4.524   0.797
  496SOL     OW 2386   6.216   2.895   3.501
  496SOL    HW1 2387   6.230   2.874   3.405
  496SOL    HW2 2388   6.280   2.842   3.557
  497SOL     OW 2389   4.189   0.388   4.259
  497SOL    HW1 2390   4.240   0.361   4.177
  497SOL    HW2 2391   4.248   0.380   4.339
  498SOL     OW 2392   1.069   3.293   2.628
  498SOL    HW1 2393   1.023   3.381   2.635
  498SOL    HW2 2394   1.160   3.299   2.671
  499SOL     OW 2395   3.362   1.440   5.449
  499SOL    HW1 2396   3.325   1.443   5.541
  499SOL    HW2 2397   3.293   1.404   5.386
  500SOL     OW 2398   1.377   4.112   2.691
  500SOL    HW1 2399   1.424   4.089   2.776
  500SOL    HW2 2400   1.429   4.078   2.613
  501SOL     OW 2401   0.898   5.207   6.626
  501SOL    HW1 2402   0.808   5.178   6.657
  501SOL    HW2 2403   0.921   5.160   6.541
  502SOL     OW 2404   3.068   5.238   6.514
  502SOL    HW1 2405   3.063   5.244   6.414
  502SOL    HW2 2406   3.133   5.306   6.548
  503SOL     OW 2407   5.814   5.814   5.027
  503SOL    HW1 2408   5.901   5.768   5.010
  503SOL    HW2 2409   5.830   5.912   5.040
  504SOL     OW 2410   1.867   5.456   4.040
  504SOL    HW1 2411   1.931   5.383   4.013
  504SOL    HW2 2412   1.869   5.466   4.139
  505SOL     OW 2413   4.366   0.015   5.672
  505SOL    HW1 2414   4.417   0.051   5.594
  505SOL    HW2 2415   4.269   0.039   5.663
  506SOL     OW 2416   2.250   3.541   6.807
  506SOL    HW1 2417   2.231   3.636   6.783
  506SOL    HW2 2418   2.348   3.528   6.816
  507SOL     OW 2419   3.589   1.695   4.229
  507SOL    HW1 2420   3.611   1.652   4.142
  507SOL    HW2 2421   3.663   1.758   4.254
  508SOL     OW 2422   6.156   4.517   4.002
  508SOL    HW1 2423   6.162   4.443   4.069
  508SOL    HW2 2424   6.205   4.597   4.036
  509SOL     OW 2425   4.913   2.347   1.762
  509SOL    HW1 2426   4.886   2.430   1.812
  509SOL    HW2 2427   4.931   2.273   1.827
  510SOL     OW 2428   0.347   3.721   4.186
  510SOL    HW1 2429   0.349   3.739   4.284
  510SOL    HW2 2430   0.306   3.631   4.169
  511SOL     OW 2431   0.343   6.202   1.169
  511SOL    HW1 2432   0.320   6.158   1.082
  511SOL    HW2 2433   0.407   6.145   1.219
  512SOL     OW 2434   0.509   3.454   6.628
  512SOL    HW1 2435   0.561   3.401   6.696
  512SOL    HW2 2436   0.485   3.394   6.551
  513SOL     OW 2437   0.107   5.487   4.550
  513SOL    HW1 2438   0.205   5.484   4.568
  513SOL    HW2 2439   0.091   5.527   4.460
  514SOL     OW 2440   5.806   1.462   3.829
  514SOL    HW1 2441   5.718   1.428   3.864
  514SOL    HW2 2442   5.830   1.410   3.746
  515SOL     OW 2443   1.886   6.150   0.154
  515SOL    HW1 2444   1.886   6.236   0.103
  515SOL    HW2 2445   1.971   6.143   0.207
  516SOL     OW 2446   1.159   5.093   2.316
  516SOL    HW1 2447   1.169   5.063   2.411
  516SOL    HW2 2448   1.199   5.184   2.306
  517SOL     OW 2449   4.715   0.468   6.792
  517SOL    HW1 2450   4.773   0.407   6.739
  517SOL    HW2 2451   4.674   0.536   6.731
  518SOL     OW 2452   2.671   1.911   0.605
  518SOL    HW1 2453   2.655   1.830   0.548
  518SOL    HW2 2454   2.752   1.895   0.662
  519SOL     OW 2455   0.611   6.657   0.867
  519SOL    HW1 2456   0.599   6.661   0.966
  519SOL    HW2 2457   0.522   6.669   0.822
  520SOL     OW 2458   6.484   4.108   5.037
  520SOL    HW1 2459   6.502   4.122   5.135
  520SOL    HW2 2460   6.386   4.116   5.020
  521SOL     OW 2461   6.554   0.569   0.960
  521SOL    HW1 2462   6.531   0.663   0.983
  521SOL    HW2 2463   6.488   0.507   1.003
  522SOL     OW 2464   3.568   3.559   5.300
  522SOL    HW1 2465   3.651   3.602   5.265
  522SOL    HW2 2466   3.493   3.575   5.236
  523SOL     OW 2467   6.568   6.569   5.016
  523SOL    HW1 2468   6.594   6.473   5.019
  523SOL    HW2 2469   6.643   6.624   4.980
  524SOL     OW 2470   4.351   1.477   5.890
  524SOL    HW1 2471   4.285   1.529   5.943
  524SOL    HW2 2472   4.441   1.520   5.897
  525SOL     OW 2473   2.705   2.854   6.723
  525SOL    HW1 2474   2.797   2.876   6.754
  525SOL    HW2 2475   2.709   2.814   6.631
  526SOL     OW 2476   4.574   5.993   4.812
  526SOL    HW1 2477   4.553   6.090   4.825
  526SOL    HW2 2478   4.674   5.981   4.809
  527SOL     OW 2479   1.263   2.073   0.029
  527SOL    HW1 2480   1.169   2.107   0.029
  527SOL    HW2 2481   1.314   2.118   6.979
  528SOL     OW 2482   2.230   0.321   5.688
  528SOL    HW1 2483   2.170   0.278   5.755
  528SOL    HW2 2484   2.312   0.356   5.734
  529SOL     OW 2485   6.761   4.427   4.502
  529SOL    HW1 2486   6.782   4.343   4.552
  529SOL    HW2 2487   6.719   4.404   4.414
  530SOL     OW 2488   1.654   2.842   5.076
  530SOL    HW1 2489   1.563   2.825   5.115
  530SOL    HW2 2490   1.698   2.755   5.056
  531SOL     OW 2491   6.988   0.821   0.234
  531SOL    HW1 2492   6.915   0.766   0.273
  531SOL    HW2 2493   6.961   0.856   0.144
  532SOL     OW 2494   2.008   0.116   5.777
  532SOL    HW1 2495   1.909   0.120   5.765
  532SOL    HW2 2496   2.032   0.030   5.821
  533SOL     OW 2497   5.488   0.194   4.640
  533SOL    HW1 2498   5.445   0.279   4.609
  533SOL    HW2 2499   5.567   0.216   4.697
  534SOL     OW 2500   3.765   5.737   2.221
  534SOL    HW1 2501   3.707   5.658   2.200
  534SOL    HW2 2502   3.742   5.773   2.311
  535SOL     OW 2503   6.789   4.100   3.017
  535SOL    HW1 2504   6.882   4.129   3.036
  535SOL    HW2 2505   6.738   4.091   3.103
  536SOL     OW 2506   1.308   5.878   0.708
  536SOL    HW1 2507   1.229   5.855   0.651
  536SOL    HW2 2508   1.332   5.800   0.765
  537SOL     OW 2509   2.062   0.403   3.113
  537SOL    HW1 2510   2.055   0.421   3.211
  537SOL    HW2 2511   1.986   0.345   3.084
  538SOL     OW 2512   1.372   4.196   3.494
  538SOL    HW1 2513   1.451   4.145   3.528
  538SOL    HW2 2514   1.303   4.203   3.566
  539SOL     OW 2515   1.288   5.331   1.387
  539SOL    HW1 2516   1.289   5.344   1.288
  539SOL    HW2 2517   1.193   5.326   1.418
  540SOL     OW 2518   1.602   2.840   1.174
  540SOL    HW1 2519   1.586   2.850   1.076
  540SOL    HW2 2520   1.654   2.757   1.192
  541SOL     OW 2521   3.816   5.252   5.290
  541SOL    HW1 2522   3.793   5.298   5.204
  541SOL    HW2 2523   3.914   5.233   5.292
  542SOL     OW 2524   5.646   6.083   6.977
  542SOL    HW1 2525   5.725   6.124   6.932
  542SOL    HW2 2526   5.648   5.983   6.964
  543SOL     OW 2527   6.974   6.150   6.991
  543SOL    HW1 2528   0.041   6.114   7.014
  543SOL    HW2 2529   6.938   6.201   0.044
  544SOL     OW 2530   1.068   6.040   6.810
  544SOL    HW1 2531   1.014   6.124   6.806
  544SOL    HW2 2532   1.092   6.011   6.717
  545SOL     OW 2533   3.436   1.878   3.671
  545SOL    HW1 2534   3.371   1.842   3.605
  545SOL    HW2 2535   3.488   1.803   3.712
  546SOL     OW 2536   1.231   3.151   6.888
  546SOL    HW1 2537   1.257   3.076   6.827
  546SOL    HW2 2538   1.305   3.218   6.892
  547SOL     OW 2539   2.940   2.347   6.829
  547SOL    HW1 2540   2.930   2.307   6.920
  547SOL    HW2 2541   3.030   2.323   6.793
  548SOL     OW 2542   3.242   3.234   5.122
  548SOL    HW1 2543   3.182   3.304   5.162
  548SOL    HW2 2544   3.223   3.227   5.024
  549SOL     OW 2545   0.934   3.876   1.358
  549SOL    HW1 2546   0.850   3.841   1.400
  549SOL    HW2 2547   0.965   3.811   1.288
  550SOL     OW 2548   6.937   3.753   1.479
  550SOL    HW1 2549   7.003   3.828   1.484
  550SOL    HW2 2550   6.985   3.666   1.489
  551SOL     OW 2551   6.692   1.730   6.382
  551SOL    HW1 2552   6.669   1.799   6.451
  551SOL    HW2 2553   6.770   1.676   6.415
  552SOL     OW 2554   4.779   5.347   0.377
  552SOL    HW1 2555   4.861   5.346   0.435
  552SOL    HW2 2556   4.707   5.399   0.422
  553SOL     OW 2557   1.624   1.970   1.479
  553SOL    HW1 2558   1.682   1.941   1.555
  553SOL    HW2 2559   1.548   2.025   1.514
  554SOL     OW 2560   4.948   5.562   4.890
  554SOL    HW1 2561   4.935   5.607   4.802
  554SOL    HW2 2562   4.859   5.551   4.934
  555SOL     OW 2563   1.970   4.245   4.653
  555SOL    HW1 2564   1.956   4.272   4.748
  555SOL    HW2 2565   1.901   4.288   4.595
  556SOL     OW 2566   5.874   3.296   2.774
  556SOL    HW1 2567   5.905   3.287   2.868
  556SOL    HW2 2568   5.949   3.276   2.711
  557SOL     OW 2569   0.070   5.367   6.708
  557SOL    HW1 2570   6.995   5.352   6.708
  557SOL    HW2 2571   0.093   5.439   6.642
  558SOL     OW 2572   4.351   3.742   5.478
  558SOL    HW1 2573   4.291   3.678   5.527
  558SOL    HW2 2574   4.408   3.691   5.414
  559SOL     OW 2575   6.291   5.727   6.036
  559SOL    HW1 2576   6.347   5.687   5.964
  559SOL    HW2 2577   6.348   5.790   6.090
  560SOL     OW 2578   3.891   6.593   0.029
  560SOL    HW1 2579   3.849   6.610   0.118
  560SOL    HW2 2580   3.990   6.610   0.035
  561SOL     OW 2581   5.461   6.401   1.334
  561SOL    HW1 2582   5.423   6.330   1.275
  561SOL    HW2 2583   5.477   6.484   1.281
  562SOL     OW 2584   6.580   0.789   6.731
  562SOL    HW1 2585   6.677   0.766   6.719
  562SOL    HW2 2586   6.526   0.705   6.732
  563SOL     OW 2587   3.334   0.289   4.803
  563SOL    HW1 2588   3.303   0.259   4.713
  563SOL    HW2 2589   3.267   0.352   4.843
  564SOL     OW 2590   0.378   1.925   6.459
  564SOL    HW1 2591   0.332   2.011   6.436
  564SOL    HW2 2592   0.310   1.852   6.464
  565SOL     OW 2593   4.663   4.490   5.154
  565SOL    HW1 2594   4.687   4.397   5.127
  565SOL    HW2 2595   4.747   4.543   5.165
  566SOL     OW 2596   5.833   5.178   2.227
  566SOL    HW1 2597   5.866   5.094   2.185
  566SOL    HW2 2598   5.741   5.164   2.262
  567SOL     OW 2599   3.900   3.856   4.073
  567SOL    HW1 2600   3.924   3.767   4.032
  567SOL    HW2 2601   3.965   3.877   4.146
  568SOL     OW 2602   1.890   1.326   5.975
  568SOL    HW1 2603   1.914   1.410   5.926
  568SOL    HW2 2604   1.974   1.282   6.008
  569SOL     OW 2605   2.528   3.457   6.903
  569SOL    HW1 2606   2.497   3.467   6.998
  569SOL    HW2 2607   2.624   3.429   6.902
  570SOL     OW 2608   0.446   5.830   0.945
  570SOL    HW1 2609   0.471   5.812   1.041
  570SOL    HW2 2610   0.400   5.749   0.908
  571SOL     OW 2611   4.396   5.270   3.102
  571SOL    HW1 2612   4.488   5.309   3.092
  571SOL    HW2 2613   4.397   5.174   3.074
  572SOL     OW 2614   2.236   4.325   4.590
  572SOL    HW1 2615   2.271   4.262   4.658
  572SOL    HW2 2616   2.136   4.321   4.587
  573SOL     OW 2617   3.899   2.492   6.644
  573SOL    HW1 2618   3.926   2.570   6.588
  573SOL    HW2 2619   3.934   2.408   6.603
  574SOL     OW 2620   2.675   1.224   4.375
  574SOL    HW1 2621   2.685   1.323   4.384
  574SOL    HW2 2622   2.605   1.191   4.438
  575SOL     OW 2623   5.508   2.165   6.238
  575SOL    HW1 2624   5.548   2.135   6.324
  575SOL    HW2 2625   5.578   2.213   6.184
  576SOL     OW 2626   1.069   2.256   2.569
  576SOL    HW1 2627   1.135   2.221   2.635
  576SOL    HW2 2628   1.091   2.352   2.549
  577SOL     OW 2629   3.055   2.131   4.320
  577SOL    HW1 2630   2.989   2.206   4.331
  577SOL    HW2 2631   3.091   2.105   4.409
  578SOL     OW 2632   0.341   3.481   4.746
  578SOL    HW1 2633   0.260   3.464   4.802
  578SOL    HW2 2634   0.313   3.512   4.655
  579SOL     OW 2635   3.767   3.602   0.472
  579SOL    HW1 2636   3.819   3.517   0.465
  579SOL    HW2 2637   3.769   3.649   0.384
  580SOL     OW 2638   0.715   6.125   6.597
  580SOL    HW1 2639   0.747   6.111   6.504
  580SOL    HW2 2640   0.773   6.193   6.642
  581SOL     OW 2641   4.161   3.375   2.435
  581SOL    HW1 2642   4.154   3.466   2.475
  581SOL    HW2 2643   4.158   3.383   2.335
  582SOL     OW 2644   6.388   4.128   1.752
  582SOL    HW1 2645   6.414   4.093   1.662
  582SOL    HW2 2646   6.353   4.221   1.742
  583SOL     OW 2647   2.473   5.953   6.723
  583SOL    HW1 2648   2.387   5.963   6.674
  583SOL    HW2 2649   2.549   5.965   6.659
  584SOL     OW 2650   0.952   5.473   5.243
  584SOL    HW1 2651   0.868   5.420   5.256
  584SOL    HW2 2652   1.027   5.430   5.293
  585SOL     OW 2653   6.117   1.195   5.839
  585SOL    HW1 2654   6.049   1.130   5.874
  585SOL    HW2 2655   6.208   1.155   5.847
  586SOL     OW 2656   2.437   5.954   1.114
  586SOL    HW1 2657   2.458   5.980   1.020
  586SOL    HW2 2658   2.422   5.855   1.118
  587SOL     OW 2659   1.283   3.558   5.955
  587SOL    HW1 2660   1.202   3.507   5.928
  587SOL    HW2 2661   1.264   3.656   5.949
  588SOL     OW 2662   2.156   0.068   1.653
  588SOL    HW1 2663   2.209   7.011   1.629
  588SOL    HW2 2664   2.066   0.063   1.609
  589SOL     OW 2665   4.646   5.176   2.399
  589SOL    HW1 2666   4.716   5.185   2.471
  589SOL    HW2 2667   4.561   5.218   2.430
  590SOL     OW 2668   6.678   2.401   1.707
  590SOL    HW1 2669   6.736   2.426   1.629
  590SOL    HW2 2670   6.584   2.389   1.676
  591SOL     OW 2671   2.935   6.470   2.940
  591SOL    HW1 2672   2.970   6.471   3.034
  591SOL    HW2 2673   2.857   6.408   2.934
  592SOL     OW 2674   5.612   0.438   6.659
  592SOL    HW1 2675   5.613   0.339   6.650
  592SOL    HW2 2676   5.694   0.468   6.708
  593SOL     OW 2677   6.120   1.528   4.769
  593SOL    HW1 2678   6.212   1.492   4.761
  593SOL    HW2 2679   6.105   1.562   4.862
  594SOL     OW 2680   5.291   3.065   1.760
  594SOL    HW1 2681   5.218   3.115   1.713
  594SOL    HW2 2682   5.324   2.991   1.702
  595SOL     OW 2683   4.700   6.870   4.033
  595SOL    HW1 2684   4.603   6.854   4.013
  595SOL    HW2 2685   4.709   6.910   4.124
  596SOL     OW 2686   0.955   4.037   2.278
  596SOL    HW1 2687   0.890   3.961   2.289
  596SOL    HW2 2688   1.042   4.001   2.244
  597SOL     OW 2689   4.297   2.500   5.967
  597SOL    HW1 2690   4.276   2.577   5.906
  597SOL    HW2 2691   4.237   2.423   5.945
  598SOL     OW 2692   3.210   3.955   1.168
  598SOL    HW1 2693   3.232   4.046   1.203
  598SOL    HW2 2694   3.229   3.887   1.239
  599SOL     OW 2695   6.970   6.696   3.433
  599SOL    HW1 2696   6.964   6.690   3.532
  599SOL    HW2 2697   0.018   6.634   3.400
  600SOL     OW 2698   2.508   1.446   1.538
  600SOL    HW1 2699   2.499   1.377   1.611
  600SOL    HW2 2700   2.594   1.495   1.549
  601SOL     OW 2701   2.294   5.068   3.300
  601SOL    HW1 2702   2.280   4.978   3.341
  601SOL    HW2 2703   2.207   5.104   3.265
  602SOL     OW 2704   0.107   0.465   1.880
  602SOL    HW1 2705   0.030   0.488   1.940
  602SOL    HW2 2706   0.159   0.389   1.920
  603SOL     OW 2707   3.735   1.641   3.340
  603SOL    HW1 2708   3.751   1.566   3.276
  603SOL    HW2 2709   3.746   1.609   3.434
  604SOL     OW 2710   0.802   4.278   5.649
  604SOL    HW1 2711   0.758   4.283   5.739
  604SOL    HW2 2712   0.736   4.304   5.578
  605SOL     OW 2713   6.046   0.020   4.853
  605SOL    HW1 2714   6.051   6.979   4.776
  605SOL    HW2 2715   6.129   0.076   4.854
  606SOL     OW 2716   3.454   0.227   2.569
  606SOL    HW1 2717   3.476   0.282   2.488
  606SOL    HW2 2718   3.421   0.288   2.642
  607SOL     OW 2719   4.185   0.757   3.915
  607SOL    HW1 2720   4.125   0.756   3.834
  607SOL    HW2 2721   4.129   0.765   3.997
  608SOL     OW 2722   5.206   1.951   1.980
  608SOL    HW1 2723   5.305   1.960   1.987
  608SOL    HW2 2724   5.184   1.875   1.920
  609SOL     OW 2725   2.895   3.465   4.739
  609SOL    HW1 2726   2.916   3.554   4.780
  609SOL    HW2 2727   2.904   3.394   4.808
  610SOL     OW 2728   5.907   1.493   4.620
  610SOL    HW1 2729   5.993   1.525   4.662
  610SOL    HW2 2730   5.921   1.478   4.522
  611SOL     OW 2731   6.240   6.912   0.116
  611SOL    HW1 2732   6.150   6.923   0.073
  611SOL    HW2 2733   6.279   7.002   0.134
  612SOL     OW 2734   2.334   5.286   5.739
  612SOL    HW1 2735   2.313   5.237   5.655
  612SOL    HW2 2736   2.291   5.240   5.816
  613SOL     OW 2737   3.725   1.629   6.776
  613SOL    HW1 2738   3.811   1.589   6.747
  613SOL    HW2 2739   3.656   1.557   6.786
  614SOL     OW 2740   5.510   3.425   1.364
  614SOL    HW1 2741   5.460   3.400   1.447
  614SOL    HW2 2742   5.606   3.401   1.375
  615SOL     OW 2743   5.065   6.918   0.709
  615SOL    HW1 2744   5.103   6.969   0.787
  615SOL    HW2 2745   5.065   6.976   0.628
  616SOL     OW 2746   5.531   0.557   4.818
  616SOL    HW1 2747   5.472   0.576   4.896
  616SOL    HW2 2748   5.627   0.558   4.847
  617SOL     OW 2749   0.190   6.143   5.640
  617SOL    HW1 2750   0.104   6.146   5.589
  617SOL    HW2 2751   0.237   6.057   5.621
  618SOL     OW 2752   5.756   4.754   0.375
  618SOL    HW1 2753   5.825   4.695   0.332
  618SOL    HW2 2754   5.666   4.711   0.368
  619SOL     OW 2755   2.607   6.662   5.850
  619SOL    HW1 2756   2.693   6.684   5.896
  619SOL    HW2 2757   2.556   6.595   5.905
  620SOL     OW 2758   4.707   1.821   2.199
  620SOL    HW1 2759   4.609   1.805   2.209
  620SOL    HW2 2760   4.754   1.733   2.188
  621SOL     OW 2761   2.938   0.494   6.600
  621SOL    HW1 2762   2.998   0.452   6.531
  621SOL    HW2 2763   2.980   0.486   6.690
  622SOL     OW 2764   0.263   3.451   5.493
  622SOL    HW1 2765   0.259   3.378   5.426
  622SOL    HW2 2766   0.257   3.413   5.585
  623SOL     OW 2767   6.633   0.305   3.170
  623SOL    HW1 2768   6.715   0.318   3.114
  623SOL    HW2 2769   6.656   0.256   3.254
  624SOL     OW 2770   6.625   1.661   5.917
  624SOL    HW1 2771   6.688   1.700   5.984
  624SOL    HW2 2772   6.571   1.589   5.962
  625SOL     OW 2773   3.724   1.022   1.100
  625SOL    HW1 2774   3.635   0.989   1.132
  625SOL    HW2 2775   3.752   1.101   1.154
  626SOL     OW 2776   0.324   6.279   3.308
  626SOL    HW1 2777   0.348   6.184   3.322
  626SOL    HW2 2778   0.349   6.308   3.216
  627SOL     OW 2779   6.461   5.719   0.512
  627SOL    HW1 2780   6.560   5.704   0.519
  627SOL    HW2 2781   6.437   5.734   0.416
  628SOL     OW 2782   3.588   4.979   6.223
  628SOL    HW1 2783   3.537   4.965   6.139
  628SOL    HW2 2784   3.539   4.936   6.299
  629SOL     OW 2785   1.311   6.848   0.166
  629SOL    HW1 2786   1.355   6.886   0.085
  629SOL    HW2 2787   1.379   6.802   0.222
  630SOL     OW 2788   6.890   1.933   1.132
  630SOL    HW1 2789   6.829   1.993   1.079
  630SOL    HW2 2790   6.975   1.921   1.081
  631SOL     OW 2791   1.651   2.930   3.560
  631SOL    HW1 2792   1.731   2.990   3.553
  631SOL    HW2 2793   1.664   2.851   3.501
  632SOL     OW 2794   3.017   4.168   0.865
  632SOL    HW1 2795   2.939   4.108   0.886
  632SOL    HW2 2796   2.988   4.263   0.870
  633SOL     OW 2797   1.537   5.732   0.508
  633SOL    HW1 2798   1.607   5.704   0.443
  633SOL    HW2 2799   1.446   5.720   0.468
  634SOL     OW 2800   2.894   3.290   4.946
  634SOL    HW1 2801   2.873   3.339   5.031
  634SOL    HW2 2802   2.829   3.215   4.934
  635SOL     OW 2803   5.535   6.896   6.277
  635SOL    HW1 2804   5.501   6.859   6.364
  635SOL    HW2 2805   5.540   6.822   6.210
  636SOL     OW 2806   2.835   0.837   4.983
  636SOL    HW1 2807   2.790   0.864   5.068
  636SOL    HW2 2808   2.932   0.860   4.987
  637SOL     OW 2809   0.041   1.413   2.923
  637SOL    HW1 2810   0.135   1.382   2.907
  637SOL    HW2 2811   7.012   1.339   2.965
  638SOL     OW 2812   6.732   3.210   5.297
  638SOL    HW1 2813   6.746   3.111   5.306
  638SOL    HW2 2814   6.702   3.230   5.203
  639SOL     OW 2815   5.892   3.886   2.023
  639SOL    HW1 2816   5.824   3.846   1.962
  639SOL    HW2 2817   5.916   3.820   2.094
  640SOL     OW 2818   0.343   3.037   2.220
  640SOL    HW1 2819   0.293   2.983   2.288
  640SOL    HW2 2820   0.286   3.049   2.139
  641SOL     OW 2821   2.632   5.275   4.593
  641SOL    HW1 2822   2.596   5.271   4.499
  641SOL    HW2 2823   2.731   5.289   4.590
  642SOL     OW 2824   0.288   5.285   4.766
  642SOL    HW1 2825   0.277   5.370   4.714
  642SOL    HW2 2826   0.374   5.288   4.817
  643SOL     OW 2827   4.365   5.357   0.664
  643SOL    HW1 2828   4.302   5.372   0.587
  643SOL    HW2 2829   4.314   5.324   0.743
  644SOL     OW 2830   6.561   6.274   5.384
  644SOL    HW1 2831   6.534   6.243   5.292
  644SOL    HW2 2832   6.648   6.321   5.379
  645SOL     OW 2833   4.317   5.555   2.656
  645SOL    HW1 2834   4.410   5.584   2.679
  645SOL    HW2 2835   4.289   5.482   2.719
  646SOL     OW 2836   3.671   1.991   4.756
  646SOL    HW1 2837   3.644   2.037   4.842
  646SOL    HW2 2838   3.603   2.011   4.685
  647SOL     OW 2839   3.611   2.496   6.689
  647SOL    HW1 2840   3.711   2.499   6.693
  647SOL    HW2 2841   3.573   2.572   6.742
  648SOL     OW 2842   6.043   1.278   3.969
  648SOL    HW1 2843   6.094   1.203   3.928
  648SOL    HW2 2844   6.052   1.360   3.912
  649SOL     OW 2845   2.662   5.501   0.475
  649SOL    HW1 2846   2.753   5.541   0.474
  649SOL    HW2 2847   2.660   5.423   0.538
  650SOL     OW 2848   0.657   3.146   0.840
  650SOL    HW1 2849   0.665   3.234   0.794
  650SOL    HW2 2850   0.748   3.112   0.863
  651SOL     OW 2851   0.104   0.464   3.647
  651SOL    HW1 2852   0.126   0.372   3.677
  651SOL    HW2 2853   0.188   0.516   3.631
  652SOL     OW 2854   4.285   5.382   1.199
  652SOL    HW1 2855   4.260   5.338   1.286
  652SOL    HW2 2856   4.344   5.322   1.147
  653SOL     OW 2857   1.302   6.610   2.350
  653SOL    HW1 2858   1.386   6.616   2.296
  653SOL    HW2 2859   1.231   6.665   2.307
  654SOL     OW 2860   0.860   0.099   5.530
  654SOL    HW1 2861   0.943   0.115   5.477
  654SOL    HW2 2862   0.782   0.142   5.485
  655SOL     OW 2863   1.049   3.369   1.037
  655SOL    HW1 2864   1.142   3.397   1.014
  655SOL    HW2 2865   1.005   3.441   1.090
  656SOL     OW 2866   3.189   6.500   6.835
  656SOL    HW1 2867   3.281   6.483   6.801
  656SOL    HW2 2868   3.184   6.474   6.932
  657SOL     OW 2869   3.826   3.418   3.384
  657SOL    HW1 2870   3.910   3.388   3.340
  657SOL    HW2 2871   3.836   3.411   3.483
  658SOL     OW 2872   1.191   1.410   4.255
  658SOL    HW1 2873   1.099   1.413   4.216
  658SOL    HW2 2874   1.194   1.340   4.326
  659SOL     OW 2875   1.849   5.413   6.556
  659SOL    HW1 2876   1.878   5.459   6.640
  659SOL    HW2 2877   1.896   5.325   6.549
  660SOL     OW 2878   5.805   4.568   2.848
  660SOL    HW1 2879   5.879   4.566   2.781
  660SOL    HW2 2880   5.837   4.527   2.933
  661SOL     OW 2881   4.299   4.934   3.875
  661SOL    HW1 2882   4.258   4.850   3.912
  661SOL    HW2 2883   4.228   4.986   3.827
  662SOL     OW 2884   4.941   3.841   0.194
  662SOL    HW1 2885   4.987   3.758   0.224
  662SOL    HW2 2886   4.986   3.920   0.235
  663SOL     OW 2887   0.034   4.508   0.178
  663SOL    HW1 2888   6.980   4.450   0.153
  663SOL    HW2 2889   0.106   4.498   0.109
  664SOL     OW 2890   1.571   6.977   6.281
  664SOL    HW1 2891   1.600   0.042   6.245
  664SOL    HW2 2892   1.573   6.909   6.207
  665SOL     OW 2893   2.837   4.734   2.810
  665SOL    HW1 2894   2.914   4.793   2.833
  665SOL    HW2 2895   2.831   4.725   2.710
  666SOL     OW 2896   3.119   1.390   6.958
  666SOL    HW1 2897   3.068   1.308   6.985
  666SOL    HW2 2898   3.202   1.397   7.014
  667SOL     OW 2899   1.672   3.512   2.408
  667SOL    HW1 2900   1.627   3.532   2.321
  667SOL    HW2 2901   1.663   3.415   2.429
  668SOL     OW 2902   4.782   0.136   0.988
  668SOL    HW1 2903   4.877   0.106   0.980
  668SOL    HW2 2904   4.778   0.236   0.980
  669SOL     OW 2905   0.726   5.713   2.745
  669SOL    HW1 2906   0.665   5.638   2.770
  669SOL    HW2 2907   0.689   5.761   2.666
  670SOL     OW 2908   3.898   3.534   2.900
  670SOL    HW1 2909   3.937   3.598   2.967
  670SOL    HW2 2910   3.970   3.506   2.836
  671SOL     OW 2911   1.492   0.788   6.520
  671SOL    HW1 2912   1.522   0.864   6.463
  671SOL    HW2 2913   1.405   0.811   6.565
  672SOL     OW 2914   0.880   2.299   3.046
  672SOL    HW1 2915   0.872   2.263   2.953
  672SOL    HW2 2916   0.921   2.229   3.105
  673SOL     OW 2917   4.765   0.465   0.027
  673SOL    HW1 2918   4.801   0.557   0.046
  673SOL    HW2 2919   4.752   0.454   6.952
  674SOL     OW 2920   0.228   2.265   4.696
  674SOL    HW1 2921   0.294   2.237   4.626
  674SOL    HW2 2922   0.159   2.194   4.708
  675SOL     OW 2923   6.303   6.501   3.948
  675SOL    HW1 2924   6.271   6.492   4.042
  675SOL    HW2 2925   6.393   6.545   3.948
  676SOL     OW 2926   2.896   5.772   4.146
  676SOL    HW1 2927   2.856   5.785   4.056
  676SOL    HW2 2928   2.827   5.792   4.216
  677SOL     OW 2929   4.196   6.600   0.715
  677SOL    HW1 2930   4.230   6.571   0.805
  677SOL    HW2 2931   4.251   6.558   0.643
  678SOL     OW 2932   2.420   1.113   5.314
  678SOL    HW1 2933   2.465   1.029   5.283
  678SOL    HW2 2934   2.458   1.141   5.402
  679SOL     OW 2935   6.104   0.759   2.065
  679SOL    HW1 2936   6.092   0.737   1.968
  679SOL    HW2 2937   6.159   0.688   2.109
  680SOL     OW 2938   5.616   4.556   4.591
  680SOL    HW1 2939   5.697   4.601   4.628
  680SOL    HW2 2940   5.626   4.457   4.597
  681SOL     OW 2941   1.107   6.501   2.031
  681SOL    HW1 2942   1.014   6.503   1.995
  681SOL    HW2 2943   1.118   6.423   2.093
  682SOL     OW 2944   0.202   0.206   6.111
  682SOL    HW1 2945   0.154   0.289   6.082
  682SOL    HW2 2946   0.135   0.138   6.139
  683SOL     OW 2947   4.834   1.755   1.095
  683SOL    HW1 2948   4.797   1.668   1.062
  683SOL    HW2 2949   4.846   1.752   1.194
  684SOL     OW 2950   0.207   5.873   6.291
  684SOL    HW1 2951   0.307   5.873   6.280
  684SOL    HW2 2952   0.185   5.878   6.388
  685SOL     OW 2953   6.256   0.607   6.509
  685SOL    HW1 2954   6.334   0.548   6.528
  685SOL    HW2 2955   6.288   0.698   6.484
  686SOL     OW 2956   6.041   4.967   2.762
  686SOL    HW1 2957   6.003   4.969   2.854
  686SOL    HW2 2958   6.130   4.923   2.763
  687SOL     OW 2959   5.687   2.283   5.533
  687SOL    HW1 2960   5.785   2.271   5.519
  687SOL    HW2 2961   5.668   2.378   5.557
  688SOL     OW 2962   6.817   3.489   5.039
  688SOL    HW1 2963   6.756   3.413   5.019
  688SOL    HW2 2964   6.870   3.469   5.121
  689SOL     OW 2965   5.979   4.288   4.848
  689SOL    HW1 2966   5.924   4.249   4.922
  689SOL    HW2 2967   6.076   4.280   4.871
  690SOL     OW 2968   0.135   3.330   3.944
  690SOL    HW1 2969   0.065   3.380   3.893
  690SOL    HW2 2970   0.182   3.393   4.006
  691SOL     OW 2971   0.070   3.132   6.745
  691SOL    HW1 2972   0.097   3.080   6.664
  691SOL    HW2 2973   7.009   3.093   6.783
  692SOL     OW 2974   2.755   0.171   3.155
  692SOL    HW1 2975   2.818   0.234   3.109
  692SOL    HW2 2976   2.697   0.222   3.218
  693SOL     OW 2977   6.230   1.355   2.970
  693SOL    HW1 2978   6.251   1.310   2.884
  693SOL    HW2 2979   6.283   1.440   2.977
  694SOL     OW 2980   1.384   0.208   2.147
  694SOL    HW1 2981   1.334   0.123   2.130
  694SOL    HW2 2982   1.468   0.188   2.198
  695SOL     OW 2983   4.864   5.798   6.420
  695SOL    HW1 2984   4.772   5.769   6.445
  695SOL    HW2 2985   4.867   5.898   6.414
  696SOL     OW 2986   5.153   6.780   2.759
  696SOL    HW1 2987   5.058   6.805   2.779
  696SOL    HW2 2988   5.163   6.681   2.762
  697SOL     OW 2989   1.610   3.962   3.943
  697SOL    HW1 2990   1.554   3.989   4.021
  697SOL    HW2 2991   1.559   3.898   3.886
  698SOL     OW 2992   5.596   5.854   4.132
  698SOL    HW1 2993   5.691   5.864   4.161
  698SOL    HW2 2994   5.583   5.766   4.087
  699SOL     OW 2995   0.897   4.280   6.524
  699SOL    HW1 2996   0.988   4.253   6.554
  699SOL    HW2 2997   0.828   4.234   6.581
  700SOL     OW 2998   2.275   1.769   4.365
  700SOL    HW1 2999   2.216   1.832   4.314
  700SOL    HW2 3000   2.220   1.692   4.397
  701SOL     OW 3001   0.920   4.690   5.756
  701SOL    HW1 3002   0.898   4.640   5.672
  701SOL    HW2 3003   0.907   4.629   5.834
  702SOL     OW 3004   5.333   5.698   4.941
  702SOL    HW1 3005   5.342   5.731   4.847
  702SOL    HW2 3006   5.421   5.660   4.971
  703SOL     OW 3007   4.796   4.234   6.421
  703SOL    HW1 3008   4.760   4.141   6.421
  703SOL    HW2 3009   4.808   4.266   6.327
  704SOL     OW 3010   2.187   0.337   1.685
  704SOL    HW1 3011   2.261   0.372   1.627
  704SOL    HW2 3012   2.176   0.238   1.669
  705SOL     OW 3013   6.965   1.995   3.645
  705SOL    HW1 3014   6.958   2.057   3.567
  705SOL    HW2 3015   6.945   1.902   3.617
  706SOL     OW 3016   4.991   2.771   4.039
  706SOL    HW1 3017   4.957   2.799   4.128
  706SOL    HW2 3018   5.070   2.711   4.050
  707SOL     OW 3019   4.706   1.923   2.627
  707SOL    HW1 3020   4.616   1.957   2.600
  707SOL    HW2 3021   4.776   1.971   2.575
  708SOL     OW 3022   4.412   0.283   2.037
  708SOL    HW1 3023   4.426   0.358   2.102
  708SOL    HW2 3024   4.415   0.196   2.085
  709SOL     OW 3025   0.747   5.278   0.227
  709SOL    HW1 3026   0.833   5.297   0.274
  709SOL    HW2 3027   0.766   5.233   0.140
  710SOL     OW 3028   2.989   3.105   2.400
  710SOL    HW1 3029   2.899   3.067   2.378
  710SOL    HW2 3030   3.043   3.112   2.316
  711SOL     OW 3031   0.736   1.096   4.635
  711SOL    HW1 3032   0.722   0.997   4.632
  711SOL    HW2 3033   0.690   1.134   4.715
  712SOL     OW 3034   1.234   3.767   2.151
  712SOL    HW1 3035   1.205   3.830   2.223
  712SOL    HW2 3036   1.162   3.758   2.083
  713SOL     OW 3037   3.137   4.055   3.954
  713SOL    HW1 3038   3.054   4.024   3.906
  713SOL    HW2 3039   3.115   4.072   4.050
  714SOL     OW 3040   4.968   4.998   5.550
  714SOL    HW1 3041   5.037   5.030   5.486
  714SOL    HW2 3042   4.916   5.076   5.585
  715SOL     OW 3043   5.010   0.529   6.475
  715SOL    HW1 3044   5.036   0.620   6.441
  715SOL    HW2 3045   5.092   0.476   6.495
  716SOL     OW 3046   6.757   5.023   1.895
  716SOL    HW1 3047   6.757   5.120   1.920
  716SOL    HW2 3048   6.823   5.008   1.821
  717SOL     OW 3049   5.998   3.236   6.878
  717SOL    HW1 3050   5.926   3.295   6.915
  717SOL    HW2 3051   6.067   3.292   6.833
  718SOL     OW 3052   2.675   3.172   6.720
  718SOL    HW1 3053   2.638   3.186   6.628
  718SOL    HW2 3054   2.755   3.113   6.714
  719SOL     OW 3055   4.810   5.099   0.552
  719SOL    HW1 3056   4.778   5.153   0.629
  719SOL    HW2 3057   4.735   5.045   0.515
  720SOL     OW 3058   3.019   1.059   5.991
  720SOL    HW1 3059   2.961   1.137   5.967
  720SOL    HW2 3060   2.966   0.993   6.044
  721SOL     OW 3061   1.402   6.545   5.572
  721SOL    HW1 3062   1.350   6.463   5.548
  721SOL    HW2 3063   1.364   6.623   5.524
  722SOL     OW 3064   4.375   6.680   5.486
  722SOL    HW1 3065   4.419   6.684   5.396
  722SOL    HW2 3066   4.366   6.584   5.514
  723SOL     OW 3067   1.799   3.457   1.985
  723SOL    HW1 3068   1.756   3.547   1.993
  723SOL    HW2 3069   1.728   3.388   1.970
  724SOL     OW 3070   6.733   0.671   4.733
  724SOL    HW1 3071   6.670   0.667   4.655
  724SOL    HW2 3072   6.683   0.696   4.816
  725SOL     OW 3073   2.570   4.680   1.684
  725SOL    HW1 3074   2.625   4.734   1.748
  725SOL    HW2 3075   2.600   4.584   1.689
  726SOL     OW 3076   4.549   6.558   5.871
  726SOL    HW1 3077   4.564   6.614   5.789
  726SOL    HW2 3078   4.607   6.592   5.945
  727SOL     OW 3079   2.104   4.248   3.748
  727SOL    HW1 3080   2.021   4.233   3.803
  727SOL    HW2 3081   2.184   4.223   3.803
  728SOL     OW 3082   0.280   3.262   5.273
  728SOL    HW1 3083   0.191   3.217   5.284
  728SOL    HW2 3084   0.296   3.280   5.176
  729SOL     OW 3085   3.049   0.783   0.859
  729SOL    HW1 3086   2.986   0.709   0.885
  729SOL    HW2 3087   2.997   0.858   0.818
  730SOL     OW 3088   5.150   1.450   5.311
  730SOL    HW1 3089   5.091   1.468   5.232
  730SOL    HW2 3090   5.135   1.357   5.343
  731SOL     OW 3091   0.081   2.589   3.935
  731SOL    HW1 3092   0.043   2.658   3.997
  731SOL    HW2 3093   0.020   2.510   3.932
  732SOL     OW 3094   6.711   3.230   3.249
  732SOL    HW1 3095   6.791   3.286   3.228
  732SOL    HW2 3096   6.736   3.161   3.316
  733SOL     OW 3097   4.744   5.287   4.622
  733SOL    HW1 3098   4.796   5.236   4.554
  733SOL    HW2 3099   4.685   5.354   4.576
  734SOL     OW 3100   0.779   5.209   6.975
  734SOL    HW1 3101   0.812   5.176   6.887
  734SOL    HW2 3102   0.690   5.254   6.963
  735SOL     OW 3103   2.803   4.429   0.117
  735SOL    HW1 3104   2.744   4.411   0.195
  735SOL    HW2 3105   2.887   4.374   0.125
  736SOL     OW 3106   5.656   1.111   2.788
  736SOL    HW1 3107   5.707   1.127   2.704
  736SOL    HW2 3108   5.707   1.047   2.846
  737SOL     OW 3109   5.661   3.963   0.608
  737SOL    HW1 3110   5.723   4.032   0.573
  737SOL    HW2 3111   5.567   3.997   0.606
  738SOL     OW 3112   0.735   4.457   2.975
  738SOL    HW1 3113   0.687   4.383   3.022
  738SOL    HW2 3114   0.770   4.522   3.042
  739SOL     OW 3115   4.516   6.237   6.633
  739SOL    HW1 3116   4.533   6.256   6.537
  739SOL    HW2 3117   4.590   6.274   6.689
  740SOL     OW 3118   5.259   0.375   0.360
  740SOL    HW1 3119   5.314   0.398   0.280
  740SOL    HW2 3120   5.310   0.312   0.419
  741SOL     OW 3121   2.864   0.005   4.088
  741SOL    HW1 3122   2.822   0.062   4.018
  741SOL    HW2 3123   2.962   7.018   4.069
  742SOL     OW 3124   1.115   6.750   2.145
  742SOL    HW1 3125   1.097   6.668   2.090
  742SOL    HW2 3126   1.029   6.791   2.173
  743SOL     OW 3127   1.899   2.880   4.458
  743SOL    HW1 3128   1.832   2.933   4.511
  743SOL    HW2 3129   1.889   2.783   4.480
  744SOL     OW 3130   0.047   5.311   0.962
  744SOL    HW1 3131   0.090   5.388   0.915
  744SOL    HW2 3132   6.972   5.313   0.944
  745SOL     OW 3133   1.836   5.652   3.263
  745SOL    HW1 3134   1.833   5.552   3.272
  745SOL    HW2 3135   1.886   5.676   3.180
  746SOL     OW 3136   2.991   0.639   3.595
  746SOL    HW1 3137   3.021   0.544   3.605
  746SOL    HW2 3138   2.935   0.647   3.513
  747SOL     OW 3139   6.300   4.178   1.402
  747SOL    HW1 3140   6.338   4.270   1.417
  747SOL    HW2 3141   6.350   4.134   1.328
  748SOL     OW 3142   4.081   3.096   2.457
  748SOL    HW1 3143   4.056   3.191   2.475
  748SOL    HW2 3144   4.179   3.083   2.476
  749SOL     OW 3145   6.326   1.823   5.287
  749SOL    HW1 3146   6.306   1.873   5.202
  749SOL    HW2 3147   6.263   1.854   5.358
  750SOL     OW 3148   3.045   3.562   1.537
  750SOL    HW1 3149   2.965   3.610   1.499
  750SOL    HW2 3150   3.113   3.549   1.466
  751SOL     OW 3151   5.231   1.168   0.589
  751SOL    HW1 3152   5.233   1.257   0.635
  751SOL    HW2 3153   5.325   1.142   0.563
  752SOL     OW 3154   4.684   1.065   1.609
  752SOL    HW1 3155   4.774   1.062   1.654
  752SOL    HW2 3156   4.619   1.111   1.669
  753SOL     OW 3157   2.480   1.168   2.805
  753SOL    HW1 3158   2.480   1.132   2.898
  753SOL    HW2 3159   2.569   1.151   2.763
  754SOL     OW 3160   5.134   5.926   0.248
  754SOL    HW1 3161   5.099   5.965   0.163
  754SOL    HW2 3162   5.098   5.834   0.260
  755SOL     OW 3163   0.009   5.648   3.072
  755SOL    HW1 3164   0.027   5.614   2.980
  755SOL    HW2 3165   6.969   5.587   3.119
  756SOL     OW 3166   3.367   6.502   3.623
  756SOL    HW1 3167   3.317   6.436   3.567
  756SOL    HW2 3168   3.464   6.497   3.600
  757SOL     OW 3169   6.297   1.264   4.838
  757SOL    HW1 3170   6.374   1.202   4.850
  757SOL    HW2 3171   6.216   1.211   4.811
  758SOL     OW 3172   4.646   2.289   1.731
  758SOL    HW1 3173   4.611   2.252   1.817
  758SOL    HW2 3174   4.746   2.290   1.733
  759SOL     OW 3175   1.625   0.586   0.752
  759SOL    HW1 3176   1.637   0.573   0.850
  759SOL    HW2 3177   1.690   0.656   0.720
  760SOL     OW 3178   4.749   2.322   5.842
  760SOL    HW1 3179   4.731   2.246   5.903
  760SOL    HW2 3180   4.697   2.402   5.872
  761SOL     OW 3181   5.394   1.539   7.015
  761SOL    HW1 3182   5.421   1.604   0.062
  761SOL    HW2 3183   5.333   1.469   0.030
  762SOL     OW 3184   2.078   5.261   4.060
  762SOL    HW1 3185   2.166   5.214   4.058
  762SOL    HW2 3186   2.030   5.240   4.145
  763SOL     OW 3187   5.672   5.327   6.908
  763SOL    HW1 3188   5.769   5.301   6.917
  763SOL    HW2 3189   5.628   5.322   6.998
  764SOL     OW 3190   4.865   0.979   2.512
  764SOL    HW1 3191   4.821   1.037   2.582
  764SOL    HW2 3192   4.819   0.891   2.509
  765SOL     OW 3193   6.430   6.651   3.408
  765SOL    HW1 3194   6.339   6.656   3.449
  765SOL    HW2 3195   6.483   6.580   3.453
  766SOL     OW 3196   0.184   6.503   0.225
  766SOL    HW1 3197   0.188   6.424   0.287
  766SOL    HW2 3198   0.206   6.474   0.132
  767SOL     OW 3199   5.799   6.945   1.058
  767SOL    HW1 3200   5.803   6.960   1.157
  767SOL    HW2 3201   5.888   6.963   1.017
  768SOL     OW 3202   3.365   6.769   3.685
  768SOL    HW1 3203   3.378   6.672   3.666
  768SOL    HW2 3204   3.389   6.788   3.780
  769SOL     OW 3205   3.164   0.740   6.779
  769SOL    HW1 3206   3.222   0.776   6.852
  769SOL    HW2 3207   3.215   0.738   6.693
  770SOL     OW 3208   2.682   5.034   3.370
  770SOL    HW1 3209   2.610   5.084   3.418
  770SOL    HW2 3210   2.642   4.975   3.301
  771SOL     OW 3211   0.368   5.504   4.594
  771SOL    HW1 3212   0.390   5.585   4.648
  771SOL    HW2 3213   0.447   5.443   4.590
  772SOL     OW 3214   6.788   4.433   4.905
  772SOL    HW1 3215   6.831   4.378   4.977
  772SOL    HW2 3216   6.709   4.383   4.868
  773SOL     OW 3217   0.399   3.685   1.832
  773SOL    HW1 3218   0.378   3.628   1.753
  773SOL    HW2 3219   0.377   3.635   1.916
  774SOL     OW 3220   1.159   1.103   1.579
  774SOL    HW1 3221   1.146   1.005   1.594
  774SOL    HW2 3222   1.224   1.138   1.646
  775SOL     OW 3223   1.430   2.565   4.410
  775SOL    HW1 3224   1.332   2.563   4.392
  775SOL    HW2 3225   1.453   2.646   4.464
  776SOL     OW 3226   2.277   6.711   5.485
  776SOL    HW1 3227   2.182   6.734   5.465
  776SOL    HW2 3228   2.286   6.684   5.581
  777SOL     OW 3229   4.544   0.427   0.720
  777SOL    HW1 3230   4.596   0.488   0.778
  777SOL    HW2 3231   4.452   0.416   0.757
  778SOL     OW 3232   4.233   5.623   4.520
  778SOL    HW1 3233   4.286   5.706   4.536
  778SOL    HW2 3234   4.192   5.592   4.606
  779SOL     OW 3235   1.312   0.710   2.791
  779SOL    HW1 3236   1.392   0.763   2.819
  779SOL    HW2 3237   1.331   0.667   2.702
  780SOL     OW 3238   5.065   3.469   5.247
  780SOL    HW1 3239   5.151   3.447   5.293
  780SOL    HW2 3240   5.028   3.387   5.204
  781SOL     OW 3241   0.840   1.874   6.573
  781SOL    HW1 3242   0.754   1.893   6.526
  781SOL    HW2 3243   0.915   1.873   6.506
  782SOL     OW 3244   0.348   4.032   0.487
  782SOL    HW1 3245   0.385   3.991   0.403
  782SOL    HW2 3246   0.373   4.129   0.491
  783SOL     OW 3247   2.491   4.065   0.166
  783SOL    HW1 3248   2.435   3.982   0.166
  783SOL    HW2 3249   2.431   4.145   0.165
  784SOL     OW 3250   4.977   6.122   3.694
  784SOL    HW1 3251   4.954   6.083   3.604
  784SOL    HW2 3252   5.061   6.175   3.687
  785SOL     OW 3253   6.171   2.081   4.380
  785SOL    HW1 3254   6.251   2.042   4.427
  785SOL    HW2 3255   6.122   2.142   4.443
  786SOL     OW 3256   6.432   6.773   0.258
  786SOL    HW1 3257   6.423   6.799   0.354
  786SOL    HW2 3258   6.369   6.827   0.203
  787SOL     OW 3259   4.236   1.297   6.798
  787SOL    HW1 3260   4.154   1.333   6.754
  787SOL    HW2 3261   4.221   1.291   6.897
  788SOL     OW 3262   1.022   4.506   3.553
  788SOL    HW1 3263   1.056   4.470   3.640
  788SOL    HW2 3264   0.926   4.533   3.564
  789SOL     OW 3265   5.819   3.572   1.169
  789SOL    HW1 3266   5.911   3.602   1.191
  789SOL    HW2 3267   5.819   3.522   1.082
  790SOL     OW 3268   3.562   0.666   3.752
  790SOL    HW1 3269   3.504   0.746   3.734
  790SOL    HW2 3270   3.503   0.587   3.771
  791SOL     OW 3271   3.948   1.967   4.676
  791SOL    HW1 3272   3.998   2.029   4.735
  791SOL    HW2 3273   3.849   1.981   4.688
  792SOL     OW 3274   5.678   0.176   3.822
  792SOL    HW1 3275   5.778   0.167   3.825
  792SOL    HW2 3276   5.647   0.166   3.728
  793SOL     OW 3277   6.814   0.080   5.942
  793SOL    HW1 3278   6.740   0.116   5.885
  793SOL    HW2 3279   6.885   0.041   5.884
  794SOL     OW 3280   3.950   5.139   4.671
  794SOL    HW1 3281   3.883   5.076   4.710
  794SOL    HW2 3282   3.907   5.192   4.597
  795SOL     OW 3283   4.743   5.008   6.406
  795SOL    HW1 3284   4.661   4.981   6.357
  795SOL    HW2 3285   4.806   5.054   6.344
  796SOL     OW 3286   0.486   1.887   5.899
  796SOL    HW1 3287   0.538   1.825   5.839
  796SOL    HW2 3288   0.392   1.855   5.906
  797SOL     OW 3289   6.121   2.446   5.291
  797SOL    HW1 3290   6.056   2.492   5.230
  797SOL    HW2 3291   6.191   2.399   5.237
  798SOL     OW 3292   6.097   0.761   5.118
  798SOL    HW1 3293   6.130   0.811   5.198
  798SOL    HW2 3294   6.144   0.794   5.036
  799SOL     OW 3295   6.903   3.671   3.740
  799SOL    HW1 3296   6.998   3.650   3.764
  799SOL    HW2 3297   6.843   3.601   3.778
  800SOL     OW 3298   6.590   1.744   1.713
  800SOL    HW1 3299   6.648   1.823   1.735
  800SOL    HW2 3300   6.648   1.663   1.703
  801SOL     OW 3301   0.677   1.973   3.877
  801SOL    HW1 3302   0.592   2.022   3.860
  801SOL    HW2 3303   0.680   1.943   3.972
  802SOL     OW 3304   5.911   1.128   1.213
  802SOL    HW1 3305   5.959   1.205   1.256
  802SOL    HW2 3306   5.934   1.124   1.116
  803SOL     OW 3307   1.810   0.339   4.719
  803SOL    HW1 3308   1.834   0.401   4.644
  803SOL    HW2 3309   1.848   0.249   4.702
  804SOL     OW 3310   6.663   6.645   1.164
  804SOL    HW1 3311   6.669   6.559   1.114
  804SOL    HW2 3312   6.705   6.719   1.111
  805SOL     OW 3313   1.369   3.065   5.635
  805SOL    HW1 3314   1.343   3.148   5.584
  805SOL    HW2 3315   1.453   3.027   5.597
  806SOL     OW 3316   4.895   0.592   0.678
  806SOL    HW1 3317   4.941   0.549   0.601
  806SOL    HW2 3318   4.884   0.690   0.660
  807SOL     OW 3319   0.974   6.829   2.848
  807SOL    HW1 3320   1.049   6.766   2.869
  807SOL    HW2 3321   1.009   6.923   2.847
  808SOL     OW 3322   6.271   3.534   5.155
  808SOL    HW1 3323   6.356   3.565   5.198
  808SOL    HW2 3324   6.213   3.489   5.222
  809SOL     OW 3325   0.952   5.457   6.072
  809SOL    HW1 3326   0.867   5.411   6.095
  809SOL    HW2 3327   1.004   5.475   6.156
  810SOL     OW 3328   6.436   4.980   6.773
  810SOL    HW1 3329   6.367   5.013   6.708
  810SOL    HW2 3330   6.524   5.021   6.751
  811SOL     OW 3331   4.482   4.966   3.650
  811SOL    HW1 3332   4.457   4.972   3.747
  811SOL    HW2 3333   4.440   4.885   3.609
  812SOL     OW 3334   0.260   0.486   2.226
  812SOL    HW1 3335   0.347   0.448   2.258
  812SOL    HW2 3336   0.272   0.583   2.206
  813SOL     OW 3337   5.697   5.922   1.781
  813SOL    HW1 3338   5.786   5.886   1.810
  813SOL    HW2 3339   5.708   5.975   1.697
  814SOL     OW 3340   5.497   5.691   1.374
  814SOL    HW1 3341   5.463   5.629   1.445
  814SOL    HW2 3342   5.423   5.752   1.346
  815SOL     OW 3343   0.605   1.385   0.159
  815SOL    HW1 3344   0.608   1.435   0.246
  815SOL    HW2 3345   0.517   1.399   0.115
  816SOL     OW 3346   5.680   0.776   1.019
  816SOL    HW1 3347   5.642   0.865   0.993
  816SOL    HW2 3348   5.675   0.766   1.118
  817SOL     OW 3349   0.504   1.946   1.484
  817SOL    HW1 3350   0.454   1.859   1.487
  817SOL    HW2 3351   0.602   1.927   1.494
  818SOL     OW 3352   5.959   1.635   2.349
  818SOL    HW1 3353   6.001   1.725   2.336
  818SOL    HW2 3354   5.891   1.620   2.277
  819SOL     OW 3355   0.267   4.806   2.891
  819SOL    HW1 3356   0.339   4.814   2.822
  819SOL    HW2 3357   0.289   4.731   2.954
  820SOL     OW 3358   1.738   2.926   4.843
  820SOL    HW1 3359   1.812   2.992   4.830
  820SOL    HW2 3360   1.720   2.916   4.941
  821SOL     OW 3361   1.474   4.103   0.235
  821SOL    HW1 3362   1.460   4.010   0.202
  821SOL    HW2 3363   1.483   4.102   0.334
  822SOL     OW 3364   1.372   3.786   4.761
  822SOL    HW1 3365   1.374   3.873   4.712
  822SOL    HW2 3366   1.293   3.733   4.731
  823SOL     OW 3367   3.252   3.487   1.285
  823SOL    HW1 3368   3.325   3.522   1.226
  823SOL    HW2 3369   3.292   3.431   1.357
  824SOL     OW 3370   6.338   2.422   6.004
  824SOL    HW1 3371   6.259   2.407   5.943
  824SOL    HW2 3372   6.308   2.473   6.085
  825SOL     OW 3373   1.586   4.193   2.137
  825SOL    HW1 3374   1.606   4.126   2.208
  825SOL    HW2 3375   1.666   4.251   2.122
  826SOL     OW 3376   1.076   4.296   5.754
  826SOL    HW1 3377   1.114   4.342   5.834
  826SOL    HW2 3378   0.982   4.325   5.739
  827SOL     OW 3379   4.062   5.357   1.038
  827SOL    HW1 3380   4.138   5.390   1.095
  827SOL    HW2 3381   3.987   5.422   1.043
  828SOL     OW 3382   6.255   6.869   5.318
  828SOL    HW1 3383   6.300   6.942   5.266
  828SOL    HW2 3384   6.307   6.784   5.308
  829SOL     OW 3385   3.513   3.071   4.784
  829SOL    HW1 3386   3.581   3.126   4.736
  829SOL    HW2 3387   3.555   3.032   4.867
  830SOL     OW 3388   4.357   3.944   6.220
  830SOL    HW1 3389   4.393   3.942   6.127
  830SOL    HW2 3390   4.276   3.886   6.225
  831SOL     OW 3391   6.606   6.992   4.899
  831SOL    HW1 3392   6.625   6.961   4.992
  831SOL    HW2 3393   6.543   6.927   4.855
  832SOL     OW 3394   2.459   1.211   5.631
  832SOL    HW1 3395   2.379   1.268   5.618
  832SOL    HW2 3396   2.444   1.150   5.709
  833SOL     OW 3397   0.859   6.923   5.733
  833SOL    HW1 3398   0.948   6.966   5.748
  833SOL    HW2 3399   0.808   6.976   5.666
  834SOL     OW 3400   3.263   4.690   5.700
  834SOL    HW1 3401   3.172   4.651   5.684
  834SOL    HW2 3402   3.304   4.647   5.781
  835SOL     OW 3403   4.558   0.724   3.301
  835SOL    HW1 3404   4.631   0.786   3.271
  835SOL    HW2 3405   4.536   0.741   3.396
  836SOL     OW 3406   2.662   0.469   6.688
  836SOL    HW1 3407   2.758   0.491   6.670
  836SOL    HW2 3408   2.628   0.529   6.761
  837SOL     OW 3409   4.020   1.076   4.983
  837SOL    HW1 3410   4.032   1.151   5.049
  837SOL    HW2 3411   3.960   1.007   5.023
  838SOL     OW 3412   1.171   5.092   2.600
  838SOL    HW1 3413   1.261   5.054   2.621
  838SOL    HW2 3414   1.100   5.028   2.628
  839SOL     OW 3415   3.406   0.959   1.736
  839SOL    HW1 3416   3.326   0.965   1.676
  839SOL    HW2 3417   3.377   0.937   1.829
  840SOL     OW 3418   0.719   1.728   5.802
  840SOL    HW1 3419   0.793   1.783   5.763
  840SOL    HW2 3420   0.757   1.668   5.873
  841SOL     OW 3421   0.539   3.705   0.390
  841SOL    HW1 3422   0.636   3.683   0.396
  841SOL    HW2 3423   0.489   3.653   0.460
  842SOL     OW 3424   3.518   5.413   3.455
  842SOL    HW1 3425   3.470   5.370   3.532
  842SOL    HW2 3426   3.476   5.502   3.435
  843SOL     OW 3427   6.989   4.112   2.313
  843SOL    HW1 3428   7.001   4.177   2.388
  843SOL    HW2 3429   6.971   4.021   2.350
  844SOL     OW 3430   5.306   5.283   0.008
  844SOL    HW1 3431   5.240   5.293   0.082
  844SOL    HW2 3432   5.271   5.328   6.950
  845SOL     OW 3433   1.881   5.290   4.846
  845SOL    HW1 3434   1.889   5.389   4.856
  845SOL    HW2 3435   1.960   5.245   4.887
  846SOL     OW 3436   5.106   2.981   6.943
  846SOL    HW1 3437   5.083   3.079   6.943
  846SOL    HW2 3438   5.197   2.969   6.983
  847SOL     OW 3439   5.275   4.141   2.137
  847SOL    HW1 3440   5.313   4.163   2.047
  847SOL    HW2 3441   5.349   4.117   2.200
  848SOL     OW 3442   6.367   0.298   5.384
  848SOL    HW1 3443   6.423   0.348   5.450
  848SOL    HW2 3444   6.329   0.362   5.318
  849SOL     OW 3445   0.734   5.624   4.256
  849SOL    HW1 3446   0.652   5.648   4.308
  849SOL    HW2 3447   0.723   5.532   4.218
  850SOL     OW 3448   3.939   0.543   3.334
  850SOL    HW1 3449   3.893   0.500   3.257
  850SOL    HW2 3450   3.875   0.553   3.410
  851SOL     OW 3451   0.302   0.647   5.108
  851SOL    HW1 3452   0.277   0.624   5.202
  851SOL    HW2 3453   0.347   0.737   5.106
  852SOL     OW 3454   2.838   4.556   5.958
  852SOL    HW1 3455   2.889   4.603   6.030
  852SOL    HW2 3456   2.745   4.536   5.991
  853SOL     OW 3457   1.444   3.828   0.698
  853SOL    HW1 3458   1.454   3.743   0.647
  853SOL    HW2 3459   1.503   3.826   0.779
  854SOL     OW 3460   6.537   4.989   2.053
  854SOL    HW1 3461   6.609   5.015   1.988
  854SOL    HW2 3462   6.453   4.970   2.002
  855SOL     OW 3463   5.220   0.725   0.620
  855SOL    HW1 3464   5.173   0.650   0.575
  855SOL    HW2 3465   5.172   0.811   0.600
  856SOL     OW 3466   1.061   1.351   4.735
  856SOL    HW1 3467   1.135   1.418   4.729
  856SOL    HW2 3468   1.079   1.288   4.811
  857SOL     OW 3469   6.400   3.603   1.674
  857SOL    HW1 3470   6.411   3.690   1.723
  857SOL    HW2 3471   6.450   3.606   1.588
  858SOL     OW 3472   3.408   3.389   1.519
  858SOL    HW1 3473   3.493   3.337   1.526
  858SOL    HW2 3474   3.406   3.459   1.589
  859SOL     OW 3475   6.664   4.702   0.611
  859SOL    HW1 3476   6.578   4.753   0.597
  859SOL    HW2 3477   6.676   4.683   0.709
  860SOL     OW 3478   2.111   4.446   0.564
  860SOL    HW1 3479   2.196   4.499   0.563
  860SOL    HW2 3480   2.126   4.359   0.611
  861SOL     OW 3481   3.441   4.668   6.185
  861SOL    HW1 3482   3.535   4.639   6.200
  861SOL    HW2 3483   3.388   4.653   6.269
  862SOL     OW 3484   4.780   4.158   3.554
  862SOL    HW1 3485   4.682   4.180   3.556
  862SOL    HW2 3486   4.831   4.230   3.602
  863SOL     OW 3487   5.832   2.236   1.010
  863SOL    HW1 3488   5.838   2.205   0.916
  863SOL    HW2 3489   5.922   2.228   1.053
  864SOL     OW 3490   6.919   4.553   2.650
  864SOL    HW1 3491   6.897   4.644   2.616
  864SOL    HW2 3492   6.834   4.504   2.671
  865SOL     OW 3493   1.886   0.784   3.700
  865SOL    HW1 3494   1.871   0.853   3.770
  865SOL    HW2 3495   1.809   0.782   3.636
  866SOL     OW 3496   3.956   1.224   0.643
  866SOL    HW1 3497   3.872   1.173   0.661
  866SOL    HW2 3498   4.031   1.161   0.626
  867SOL     OW 3499   2.217   1.411   6.293
  867SOL    HW1 3500   2.273   1.349   6.348
  867SOL    HW2 3501   2.256   1.503   6.297
  868SOL     OW 3502   5.682   2.765   3.484
  868SOL    HW1 3503   5.763   2.709   3.466
  868SOL    HW2 3504   5.600   2.709   3.473
  869SOL     OW 3505   6.782   4.146   1.320
  869SOL    HW1 3506   6.732   4.174   1.401
  869SOL    HW2 3507   6.880   4.142   1.340
  870SOL     OW 3508   6.611   2.508   0.457
  870SOL    HW1 3509   6.525   2.556   0.443
  870SOL    HW2 3510   6.648   2.532   0.547
  871SOL     OW 3511   6.325   4.128   0.687
  871SOL    HW1 3512   6.252   4.194   0.705
  871SOL    HW2 3513   6.320   4.053   0.753
  872SOL     OW 3514   6.275   2.114   2.162
  872SOL    HW1 3515   6.300   2.200   2.117
  872SOL    HW2 3516   6.352   2.081   2.215
  873SOL     OW 3517   3.751   6.635   4.920
  873SOL    HW1 3518   3.828   6.699   4.915
  873SOL    HW2 3519   3.724   6.608   4.828
  874SOL     OW 3520   0.112   4.014   6.606
  874SOL    HW1 3521   0.162   4.037   6.523
  874SOL    HW2 3522   0.053   3.935   6.589
  875SOL     OW 3523   6.236   5.080   6.611
  875SOL    HW1 3524   6.168   5.007   6.605
  875SOL    HW2 3525   6.195   5.166   6.579
  876SOL     OW 3526   1.304   2.188   0.640
  876SOL    HW1 3527   1.213   2.208   0.605
  876SOL    HW2 3528   1.297   2.151   0.733
  877SOL     OW 3529   5.657   5.832   0.411
  877SOL    HW1 3530   5.637   5.891   0.332
  877SOL    HW2 3531   5.614   5.743   0.399
  878SOL     OW 3532   3.631   2.360   0.471
  878SOL    HW1 3533   3.691   2.391   0.398
  878SOL    HW2 3534   3.656   2.267   0.498
  879SOL     OW 3535   4.238   2.046   2.615
  879SOL    HW1 3536   4.180   2.071   2.693
  879SOL    HW2 3537   4.199   1.967   2.568
  880SOL     OW 3538   4.457   5.139   1.817
  880SOL    HW1 3539   4.412   5.217   1.773
  880SOL    HW2 3540   4.392   5.093   1.877
  881SOL     OW 3541   4.774   5.071   3.634
  881SOL    HW1 3542   4.741   4.993   3.687
  881SOL    HW2 3543   4.697   5.132   3.615
  882SOL     OW 3544   0.851   2.182   4.383
  882SOL    HW1 3545   0.812   2.187   4.475
  882SOL    HW2 3546   0.939   2.228   4.381
  883SOL     OW 3547   3.356   4.511   0.221
  883SOL    HW1 3548   3.301   4.532   0.302
  883SOL    HW2 3549   3.302   4.528   0.139
  884SOL     OW 3550   3.961   3.881   1.752
  884SOL    HW1 3551   3.868   3.844   1.746
  884SOL    HW2 3552   3.991   3.910   1.661
  885SOL     OW 3553   4.658   6.518   6.260
  885SOL    HW1 3554   4.662   6.605   6.210
  885SOL    HW2 3555   4.732   6.458   6.229
  886SOL     OW 3556   4.224   2.079   6.986
  886SOL    HW1 3557   4.205   2.058   0.058
  886SOL    HW2 3558   4.142   2.118   6.944
  887SOL     OW 3559   5.411   6.831   5.488
  887SOL    HW1 3560   5.426   6.794   5.397
  887SOL    HW2 3561   5.346   6.774   5.538
  888SOL     OW 3562   6.081   6.816   2.767
  888SOL    HW1 3563   6.030   6.790   2.685
  888SOL    HW2 3564   6.170   6.770   2.768
  889SOL     OW 3565   1.055   0.084   4.445
  889SOL    HW1 3566   1.052   0.134   4.359
  889SOL    HW2 3567   0.964   0.085   4.487
  890SOL     OW 3568   1.822   4.352   2.135
  890SOL    HW1 3569   1.847   4.358   2.231
  890SOL    HW2 3570   1.808   4.444   2.098
  891SOL     OW 3571   5.383   3.842   6.409
  891SOL    HW1 3572   5.349   3.761   6.361
  891SOL    HW2 3573   5.309   3.882   6.463
  892SOL     OW 3574   2.106   5.129   1.455
  892SOL    HW1 3575   2.059   5.063   1.513
  892SOL    HW2 3576   2.100   5.100   1.360
  893SOL     OW 3577   1.864   6.574   2.007
  893SOL    HW1 3578   1.808   6.548   1.929
  893SOL    HW2 3579   1.960   6.573   1.980
  894SOL     OW 3580   1.358   5.696   4.242
  894SOL    HW1 3581   1.375   5.676   4.339
  894SOL    HW2 3582   1.350   5.610   4.192
  895SOL     OW 3583   2.548   0.869   4.356
  895SOL    HW1 3584   2.497   0.936   4.410
  895SOL    HW2 3585   2.563   0.787   4.411
  896SOL     OW 3586   5.232   6.929   3.471
  896SOL    HW1 3587   5.198   7.009   3.421
  896SOL    HW2 3588   5.162   6.897   3.535
  897SOL     OW 3589   5.158   1.715   6.319
  897SOL    HW1 3590   5.138   1.731   6.222
  897SOL    HW2 3591   5.084   1.662   6.360
  898SOL     OW 3592   5.761   6.199   4.055
  898SOL    HW1 3593   5.749   6.130   3.984
  898SOL    HW2 3594   5.736   6.161   4.144
  899SOL     OW 3595   1.347   4.362   0.057
  899SOL    HW1 3596   1.272   4.413   0.099
  899SOL    HW2 3597   1.431   4.378   0.108
  900SOL     OW 3598   0.483   5.937   3.583
  900SOL    HW1 3599   0.465   6.035   3.578
  900SOL    HW2 3600   0.449   5.901   3.670
  901SOL     OW 3601   5.460   1.923   3.525
  901SOL    HW1 3602   5.458   1.888   3.619
  901SOL    HW2 3603   5.549   1.905   3.484
  902SOL     OW 3604   1.011   6.324   0.136
  902SOL    HW1 3605   0.995   6.370   0.223
  902SOL    HW2 3606   1.105   6.288   0.134
  903SOL     OW 3607   0.652   5.025   6.711
  903SOL    HW1 3608   0.572   5.053   6.764
  903SOL    HW2 3609   0.709   4.963   6.766
  904SOL     OW 3610   1.606   0.801   3.826
  904SOL    HW1 3611   1.584   0.820   3.922
  904SOL    HW2 3612   1.647   0.882   3.784
  905SOL     OW 3613   6.259   2.214   4.771
  905SOL    HW1 3614   6.194   2.142   4.795
  905SOL    HW2 3615   6.334   2.215   4.838
  906SOL     OW 3616   6.354   3.938   5.636
  906SOL    HW1 3617   6.426   3.980   5.690
  906SOL    HW2 3618   6.384   3.928   5.541
  907SOL     OW 3619   0.165   3.056   1.996
  907SOL    HW1 3620   0.157   3.140   1.943
  907SOL    HW2 3621   0.198   2.982   1.937
  908SOL     OW 3622   2.849   1.044   3.450
  908SOL    HW1 3623   2.826   0.994   3.367
  908SOL    HW2 3624   2.940   1.015   3.482
  909SOL     OW 3625   4.041   6.861   1.181
  909SOL    HW1 3626   3.992   6.863   1.268
  909SOL    HW2 3627   4.052   6.954   1.146
  910SOL     OW 3628   1.680   1.517   2.329
  910SOL    HW1 3629   1.601   1.532   2.269
  910SOL    HW2 3630   1.747   1.591   2.316
  911SOL     OW 3631   0.794   3.754   0.620
  911SOL    HW1 3632   0.860   3.765   0.694
  911SOL    HW2 3633   0.770   3.844   0.583
  912SOL     OW 3634   0.914   0.647   6.379
  912SOL    HW1 3635   0.830   0.684   6.339
  912SOL    HW2 3636   0.931   0.556   6.341
  913SOL     OW 3637   1.965   1.241   2.061
  913SOL    HW1 3638   1.957   1.337   2.036
  913SOL    HW2 3639   2.049   1.228   2.114
  914SOL     OW 3640   2.838   5.787   1.883
  914SOL    HW1 3641   2.882   5.799   1.972
  914SOL    HW2 3642   2.836   5.875   1.835
  915SOL     OW 3643   1.738   2.402   0.518
  915SOL    HW1 3644   1.771   2.496   0.525
  915SOL    HW2 3645   1.811   2.339   0.545
  916SOL     OW 3646   1.605   3.242   2.397
  916SOL    HW1 3647   1.698   3.206   2.399
  916SOL    HW2 3648   1.542   3.174   2.435
  917SOL     OW 3649   3.976   1.508   6.455
  917SOL    HW1 3650   3.877   1.512   6.444
  917SOL    HW2 3651   4.019   1.586   6.409
  918SOL     OW 3652   0.184   2.052   5.036
  918SOL    HW1 3653   0.144   2.138   5.004
  918SOL    HW2 3654   0.123   2.011   5.103
  919SOL     OW 3655   1.564   0.220   1.183
  919SOL    HW1 3656   1.476   0.233   1.138
  919SOL    HW2 3657   1.554   0.157   1.259
  920SOL     OW 3658   1.715   1.036   3.195
  920SOL    HW1 3659   1.646   1.025   3.267
  920SOL    HW2 3660   1.681   1.099   3.125
  921SOL     OW 3661   3.988   3.886   0.604
  921SOL    HW1 3662   4.054   3.871   0.677
  921SOL    HW2 3663   4.034   3.929   0.526
  922SOL     OW 3664   2.224   5.238   6.878
  922SOL    HW1 3665   2.289   5.196   6.941
  922SOL    HW2 3666   2.142   5.182   6.872
  923SOL     OW 3667   3.700   1.262   6.875
  923SOL    HW1 3668   3.645   1.342   6.854
  923SOL    HW2 3669   3.641   1.181   6.880
  924SOL     OW 3670   6.530   5.134   2.677
  924SOL    HW1 3671   6.443   5.147   2.725
  924SOL    HW2 3672   6.514   5.080   2.594
  925SOL     OW 3673   6.750   1.771   3.013
  925SOL    HW1 3674   6.753   1.694   2.949
  925SOL    HW2 3675   6.697   1.846   2.972
  926SOL     OW 3676   4.304   6.285   1.467
  926SOL    HW1 3677   4.318   6.365   1.409
  926SOL    HW2 3678   4.215   6.244   1.447
  927SOL     OW 3679   4.434   5.825   4.980
  927SOL    HW1 3680   4.495   5.877   4.921
  927SOL    HW2 3681   4.419   5.875   5.065
  928SOL     OW 3682   0.395   1.305   1.195
  928SOL    HW1 3683   0.344   1.390   1.189
  928SOL    HW2 3684   0.333   1.231   1.221
  929SOL     OW 3685   6.955   2.605   2.189
  929SOL    HW1 3686   7.004   2.676   2.240
  929SOL    HW2 3687   7.021   2.537   2.157
  930SOL     OW 3688   5.576   5.553   2.177
  930SOL    HW1 3689   5.530   5.502   2.105
  930SOL    HW2 3690   5.599   5.644   2.144
  931SOL     OW 3691   1.538   2.897   1.858
  931SOL    HW1 3692   1.460   2.898   1.796
  931SOL    HW2 3693   1.518   2.953   1.938
  932SOL     OW 3694   4.063   6.231   1.380
  932SOL    HW1 3695   4.057   6.151   1.320
  932SOL    HW2 3696   3.973   6.272   1.389
  933SOL     OW 3697   1.281   6.877   3.666
  933SOL    HW1 3698   1.308   6.961   3.618
  933SOL    HW2 3699   1.343   6.862   3.743
  934SOL     OW 3700   3.355   0.668   5.381
  934SOL    HW1 3701   3.367   0.661   5.480
  934SOL    HW2 3702   3.329   0.762   5.357
  935SOL     OW 3703   1.497   3.709   5.195
  935SOL    HW1 3704   1.523   3.805   5.210
  935SOL    HW2 3705   1.523   3.681   5.103
  936SOL     OW 3706   0.762   2.394   1.482
  936SOL    HW1 3707   0.697   2.321   1.461
  936SOL    HW2 3708   0.855   2.359   1.477
  937SOL     OW 3709   5.534   2.527   3.799
  937SOL    HW1 3710   5.625   2.503   3.831
  937SOL    HW2 3711   5.524   2.626   3.797
  938SOL     OW 3712   0.266   0.983   6.727
  938SOL    HW1 3713   0.247   0.903   6.671
  938SOL    HW2 3714   0.339   1.036   6.685
  939SOL     OW 3715   6.233   1.196   5.551
  939SOL    HW1 3716   6.217   1.154   5.640
  939SOL    HW2 3717   6.265   1.290   5.563
  940SOL     OW 3718   0.222   0.611   4.378
  940SOL    HW1 3719   0.208   0.675   4.302
  940SOL    HW2 3720   0.134   0.578   4.411
  941SOL     OW 3721   5.860   2.514   5.424
  941SOL    HW1 3722   5.954   2.496   5.393
  941SOL    HW2 3723   5.857   2.599   5.475
  942SOL     OW 3724   4.836   0.362   4.816
  942SOL    HW1 3725   4.763   0.362   4.747
  942SOL    HW2 3726   4.836   0.449   4.865
  943SOL     OW 3727   5.590   1.866   0.417
  943SOL    HW1 3728   5.510   1.841   0.363
  943SOL    HW2 3729   5.667   1.807   0.391
  944SOL     OW 3730   4.802   3.952   4.722
  944SOL    HW1 3731   4.719   4.005   4.709
  944SOL    HW2 3732   4.865   4.002   4.781
  945SOL     OW 3733   5.501   3.517   6.069
  945SOL    HW1 3734   5.444   3.526   6.150
  945SOL    HW2 3735   5.477   3.433   6.020
  946SOL     OW 3736   5.689   3.710   6.738
  946SOL    HW1 3737   5.683   3.810   6.733
  946SOL    HW2 3738   5.597   3.671   6.730
  947SOL     OW 3739   0.600   2.749   5.805
  947SOL    HW1 3740   0.579   2.651   5.804
  947SOL    HW2 3741   0.515   2.801   5.817
  948SOL     OW 3742   3.615   1.500   0.609
  948SOL    HW1 3743   3.712   1.525   0.609
  948SOL    HW2 3744   3.605   1.409   0.569
  949SOL     OW 3745   5.623   5.806   6.982
  949SOL    HW1 3746   5.545   5.825   0.018
  949SOL    HW2 3747   5.591   5.757   6.901
  950SOL     OW 3748   3.864   5.159   0.991
  950SOL    HW1 3749   3.860   5.177   0.893
  950SOL    HW2 3750   3.939   5.213   1.031
  951SOL     OW 3751   0.845   2.896   4.121
  951SOL    HW1 3752   0.876   2.982   4.081
  951SOL    HW2 3753   0.768   2.914   4.183
  952SOL     OW 3754   5.286   1.884   1.157
  952SOL    HW1 3755   5.347   1.875   1.078
  952SOL    HW2 3756   5.287   1.978   1.191
  953SOL     OW 3757   3.896   6.611   6.014
  953SOL    HW1 3758   3.825   6.594   6.082
  953SOL    HW2 3759   3.958   6.682   6.048
  954SOL     OW 3760   6.588   0.941   1.778
  954SOL    HW1 3761   6.677   0.905   1.806
  954SOL    HW2 3762   6.524   0.866   1.764
  955SOL     OW 3763   0.464   6.534   2.344
  955SOL    HW1 3764   0.536   6.530   2.274
  955SOL    HW2 3765   0.501   6.575   2.427
  956SOL     OW 3766   1.627   2.701   0.684
  956SOL    HW1 3767   1.690   2.714   0.607
  956SOL    HW2 3768   1.555   2.637   0.657
  957SOL     OW 3769   1.783   6.628   4.857
  957SOL    HW1 3770   1.864   6.623   4.915
  957SOL    HW2 3771   1.721   6.698   4.894
  958SOL     OW 3772   4.929   2.942   0.229
  958SOL    HW1 3773   4.932   3.037   0.197
  958SOL    HW2 3774   5.020   2.901   0.220
  959SOL     OW 3775   1.776   3.306   1.191
  959SOL    HW1 3776   1.863   3.308   1.142
  959SOL    HW2 3777   1.702   3.329   1.128
  960SOL     OW 3778   1.594   5.195   5.545
  960SOL    HW1 3779   1.685   5.159   5.524
  960SOL    HW2 3780   1.602   5.268   5.612
  961SOL     OW 3781   3.672   0.057   6.940
  961SOL    HW1 3782   3.744   7.023   6.978
  961SOL    HW2 3783   3.703   0.152   6.939
  962SOL     OW 3784   1.090   6.495   3.881
  962SOL    HW1 3785   1.109   6.585   3.841
  962SOL    HW2 3786   1.105   6.424   3.813
  963SOL     OW 3787   5.899   0.027   1.737
  963SOL    HW1 3788   5.961   6.979   1.704
  963SOL    HW2 3789   5.950   0.090   1.796
  964SOL     OW 3790   5.621   3.394   1.776
  964SOL    HW1 3791   5.565   3.355   1.849
  964SOL    HW2 3792   5.717   3.370   1.792
  965SOL     OW 3793   1.678   1.792   0.005
  965SOL    HW1 3794   1.714   1.707   6.991
  965SOL    HW2 3795   1.753   1.847   0.041
  966SOL     OW 3796   6.773   2.649   1.993
  966SOL    HW1 3797   6.826   2.641   2.077
  966SOL    HW2 3798   6.828   2.615   1.916
  967SOL     OW 3799   0.926   5.958   2.504
  967SOL    HW1 3800   0.966   5.867   2.499
  967SOL    HW2 3801   0.827   5.950   2.518
  968SOL     OW 3802   0.128   4.324   1.036
  968SOL    HW1 3803   0.149   4.248   0.975
  968SOL    HW2 3804   0.028   4.336   1.042
  969SOL     OW 3805   4.193   0.116   6.724
  969SOL    HW1 3806   4.141   0.134   6.640
  969SOL    HW2 3807   4.253   0.037   6.710
  970SOL     OW 3808   4.668   2.990   5.893
  970SOL    HW1 3809   4.623   2.989   5.804
  970SOL    HW2 3810   4.619   2.928   5.955
  971SOL     OW 3811   0.329   2.816   0.146
  971SOL    HW1 3812   0.316   2.901   0.095
  971SOL    HW2 3813   0.259   2.750   0.119
  972SOL     OW 3814   5.454   6.956   0.702
  972SOL    HW1 3815   5.522   0.004   0.694
  972SOL    HW2 3816   5.480   6.893   0.775
  973SOL     OW 3817   5.819   3.316   5.328
  973SOL    HW1 3818   5.866   3.303   5.240
  973SOL    HW2 3819   5.818   3.413   5.352
  974SOL     OW 3820   2.636   0.444   4.694
  974SOL    HW1 3821   2.578   0.368   4.723
  974SOL    HW2 3822   2.706   0.411   4.631
  975SOL     OW 3823   3.110   6.950   5.477
  975SOL    HW1 3824   3.015   6.962   5.447
  975SOL    HW2 3825   3.167   7.021   5.436
  976SOL     OW 3826   0.341   5.372   3.730
  976SOL    HW1 3827   0.326   5.300   3.662
  976SOL    HW2 3828   0.315   5.339   3.820
  977SOL     OW 3829   1.135   2.781   1.653
  977SOL    HW1 3830   1.041   2.814   1.661
  977SOL    HW2 3831   1.164   2.741   1.739
  978SOL     OW 3832   5.504   3.415   5.043
  978SOL    HW1 3833   5.529   3.446   4.951
  978SOL    HW2 3834   5.562   3.461   5.110
  979SOL     OW 3835   5.382   1.428   3.407
  979SOL    HW1 3836   5.339   1.500   3.352
  979SOL    HW2 3837   5.482   1.437   3.402
  980SOL     OW 3838   6.930   0.453   4.822
  980SOL    HW1 3839   6.987   0.535   4.820
  980SOL    HW2 3840   6.857   0.465   4.890
  981SOL     OW 3841   6.262   2.920   5.696
  981SOL    HW1 3842   6.234   2.891   5.604
  981SOL    HW2 3843   6.361   2.925   5.701
  982SOL     OW 3844   1.717   3.685   1.279
  982SOL    HW1 3845   1.792   3.734   1.323
  982SOL    HW2 3846   1.685   3.612   1.339
  983SOL     OW 3847   5.241   2.117   3.576
  983SOL    HW1 3848   5.298   2.038   3.551
  983SOL    HW2 3849   5.144   2.091   3.572
  984SOL     OW 3850   5.273   2.604   5.644
  984SOL    HW1 3851   5.191   2.548   5.631
  984SOL    HW2 3852   5.354   2.547   5.631
  985SOL     OW 3853   2.531   4.943   0.726
  985SOL    HW1 3854   2.570   5.025   0.768
  985SOL    HW2 3855   2.476   4.970   0.647
  986SOL     OW 3856   4.146   4.458   6.991
  986SOL    HW1 3857   4.073   4.461   0.036
  986SOL    HW2 3858   4.229   4.500   0.004
  987SOL     OW 3859   3.472   6.888   2.754
  987SOL    HW1 3860   3.412   6.958   2.717
  987SOL    HW2 3861   3.563   6.926   2.768
  988SOL     OW 3862   3.433   3.013   1.865
  988SOL    HW1 3863   3.439   3.014   1.765
  988SOL    HW2 3864   3.336   3.015   1.892
  989SOL     OW 3865   0.416   0.457   4.546
  989SOL    HW1 3866   0.372   0.495   4.464
  989SOL    HW2 3867   0.349   0.448   4.619
  990SOL     OW 3868   4.764   5.954   2.606
  990SOL    HW1 3869   4.778   6.052   2.619
  990SOL    HW2 3870   4.751   5.910   2.694
  991SOL     OW 3871   5.746   1.584   5.203
  991SOL    HW1 3872   5.743   1.673   5.248
  991SOL    HW2 3873   5.673   1.579   5.135
  992SOL     OW 3874   6.894   3.188   1.439
  992SOL    HW1 3875   6.908   3.172   1.536
  992SOL    HW2 3876   6.973   3.237   1.401
  993SOL     OW 3877   3.941   5.819   4.654
  993SOL    HW1 3878   4.025   5.852   4.697
  993SOL    HW2 3879   3.943   5.839   4.557
  994SOL     OW 3880   3.091   3.017   2.166
  994SOL    HW1 3881   3.118   3.092   2.104
  994SOL    HW2 3882   3.170   2.958   2.183
  995SOL     OW 3883   0.249   1.392   4.826
  995SOL    HW1 3884   0.286   1.475   4.785
  995SOL    HW2 3885   0.241   1.403   4.925
  996SOL     OW 3886   0.951   3.497   0.670
  996SOL    HW1 3887   1.019   3.552   0.621
  996SOL    HW2 3888   0.982   3.482   0.764
  997SOL     OW 3889   0.309   1.114   0.779
  997SOL    HW1 3890   0.372   1.070   0.843
  997SOL    HW2 3891   0.298   1.210   0.804
  998SOL     OW 3892   5.094   6.805   3.685
  998SOL    HW1 3893   5.104   6.722   3.739
  998SOL    HW2 3894   5.050   6.876   3.740
  999SOL     OW 3895   6.358   5.197   1.528
  999SOL    HW1 3896   6.294   5.252   1.474
  999SOL    HW2 3897   6.389   5.250   1.607
 1000SOL     OW 3898   4.441   2.457   4.213
 1000SOL    HW1 3899   4.440   2.476   4.311
 1000SOL    HW2 3900   4.480   2.535   4.164
 1001SOL     OW 3901   4.200   1.359   6.202
 1001SOL    HW1 3902   4.287   1.315   6.182
 1001SOL    HW2 3903   4.191   1.441   6.145
 1002SOL     OW 3904   0.140   1.184   0.071
 1002SOL    HW1 3905   0.147   1.095   0.027
 1002SOL    HW2 3906   0.154   1.174   0.170
 1003SOL     OW 3907   4.908   4.694   3.187
 1003SOL    HW1 3908   4.899   4.643   3.272
 1003SOL    HW2 3909   4.850   4.653   3.117
 1004SOL     OW 3910   6.019   5.472   0.423
 1004SOL    HW1 3911   5.983   5.563   0.405
 1004SOL    HW2 3912   6.057   5.433   0.339
 1005SOL     OW 3913   6.782   5.486   3.770
 1005SOL    HW1 3914   6.771   5.398   3.816
 1005SOL    HW2 3915   6.708   5.547   3.797
 1006SOL     OW 3916   2.293   3.804   0.412
 1006SOL    HW1 3917   2.367   3.805   0.479
 1006SOL    HW2 3918   2.209   3.837   0.455
 1007SOL     OW 3919   1.061   0.820   3.531
 1007SOL    HW1 3920   1.123   0.742   3.526
 1007SOL    HW2 3921   1.109   0.899   3.569
 1008SOL     OW 3922   2.722   2.081   4.474
 1008SOL    HW1 3923   2.626   2.080   4.502
 1008SOL    HW2 3924   2.749   1.990   4.445
 1009SOL     OW 3925   2.477   5.914   5.353
 1009SOL    HW1 3926   2.400   5.925   5.417
 1009SOL    HW2 3927   2.531   5.997   5.351
 1010SOL     OW 3928   4.816   0.512   6.162
 1010SOL    HW1 3929   4.901   0.559   6.135
 1010SOL    HW2 3930   4.783   0.457   6.085
 1011SOL     OW 3931   3.245   5.824   3.692
 1011SOL    HW1 3932   3.342   5.849   3.693
 1011SOL    HW2 3933   3.209   5.838   3.600
 1012SOL     OW 3934   3.519   5.598   0.629
 1012SOL    HW1 3935   3.560   5.510   0.652
 1012SOL    HW2 3936   3.441   5.584   0.568
 1013SOL     OW 3937   0.657   0.883   6.909
 1013SOL    HW1 3938   0.651   0.802   6.850
 1013SOL    HW2 3939   0.566   0.906   6.943
 1014SOL     OW 3940   5.261   0.404   6.564
 1014SOL    HW1 3941   5.282   0.313   6.528
 1014SOL    HW2 3942   5.321   0.471   6.521
 1015SOL     OW 3943   3.553   6.961   4.869
 1015SOL    HW1 3944   3.612   6.949   4.789
 1015SOL    HW2 3945   3.600   6.928   4.951
 1016SOL     OW 3946   4.538   2.291   2.234
 1016SOL    HW1 3947   4.532   2.360   2.162
 1016SOL    HW2 3948   4.477   2.316   2.309
 1017SOL     OW 3949   4.775   0.837   6.581
 1017SOL    HW1 3950   4.705   0.778   6.541
 1017SOL    HW2 3951   4.731   0.912   6.629
 1018SOL     OW 3952   1.424   2.605   1.499
 1018SOL    HW1 3953   1.378   2.605   1.410
 1018SOL    HW2 3954   1.484   2.685   1.505
 1019SOL     OW 3955   5.960   1.227   0.457
 1019SOL    HW1 3956   5.877   1.196   0.410
 1019SOL    HW2 3957   5.946   1.224   0.556
 1020SOL     OW 3958   3.287   2.041   1.437
 1020SOL    HW1 3959   3.221   2.051   1.363
 1020SOL    HW2 3960   3.370   2.092   1.414
 1021SOL     OW 3961   6.682   1.406   0.604
 1021SOL    HW1 3962   6.731   1.452   0.530
 1021SOL    HW2 3963   6.591   1.379   0.573
 1022SOL     OW 3964   3.558   2.594   0.112
 1022SOL    HW1 3965   3.537   2.527   0.042
 1022SOL    HW2 3966   3.608   2.551   0.187
 1023SOL     OW 3967   6.277   0.606   4.856
 1023SOL    HW1 3968   6.237   0.525   4.898
 1023SOL    HW2 3969   6.369   0.621   4.893
 1024SOL     OW 3970   6.529   1.673   4.097
 1024SOL    HW1 3971   6.585   1.596   4.128
 1024SOL    HW2 3972   6.583   1.730   4.035
 1025SOL     OW 3973   3.411   4.163   1.319
 1025SOL    HW1 3974   3.459   4.248   1.341
 1025SOL    HW2 3975   3.312   4.179   1.321
 1026SOL     OW 3976   0.836   2.776   6.369
 1026SOL    HW1 3977   0.781   2.833   6.309
 1026SOL    HW2 3978   0.790   2.768   6.458
 1027SOL     OW 3979   2.158   4.571   1.397
 1027SOL    HW1 3980   2.170   4.477   1.364
 1027SOL    HW2 3981   2.194   4.634   1.329
 1028SOL     OW 3982   0.464   5.583   0.609
 1028SOL    HW1 3983   0.526   5.516   0.569
 1028SOL    HW2 3984   0.517   5.651   0.660
 1029SOL     OW 3985   3.672   0.907   5.436
 1029SOL    HW1 3986   3.610   0.978   5.401
 1029SOL    HW2 3987   3.661   0.824   5.381
 1030SOL     OW 3988   4.066   4.293   5.296
 1030SOL    HW1 3989   4.032   4.207   5.258
 1030SOL    HW2 3990   4.148   4.321   5.247
 1031SOL     OW 3991   2.294   5.283   0.764
 1031SOL    HW1 3992   2.267   5.360   0.706
 1031SOL    HW2 3993   2.273   5.197   0.717
 1032SOL     OW 3994   1.166   1.511   5.046
 1032SOL    HW1 3995   1.210   1.481   4.962
 1032SOL    HW2 3996   1.069   1.487   5.045
 1033SOL     OW 3997   2.366   6.290   3.000
 1033SOL    HW1 3998   2.398   6.297   3.095
 1033SOL    HW2 3999   2.315   6.372   2.976
 1034SOL     OW 4000   0.954   0.092   1.868
 1034SOL    HW1 4001   0.893   0.163   1.835
 1034SOL    HW2 4002   1.034   0.087   1.808
 1035SOL     OW 4003   3.359   0.776   3.174
 1035SOL    HW1 4004   3.308   0.845   3.122
 1035SOL    HW2 4005   3.307   0.751   3.256
 1036SOL     OW 4006   4.488   6.777   6.616
 1036SOL    HW1 4007   4.514   6.681   6.613
 1036SOL    HW2 4008   4.547   6.829   6.555
 1037SOL     OW 4009   2.931   1.800   6.276
 1037SOL    HW1 4010   2.951   1.758   6.365
 1037SOL    HW2 4011   2.874   1.881   6.290
 1038SOL     OW 4012   2.531   1.425   5.082
 1038SOL    HW1 4013   2.483   1.402   4.997
 1038SOL    HW2 4014   2.464   1.450   5.151
 1039SOL     OW 4015   4.283   2.312   3.472
 1039SOL    HW1 4016   4.288   2.407   3.502
 1039SOL    HW2 4017   4.273   2.252   3.552
 1040SOL     OW 4018   5.836   3.468   4.451
 1040SOL    HW1 4019   5.766   3.508   4.392
 1040SOL    HW2 4020   5.905   3.537   4.472
 1041SOL     OW 4021   1.978   6.580   4.343
 1041SOL    HW1 4022   2.036   6.550   4.267
 1041SOL    HW2 4023   2.028   6.571   4.429
 1042SOL     OW 4024   4.656   3.577   0.893
 1042SOL    HW1 4025   4.556   3.569   0.893
 1042SOL    HW2 4026   4.687   3.611   0.981
 1043SOL     OW 4027   3.661   0.274   6.642
 1043SOL    HW1 4028   3.623   0.251   6.552
 1043SOL    HW2 4029   3.744   0.220   6.657
 1044SOL     OW 4030   3.996   3.841   2.276
 1044SOL    HW1 4031   3.935   3.900   2.329
 1044SOL    HW2 4032   3.996   3.871   2.181
 1045SOL     OW 4033   3.764   1.168   3.204
 1045SOL    HW1 4034   3.681   1.125   3.237
 1045SOL    HW2 4035   3.840   1.144   3.265
 1046SOL     OW 4036   3.541   0.728   2.603
 1046SOL    HW1 4037   3.495   0.814   2.625
 1046SOL    HW2 4038   3.639   0.744   2.595
 1047SOL     OW 4039   0.539   5.120   2.049
 1047SOL    HW1 4040   0.609   5.051   2.068
 1047SOL    HW2 4041   0.574   5.211   2.070
 1048SOL     OW 4042   6.225   4.932   5.216
 1048SOL    HW1 4043   6.248   5.024   5.248
 1048SOL    HW2 4044   6.252   4.865   5.286
 1049SOL     OW 4045   0.631   3.544   5.138
 1049SOL    HW1 4046   0.588   3.506   5.220
 1049SOL    HW2 4047   0.728   3.561   5.156
 1050SOL     OW 4048   2.492   0.665   0.447
 1050SOL    HW1 4049   2.436   0.651   0.529
 1050SOL    HW2 4050   2.535   0.578   0.421
 1051SOL     OW 4051   5.028   4.667   2.667
 1051SOL    HW1 4052   5.086   4.728   2.720
 1051SOL    HW2 4053   5.084   4.594   2.628
 1052SOL     OW 4054   4.205   0.452   4.875
 1052SOL    HW1 4055   4.254   0.516   4.817
 1052SOL    HW2 4056   4.206   0.361   4.833
 1053SOL     OW 4057   3.636   4.912   3.358
 1053SOL    HW1 4058   3.626   4.928   3.456
 1053SOL    HW2 4059   3.732   4.890   3.338
 1054SOL     OW 4060   4.322   5.826   4.654
 1054SOL    HW1 4061   4.351   5.882   4.577
 1054SOL    HW2 4062   4.269   5.883   4.717
 1055SOL     OW 4063   3.656   5.346   3.789
 1055SOL    HW1 4064   3.731   5.327   3.852
 1055SOL    HW2 4065   3.678   5.427   3.734
 1056SOL     OW 4066   2.131   5.580   6.042
 1056SOL    HW1 4067   2.176   5.668   6.027
 1056SOL    HW2 4068   2.078   5.583   6.126
 1057SOL     OW 4069   3.874   3.608   1.232
 1057SOL    HW1 4070   3.917   3.556   1.306
 1057SOL    HW2 4071   3.945   3.642   1.170
 1058SOL     OW 4072   2.835   6.582   2.190
 1058SOL    HW1 4073   2.737   6.576   2.206
 1058SOL    HW2 4074   2.879   6.624   2.269
 1059SOL     OW 4075   3.426   0.620   0.242
 1059SOL    HW1 4076   3.402   0.555   0.170
 1059SOL    HW2 4077   3.374   0.600   0.325
 1060SOL     OW 4078   2.444   1.116   4.504
 1060SOL    HW1 4079   2.460   1.146   4.598
 1060SOL    HW2 4080   2.346   1.120   4.484
 1061SOL     OW 4081   3.141   6.022   1.216
 1061SOL    HW1 4082   3.195   6.102   1.243
 1061SOL    HW2 4083   3.044   6.044   1.219
 1062SOL     OW 4084   4.978   4.787   5.016
 1062SOL    HW1 4085   5.054   4.735   4.977
 1062SOL    HW2 4086   5.012   4.846   5.089
 1063SOL     OW 4087   2.632   2.656   6.046
 1063SOL    HW1 4088   2.646   2.643   5.947
 1063SOL    HW2 4089   2.534   2.662   6.065
 1064SOL     OW 4090   0.418   3.379   1.889
 1064SOL    HW1 4091   0.427   3.371   1.988
 1064SOL    HW2 4092   0.338   3.328   1.858
 1065SOL     OW 4093   3.975   4.947   5.573
 1065SOL    HW1 4094   4.071   4.924   5.582
 1065SOL    HW2 4095   3.921   4.890   5.635
 1066SOL     OW 4096   4.269   6.631   3.315
 1066SOL    HW1 4097   4.349   6.607   3.369
 1066SOL    HW2 4098   4.193   6.652   3.377
 1067SOL     OW 4099   2.672   3.048   0.857
 1067SOL    HW1 4100   2.690   2.950   0.859
 1067SOL    HW2 4101   2.758   3.098   0.856
 1068SOL     OW 4102   0.468   4.439   0.654
 1068SOL    HW1 4103   0.385   4.453   0.707
 1068SOL    HW2 4104   0.444   4.402   0.564
 1069SOL     OW 4105   3.797   3.211   2.334
 1069SOL    HW1 4106   3.811   3.297   2.382
 1069SOL    HW2 4107   3.882   3.181   2.292
 1070SOL     OW 4108   2.447   6.812   0.851
 1070SOL    HW1 4109   2.420   6.763   0.934
 1070SOL    HW2 4110   2.470   6.745   0.780
 1071SOL     OW 4111   4.736   5.901   3.822
 1071SOL    HW1 4112   4.742   5.801   3.814
 1071SOL    HW2 4113   4.792   5.943   3.751
 1072SOL     OW 4114   3.727   5.506   2.932
 1072SOL    HW1 4115   3.698   5.601   2.924
 1072SOL    HW2 4116   3.825   5.500   2.912
 1073SOL     OW 4117   2.547   5.476   2.844
 1073SOL    HW1 4118   2.551   5.413   2.922
 1073SOL    HW2 4119   2.558   5.570   2.878
 1074SOL     OW 4120   1.321   5.675   2.359
 1074SOL    HW1 4121   1.357   5.758   2.401
 1074SOL    HW2 4122   1.380   5.598   2.384
 1075SOL     OW 4123   1.060   4.483   3.051
 1075SOL    HW1 4124   1.123   4.545   3.098
 1075SOL    HW2 4125   1.031   4.524   2.964
 1076SOL     OW 4126   0.037   3.829   2.653
 1076SOL    HW1 4127   0.094   3.761   2.608
 1076SOL    HW2 4128   0.086   3.917   2.657
 1077SOL     OW 4129   5.214   0.620   1.748
 1077SOL    HW1 4130   5.261   0.557   1.810
 1077SOL    HW2 4131   5.177   0.570   1.670
 1078SOL     OW 4132   0.637   3.361   1.725
 1078SOL    HW1 4133   0.546   3.386   1.759
 1078SOL    HW2 4134   0.706   3.396   1.788
 1079SOL     OW 4135   1.985   5.390   3.057
 1079SOL    HW1 4136   2.006   5.299   3.021
 1079SOL    HW2 4137   1.904   5.385   3.115
 1080SOL     OW 4138   1.687   5.923   3.676
 1080SOL    HW1 4139   1.733   5.896   3.761
 1080SOL    HW2 4140   1.752   5.972   3.618
 1081SOL     OW 4141   1.571   0.714   0.215
 1081SOL    HW1 4142   1.620   0.727   0.129
 1081SOL    HW2 4143   1.589   0.622   0.250
 1082SOL     OW 4144   2.118   6.886   0.714
 1082SOL    HW1 4145   2.070   6.885   0.802
 1082SOL    HW2 4146   2.168   6.800   0.702
 1083SOL     OW 4147   3.465   2.400   1.696
 1083SOL    HW1 4148   3.529   2.406   1.773
 1083SOL    HW2 4149   3.416   2.313   1.701
 1084SOL     OW 4150   6.591   3.649   0.787
 1084SOL    HW1 4151   6.560   3.574   0.845
 1084SOL    HW2 4152   6.597   3.733   0.842
 1085SOL     OW 4153   1.534   5.090   3.453
 1085SOL    HW1 4154   1.557   4.997   3.481
 1085SOL    HW2 4155   1.573   5.155   3.517
 1086SOL     OW 4156   3.601   5.193   2.154
 1086SOL    HW1 4157   3.623   5.144   2.239
 1086SOL    HW2 4158   3.580   5.126   2.082
 1087SOL     OW 4159   3.977   3.415   4.864
 1087SOL    HW1 4160   3.958   3.327   4.908
 1087SOL    HW2 4161   3.904   3.438   4.800
 1088SOL     OW 4162   6.304   4.409   2.638
 1088SOL    HW1 4163   6.356   4.453   2.565
 1088SOL    HW2 4164   6.333   4.314   2.648
 1089SOL     OW 4165   6.325   6.658   2.774
 1089SOL    HW1 4166   6.304   6.578   2.830
 1089SOL    HW2 4167   6.386   6.719   2.825
 1090SOL     OW 4168   1.662   1.478   6.294
 1090SOL    HW1 4169   1.609   1.563   6.288
 1090SOL    HW2 4170   1.658   1.431   6.206
 1091SOL     OW 4171   1.018   2.700   5.674
 1091SOL    HW1 4172   0.963   2.783   5.666
 1091SOL    HW2 4173   1.099   2.708   5.616
 1092SOL     OW 4174   2.011   4.637   1.056
 1092SOL    HW1 4175   2.021   4.628   0.957
 1092SOL    HW2 4176   1.996   4.547   1.096
 1093SOL     OW 4177   0.007   2.479   1.406
 1093SOL    HW1 4178   0.056   2.461   1.492
 1093SOL    HW2 4179   6.934   2.491   1.424
 1094SOL     OW 4180   0.586   6.722   1.928
 1094SOL    HW1 4181   0.604   6.811   1.888
 1094SOL    HW2 4182   0.510   6.678   1.881
 1095SOL     OW 4183   6.999   3.896   5.594
 1095SOL    HW1 4184   6.969   3.981   5.552
 1095SOL    HW2 4185   6.963   3.819   5.541
 1096SOL     OW 4186   3.467   3.325   1.845
 1096SOL    HW1 4187   3.518   3.241   1.863
 1096SOL    HW2 4188   3.511   3.402   1.892
 1097SOL     OW 4189   2.494   4.221   5.636
 1097SOL    HW1 4190   2.402   4.231   5.674
 1097SOL    HW2 4191   2.560   4.213   5.711
 1098SOL     OW 4192   4.108   0.581   2.535
 1098SOL    HW1 4193   4.191   0.609   2.488
 1098SOL    HW2 4194   4.094   0.639   2.616
 1099SOL     OW 4195   3.399   0.605   2.400
 1099SOL    HW1 4196   3.427   0.511   2.378
 1099SOL    HW2 4197   3.460   0.642   2.469
 1100SOL     OW 4198   6.579   1.073   6.737
 1100SOL    HW1 4199   6.591   0.973   6.733
 1100SOL    HW2 4200   6.633   1.116   6.665
 1101SOL     OW 4201   5.244   3.399   1.497
 1101SOL    HW1 4202   5.218   3.453   1.416
 1101SOL    HW2 4203   5.168   3.340   1.523
 1102SOL     OW 4204   0.128   4.088   3.880
 1102SOL    HW1 4205   0.153   4.133   3.795
 1102SOL    HW2 4206   0.029   4.088   3.891
 1103SOL     OW 4207   0.045   3.460   6.991
 1103SOL    HW1 4208   0.074   3.555   6.977
 1103SOL    HW2 4209   0.002   3.451   0.057
 1104SOL     OW 4210   2.731   5.508   6.465
 1104SOL    HW1 4211   2.683   5.435   6.417
 1104SOL    HW2 4212   2.707   5.505   6.562
 1105SOL     OW 4213   3.960   5.318   1.327
 1105SOL    HW1 4214   3.901   5.338   1.248
 1105SOL    HW2 4215   4.005   5.401   1.358
 1106SOL     OW 4216   1.216   0.872   6.218
 1106SOL    HW1 4217   1.293   0.865   6.155
 1106SOL    HW2 4218   1.214   0.791   6.277
 1107SOL     OW 4219   6.694   0.352   1.151
 1107SOL    HW1 4220   6.681   0.446   1.121
 1107SOL    HW2 4221   6.613   0.298   1.126
 1108SOL     OW 4222   1.046   0.774   6.953
 1108SOL    HW1 4223   1.039   0.676   6.938
 1108SOL    HW2 4224   0.960   0.808   6.992
 1109SOL     OW 4225   5.044   0.653   3.808
 1109SOL    HW1 4226   5.061   0.642   3.711
 1109SOL    HW2 4227   5.119   0.613   3.860
 1110SOL     OW 4228   3.760   3.036   2.591
 1110SOL    HW1 4229   3.790   2.965   2.528
 1110SOL    HW2 4230   3.739   3.119   2.540
 1111SOL     OW 4231   4.852   0.045   6.874
 1111SOL    HW1 4232   4.904   0.023   6.957
 1111SOL    HW2 4233   4.851   6.988   6.814
 1112SOL     OW 4234   0.740   1.265   2.308
 1112SOL    HW1 4235   0.670   1.329   2.275
 1112SOL    HW2 4236   0.831   1.301   2.289
 1113SOL     OW 4237   6.154   4.005   1.567
 1113SOL    HW1 4238   6.238   4.058   1.562
 1113SOL    HW2 4239   6.161   3.938   1.641
 1114SOL     OW 4240   5.512   1.061   5.607
 1114SOL    HW1 4241   5.612   1.057   5.602
 1114SOL    HW2 4242   5.473   1.004   5.534
 1115SOL     OW 4243   2.450   3.993   0.936
 1115SOL    HW1 4244   2.437   4.028   1.029
 1115SOL    HW2 4245   2.548   3.989   0.915
 1116SOL     OW 4246   3.956   6.743   6.396
 1116SOL    HW1 4247   3.870   6.760   6.348
 1116SOL    HW2 4248   3.950   6.658   6.448
 1117SOL     OW 4249   2.807   2.527   0.934
 1117SOL    HW1 4250   2.738   2.469   0.890
 1117SOL    HW2 4251   2.829   2.604   0.875
 1118SOL     OW 4252   1.713   3.051   2.134
 1118SOL    HW1 4253   1.767   2.986   2.080
 1118SOL    HW2 4254   1.616   3.030   2.124
 1119SOL     OW 4255   3.105   3.707   2.849
 1119SOL    HW1 4256   3.173   3.645   2.809
 1119SOL    HW2 4257   3.056   3.659   2.922
 1120SOL     OW 4258   4.788   1.073   4.150
 1120SOL    HW1 4259   4.729   0.995   4.129
 1120SOL    HW2 4260   4.884   1.046   4.139
 1121SOL     OW 4261   5.279   3.096   3.044
 1121SOL    HW1 4262   5.358   3.128   3.097
 1121SOL    HW2 4263   5.224   3.034   3.100
 1122SOL     OW 4264   4.376   5.183   6.945
 1122SOL    HW1 4265   4.415   5.274   6.931
 1122SOL    HW2 4266   4.314   5.160   6.870
 1123SOL     OW 4267   3.840   1.493   1.999
 1123SOL    HW1 4268   3.896   1.411   2.007
 1123SOL    HW2 4269   3.858   1.537   1.911
 1124SOL     OW 4270   1.803   4.883   4.633
 1124SOL    HW1 4271   1.768   4.882   4.727
 1124SOL    HW2 4272   1.893   4.927   4.632
 1125SOL     OW 4273   2.833   3.436   5.181
 1125SOL    HW1 4274   2.825   3.531   5.213
 1125SOL    HW2 4275   2.773   3.378   5.236
 1126SOL     OW 4276   6.182   0.221   2.121
 1126SOL    HW1 4277   6.267   0.272   2.112
 1126SOL    HW2 4278   6.200   0.135   2.169
 1127SOL     OW 4279   1.953   5.597   6.289
 1127SOL    HW1 4280   1.906   5.509   6.298
 1127SOL    HW2 4281   1.893   5.670   6.320
 1128SOL     OW 4282   2.668   1.599   4.047
 1128SOL    HW1 4283   2.572   1.608   4.071
 1128SOL    HW2 4284   2.677   1.536   3.969
 1129SOL     OW 4285   4.842   0.046   6.310
 1129SOL    HW1 4286   4.814   0.032   6.215
 1129SOL    HW2 4287   4.900   0.127   6.316
 1130SOL     OW 4288   0.521   5.698   6.072
 1130SOL    HW1 4289   0.493   5.794   6.071
 1130SOL    HW2 4290   0.607   5.688   6.121
 1131SOL     OW 4291   0.544   5.194   5.479
 1131SOL    HW1 4292   0.491   5.202   5.394
 1131SOL    HW2 4293   0.625   5.138   5.463
 1132SOL     OW 4294   5.386   6.736   5.208
 1132SOL    HW1 4295   5.414   6.774   5.119
 1132SOL    HW2 4296   5.371   6.637   5.198
 1133SOL     OW 4297   0.030   2.587   6.514
 1133SOL    HW1 4298   0.043   2.491   6.538
 1133SOL    HW2 4299   0.117   2.635   6.521
 1134SOL     OW 4300   6.786   2.534   6.142
 1134SOL    HW1 4301   6.716   2.601   6.170
 1134SOL    HW2 4302   6.742   2.446   6.124
 1135SOL     OW 4303   6.353   1.798   4.263
 1135SOL    HW1 4304   6.392   1.796   4.355
 1135SOL    HW2 4305   6.406   1.739   4.202
 1136SOL     OW 4306   3.481   5.265   4.074
 1136SOL    HW1 4307   3.475   5.353   4.027
 1136SOL    HW2 4308   3.430   5.269   4.160
 1137SOL     OW 4309   1.461   0.804   6.009
 1137SOL    HW1 4310   1.535   0.830   6.071
 1137SOL    HW2 4311   1.497   0.791   5.917
 1138SOL     OW 4312   0.830   4.002   5.960
 1138SOL    HW1 4313   0.916   4.052   5.952
 1138SOL    HW2 4314   0.754   4.067   5.963
 1139SOL     OW 4315   0.969   6.757   1.559
 1139SOL    HW1 4316   1.027   6.796   1.488
 1139SOL    HW2 4317   1.003   6.667   1.586
 1140SOL     OW 4318   3.631   1.881   3.441
 1140SOL    HW1 4319   3.627   1.870   3.540
 1140SOL    HW2 4320   3.681   1.804   3.401
 1141SOL     OW 4321   6.958   6.168   5.923
 1141SOL    HW1 4322   6.902   6.233   5.872
 1141SOL    HW2 4323   0.020   6.211   5.949
 1142SOL     OW 4324   6.487   0.699   4.569
 1142SOL    HW1 4325   6.440   0.725   4.653
 1142SOL    HW2 4326   6.507   0.781   4.515
 1143SOL     OW 4327   4.556   1.637   1.694
 1143SOL    HW1 4328   4.556   1.689   1.608
 1143SOL    HW2 4329   4.614   1.556   1.683
 1144SOL     OW 4330   1.093   0.168   5.091
 1144SOL    HW1 4331   1.148   0.091   5.060
 1144SOL    HW2 4332   1.146   0.253   5.083
 1145SOL     OW 4333   2.148   4.734   5.008
 1145SOL    HW1 4334   2.114   4.673   4.936
 1145SOL    HW2 4335   2.209   4.683   5.069
 1146SOL     OW 4336   6.192   1.853   1.066
 1146SOL    HW1 4337   6.154   1.945   1.064
 1146SOL    HW2 4338   6.286   1.854   1.031
 1147SOL     OW 4339   6.667   3.556   2.239
 1147SOL    HW1 4340   6.677   3.574   2.141
 1147SOL    HW2 4341   6.661   3.643   2.288
 1148SOL     OW 4342   5.128   1.252   6.598
 1148SOL    HW1 4343   5.198   1.313   6.637
 1148SOL    HW2 4344   5.146   1.158   6.627
 1149SOL     OW 4345   5.888   2.489   3.630
 1149SOL    HW1 4346   5.932   2.471   3.718
 1149SOL    HW2 4347   5.885   2.588   3.614
 1150SOL     OW 4348   1.354   5.115   5.620
 1150SOL    HW1 4349   1.453   5.128   5.620
 1150SOL    HW2 4350   1.313   5.168   5.546
 1151SOL     OW 4351   3.040   5.152   6.909
 1151SOL    HW1 4352   3.003   5.157   7.002
 1151SOL    HW2 4353   3.074   5.059   6.892
 1152SOL     OW 4354   0.693   1.301   4.235
 1152SOL    HW1 4355   0.701   1.386   4.287
 1152SOL    HW2 4356   0.640   1.234   4.288
 1153SOL     OW 4357   2.481   4.816   2.676
 1153SOL    HW1 4358   2.556   4.773   2.727
 1153SOL    HW2 4359   2.518   4.877   2.607
 1154SOL     OW 4360   1.661   4.038   2.338
 1154SOL    HW1 4361   1.645   4.124   2.386
 1154SOL    HW2 4362   1.759   4.027   2.322
 1155SOL     OW 4363   4.054   6.717   2.687
 1155SOL    HW1 4364   4.129   6.706   2.753
 1155SOL    HW2 4365   4.042   6.814   2.667
 1156SOL     OW 4366   1.454   1.472   3.692
 1156SOL    HW1 4367   1.421   1.390   3.739
 1156SOL    HW2 4368   1.464   1.546   3.759
 1157SOL     OW 4369   1.201   3.261   4.480
 1157SOL    HW1 4370   1.219   3.303   4.569
 1157SOL    HW2 4371   1.168   3.330   4.416
 1158SOL     OW 4372   4.199   5.956   6.558
 1158SOL    HW1 4373   4.118   5.898   6.559
 1158SOL    HW2 4374   4.200   6.011   6.474
 1159SOL     OW 4375   5.789   4.808   2.402
 1159SOL    HW1 4376   5.744   4.869   2.468
 1159SOL    HW2 4377   5.733   4.803   2.319
 1160SOL     OW 4378   2.904   2.939   0.999
 1160SOL    HW1 4379   2.950   2.891   1.073
 1160SOL    HW2 4380   2.905   2.881   0.917
 1161SOL     OW 4381   4.341   1.031   4.428
 1161SOL    HW1 4382   4.264   1.019   4.366
 1161SOL    HW2 4383   4.379   1.123   4.417
 1162SOL     OW 4384   4.194   4.996   1.218
 1162SOL    HW1 4385   4.099   4.969   1.204
 1162SOL    HW2 4386   4.253   4.915   1.217
 1163SOL     OW 4387   5.149   0.364   2.352
 1163SOL    HW1 4388   5.214   0.316   2.292
 1163SOL    HW2 4389   5.200   0.411   2.424
 1164SOL     OW 4390   5.997   3.624   4.202
 1164SOL    HW1 4391   5.927   3.562   4.165
 1164SOL    HW2 4392   6.061   3.648   4.129
 1165SOL     OW 4393   1.563   4.686   2.629
 1165SOL    HW1 4394   1.576   4.669   2.727
 1165SOL    HW2 4395   1.491   4.626   2.594
 1166SOL     OW 4396   3.461   2.268   6.569
 1166SOL    HW1 4397   3.412   2.355   6.566
 1166SOL    HW2 4398   3.539   2.275   6.631
 1167SOL     OW 4399   3.985   1.947   5.184
 1167SOL    HW1 4400   3.928   2.023   5.154
 1167SOL    HW2 4401   4.079   1.978   5.194
 1168SOL     OW 4402   5.999   6.725   3.045
 1168SOL    HW1 4403   5.902   6.718   3.068
 1168SOL    HW2 4404   6.008   6.772   2.957
 1169SOL     OW 4405   0.869   3.536   1.231
 1169SOL    HW1 4406   0.890   3.516   1.327
 1169SOL    HW2 4407   0.784   3.491   1.206
 1170SOL     OW 4408   2.967   0.596   1.190
 1170SOL    HW1 4409   2.920   0.549   1.265
 1170SOL    HW2 4410   2.964   0.538   1.108
 1171SOL     OW 4411   2.934   0.559   0.056
 1171SOL    HW1 4412   2.955   0.518   0.144
 1171SOL    HW2 4413   2.846   0.607   0.061
 1172SOL     OW 4414   3.198   3.632   4.875
 1172SOL    HW1 4415   3.104   3.667   4.884
 1172SOL    HW2 4416   3.208   3.585   4.787
 1173SOL     OW 4417   5.016   0.283   6.270
 1173SOL    HW1 4418   5.091   0.302   6.206
 1173SOL    HW2 4419   4.988   0.367   6.315
 1174SOL     OW 4420   3.538   6.086   0.028
 1174SOL    HW1 4421   3.538   6.012   0.095
 1174SOL    HW2 4422   3.595   6.061   6.974
 1175SOL     OW 4423   0.141   5.061   4.735
 1175SOL    HW1 4424   0.171   4.993   4.802
 1175SOL    HW2 4425   0.201   5.141   4.740
 1176SOL     OW 4426   6.350   3.227   1.102
 1176SOL    HW1 4427   6.378   3.144   1.053
 1176SOL    HW2 4428   6.311   3.292   1.037
 1177SOL     OW 4429   5.729   3.284   6.993
 1177SOL    HW1 4430   5.761   3.226   0.045
 1177SOL    HW2 4431   5.774   3.373   6.998
 1178SOL     OW 4432   5.312   4.376   2.432
 1178SOL    HW1 4433   5.375   4.342   2.362
 1178SOL    HW2 4434   5.344   4.465   2.466
 1179SOL     OW 4435   1.998   5.685   5.832
 1179SOL    HW1 4436   2.044   5.698   5.744
 1179SOL    HW2 4437   2.053   5.624   5.890
 1180SOL     OW 4438   1.660   1.154   3.642
 1180SOL    HW1 4439   1.699   1.153   3.734
 1180SOL    HW2 4440   1.733   1.168   3.575
 1181SOL     OW 4441   1.918   4.367   2.659
 1181SOL    HW1 4442   1.834   4.347   2.709
 1181SOL    HW2 4443   1.967   4.441   2.705
 1182SOL     OW 4444   1.244   3.942   3.873
 1182SOL    HW1 4445   1.227   4.010   3.944
 1182SOL    HW2 4446   1.176   3.869   3.879
 1183SOL     OW 4447   4.757   6.075   0.653
 1183SOL    HW1 4448   4.856   6.090   0.655
 1183SOL    HW2 4449   4.718   6.102   0.742
 1184SOL     OW 4450   3.527   3.002   6.112
 1184SOL    HW1 4451   3.433   3.034   6.119
 1184SOL    HW2 4452   3.528   2.908   6.077
 1185SOL     OW 4453   2.615   1.497   6.403
 1185SOL    HW1 4454   2.692   1.491   6.339
 1185SOL    HW2 4455   2.548   1.426   6.381
 1186SOL     OW 4456   3.540   0.911   4.712
 1186SOL    HW1 4457   3.590   0.985   4.756
 1186SOL    HW2 4458   3.444   0.937   4.701
 1187SOL     OW 4459   0.577   1.972   5.165
 1187SOL    HW1 4460   0.519   1.953   5.085
 1187SOL    HW2 4461   0.634   2.052   5.146
 1188SOL     OW 4462   1.074   0.620   4.743
 1188SOL    HW1 4463   1.053   0.522   4.737
 1188SOL    HW2 4464   1.032   0.658   4.825
 1189SOL     OW 4465   0.284   1.082   1.290
 1189SOL    HW1 4466   0.305   1.051   1.382
 1189SOL    HW2 4467   0.270   1.003   1.230
 1190SOL     OW 4468   4.398   4.882   2.536
 1190SOL    HW1 4469   4.472   4.878   2.469
 1190SOL    HW2 4470   4.436   4.872   2.628
 1191SOL     OW 4471   2.840   4.431   1.184
 1191SOL    HW1 4472   2.926   4.432   1.235
 1191SOL    HW2 4473   2.859   4.425   1.086
 1192SOL     OW 4474   4.626   4.848   2.726
 1192SOL    HW1 4475   4.691   4.893   2.665
 1192SOL    HW2 4476   4.637   4.749   2.720
 1193SOL     OW 4477   3.874   6.735   4.005
 1193SOL    HW1 4478   3.949   6.675   3.978
 1193SOL    HW2 4479   3.905   6.830   4.005
 1194SOL     OW 4480   5.983   1.279   1.643
 1194SOL    HW1 4481   5.958   1.185   1.667
 1194SOL    HW2 4482   5.993   1.334   1.726
 1195SOL     OW 4483   3.272   6.510   0.187
 1195SOL    HW1 4484   3.184   6.506   0.234
 1195SOL    HW2 4485   3.308   6.603   0.193
 1196SOL     OW 4486   1.001   5.170   3.461
 1196SOL    HW1 4487   0.965   5.226   3.386
 1196SOL    HW2 4488   0.962   5.078   3.456
 1197SOL     OW 4489   3.193   4.893   6.881
 1197SOL    HW1 4490   3.265   4.958   6.856
 1197SOL    HW2 4491   3.158   4.849   6.799
 1198SOL     OW 4492   3.646   0.979   2.300
 1198SOL    HW1 4493   3.614   1.072   2.318
 1198SOL    HW2 4494   3.742   0.982   2.274
 1199SOL     OW 4495   2.970   3.671   3.984
 1199SOL    HW1 4496   2.972   3.617   3.900
 1199SOL    HW2 4497   3.063   3.681   4.020
 1200SOL     OW 4498   4.195   3.184   1.277
 1200SOL    HW1 4499   4.259   3.118   1.238
 1200SOL    HW2 4500   4.145   3.143   1.353
 1201SOL     OW 4501   1.412   1.011   4.841
 1201SOL    HW1 4502   1.447   1.082   4.779
 1201SOL    HW2 4503   1.349   0.952   4.791
 1202SOL     OW 4504   6.372   0.158   4.939
 1202SOL    HW1 4505   6.428   0.080   4.909
 1202SOL    HW2 4506   6.331   0.202   4.860
 1203SOL     OW 4507   6.442   6.535   1.587
 1203SOL    HW1 4508   6.499   6.604   1.543
 1203SOL    HW2 4509   6.395   6.575   1.666
 1204SOL     OW 4510   1.416   6.916   6.866
 1204SOL    HW1 4511   1.511   6.929   6.893
 1204SOL    HW2 4512   1.371   7.005   6.857
 1205SOL     OW 4513   0.785   3.185   5.343
 1205SOL    HW1 4514   0.843   3.262   5.317
 1205SOL    HW2 4515   0.828   3.135   5.419
 1206SOL     OW 4516   0.383   2.214   4.482
 1206SOL    HW1 4517   0.454   2.162   4.530
 1206SOL    HW2 4518   0.403   2.217   4.385
 1207SOL     OW 4519   6.024   6.630   6.948
 1207SOL    HW1 4520   5.999   6.727   6.949
 1207SOL    HW2 4521   6.123   6.621   6.948
 1208SOL     OW 4522   3.520   3.628   2.900
 1208SOL    HW1 4523   3.486   3.646   2.992
 1208SOL    HW2 4524   3.576   3.705   2.870
 1209SOL     OW 4525   6.625   4.240   4.801
 1209SOL    HW1 4526   6.604   4.169   4.869
 1209SOL    HW2 4527   6.546   4.254   4.743
 1210SOL     OW 4528   2.588   6.947   2.883
 1210SOL    HW1 4529   2.629   6.862   2.917
 1210SOL    HW2 4530   2.547   6.930   2.793
 1211SOL     OW 4531   1.168   3.141   3.243
 1211SOL    HW1 4532   1.145   3.234   3.274
 1211SOL    HW2 4533   1.191   3.143   3.145
 1212SOL     OW 4534   0.779   4.608   3.575
 1212SOL    HW1 4535   0.749   4.623   3.481
 1212SOL    HW2 4536   0.704   4.629   3.637
 1213SOL     OW 4537   5.581   3.202   5.208
 1213SOL    HW1 4538   5.555   3.266   5.136
 1213SOL    HW2 4539   5.649   3.245   5.268
 1214SOL     OW 4540   1.571   2.233   1.692
 1214SOL    HW1 4541   1.670   2.228   1.677
 1214SOL    HW2 4542   1.544   2.328   1.704
 1215SOL     OW 4543   6.958   5.117   2.187
 1215SOL    HW1 4544   6.963   5.171   2.103
 1215SOL    HW2 4545   6.987   5.023   2.167
 1216SOL     OW 4546   2.573   0.026   1.666
 1216SOL    HW1 4547   2.615   0.117   1.660
 1216SOL    HW2 4548   2.645   6.981   1.679
 1217SOL     OW 4549   2.064   1.858   2.527
 1217SOL    HW1 4550   1.983   1.799   2.523
 1217SOL    HW2 4551   2.034   1.954   2.526
 1218SOL     OW 4552   0.245   3.557   3.556
 1218SOL    HW1 4553   0.337   3.557   3.517
 1218SOL    HW2 4554   0.212   3.463   3.566
 1219SOL     OW 4555   2.555   5.731   3.528
 1219SOL    HW1 4556   2.524   5.680   3.608
 1219SOL    HW2 4557   2.567   5.668   3.450
 1220SOL     OW 4558   5.947   4.609   2.457
 1220SOL    HW1 4559   5.879   4.681   2.460
 1220SOL    HW2 4560   5.990   4.600   2.546
 1221SOL     OW 4561   4.800   4.654   6.430
 1221SOL    HW1 4562   4.773   4.559   6.443
 1221SOL    HW2 4563   4.817   4.670   6.332
 1222SOL     OW 4564   6.207   4.993   1.222
 1222SOL    HW1 4565   6.282   4.940   1.262
 1222SOL    HW2 4566   6.227   5.091   1.229
 1223SOL     OW 4567   6.781   4.973   5.316
 1223SOL    HW1 4568   6.785   4.875   5.333
 1223SOL    HW2 4569   6.796   4.990   5.219
 1224SOL     OW 4570   4.382   4.688   0.997
 1224SOL    HW1 4571   4.378   4.649   0.905
 1224SOL    HW2 4572   4.472   4.730   1.011
 1225SOL     OW 4573   3.459   2.141   6.873
 1225SOL    HW1 4574   3.456   2.140   6.973
 1225SOL    HW2 4575   3.371   2.110   6.837
 1226SOL     OW 4576   5.597   5.381   0.533
 1226SOL    HW1 4577   5.678   5.413   0.583
 1226SOL    HW2 4578   5.518   5.382   0.594
 1227SOL     OW 4579   4.860   4.746   0.078
 1227SOL    HW1 4580   4.805   4.780   0.002
 1227SOL    HW2 4581   4.800   4.707   0.148
 1228SOL     OW 4582   3.724   4.038   4.278
 1228SOL    HW1 4583   3.782   4.069   4.354
 1228SOL    HW2 4584   3.779   3.984   4.214
 1229SOL     OW 4585   2.254   5.726   3.060
 1229SOL    HW1 4586   2.353   5.715   3.061
 1229SOL    HW2 4587   2.226   5.783   3.138
 1230SOL     OW 4588   5.009   5.680   1.010
 1230SOL    HW1 4589   4.944   5.749   1.041
 1230SOL    HW2 4590   4.986   5.652   0.916
 1231SOL     OW 4591   2.436   1.527   0.029
 1231SOL    HW1 4592   2.377   1.453   0.060
 1231SOL    HW2 4593   2.406   1.559   6.963
 1232SOL     OW 4594   3.172   1.326   5.261
 1232SOL    HW1 4595   3.127   1.260   5.201
 1232SOL    HW2 4596   3.117   1.339   5.343
 1233SOL     OW 4597   6.768   5.447   4.810
 1233SOL    HW1 4598   6.704   5.439   4.734
 1233SOL    HW2 4599   6.851   5.395   4.790
 1234SOL     OW 4600   6.094   4.485   6.876
 1234SOL    HW1 4601   6.146   4.510   6.795
 1234SOL    HW2 4602   6.124   4.541   6.954
 1235SOL     OW 4603   5.951   4.915   1.248
 1235SOL    HW1 4604   5.880   4.961   1.194
 1235SOL    HW2 4605   6.041   4.946   1.218
 1236SOL     OW 4606   1.611   1.017   2.578
 1236SOL    HW1 4607   1.586   0.964   2.497
 1236SOL    HW2 4608   1.688   0.974   2.624
 1237SOL     OW 4609   1.083   0.226   4.231
 1237SOL    HW1 4610   1.074   0.322   4.203
 1237SOL    HW2 4611   1.178   0.196   4.218
 1238SOL     OW 4612   0.609   0.558   4.715
 1238SOL    HW1 4613   0.599   0.538   4.812
 1238SOL    HW2 4614   0.551   0.496   4.662
 1239SOL     OW 4615   4.847   4.839   3.822
 1239SOL    HW1 4616   4.937   4.881   3.808
 1239SOL    HW2 4617   4.842   4.801   3.914
 1240SOL     OW 4618   0.570   3.617   0.747
 1240SOL    HW1 4619   0.601   3.528   0.714
 1240SOL    HW2 4620   0.647   3.681   0.747
 1241SOL     OW 4621   3.915   4.975   6.002
 1241SOL    HW1 4622   3.975   4.987   6.081
 1241SOL    HW2 4623   3.885   5.065   5.970
 1242SOL     OW 4624   2.186   5.259   0.470
 1242SOL    HW1 4625   2.269   5.287   0.422
 1242SOL    HW2 4626   2.189   5.160   0.486
 1243SOL     OW 4627   1.378   3.287   3.524
 1243SOL    HW1 4628   1.403   3.206   3.577
 1243SOL    HW2 4629   1.427   3.366   3.560
 1244SOL     OW 4630   6.020   6.983   5.313
 1244SOL    HW1 4631   6.094   6.916   5.307
 1244SOL    HW2 4632   6.032   0.016   5.394
 1245SOL     OW 4633   4.497   6.544   1.297
 1245SOL    HW1 4634   4.589   6.584   1.288
 1245SOL    HW2 4635   4.504   6.444   1.297
 1246SOL     OW 4636   5.771   1.859   1.116
 1246SOL    HW1 4637   5.809   1.824   1.201
 1246SOL    HW2 4638   5.688   1.912   1.135
 1247SOL     OW 4639   5.654   6.510   2.333
 1247SOL    HW1 4640   5.693   6.599   2.314
 1247SOL    HW2 4641   5.652   6.455   2.250
 1248SOL     OW 4642   0.828   6.778   4.471
 1248SOL    HW1 4643   0.755   6.846   4.465
 1248SOL    HW2 4644   0.887   6.786   4.390
 1249SOL     OW 4645   5.881   6.446   6.757
 1249SOL    HW1 4646   5.939   6.412   6.683
 1249SOL    HW2 4647   5.934   6.507   6.816
 1250SOL     OW 4648   0.662   4.428   4.925
 1250SOL    HW1 4649   0.728   4.355   4.912
 1250SOL    HW2 4650   0.690   4.508   4.872
 1251SOL     OW 4651   2.853   0.137   2.740
 1251SOL    HW1 4652   2.802   0.058   2.706
 1251SOL    HW2 4653   2.900   0.111   2.824
 1252SOL     OW 4654   2.671   5.207   6.907
 1252SOL    HW1 4655   2.751   5.157   6.942
 1252SOL    HW2 4656   2.610   5.143   6.859
 1253SOL     OW 4657   2.927   6.374   0.048
 1253SOL    HW1 4658   2.886   6.297   0.097
 1253SOL    HW2 4659   2.984   6.427   0.110
 1254SOL     OW 4660   6.151   1.743   3.655
 1254SOL    HW1 4661   6.086   1.670   3.633
 1254SOL    HW2 4662   6.153   1.756   3.754
 1255SOL     OW 4663   6.156   2.083   5.621
 1255SOL    HW1 4664   6.180   2.040   5.708
 1255SOL    HW2 4665   6.234   2.135   5.586
 1256SOL     OW 4666   0.325   5.558   4.953
 1256SOL    HW1 4667   0.377   5.508   5.022
 1256SOL    HW2 4668   0.227   5.552   4.973
 1257SOL     OW 4669   6.645   6.447   3.324
 1257SOL    HW1 4670   6.618   6.432   3.419
 1257SOL    HW2 4671   6.669   6.360   3.282
 1258SOL     OW 4672   4.613   5.699   6.499
 1258SOL    HW1 4673   4.622   5.669   6.594
 1258SOL    HW2 4674   4.560   5.783   6.495
 1259SOL     OW 4675   5.399   0.066   5.522
 1259SOL    HW1 4676   5.411   6.997   5.487
 1259SOL    HW2 4677   5.441   0.131   5.459
 1260SOL     OW 4678   3.054   1.186   0.849
 1260SOL    HW1 4679   3.140   1.150   0.883
 1260SOL    HW2 4680   3.031   1.271   0.897
 1261SOL     OW 4681   0.211   4.278   4.851
 1261SOL    HW1 4682   0.180   4.184   4.858
 1261SOL    HW2 4683   0.302   4.281   4.810
 1262SOL     OW 4684   4.104   5.773   1.867
 1262SOL    HW1 4685   4.104   5.706   1.941
 1262SOL    HW2 4686   4.107   5.726   1.779
 1263SOL     OW 4687   6.867   1.874   0.650
 1263SOL    HW1 4688   6.825   1.789   0.683
 1263SOL    HW2 4689   6.912   1.920   0.726
 1264SOL     OW 4690   6.333   2.510   4.417
 1264SOL    HW1 4691   6.270   2.576   4.458
 1264SOL    HW2 4692   6.357   2.539   4.325
 1265SOL     OW 4693   6.486   5.965   4.774
 1265SOL    HW1 4694   6.567   5.943   4.721
 1265SOL    HW2 4695   6.411   5.989   4.713
 1266SOL     OW 4696   3.059   1.007   3.622
 1266SOL    HW1 4697   3.077   0.919   3.666
 1266SOL    HW2 4698   3.023   1.071   3.689
 1267SOL     OW 4699   0.408   4.258   2.845
 1267SOL    HW1 4700   0.338   4.323   2.814
 1267SOL    HW2 4701   0.367   4.168   2.854
 1268SOL     OW 4702   5.828   4.524   6.908
 1268SOL    HW1 4703   5.812   4.622   6.920
 1268SOL    HW2 4704   5.926   4.506   6.904
 1269SOL     OW 4705   6.891   5.089   6.170
 1269SOL    HW1 4706   6.822   5.079   6.241
 1269SOL    HW2 4707   6.854   5.144   6.095
 1270SOL     OW 4708   1.392   1.967   4.595
 1270SOL    HW1 4709   1.479   1.964   4.545
 1270SOL    HW2 4710   1.396   2.038   4.665
 1271SOL     OW 4711   5.240   2.650   3.791
 1271SOL    HW1 4712   5.177   2.703   3.735
 1271SOL    HW2 4713   5.300   2.712   3.841
 1272SOL     OW 4714   6.186   6.905   1.150
 1272SOL    HW1 4715   6.114   6.847   1.190
 1272SOL    HW2 4716   6.149   6.954   1.071
 1273SOL     OW 4717   2.561   6.458   5.616
 1273SOL    HW1 4718   2.593   6.519   5.689
 1273SOL    HW2 4719   2.480   6.408   5.648
 1274SOL     OW 4720   5.923   1.887   2.574
 1274SOL    HW1 4721   5.905   1.805   2.628
 1274SOL    HW2 4722   5.985   1.947   2.624
 1275SOL     OW 4723   3.805   1.832   4.083
 1275SOL    HW1 4724   3.747   1.882   4.018
 1275SOL    HW2 4725   3.814   1.737   4.052
 1276SOL     OW 4726   6.572   0.195   2.592
 1276SOL    HW1 4727   6.480   0.234   2.590
 1276SOL    HW2 4728   6.567   0.097   2.610
 1277SOL     OW 4729   0.726   2.144   4.869
 1277SOL    HW1 4730   0.695   2.049   4.869
 1277SOL    HW2 4731   0.724   2.179   4.963
 1278SOL     OW 4732   3.244   1.349   5.688
 1278SOL    HW1 4733   3.214   1.257   5.662
 1278SOL    HW2 4734   3.303   1.343   5.769
 1279SOL     OW 4735   2.423   4.922   0.461
 1279SOL    HW1 4736   2.335   4.883   0.489
 1279SOL    HW2 4737   2.417   4.950   0.365
 1280SOL     OW 4738   1.710   5.852   2.848
 1280SOL    HW1 4739   1.627   5.900   2.818
 1280SOL    HW2 4740   1.757   5.906   2.918
 1281SOL     OW 4741   0.815   6.855   4.083
 1281SOL    HW1 4742   0.810   6.759   4.108
 1281SOL    HW2 4743   0.902   6.893   4.115
 1282SOL     OW 4744   1.164   0.204   2.419
 1282SOL    HW1 4745   1.157   0.302   2.398
 1282SOL    HW2 4746   1.261   0.180   2.430
 1283SOL     OW 4747   4.779   4.243   5.132
 1283SOL    HW1 4748   4.743   4.191   5.210
 1283SOL    HW2 4749   4.878   4.252   5.142
 1284SOL     OW 4750   2.735   2.039   2.610
 1284SOL    HW1 4751   2.778   2.128   2.625
 1284SOL    HW2 4752   2.707   2.031   2.515
 1285SOL     OW 4753   5.658   2.674   6.371
 1285SOL    HW1 4754   5.671   2.576   6.383
 1285SOL    HW2 4755   5.569   2.691   6.328
 1286SOL     OW 4756   6.227   6.207   1.639
 1286SOL    HW1 4757   6.193   6.299   1.621
 1286SOL    HW2 4758   6.199   6.178   1.730
 1287SOL     OW 4759   6.104   4.409   6.094
 1287SOL    HW1 4760   6.138   4.470   6.165
 1287SOL    HW2 4761   6.171   4.337   6.077
 1288SOL     OW 4762   6.631   2.716   3.685
 1288SOL    HW1 4763   6.703   2.744   3.622
 1288SOL    HW2 4764   6.620   2.786   3.756
 1289SOL     OW 4765   6.803   5.098   2.680
 1289SOL    HW1 4766   6.708   5.098   2.712
 1289SOL    HW2 4767   6.805   5.101   2.580
 1290SOL     OW 4768   0.267   6.830   1.154
 1290SOL    HW1 4769   0.177   6.788   1.162
 1290SOL    HW2 4770   0.263   6.902   1.085
 1291SOL     OW 4771   1.464   0.066   0.806
 1291SOL    HW1 4772   1.382   0.025   0.764
 1291SOL    HW2 4773   1.522   7.017   0.842
 1292SOL     OW 4774   0.793   5.641   6.652
 1292SOL    HW1 4775   0.798   5.725   6.706
 1292SOL    HW2 4776   0.885   5.605   6.637
 1293SOL     OW 4777   6.316   2.862   6.083
 1293SOL    HW1 4778   6.221   2.832   6.076
 1293SOL    HW2 4779   6.321   2.948   6.134
 1294SOL     OW 4780   0.395   1.814   3.212
 1294SOL    HW1 4781   0.454   1.860   3.145
 1294SOL    HW2 4782   0.412   1.852   3.303
 1295SOL     OW 4783   4.695   3.387   1.623
 1295SOL    HW1 4784   4.616   3.445   1.645
 1295SOL    HW2 4785   4.772   3.444   1.595
 1296SOL     OW 4786   3.780   2.285   0.023
 1296SOL    HW1 4787   3.827   2.341   6.978
 1296SOL    HW2 4788   3.716   2.223   7.002
 1297SOL     OW 4789   6.471   0.839   6.453
 1297SOL    HW1 4790   6.514   0.845   6.543
 1297SOL    HW2 4791   6.532   0.879   6.384
 1298SOL     OW 4792   6.366   2.709   3.627
 1298SOL    HW1 4793   6.463   2.729   3.640
 1298SOL    HW2 4794   6.329   2.668   3.710
 1299SOL     OW 4795   1.378   3.161   4.276
 1299SOL    HW1 4796   1.306   3.166   4.345
 1299SOL    HW2 4797   1.424   3.249   4.269
 1300SOL     OW 4798   3.673   3.311   1.564
 1300SOL    HW1 4799   3.738   3.269   1.501
 1300SOL    HW2 4800   3.707   3.304   1.657
 1301SOL     OW 4801   0.743   0.584   2.432
 1301SOL    HW1 4802   0.662   0.570   2.488
 1301SOL    HW2 4803   0.824   0.554   2.482
 1302SOL     OW 4804   2.471   5.649   5.393
 1302SOL    HW1 4805   2.496   5.744   5.377
 1302SOL    HW2 4806   2.470   5.631   5.492
 1303SOL     OW 4807   3.082   0.200   1.128
 1303SOL    HW1 4808   3.072   0.231   1.222
 1303SOL    HW2 4809   3.162   0.141   1.120
 1304SOL     OW 4810   3.756   0.996   6.465
 1304SOL    HW1 4811   3.777   0.899   6.470
 1304SOL    HW2 4812   3.716   1.017   6.376
 1305SOL     OW 4813   5.962   6.224   3.831
 1305SOL    HW1 4814   5.956   6.216   3.731
 1305SOL    HW2 4815   5.902   6.156   3.874
 1306SOL     OW 4816   1.511   4.891   4.831
 1306SOL    HW1 4817   1.529   4.805   4.879
 1306SOL    HW2 4818   1.453   4.874   4.752
 1307SOL     OW 4819   1.370   1.922   3.990
 1307SOL    HW1 4820   1.341   2.015   3.968
 1307SOL    HW2 4821   1.290   1.862   3.995
 1308SOL     OW 4822   4.398   6.276   2.991
 1308SOL    HW1 4823   4.350   6.224   3.061
 1308SOL    HW2 4824   4.456   6.214   2.938
 1309SOL     OW 4825   5.709   2.733   4.791
 1309SOL    HW1 4826   5.663   2.645   4.806
 1309SOL    HW2 4827   5.651   2.792   4.735
 1310SOL     OW 4828   5.352   3.779   5.257
 1310SOL    HW1 4829   5.416   3.855   5.246
 1310SOL    HW2 4830   5.311   3.757   5.169
 1311SOL     OW 4831   5.166   5.143   5.404
 1311SOL    HW1 4832   5.123   5.219   5.356
 1311SOL    HW2 4833   5.253   5.120   5.360
 1312SOL     OW 4834   6.091   0.333   2.492
 1312SOL    HW1 4835   6.079   0.429   2.465
 1312SOL    HW2 4836   6.046   0.273   2.426
 1313SOL     OW 4837   3.242   4.995   4.955
 1313SOL    HW1 4838   3.186   5.056   4.899
 1313SOL    HW2 4839   3.183   4.934   5.007
 1314SOL     OW 4840   5.518   1.860   5.706
 1314SOL    HW1 4841   5.601   1.907   5.735
 1314SOL    HW2 4842   5.542   1.785   5.644
 1315SOL     OW 4843   2.435   0.080   3.424
 1315SOL    HW1 4844   2.471   0.011   3.361
 1315SOL    HW2 4845   2.485   0.165   3.412
 1316SOL     OW 4846   3.472   6.458   2.680
 1316SOL    HW1 4847   3.510   6.531   2.624
 1316SOL    HW2 4848   3.516   6.372   2.657
 1317SOL     OW 4849   0.181   3.827   3.982
 1317SOL    HW1 4850   0.237   3.806   4.063
 1317SOL    HW2 4851   0.186   3.925   3.962
 1318SOL     OW 4852   0.593   6.244   1.529
 1318SOL    HW1 4853   0.591   6.243   1.429
 1318SOL    HW2 4854   0.645   6.323   1.560
 1319SOL     OW 4855   6.481   0.535   6.767
 1319SOL    HW1 4856   6.395   0.517   6.813
 1319SOL    HW2 4857   6.557   0.501   6.822
 1320SOL     OW 4858   5.539   6.201   5.278
 1320SOL    HW1 4859   5.583   6.238   5.196
 1320SOL    HW2 4860   5.527   6.102   5.268
 1321SOL     OW 4861   2.967   1.639   6.627
 1321SOL    HW1 4862   3.049   1.582   6.629
 1321SOL    HW2 4863   2.994   1.735   6.619
 1322SOL     OW 4864   5.075   1.642   5.920
 1322SOL    HW1 4865   5.044   1.727   5.879
 1322SOL    HW2 4866   5.160   1.612   5.876
 1323SOL     OW 4867   6.071   1.106   4.458
 1323SOL    HW1 4868   5.982   1.060   4.465
 1323SOL    HW2 4869   6.058   1.198   4.420
 1324SOL     OW 4870   1.092   3.443   0.154
 1324SOL    HW1 4871   1.115   3.356   0.199
 1324SOL    HW2 4872   0.993   3.455   0.155
 1325SOL     OW 4873   3.770   5.289   3.444
 1325SOL    HW1 4874   3.678   5.328   3.451
 1325SOL    HW2 4875   3.837   5.363   3.437
 1326SOL     OW 4876   5.078   4.019   4.473
 1326SOL    HW1 4877   4.996   3.964   4.453
 1326SOL    HW2 4878   5.074   4.104   4.420
 1327SOL     OW 4879   2.794   5.815   3.912
 1327SOL    HW1 4880   2.846   5.801   3.827
 1327SOL    HW2 4881   2.698   5.827   3.889
 1328SOL     OW 4882   1.848   1.663   0.264
 1328SOL    HW1 4883   1.769   1.619   0.307
 1328SOL    HW2 4884   1.827   1.760   0.250
 1329SOL     OW 4885   0.802   6.965   1.568
 1329SOL    HW1 4886   0.855   0.022   1.543
 1329SOL    HW2 4887   0.855   6.883   1.549
 1330SOL     OW 4888   4.713   6.364   1.108
 1330SOL    HW1 4889   4.678   6.354   1.201
 1330SOL    HW2 4890   4.678   6.289   1.051
 1331SOL     OW 4891   6.691   1.710   2.179
 1331SOL    HW1 4892   6.697   1.677   2.085
 1331SOL    HW2 4893   6.652   1.802   2.179
 1332SOL     OW 4894   4.298   1.908   1.030
 1332SOL    HW1 4895   4.372   1.926   0.965
 1332SOL    HW2 4896   4.219   1.964   1.007
 1333SOL     OW 4897   3.980   3.759   4.619
 1333SOL    HW1 4898   3.984   3.685   4.551
 1333SOL    HW2 4899   4.042   3.737   4.694
 1334SOL     OW 4900   0.580   4.122   3.690
 1334SOL    HW1 4901   0.493   4.109   3.642
 1334SOL    HW2 4902   0.654   4.126   3.624
 1335SOL     OW 4903   2.733   5.560   1.747
 1335SOL    HW1 4904   2.668   5.519   1.811
 1335SOL    HW2 4905   2.752   5.655   1.775
 1336SOL     OW 4906   0.253   0.456   4.747
 1336SOL    HW1 4907   0.187   0.381   4.752
 1336SOL    HW2 4908   0.214   0.537   4.791
 1337SOL     OW 4909   3.319   0.633   6.582
 1337SOL    HW1 4910   3.409   0.642   6.623
 1337SOL    HW2 4911   3.314   0.548   6.529
 1338SOL     OW 4912   3.592   5.344   1.220
 1338SOL    HW1 4913   3.575   5.395   1.304
 1338SOL    HW2 4914   3.600   5.407   1.143
 1339SOL     OW 4915   0.357   4.716   6.181
 1339SOL    HW1 4916   0.448   4.683   6.208
 1339SOL    HW2 4917   0.294   4.707   6.258
 1340SOL     OW 4918   1.795   0.918   6.249
 1340SOL    HW1 4919   1.726   0.969   6.301
 1340SOL    HW2 4920   1.786   0.938   6.152
 1341SOL     OW 4921   6.335   2.664   4.151
 1341SOL    HW1 4922   6.382   2.751   4.166
 1341SOL    HW2 4923   6.245   2.668   4.196
 1342SOL     OW 4924   0.631   6.187   1.804
 1342SOL    HW1 4925   0.620   6.224   1.712
 1342SOL    HW2 4926   0.618   6.260   1.871
 1343SOL     OW 4927   3.112   5.413   3.613
 1343SOL    HW1 4928   3.050   5.403   3.691
 1343SOL    HW2 4929   3.205   5.387   3.640
 1344SOL     OW 4930   4.925   1.248   2.882
 1344SOL    HW1 4931   4.842   1.247   2.938
 1344SOL    HW2 4932   4.925   1.329   2.823
 1345SOL     OW 4933   1.057   6.855   3.216
 1345SOL    HW1 4934   0.994   6.778   3.201
 1345SOL    HW2 4935   1.093   6.849   3.309
 1346SOL     OW 4936   0.068   0.855   3.847
 1346SOL    HW1 4937   0.007   0.906   3.785
 1346SOL    HW2 4938   0.107   0.918   3.914
 1347SOL     OW 4939   5.055   0.601   3.533
 1347SOL    HW1 4940   5.152   0.577   3.527
 1347SOL    HW2 4941   5.004   0.548   3.465
 1348SOL     OW 4942   4.821   6.052   4.734
 1348SOL    HW1 4943   4.910   6.063   4.778
 1348SOL    HW2 4944   4.835   6.026   4.638
 1349SOL     OW 4945   4.663   2.575   0.399
 1349SOL    HW1 4946   4.746   2.631   0.400
 1349SOL    HW2 4947   4.585   2.633   0.423
 1350SOL     OW 4948   3.646   0.258   4.864
 1350SOL    HW1 4949   3.717   0.190   4.847
 1350SOL    HW2 4950   3.685   0.350   4.856
 1351SOL     OW 4951   1.166   1.869   4.419
 1351SOL    HW1 4952   1.172   1.777   4.459
 1351SOL    HW2 4953   1.238   1.927   4.457
 1352SOL     OW 4954   0.609   6.609   3.939
 1352SOL    HW1 4955   0.701   6.599   3.976
 1352SOL    HW2 4956   0.562   6.684   3.987
 1353SOL     OW 4957   2.205   2.300   4.643
 1353SOL    HW1 4958   2.159   2.282   4.730
 1353SOL    HW2 4959   2.198   2.397   4.621
 1354SOL     OW 4960   0.314   6.784   0.746
 1354SOL    HW1 4961   0.228   6.777   0.694
 1354SOL    HW2 4962   0.308   6.862   0.809
 1355SOL     OW 4963   4.087   3.326   6.890
 1355SOL    HW1 4964   4.086   3.227   6.909
 1355SOL    HW2 4965   4.009   3.349   6.831
 1356SOL     OW 4966   3.128   2.737   1.683
 1356SOL    HW1 4967   3.155   2.752   1.778
 1356SOL    HW2 4968   3.138   2.822   1.631
 1357SOL     OW 4969   2.600   2.941   6.013
 1357SOL    HW1 4970   2.629   2.849   6.043
 1357SOL    HW2 4971   2.506   2.958   6.043
 1358SOL     OW 4972   1.959   3.727   5.970
 1358SOL    HW1 4973   1.891   3.672   6.019
 1358SOL    HW2 4974   2.030   3.757   6.034
 1359SOL     OW 4975   6.782   1.143   0.118
 1359SOL    HW1 4976   6.700   1.147   0.174
 1359SOL    HW2 4977   6.810   1.235   0.091
 1360SOL     OW 4978   3.385   3.005   4.181
 1360SOL    HW1 4979   3.308   3.065   4.162
 1360SOL    HW2 4980   3.409   3.012   4.278
 1361SOL     OW 4981   0.609   6.248   1.268
 1361SOL    HW1 4982   0.573   6.321   1.210
 1361SOL    HW2 4983   0.709   6.246   1.260
 1362SOL     OW 4984   3.057   1.900   6.581
 1362SOL    HW1 4985   2.991   1.975   6.581
 1362SOL    HW2 4986   3.148   1.936   6.601
 1363SOL     OW 4987   6.759   6.832   0.990
 1363SOL    HW1 4988   6.798   6.921   0.967
 1363SOL    HW2 4989   6.672   6.821   0.942
 1364SOL     OW 4990   1.239   3.819   1.109
 1364SOL    HW1 4991   1.271   3.819   1.014
 1364SOL    HW2 4992   1.288   3.888   1.161
 1365SOL     OW 4993   0.935   4.043   5.534
 1365SOL    HW1 4994   0.889   4.115   5.587
 1365SOL    HW2 4995   1.012   4.007   5.586
 1366SOL     OW 4996   4.031   0.455   1.471
 1366SOL    HW1 4997   4.048   0.376   1.529
 1366SOL    HW2 4998   4.069   0.537   1.514
 1367SOL     OW 4999   2.034   6.913   4.496
 1367SOL    HW1 5000   1.985   6.888   4.413
 1367SOL    HW2 5001   1.969   6.926   4.571
 1368SOL     OW 5002   1.439   6.857   4.691
 1368SOL    HW1 5003   1.481   6.864   4.781
 1368SOL    HW2 5004   1.397   6.767   4.680
 1369SOL     OW 5005   2.414   5.332   3.844
 1369SOL    HW1 5006   2.396   5.328   3.943
 1369SOL    HW2 5007   2.512   5.323   3.828
 1370SOL     OW 5008   7.003   2.408   3.039
 1370SOL    HW1 5009   6.904   2.408   3.052
 1370SOL    HW2 5010   0.023   2.363   3.116
 1371SOL     OW 5011   6.115   2.331   5.861
 1371SOL    HW1 5012   6.061   2.269   5.919
 1371SOL    HW2 5013   6.098   2.311   5.765
 1372SOL     OW 5014   5.792   2.955   1.247
 1372SOL    HW1 5015   5.724   3.022   1.217
 1372SOL    HW2 5016   5.840   2.990   1.327
 1373SOL     OW 5017   5.996   3.158   2.231
 1373SOL    HW1 5018   6.020   3.253   2.215
 1373SOL    HW2 5019   5.984   3.111   2.144
 1374SOL     OW 5020   3.813   3.293   1.820
 1374SOL    HW1 5021   3.748   3.241   1.877
 1374SOL    HW2 5022   3.894   3.315   1.874
 1375SOL     OW 5023   5.321   4.647   4.698
 1375SOL    HW1 5024   5.308   4.698   4.613
 1375SOL    HW2 5025   5.319   4.549   4.679
 1376SOL     OW 5026   3.185   4.669   6.052
 1376SOL    HW1 5027   3.150   4.576   6.041
 1376SOL    HW2 5028   3.285   4.666   6.062
 1377SOL     OW 5029   2.129   1.648   2.818
 1377SOL    HW1 5030   2.080   1.735   2.809
 1377SOL    HW2 5031   2.127   1.599   2.731
 1378SOL     OW 5032   5.352   2.640   4.317
 1378SOL    HW1 5033   5.264   2.688   4.317
 1378SOL    HW2 5034   5.417   2.689   4.259
 1379SOL     OW 5035   4.698   5.584   0.142
 1379SOL    HW1 5036   4.636   5.661   0.156
 1379SOL    HW2 5037   4.683   5.516   0.214
 1380SOL     OW 5038   0.157   5.965   2.546
 1380SOL    HW1 5039   0.245   6.012   2.552
 1380SOL    HW2 5040   0.094   6.019   2.490
 1381SOL     OW 5041   6.323   2.618   6.227
 1381SOL    HW1 5042   6.353   2.627   6.322
 1381SOL    HW2 5043   6.234   2.662   6.216
 1382SOL     OW 5044   5.091   2.515   6.880
 1382SOL    HW1 5045   5.170   2.531   6.939
 1382SOL    HW2 5046   5.029   2.593   6.885
 1383SOL     OW 5047   6.811   0.902   0.760
 1383SOL    HW1 5048   6.886   0.914   0.826
 1383SOL    HW2 5049   6.748   0.980   0.767
 1384SOL     OW 5050   5.858   1.866   1.975
 1384SOL    HW1 5051   5.954   1.888   1.995
 1384SOL    HW2 5052   5.802   1.880   2.056
 1385SOL     OW 5053   0.462   6.035   1.427
 1385SOL    HW1 5054   0.377   5.996   1.464
 1385SOL    HW2 5055   0.502   6.097   1.495
 1386SOL     OW 5056   2.146   5.638   4.183
 1386SOL    HW1 5057   2.107   5.548   4.163
 1386SOL    HW2 5058   2.079   5.694   4.231
 1387SOL     OW 5059   2.352   5.970   1.603
 1387SOL    HW1 5060   2.332   5.940   1.696
 1387SOL    HW2 5061   2.420   5.910   1.562
 1388SOL     OW 5062   6.439   0.276   2.088
 1388SOL    HW1 5063   6.447   0.307   1.993
 1388SOL    HW2 5064   6.528   0.286   2.134
 1389SOL     OW 5065   6.309   1.153   2.332
 1389SOL    HW1 5066   6.226   1.117   2.373
 1389SOL    HW2 5067   6.312   1.252   2.342
 1390SOL     OW 5068   1.569   1.745   4.704
 1390SOL    HW1 5069   1.660   1.778   4.725
 1390SOL    HW2 5070   1.521   1.812   4.647
 1391SOL     OW 5071   0.212   2.961   3.400
 1391SOL    HW1 5072   0.178   3.032   3.338
 1391SOL    HW2 5073   0.203   2.872   3.356
 1392SOL     OW 5074   4.928   4.327   4.382
 1392SOL    HW1 5075   4.937   4.376   4.469
 1392SOL    HW2 5076   4.831   4.323   4.356
 1393SOL     OW 5077   3.318   5.841   6.363
 1393SOL    HW1 5078   3.395   5.782   6.388
 1393SOL    HW2 5079   3.353   5.930   6.333
 1394SOL     OW 5080   1.590   6.099   6.500
 1394SOL    HW1 5081   1.590   6.054   6.411
 1394SOL    HW2 5082   1.618   6.194   6.489
 1395SOL     OW 5083   3.490   4.614   5.901
 1395SOL    HW1 5084   3.487   4.706   5.863
 1395SOL    HW2 5085   3.481   4.618   6.000
 1396SOL     OW 5086   6.196   6.170   3.983
 1396SOL    HW1 5087   6.128   6.208   3.920
 1396SOL    HW2 5088   6.288   6.183   3.944
 1397SOL     OW 5089   4.264   6.172   5.786
 1397SOL    HW1 5090   4.180   6.215   5.755
 1397SOL    HW2 5091   4.290   6.100   5.722
 1398SOL     OW 5092   2.169   1.035   4.413
 1398SOL    HW1 5093   2.146   1.092   4.334
 1398SOL    HW2 5094   2.114   1.064   4.492
 1399SOL     OW 5095   3.190   6.058   1.936
 1399SOL    HW1 5096   3.165   6.077   1.842
 1399SOL    HW2 5097   3.235   6.138   1.975
 1400SOL     OW 5098   1.861   6.468   2.441
 1400SOL    HW1 5099   1.825   6.444   2.531
 1400SOL    HW2 5100   1.953   6.507   2.450
 1401SOL     OW 5101   6.690   1.642   4.428
 1401SOL    HW1 5102   6.742   1.594   4.499
 1401SOL    HW2 5103   6.678   1.582   4.349
 1402SOL     OW 5104   6.925   3.308   0.438
 1402SOL    HW1 5105   7.002   3.244   0.444
 1402SOL    HW2 5106   6.839   3.257   0.441
 1403SOL     OW 5107   3.491   0.370   2.345
 1403SOL    HW1 5108   3.478   0.303   2.272
 1403SOL    HW2 5109   3.583   0.409   2.338
 1404SOL     OW 5110   5.601   1.565   0.657
 1404SOL    HW1 5111   5.575   1.480   0.703
 1404SOL    HW2 5112   5.646   1.626   0.722
 1405SOL     OW 5113   3.350   2.929   1.272
 1405SOL    HW1 5114   3.438   2.914   1.317
 1405SOL    HW2 5115   3.296   2.845   1.276
 1406SOL     OW 5116   1.716   4.298   1.234
 1406SOL    HW1 5117   1.814   4.315   1.236
 1406SOL    HW2 5118   1.685   4.269   1.324
 1407SOL     OW 5119   6.152   2.514   3.268
 1407SOL    HW1 5120   6.061   2.535   3.232
 1407SOL    HW2 5121   6.147   2.511   3.368
 1408SOL     OW 5122   6.092   0.283   6.060
 1408SOL    HW1 5123   6.011   0.267   6.117
 1408SOL    HW2 5124   6.064   0.323   5.973
 1409SOL     OW 5125   0.288   1.925   4.649
 1409SOL    HW1 5126   0.322   1.913   4.555
 1409SOL    HW2 5127   0.190   1.946   4.646
 1410SOL     OW 5128   6.941   3.026   0.115
 1410SOL    HW1 5129   6.920   3.042   0.212
 1410SOL    HW2 5130   6.873   3.072   0.059
 1411SOL     OW 5131   1.690   0.227   1.605
 1411SOL    HW1 5132   1.700   0.313   1.657
 1411SOL    HW2 5133   1.628   0.166   1.654
 1412SOL     OW 5134   1.081   3.100   0.095
 1412SOL    HW1 5135   1.018   3.028   0.064
 1412SOL    HW2 5136   1.149   3.117   0.025
 1413SOL     OW 5137   2.925   0.128   3.728
 1413SOL    HW1 5138   2.829   0.117   3.753
 1413SOL    HW2 5139   2.979   0.146   3.811
 1414SOL     OW 5140   3.165   1.003   1.627
 1414SOL    HW1 5141   3.093   0.947   1.669
 1414SOL    HW2 5142   3.134   1.037   1.539
 1415SOL     OW 5143   4.124   6.125   6.044
 1415SOL    HW1 5144   4.094   6.036   6.077
 1415SOL    HW2 5145   4.214   6.116   6.000
 1416SOL     OW 5146   4.876   5.630   3.241
 1416SOL    HW1 5147   4.865   5.708   3.180
 1416SOL    HW2 5148   4.871   5.660   3.336
 1417SOL     OW 5149   3.436   2.680   6.251
 1417SOL    HW1 5150   3.463   2.610   6.318
 1417SOL    HW2 5151   3.343   2.710   6.270
 1418SOL     OW 5152   3.277   4.089   2.720
 1418SOL    HW1 5153   3.290   4.142   2.637
 1418SOL    HW2 5154   3.193   4.035   2.713
 1419SOL     OW 5155   4.637   6.253   4.610
 1419SOL    HW1 5156   4.695   6.183   4.651
 1419SOL    HW2 5157   4.613   6.321   4.679
 1420SOL     OW 5158   0.005   5.392   2.058
 1420SOL    HW1 5159   0.089   5.439   2.084
 1420SOL    HW2 5160   6.952   5.456   2.062
 1421SOL     OW 5161   3.576   1.122   2.913
 1421SOL    HW1 5162   3.573   1.167   2.824
 1421SOL    HW2 5163   3.669   1.126   2.950
 1422SOL     OW 5164   2.727   6.555   0.061
 1422SOL    HW1 5165   2.784   6.628   0.025
 1422SOL    HW2 5166   2.774   6.468   0.052
 1423SOL     OW 5167   4.959   0.229   2.623
 1423SOL    HW1 5168   5.027   0.219   2.550
 1423SOL    HW2 5169   4.933   0.325   2.631
 1424SOL     OW 5170   6.454   4.939   2.947
 1424SOL    HW1 5171   6.526   4.977   2.889
 1424SOL    HW2 5172   6.388   5.011   2.970
 1425SOL     OW 5173   1.900   0.154   5.024
 1425SOL    HW1 5174   1.991   0.158   4.983
 1425SOL    HW2 5175   1.906   0.115   5.115
 1426SOL     OW 5176   1.737   1.291   5.612
 1426SOL    HW1 5177   1.835   1.270   5.616
 1426SOL    HW2 5178   1.693   1.230   5.546
 1427SOL     OW 5179   5.971   0.797   4.770
 1427SOL    HW1 5180   5.990   0.728   4.700
 1427SOL    HW2 5181   5.918   0.756   4.844
 1428SOL     OW 5182   5.562   1.203   6.975
 1428SOL    HW1 5183   5.509   1.222   0.033
 1428SOL    HW2 5184   5.612   1.285   6.948
 1429SOL     OW 5185   5.543   0.109   0.353
 1429SOL    HW1 5186   5.618   0.045   0.372
 1429SOL    HW2 5187   5.581   0.196   0.322
 1430SOL     OW 5188   2.042   4.550   3.907
 1430SOL    HW1 5189   2.012   4.639   3.872
 1430SOL    HW2 5190   2.129   4.560   3.954
 1431SOL     OW 5191   1.120   0.751   1.181
 1431SOL    HW1 5192   1.043   0.688   1.169
 1431SOL    HW2 5193   1.172   0.726   1.263
 1432SOL     OW 5194   2.903   0.328   1.900
 1432SOL    HW1 5195   2.851   0.307   1.817
 1432SOL    HW2 5196   2.997   0.349   1.876
 1433SOL     OW 5197   4.610   0.848   4.122
 1433SOL    HW1 5198   4.526   0.880   4.166
 1433SOL    HW2 5199   4.647   0.772   4.174
 1434SOL     OW 5200   0.745   0.919   4.985
 1434SOL    HW1 5201   0.820   0.855   4.969
 1434SOL    HW2 5202   0.766   0.977   5.064
 1435SOL     OW 5203   0.130   1.524   3.335
 1435SOL    HW1 5204   0.033   1.502   3.333
 1435SOL    HW2 5205   0.143   1.621   3.314
 1436SOL     OW 5206   4.146   3.889   0.827
 1436SOL    HW1 5207   4.111   3.982   0.817
 1436SOL    HW2 5208   4.234   3.890   0.874
 1437SOL     OW 5209   3.918   0.990   2.229
 1437SOL    HW1 5210   3.935   0.908   2.175
 1437SOL    HW2 5211   3.901   1.067   2.168
 1438SOL     OW 5212   2.238   0.526   1.234
 1438SOL    HW1 5213   2.169   0.499   1.167
 1438SOL    HW2 5214   2.213   0.490   1.324
 1439SOL     OW 5215   0.582   5.501   2.907
 1439SOL    HW1 5216   0.558   5.578   2.967
 1439SOL    HW2 5217   0.672   5.465   2.933
 1440SOL     OW 5218   2.427   3.214   1.725
 1440SOL    HW1 5219   2.442   3.139   1.790
 1440SOL    HW2 5220   2.396   3.176   1.638
 1441SOL     OW 5221   4.877   5.934   0.880
 1441SOL    HW1 5222   4.824   5.884   0.811
 1441SOL    HW2 5223   4.950   5.985   0.835
 1442SOL     OW 5224   5.026   5.754   0.665
 1442SOL    HW1 5225   5.028   5.665   0.620
 1442SOL    HW2 5226   4.931   5.779   0.686
 1443SOL     OW 5227   0.309   3.010   2.737
 1443SOL    HW1 5228   0.369   2.950   2.790
 1443SOL    HW2 5229   0.227   3.031   2.791
 1444SOL     OW 5230   0.480   4.795   6.680
 1444SOL    HW1 5231   0.558   4.856   6.663
 1444SOL    HW2 5232   0.398   4.850   6.694
 1445SOL     OW 5233   1.044   3.635   1.509
 1445SOL    HW1 5234   1.095   3.637   1.423
 1445SOL    HW2 5235   0.952   3.673   1.495
 1446SOL     OW 5236   6.270   6.757   0.865
 1446SOL    HW1 5237   6.205   6.818   0.911
 1446SOL    HW2 5238   6.224   6.713   0.788
 1447SOL     OW 5239   5.505   5.403   4.523
 1447SOL    HW1 5240   5.429   5.437   4.468
 1447SOL    HW2 5241   5.489   5.425   4.620
 1448SOL     OW 5242   0.852   2.931   5.749
 1448SOL    HW1 5243   0.755   2.905   5.745
 1448SOL    HW2 5244   0.872   2.995   5.674
 1449SOL     OW 5245   2.210   3.134   3.209
 1449SOL    HW1 5246   2.161   3.105   3.127
 1449SOL    HW2 5247   2.201   3.233   3.220
 1450SOL     OW 5248   2.884   2.233   3.578
 1450SOL    HW1 5249   2.818   2.291   3.531
 1450SOL    HW2 5250   2.840   2.192   3.658
 1451SOL     OW 5251   2.825   1.222   2.678
 1451SOL    HW1 5252   2.756   1.286   2.644
 1451SOL    HW2 5253   2.904   1.272   2.711
 1452SOL     OW 5254   4.991   3.055   6.662
 1452SOL    HW1 5255   4.899   3.092   6.678
 1452SOL    HW2 5256   5.014   2.991   6.735
 1453SOL     OW 5257   6.786   4.366   5.422
 1453SOL    HW1 5258   6.875   4.355   5.378
 1453SOL    HW2 5259   6.720   4.404   5.357
 1454SOL     OW 5260   3.451   1.987   3.259
 1454SOL    HW1 5261   3.370   2.043   3.275
 1454SOL    HW2 5262   3.493   1.962   3.346
 1455SOL     OW 5263   0.523   5.942   1.842
 1455SOL    HW1 5264   0.556   5.916   1.933
 1455SOL    HW2 5265   0.541   6.039   1.827
 1456SOL     OW 5266   6.386   5.133   4.341
 1456SOL    HW1 5267   6.326   5.108   4.417
 1456SOL    HW2 5268   6.475   5.163   4.376
 1457SOL     OW 5269   1.228   5.320   6.203
 1457SOL    HW1 5270   1.306   5.382   6.193
 1457SOL    HW2 5271   1.152   5.369   6.245
 1458SOL     OW 5272   5.311   5.034   5.165
 1458SOL    HW1 5273   5.343   5.108   5.106
 1458SOL    HW2 5274   5.361   4.951   5.144
 1459SOL     OW 5275   5.833   6.728   5.391
 1459SOL    HW1 5276   5.789   6.640   5.408
 1459SOL    HW2 5277   5.773   6.802   5.421
 1460SOL     OW 5278   1.264   6.586   4.910
 1460SOL    HW1 5279   1.218   6.518   4.967
 1460SOL    HW2 5280   1.201   6.661   4.890
 1461SOL     OW 5281   6.676   3.042   4.076
 1461SOL    HW1 5282   6.661   3.044   4.175
 1461SOL    HW2 5283   6.771   3.015   4.058
 1462SOL     OW 5284   0.290   1.166   1.631
 1462SOL    HW1 5285   0.284   1.103   1.708
 1462SOL    HW2 5286   0.356   1.239   1.652
 1463SOL     OW 5287   2.383   5.459   6.748
 1463SOL    HW1 5288   2.313   5.531   6.743
 1463SOL    HW2 5289   2.340   5.372   6.770
 1464SOL     OW 5290   1.001   4.423   3.814
 1464SOL    HW1 5291   1.032   4.492   3.880
 1464SOL    HW2 5292   0.911   4.390   3.840
 1465SOL     OW 5293   1.081   3.498   4.376
 1465SOL    HW1 5294   1.111   3.578   4.325
 1465SOL    HW2 5295   0.981   3.497   4.382
 1466SOL     OW 5296   5.489   2.168   2.794
 1466SOL    HW1 5297   5.475   2.165   2.695
 1466SOL    HW2 5298   5.400   2.167   2.840
 1467SOL     OW 5299   0.590   0.671   3.872
 1467SOL    HW1 5300   0.606   0.769   3.882
 1467SOL    HW2 5301   0.508   0.646   3.923
 1468SOL     OW 5302   3.153   5.482   2.528
 1468SOL    HW1 5303   3.090   5.495   2.452
 1468SOL    HW2 5304   3.120   5.533   2.608
 1469SOL     OW 5305   6.180   3.812   3.397
 1469SOL    HW1 5306   6.089   3.854   3.394
 1469SOL    HW2 5307   6.248   3.880   3.424
 1470SOL     OW 5308   6.049   1.897   2.326
 1470SOL    HW1 5309   5.985   1.908   2.402
 1470SOL    HW2 5310   6.132   1.949   2.344
 1471SOL     OW 5311   4.317   6.985   1.243
 1471SOL    HW1 5312   4.291   0.054   1.270
 1471SOL    HW2 5313   4.260   6.919   1.291
 1472SOL     OW 5314   1.586   0.201   6.174
 1472SOL    HW1 5315   1.643   0.255   6.114
 1472SOL    HW2 5316   1.499   0.180   6.129
 1473SOL     OW 5317   1.673   5.638   3.648
 1473SOL    HW1 5318   1.683   5.738   3.642
 1473SOL    HW2 5319   1.581   5.615   3.680
 1474SOL     OW 5320   2.675   5.036   1.178
 1474SOL    HW1 5321   2.697   4.944   1.146
 1474SOL    HW2 5322   2.669   5.036   1.278
 1475SOL     OW 5323   5.536   0.325   6.368
 1475SOL    HW1 5324   5.523   0.288   6.460
 1475SOL    HW2 5325   5.474   0.281   6.304
 1476SOL     OW 5326   4.880   0.772   6.937
 1476SOL    HW1 5327   4.950   0.774   7.009
 1476SOL    HW2 5328   4.918   0.729   6.855
 1477SOL     OW 5329   3.527   4.683   1.502
 1477SOL    HW1 5330   3.530   4.755   1.433
 1477SOL    HW2 5331   3.446   4.696   1.560
 1478SOL     OW 5332   4.489   5.427   6.958
 1478SOL    HW1 5333   4.571   5.476   6.929
 1478SOL    HW2 5334   4.490   5.419   0.034
 1479SOL     OW 5335   4.298   3.422   1.390
 1479SOL    HW1 5336   4.382   3.458   1.349
 1479SOL    HW2 5337   4.263   3.347   1.334
 1480SOL     OW 5338   3.148   0.382   4.043
 1480SOL    HW1 5339   3.051   0.366   4.024
 1480SOL    HW2 5340   3.159   0.471   4.087
 1481SOL     OW 5341   5.085   2.893   6.128
 1481SOL    HW1 5342   5.126   2.809   6.092
 1481SOL    HW2 5343   4.986   2.886   6.125
 1482SOL     OW 5344   5.563   1.356   1.375
 1482SOL    HW1 5345   5.638   1.341   1.310
 1482SOL    HW2 5346   5.476   1.348   1.327
 1483SOL     OW 5347   6.023   1.047   0.156
 1483SOL    HW1 5348   6.062   0.954   0.151
 1483SOL    HW2 5349   5.926   1.041   0.178
 1484SOL     OW 5350   3.675   5.532   5.381
 1484SOL    HW1 5351   3.716   5.622   5.398
 1484SOL    HW2 5352   3.704   5.499   5.292
 1485SOL     OW 5353   5.101   2.737   3.567
 1485SOL    HW1 5354   5.130   2.667   3.501
 1485SOL    HW2 5355   5.137   2.826   3.540
 1486SOL     OW 5356   4.797   6.272   3.807
 1486SOL    HW1 5357   4.849   6.342   3.857
 1486SOL    HW2 5358   4.859   6.199   3.779
 1487SOL     OW 5359   6.812   0.867   0.476
 1487SOL    HW1 5360   6.871   0.938   0.438
 1487SOL    HW2 5361   6.812   0.874   0.576
 1488SOL     OW 5362   6.552   2.046   2.788
 1488SOL    HW1 5363   6.578   2.071   2.694
 1488SOL    HW2 5364   6.517   1.953   2.788
 1489SOL     OW 5365   2.699   4.662   0.526
 1489SOL    HW1 5366   2.743   4.632   0.611
 1489SOL    HW2 5367   2.620   4.604   0.507
 1490SOL     OW 5368   6.362   2.317   2.028
 1490SOL    HW1 5369   6.319   2.357   2.110
 1490SOL    HW2 5370   6.455   2.352   2.019
 1491SOL     OW 5371   6.100   2.687   4.244
 1491SOL    HW1 5372   6.114   2.728   4.334
 1491SOL    HW2 5373   6.005   2.656   4.237
 1492SOL     OW 5374   6.042   1.455   3.421
 1492SOL    HW1 5375   6.057   1.534   3.362
 1492SOL    HW2 5376   6.130   1.411   3.441
 1493SOL     OW 5377   5.850   1.616   6.031
 1493SOL    HW1 5378   5.811   1.562   5.956
 1493SOL    HW2 5379   5.888   1.701   5.994
 1494SOL     OW 5380   6.637   4.786   6.103
 1494SOL    HW1 5381   6.714   4.768   6.165
 1494SOL    HW2 5382   6.559   4.730   6.130
 1495SOL     OW 5383   6.581   3.934   4.250
 1495SOL    HW1 5384   6.517   4.002   4.214
 1495SOL    HW2 5385   6.530   3.858   4.289
 1496SOL     OW 5386   5.912   6.469   5.877
 1496SOL    HW1 5387   5.916   6.480   5.976
 1496SOL    HW2 5388   6.004   6.475   5.839
 1497SOL     OW 5389   6.269   2.408   2.271
 1497SOL    HW1 5390   6.290   2.500   2.302
 1497SOL    HW2 5391   6.196   2.370   2.327
 1498SOL     OW 5392   3.260   3.666   0.733
 1498SOL    HW1 5393   3.210   3.635   0.813
 1498SOL    HW2 5394   3.345   3.711   0.762
 1499SOL     OW 5395   0.290   4.429   4.341
 1499SOL    HW1 5396   0.330   4.412   4.431
 1499SOL    HW2 5397   0.296   4.527   4.321
 1500SOL     OW 5398   0.478   5.753   2.244
 1500SOL    HW1 5399   0.401   5.781   2.187
 1500SOL    HW2 5400   0.564   5.783   2.201
 1501SOL     OW 5401   6.023   1.493   0.435
 1501SOL    HW1 5402   5.981   1.402   0.430
 1501SOL    HW2 5403   6.076   1.510   0.352
 1502SOL     OW 5404   6.497   0.352   5.978
 1502SOL    HW1 5405   6.456   0.372   6.067
 1502SOL    HW2 5406   6.545   0.264   5.982
 1503SOL     OW 5407   0.649   4.702   1.174
 1503SOL    HW1 5408   0.693   4.613   1.188
 1503SOL    HW2 5409   0.624   4.713   1.078
 1504SOL     OW 5410   1.943   6.879   2.430
 1504SOL    HW1 5411   1.904   6.816   2.363
 1504SOL    HW2 5412   1.911   6.855   2.522
 1505SOL     OW 5413   6.352   5.011   4.991
 1505SOL    HW1 5414   6.292   4.986   5.067
 1505SOL    HW2 5415   6.368   5.110   4.993
 1506SOL     OW 5416   0.714   1.153   0.666
 1506SOL    HW1 5417   0.702   1.199   0.754
 1506SOL    HW2 5418   0.799   1.099   0.668
 1507SOL     OW 5419   1.973   2.607   3.753
 1507SOL    HW1 5420   2.017   2.603   3.843
 1507SOL    HW2 5421   2.042   2.596   3.682
 1508SOL     OW 5422   1.996   1.102   1.460
 1508SOL    HW1 5423   1.964   1.043   1.534
 1508SOL    HW2 5424   2.061   1.051   1.403
 1509SOL     OW 5425   5.391   1.166   4.630
 1509SOL    HW1 5426   5.390   1.265   4.615
 1509SOL    HW2 5427   5.456   1.144   4.703
 1510SOL     OW 5428   3.621   6.275   4.603
 1510SOL    HW1 5429   3.615   6.368   4.566
 1510SOL    HW2 5430   3.532   6.248   4.640
 1511SOL     OW 5431   3.122   3.460   5.231
 1511SOL    HW1 5432   3.038   3.481   5.181
 1511SOL    HW2 5433   3.110   3.484   5.327
 1512SOL     OW 5434   5.595   6.807   0.896
 1512SOL    HW1 5435   5.647   6.731   0.857
 1512SOL    HW2 5436   5.657   6.867   0.946
 1513SOL     OW 5437   2.151   6.924   5.907
 1513SOL    HW1 5438   2.172   6.932   6.004
 1513SOL    HW2 5439   2.229   6.884   5.858
 1514SOL     OW 5440   2.825   2.844   6.369
 1514SOL    HW1 5441   2.895   2.915   6.377
 1514SOL    HW2 5442   2.862   2.766   6.319
 1515SOL     OW 5443   4.467   0.495   2.225
 1515SOL    HW1 5444   4.411   0.545   2.159
 1515SOL    HW2 5445   4.478   0.549   2.308
 1516SOL     OW 5446   5.779   6.947   5.570
 1516SOL    HW1 5447   5.707   6.906   5.626
 1516SOL    HW2 5448   5.847   6.991   5.629
 1517SOL     OW 5449   3.417   6.515   4.010
 1517SOL    HW1 5450   3.498   6.472   3.971
 1517SOL    HW2 5451   3.335   6.465   3.981
 1518SOL     OW 5452   0.617   3.256   6.457
 1518SOL    HW1 5453   0.681   3.261   6.534
 1518SOL    HW2 5454   0.634   3.332   6.394
 1519SOL     OW 5455   6.680   5.162   0.154
 1519SOL    HW1 5456   6.731   5.238   0.195
 1519SOL    HW2 5457   6.721   5.075   0.184
 1520SOL     OW 5458   0.635   6.463   2.956
 1520SOL    HW1 5459   0.662   6.461   3.052
 1520SOL    HW2 5460   0.700   6.410   2.901
 1521SOL     OW 5461   2.132   5.154   6.252
 1521SOL    HW1 5462   2.179   5.199   6.328
 1521SOL    HW2 5463   2.170   5.063   6.238
 1522SOL     OW 5464   6.022   5.947   4.052
 1522SOL    HW1 5465   6.091   6.017   4.031
 1522SOL    HW2 5466   5.976   5.920   3.967
 1523SOL     OW 5467   3.562   6.408   0.748
 1523SOL    HW1 5468   3.602   6.500   0.749
 1523SOL    HW2 5469   3.475   6.411   0.699
 1524SOL     OW 5470   2.294   1.568   3.174
 1524SOL    HW1 5471   2.318   1.562   3.077
 1524SOL    HW2 5472   2.295   1.476   3.213
 1525SOL     OW 5473   5.560   4.670   0.032
 1525SOL    HW1 5474   5.641   4.721   0.061
 1525SOL    HW2 5475   5.561   4.660   6.957
 1526SOL     OW 5476   1.130   1.744   0.825
 1526SOL    HW1 5477   1.174   1.655   0.841
 1526SOL    HW2 5478   1.116   1.789   0.913
 1527SOL     OW 5479   4.562   2.024   3.438
 1527SOL    HW1 5480   4.626   2.049   3.365
 1527SOL    HW2 5481   4.551   2.101   3.500
 1528SOL     OW 5482   3.321   4.006   2.121
 1528SOL    HW1 5483   3.330   3.939   2.195
 1528SOL    HW2 5484   3.224   4.021   2.102
 1529SOL     OW 5485   4.631   1.574   6.020
 1529SOL    HW1 5486   4.689   1.495   6.040
 1529SOL    HW2 5487   4.567   1.588   6.096
 1530SOL     OW 5488   2.815   6.667   0.870
 1530SOL    HW1 5489   2.803   6.664   0.771
 1530SOL    HW2 5490   2.868   6.749   0.894
 1531SOL     OW 5491   4.707   6.371   4.362
 1531SOL    HW1 5492   4.740   6.305   4.294
 1531SOL    HW2 5493   4.685   6.323   4.447
 1532SOL     OW 5494   3.511   5.426   0.168
 1532SOL    HW1 5495   3.419   5.418   0.207
 1532SOL    HW2 5496   3.509   5.492   0.093
 1533SOL     OW 5497   5.652   5.889   1.267
 1533SOL    HW1 5498   5.631   5.885   1.169
 1533SOL    HW2 5499   5.613   5.808   1.312
 1534SOL     OW 5500   3.022   4.293   6.814
 1534SOL    HW1 5501   3.058   4.304   6.906
 1534SOL    HW2 5502   3.030   4.379   6.764
 1535SOL     OW 5503   5.579   4.729   4.077
 1535SOL    HW1 5504   5.543   4.821   4.061
 1535SOL    HW2 5505   5.506   4.662   4.061
 1536SOL     OW 5506   4.821   3.688   6.795
 1536SOL    HW1 5507   4.827   3.700   6.696
 1536SOL    HW2 5508   4.856   3.770   6.841
 1537SOL     OW 5509   2.864   5.324   2.714
 1537SOL    HW1 5510   2.802   5.283   2.647
 1537SOL    HW2 5511   2.901   5.409   2.677
 1538SOL     OW 5512   2.695   1.637   0.736
 1538SOL    HW1 5513   2.683   1.574   0.659
 1538SOL    HW2 5514   2.645   1.601   0.815
 1539SOL     OW 5515   5.989   3.472   0.901
 1539SOL    HW1 5516   5.985   3.390   0.844
 1539SOL    HW2 5517   6.050   3.539   0.859
 1540SOL     OW 5518   3.586   0.227   3.450
 1540SOL    HW1 5519   3.521   0.220   3.375
 1540SOL    HW2 5520   3.545   0.277   3.526
 1541SOL     OW 5521   3.926   3.091   6.006
 1541SOL    HW1 5522   3.990   3.115   6.079
 1541SOL    HW2 5523   3.912   2.992   6.005
 1542SOL     OW 5524   0.279   6.123   2.298
 1542SOL    HW1 5525   0.271   6.211   2.251
 1542SOL    HW2 5526   0.189   6.095   2.332
 1543SOL     OW 5527   3.073   4.608   0.319
 1543SOL    HW1 5528   3.080   4.686   0.381
 1543SOL    HW2 5529   3.062   4.642   0.225
 1544SOL     OW 5530   3.814   3.685   3.803
 1544SOL    HW1 5531   3.738   3.750   3.809
 1544SOL    HW2 5532   3.778   3.592   3.802
 1545SOL     OW 5533   5.981   6.022   1.601
 1545SOL    HW1 5534   5.902   6.074   1.634
 1545SOL    HW2 5535   6.058   6.038   1.662
 1546SOL     OW 5536   5.740   6.198   6.032
 1546SOL    HW1 5537   5.801   6.217   5.955
 1546SOL    HW2 5538   5.666   6.137   6.002
 1547SOL     OW 5539   1.796   3.163   6.560
 1547SOL    HW1 5540   1.732   3.194   6.490
 1547SOL    HW2 5541   1.888   3.158   6.521
 1548SOL     OW 5542   6.501   2.248   0.539
 1548SOL    HW1 5543   6.482   2.177   0.472
 1548SOL    HW2 5544   6.529   2.332   0.492
 1549SOL     OW 5545   5.119   0.977   4.832
 1549SOL    HW1 5546   5.199   0.948   4.885
 1549SOL    HW2 5547   5.126   1.075   4.812
 1550SOL     OW 5548   3.985   3.204   4.253
 1550SOL    HW1 5549   3.932   3.136   4.303
 1550SOL    HW2 5550   3.987   3.181   4.156
 1551SOL     OW 5551   6.788   4.694   5.371
 1551SOL    HW1 5552   6.732   4.616   5.398
 1551SOL    HW2 5553   6.868   4.700   5.430
 1552SOL     OW 5554   1.900   4.137   0.988
 1552SOL    HW1 5555   1.967   4.163   0.919
 1552SOL    HW2 5556   1.808   4.157   0.955
 1553SOL     OW 5557   2.035   1.559   5.889
 1553SOL    HW1 5558   2.128   1.573   5.856
 1553SOL    HW2 5559   2.024   1.602   5.979
 1554SOL     OW 5560   3.598   2.026   4.002
 1554SOL    HW1 5561   3.575   2.089   3.927
 1554SOL    HW2 5562   3.544   2.051   4.083
 1555SOL     OW 5563   6.221   4.511   6.318
 1555SOL    HW1 5564   6.144   4.527   6.380
 1555SOL    HW2 5565   6.279   4.438   6.354
 1556SOL     OW 5566   2.142   0.774   5.832
 1556SOL    HW1 5567   2.123   0.721   5.914
 1556SOL    HW2 5568   2.239   0.798   5.830
 1557SOL     OW 5569   0.031   2.952   5.383
 1557SOL    HW1 5570   0.067   2.887   5.317
 1557SOL    HW2 5571   7.022   2.903   5.464
 1558SOL     OW 5572   0.255   0.078   4.706
 1558SOL    HW1 5573   0.266   7.023   4.765
 1558SOL    HW2 5574   0.165   0.119   4.719
 1559SOL     OW 5575   1.377   1.486   6.072
 1559SOL    HW1 5576   1.374   1.584   6.054
 1559SOL    HW2 5577   1.471   1.453   6.061
 1560SOL     OW 5578   6.911   0.448   6.663
 1560SOL    HW1 5579   7.011   0.450   6.669
 1560SOL    HW2 5580   6.879   0.356   6.688
 1561SOL     OW 5581   5.745   6.169   1.632
 1561SOL    HW1 5582   5.740   6.263   1.666
 1561SOL    HW2 5583   5.671   6.153   1.567
 1562SOL     OW 5584   6.344   0.464   3.751
 1562SOL    HW1 5585   6.305   0.556   3.746
 1562SOL    HW2 5586   6.329   0.427   3.842
 1563SOL     OW 5587   3.715   6.921   5.083
 1563SOL    HW1 5588   3.714   6.862   5.164
 1563SOL    HW2 5589   3.798   6.903   5.030
 1564SOL     OW 5590   0.901   2.091   2.447
 1564SOL    HW1 5591   0.843   2.076   2.527
 1564SOL    HW2 5592   0.975   2.154   2.471
 1565SOL     OW 5593   5.873   4.676   1.372
 1565SOL    HW1 5594   5.907   4.754   1.320
 1565SOL    HW2 5595   5.873   4.698   1.470
 1566SOL     OW 5596   5.938   4.581   3.424
 1566SOL    HW1 5597   5.853   4.537   3.453
 1566SOL    HW2 5598   5.961   4.655   3.487
 1567SOL     OW 5599   6.003   5.724   5.272
 1567SOL    HW1 5600   6.001   5.756   5.366
 1567SOL    HW2 5601   6.066   5.647   5.264
 1568SOL     OW 5602   0.535   6.914   6.923
 1568SOL    HW1 5603   0.453   6.971   6.931
 1568SOL    HW2 5604   0.614   6.972   6.902
 1569SOL     OW 5605   3.471   6.640   5.039
 1569SOL    HW1 5606   3.413   6.650   4.958
 1569SOL    HW2 5607   3.567   6.637   5.011
 1570SOL     OW 5608   3.159   1.974   1.978
 1570SOL    HW1 5609   3.125   2.061   1.943
 1570SOL    HW2 5610   3.237   1.990   2.039
 1571SOL     OW 5611   6.971   3.961   0.950
 1571SOL    HW1 5612   6.917   3.929   1.028
 1571SOL    HW2 5613   7.005   3.883   0.898
 1572SOL     OW 5614   1.414   5.891   2.467
 1572SOL    HW1 5615   1.414   5.976   2.414
 1572SOL    HW2 5616   1.422   5.913   2.564
 1573SOL     OW 5617   3.986   0.490   0.673
 1573SOL    HW1 5618   3.933   0.407   0.653
 1573SOL    HW2 5619   4.040   0.516   0.593
 1574SOL     OW 5620   6.013   2.613   2.321
 1574SOL    HW1 5621   6.050   2.659   2.402
 1574SOL    HW2 5622   5.949   2.541   2.350
 1575SOL     OW 5623   3.004   2.017   0.361
 1575SOL    HW1 5624   3.084   2.024   0.300
 1575SOL    HW2 5625   3.016   1.939   0.422
 1576SOL     OW 5626   6.367   5.892   3.716
 1576SOL    HW1 5627   6.350   5.957   3.642
 1576SOL    HW2 5628   6.441   5.927   3.774
 1577SOL     OW 5629   1.649   0.444   0.364
 1577SOL    HW1 5630   1.560   0.407   0.392
 1577SOL    HW2 5631   1.716   0.369   0.359
 1578SOL     OW 5632   5.677   5.769   4.561
 1578SOL    HW1 5633   5.708   5.746   4.469
 1578SOL    HW2 5634   5.733   5.721   4.628
 1579SOL     OW 5635   0.160   0.108   3.228
 1579SOL    HW1 5636   0.181   0.196   3.271
 1579SOL    HW2 5637   0.061   0.094   3.228
 1580SOL     OW 5638   3.224   3.653   5.849
 1580SOL    HW1 5639   3.291   3.580   5.830
 1580SOL    HW2 5640   3.256   3.738   5.808
 1581SOL     OW 5641   6.602   3.928   3.886
 1581SOL    HW1 5642   6.604   3.973   3.975
 1581SOL    HW2 5643   6.516   3.950   3.840
 1582SOL     OW 5644   6.375   5.716   4.885
 1582SOL    HW1 5645   6.310   5.698   4.811
 1582SOL    HW2 5646   6.456   5.762   4.848
 1583SOL     OW 5647   2.419   1.683   2.375
 1583SOL    HW1 5648   2.341   1.714   2.321
 1583SOL    HW2 5649   2.395   1.686   2.472
 1584SOL     OW 5650   1.904   0.477   6.097
 1584SOL    HW1 5651   1.960   0.404   6.136
 1584SOL    HW2 5652   1.875   0.539   6.170
 1585SOL     OW 5653   5.776   1.089   5.605
 1585SOL    HW1 5654   5.844   1.103   5.534
 1585SOL    HW2 5655   5.822   1.075   5.693
 1586SOL     OW 5656   3.897   3.876   2.946
 1586SOL    HW1 5657   3.880   3.962   2.994
 1586SOL    HW2 5658   3.959   3.819   3.000
 1587SOL     OW 5659   2.350   6.441   6.450
 1587SOL    HW1 5660   2.381   6.360   6.499
 1587SOL    HW2 5661   2.305   6.503   6.515
 1588SOL     OW 5662   5.737   3.707   1.455
 1588SOL    HW1 5663   5.767   3.629   1.400
 1588SOL    HW2 5664   5.711   3.782   1.394
 1589SOL     OW 5665   5.150   4.029   3.287
 1589SOL    HW1 5666   5.057   4.055   3.312
 1589SOL    HW2 5667   5.173   4.071   3.199
 1590SOL     OW 5668   1.844   6.806   5.237
 1590SOL    HW1 5669   1.812   6.715   5.263
 1590SOL    HW2 5670   1.767   6.869   5.235
 1591SOL     OW 5671   0.690   3.906   1.155
 1591SOL    HW1 5672   0.787   3.879   1.149
 1591SOL    HW2 5673   0.658   3.933   1.064
 1592SOL     OW 5674   3.155   4.054   3.604
 1592SOL    HW1 5675   3.224   4.108   3.651
 1592SOL    HW2 5676   3.093   4.012   3.671
 1593SOL     OW 5677   1.126   5.206   4.803
 1593SOL    HW1 5678   1.169   5.134   4.858
 1593SOL    HW2 5679   1.063   5.165   4.737
 1594SOL     OW 5680   0.996   4.901   3.202
 1594SOL    HW1 5681   0.920   4.935   3.258
 1594SOL    HW2 5682   1.050   4.837   3.255
 1595SOL     OW 5683   0.226   5.258   5.704
 1595SOL    HW1 5684   0.134   5.248   5.666
 1595SOL    HW2 5685   0.282   5.181   5.672
 1596SOL     OW 5686   2.748   4.840   6.924
 1596SOL    HW1 5687   2.828   4.780   6.927
 1596SOL    HW2 5688   2.735   4.882   7.014
 1597SOL     OW 5689   2.717   6.862   0.563
 1597SOL    HW1 5690   2.655   6.791   0.596
 1597SOL    HW2 5691   2.668   6.923   0.502
 1598SOL     OW 5692   6.758   5.749   1.679
 1598SOL    HW1 5693   6.726   5.828   1.627
 1598SOL    HW2 5694   6.846   5.719   1.643
 1599SOL     OW 5695   3.396   4.848   0.698
 1599SOL    HW1 5696   3.341   4.810   0.772
 1599SOL    HW2 5697   3.343   4.918   0.650
 1600SOL     OW 5698   3.397   1.250   5.104
 1600SOL    HW1 5699   3.338   1.293   5.173
 1600SOL    HW2 5700   3.406   1.311   5.026
 1601SOL     OW 5701   1.082   5.071   5.157
 1601SOL    HW1 5702   1.009   5.037   5.096
 1601SOL    HW2 5703   1.168   5.076   5.106
 1602SOL     OW 5704   0.366   4.354   2.229
 1602SOL    HW1 5705   0.430   4.359   2.152
 1602SOL    HW2 5706   0.369   4.262   2.269
 1603SOL     OW 5707   5.894   6.489   0.940
 1603SOL    HW1 5708   5.824   6.421   0.962
 1603SOL    HW2 5709   5.911   6.546   1.020
 1604SOL     OW 5710   0.145   5.844   5.202
 1604SOL    HW1 5711   0.172   5.790   5.281
 1604SOL    HW2 5712   0.207   5.922   5.193
 1605SOL     OW 5713   5.206   6.649   3.048
 1605SOL    HW1 5714   5.147   6.729   3.032
 1605SOL    HW2 5715   5.260   6.663   3.130
 1606SOL     OW 5716   5.111   0.028   5.537
 1606SOL    HW1 5717   5.201   0.062   5.510
 1606SOL    HW2 5718   5.047   0.105   5.545
 1607SOL     OW 5719   4.968   3.155   0.832
 1607SOL    HW1 5720   4.893   3.221   0.825
 1607SOL    HW2 5721   5.045   3.187   0.776
 1608SOL     OW 5722   2.237   0.330   0.477
 1608SOL    HW1 5723   2.288   0.402   0.525
 1608SOL    HW2 5724   2.237   0.246   0.532
 1609SOL     OW 5725   5.326   1.276   5.586
 1609SOL    HW1 5726   5.229   1.297   5.582
 1609SOL    HW2 5727   5.339   1.177   5.577
 1610SOL     OW 5728   5.710   6.469   4.093
 1610SOL    HW1 5729   5.719   6.370   4.086
 1610SOL    HW2 5730   5.622   6.492   4.135
 1611SOL     OW 5731   3.843   2.889   1.422
 1611SOL    HW1 5732   3.906   2.900   1.345
 1611SOL    HW2 5733   3.868   2.807   1.473
 1612SOL     OW 5734   3.445   1.015   4.430
 1612SOL    HW1 5735   3.433   0.916   4.425
 1612SOL    HW2 5736   3.461   1.042   4.525
 1613SOL     OW 5737   1.557   6.833   1.042
 1613SOL    HW1 5738   1.619   6.909   1.022
 1613SOL    HW2 5739   1.602   6.747   1.019
 1614SOL     OW 5740   0.666   3.008   6.241
 1614SOL    HW1 5741   0.706   3.066   6.170
 1614SOL    HW2 5742   0.663   3.059   6.328
 1615SOL     OW 5743   6.164   4.965   5.954
 1615SOL    HW1 5744   6.109   4.882   5.946
 1615SOL    HW2 5745   6.159   5.000   6.047
 1616SOL     OW 5746   2.356   1.546   5.455
 1616SOL    HW1 5747   2.416   1.616   5.417
 1616SOL    HW2 5748   2.327   1.483   5.382
 1617SOL     OW 5749   4.550   0.537   4.016
 1617SOL    HW1 5750   4.493   0.562   3.938
 1617SOL    HW2 5751   4.642   0.574   4.003
 1618SOL     OW 5752   6.054   2.019   1.576
 1618SOL    HW1 5753   5.972   2.006   1.631
 1618SOL    HW2 5754   6.128   1.962   1.611
 1619SOL     OW 5755   2.201   2.547   4.509
 1619SOL    HW1 5756   2.217   2.550   4.411
 1619SOL    HW2 5757   2.285   2.572   4.558
 1620SOL     OW 5758   3.389   5.699   1.731
 1620SOL    HW1 5759   3.411   5.779   1.788
 1620SOL    HW2 5760   3.465   5.633   1.736
 1621SOL     OW 5761   1.917   1.474   1.778
 1621SOL    HW1 5762   1.882   1.568   1.781
 1621SOL    HW2 5763   1.998   1.471   1.719
 1622SOL     OW 5764   1.994   1.997   4.906
 1622SOL    HW1 5765   1.997   2.094   4.884
 1622SOL    HW2 5766   1.929   1.981   4.980
 1623SOL     OW 5767   2.722   2.344   4.789
 1623SOL    HW1 5768   2.717   2.356   4.888
 1623SOL    HW2 5769   2.738   2.433   4.745
 1624SOL     OW 5770   2.336   0.529   0.649
 1624SOL    HW1 5771   2.266   0.593   0.680
 1624SOL    HW2 5772   2.400   0.511   0.723
 1625SOL     OW 5773   0.178   5.545   2.205
 1625SOL    HW1 5774   0.200   5.642   2.212
 1625SOL    HW2 5775   0.256   5.491   2.236
 1626SOL     OW 5776   1.965   3.065   5.862
 1626SOL    HW1 5777   2.000   3.061   5.956
 1626SOL    HW2 5778   2.030   3.023   5.800
 1627SOL     OW 5779   5.163   3.210   4.005
 1627SOL    HW1 5780   5.117   3.140   4.059
 1627SOL    HW2 5781   5.228   3.259   4.064
 1628SOL     OW 5782   3.024   3.301   0.351
 1628SOL    HW1 5783   3.103   3.242   0.332
 1628SOL    HW2 5784   3.056   3.393   0.372
 1629SOL     OW 5785   3.838   2.071   2.843
 1629SOL    HW1 5786   3.781   2.106   2.917
 1629SOL    HW2 5787   3.903   2.142   2.815
 1630SOL     OW 5788   0.019   4.921   4.974
 1630SOL    HW1 5789   6.994   4.872   5.046
 1630SOL    HW2 5790   0.108   4.879   4.960
 1631SOL     OW 5791   0.396   6.508   5.734
 1631SOL    HW1 5792   0.304   6.473   5.753
 1631SOL    HW2 5793   0.455   6.432   5.706
 1632SOL     OW 5794   5.030   0.041   1.024
 1632SOL    HW1 5795   5.126   0.066   1.011
 1632SOL    HW2 5796   5.024   6.969   1.051
 1633SOL     OW 5797   5.667   3.006   3.637
 1633SOL    HW1 5798   5.713   3.011   3.726
 1633SOL    HW2 5799   5.662   2.910   3.608
 1634SOL     OW 5800   3.945   0.841   0.256
 1634SOL    HW1 5801   3.930   0.758   0.310
 1634SOL    HW2 5802   4.034   0.880   0.279
 1635SOL     OW 5803   0.759   5.339   4.640
 1635SOL    HW1 5804   0.842   5.300   4.600
 1635SOL    HW2 5805   0.682   5.326   4.578
 1636SOL     OW 5806   2.715   6.569   1.097
 1636SOL    HW1 5807   2.756   6.593   1.009
 1636SOL    HW2 5808   2.698   6.652   1.150
 1637SOL     OW 5809   0.445   3.195   2.605
 1637SOL    HW1 5810   0.438   3.159   2.512
 1637SOL    HW2 5811   0.400   3.132   2.668
 1638SOL     OW 5812   1.231   2.839   5.539
 1638SOL    HW1 5813   1.259   2.916   5.596
 1638SOL    HW2 5814   1.309   2.810   5.483
 1639SOL     OW 5815   4.762   4.599   2.713
 1639SOL    HW1 5816   4.854   4.636   2.699
 1639SOL    HW2 5817   4.757   4.507   2.676
 1640SOL     OW 5818   5.233   0.624   1.154
 1640SOL    HW1 5819   5.290   0.642   1.074
 1640SOL    HW2 5820   5.214   0.710   1.202
 1641SOL     OW 5821   6.728   2.949   5.338
 1641SOL    HW1 5822   6.683   2.931   5.425
 1641SOL    HW2 5823   6.792   2.874   5.317
 1642SOL     OW 5824   0.332   1.920   1.193
 1642SOL    HW1 5825   0.416   1.914   1.140
 1642SOL    HW2 5826   0.307   2.017   1.204
 1643SOL     OW 5827   3.591   0.737   6.313
 1643SOL    HW1 5828   3.591   0.835   6.294
 1643SOL    HW2 5829   3.667   0.716   6.375
 1644SOL     OW 5830   3.059   0.512   0.710
 1644SOL    HW1 5831   3.111   0.595   0.688
 1644SOL    HW2 5832   3.095   0.435   0.658
 1645SOL     OW 5833   2.037   6.393   6.019
 1645SOL    HW1 5834   2.091   6.320   5.977
 1645SOL    HW2 5835   2.082   6.423   6.103
 1646SOL     OW 5836   1.256   3.860   0.249
 1646SOL    HW1 5837   1.213   3.791   0.191
 1646SOL    HW2 5838   1.333   3.819   0.298
 1647SOL     OW 5839   5.961   2.757   3.636
 1647SOL    HW1 5840   6.037   2.804   3.591
 1647SOL    HW2 5841   5.944   2.799   3.726
 1648SOL     OW 5842   4.181   0.077   2.282
 1648SOL    HW1 5843   4.280   0.079   2.268
 1648SOL    HW2 5844   4.154   0.154   2.340
 1649SOL     OW 5845   3.014   0.013   2.942
 1649SOL    HW1 5846   3.019   0.024   3.041
 1649SOL    HW2 5847   2.991   6.942   2.920
 1650SOL     OW 5848   3.534   7.013   3.750
 1650SOL    HW1 5849   3.576   6.969   3.830
 1650SOL    HW2 5850   3.456   0.044   3.780
 1651SOL     OW 5851   1.448   0.147   1.430
 1651SOL    HW1 5852   1.465   0.050   1.413
 1651SOL    HW2 5853   1.523   0.185   1.483
 1652SOL     OW 5854   2.870   3.323   1.497
 1652SOL    HW1 5855   2.914   3.235   1.479
 1652SOL    HW2 5856   2.939   3.395   1.498
 1653SOL     OW 5857   1.210   5.023   0.803
 1653SOL    HW1 5858   1.219   4.990   0.709
 1653SOL    HW2 5859   1.160   4.956   0.858
 1654SOL     OW 5860   0.371   2.241   3.163
 1654SOL    HW1 5861   0.364   2.328   3.115
 1654SOL    HW2 5862   0.437   2.182   3.116
 1655SOL     OW 5863   4.632   4.730   5.615
 1655SOL    HW1 5864   4.710   4.705   5.557
 1655SOL    HW2 5865   4.621   4.830   5.615
 1656SOL     OW 5866   0.523   4.266   3.116
 1656SOL    HW1 5867   0.531   4.172   3.147
 1656SOL    HW2 5868   0.473   4.268   3.029
 1657SOL     OW 5869   0.883   0.709   4.906
 1657SOL    HW1 5870   0.862   0.635   4.842
 1657SOL    HW2 5871   0.900   0.670   4.996
 1658SOL     OW 5872   6.364   6.464   2.573
 1658SOL    HW1 5873   6.442   6.401   2.576
 1658SOL    HW2 5874   6.369   6.528   2.649
 1659SOL     OW 5875   4.870   1.805   6.122
 1659SOL    HW1 5876   4.774   1.785   6.102
 1659SOL    HW2 5877   4.909   1.857   6.046
 1660SOL     OW 5878   1.888   6.225   3.194
 1660SOL    HW1 5879   1.973   6.243   3.242
 1660SOL    HW2 5880   1.905   6.166   3.115
 1661SOL     OW 5881   3.274   0.063   2.783
 1661SOL    HW1 5882   3.244   0.126   2.711
 1661SOL    HW2 5883   3.204   0.056   2.853
 1662SOL     OW 5884   0.282   0.157   2.753
 1662SOL    HW1 5885   0.259   0.106   2.836
 1662SOL    HW2 5886   0.295   0.254   2.775
 1663SOL     OW 5887   2.292   6.955   3.603
 1663SOL    HW1 5888   2.206   6.998   3.575
 1663SOL    HW2 5889   2.367   6.998   3.554
 1664SOL     OW 5890   2.550   5.177   4.313
 1664SOL    HW1 5891   2.465   5.124   4.318
 1664SOL    HW2 5892   2.628   5.115   4.313
 1665SOL     OW 5893   0.917   0.521   4.473
 1665SOL    HW1 5894   0.934   0.529   4.572
 1665SOL    HW2 5895   0.837   0.575   4.448
 1666SOL     OW 5896   5.426   3.627   6.867
 1666SOL    HW1 5897   5.432   3.564   6.789
 1666SOL    HW2 5898   5.352   3.692   6.852
 1667SOL     OW 5899   6.938   1.100   6.520
 1667SOL    HW1 5900   6.951   1.086   6.618
 1667SOL    HW2 5901   6.868   1.170   6.506
 1668SOL     OW 5902   2.539   0.354   5.041
 1668SOL    HW1 5903   2.523   0.262   5.006
 1668SOL    HW2 5904   2.486   0.419   4.986
 1669SOL     OW 5905   5.752   6.747   6.578
 1669SOL    HW1 5906   5.795   6.695   6.504
 1669SOL    HW2 5907   5.694   6.686   6.632
 1670SOL     OW 5908   5.984   3.708   6.218
 1670SOL    HW1 5909   5.994   3.806   6.202
 1670SOL    HW2 5910   5.908   3.692   6.281
 1671SOL     OW 5911   6.250   4.699   0.255
 1671SOL    HW1 5912   6.328   4.743   0.212
 1671SOL    HW2 5913   6.198   4.766   0.307
 1672SOL     OW 5914   1.969   5.108   1.859
 1672SOL    HW1 5915   1.930   5.067   1.776
 1672SOL    HW2 5916   2.006   5.035   1.917
 1673SOL     OW 5917   6.570   2.035   3.767
 1673SOL    HW1 5918   6.472   2.020   3.753
 1673SOL    HW2 5919   6.621   1.996   3.690
 1674SOL     OW 5920   2.358   5.181   6.631
 1674SOL    HW1 5921   2.327   5.147   6.719
 1674SOL    HW2 5922   2.441   5.132   6.604
 1675SOL     OW 5923   4.575   2.297   0.802
 1675SOL    HW1 5924   4.673   2.283   0.814
 1675SOL    HW2 5925   4.547   2.378   0.854
 1676SOL     OW 5926   2.391   1.333   4.208
 1676SOL    HW1 5927   2.444   1.287   4.137
 1676SOL    HW2 5928   2.433   1.318   4.297
 1677SOL     OW 5929   6.149   0.887   5.649
 1677SOL    HW1 5930   6.207   0.818   5.693
 1677SOL    HW2 5931   6.059   0.847   5.629
 1678SOL     OW 5932   4.714   6.998   1.199
 1678SOL    HW1 5933   4.615   7.012   1.203
 1678SOL    HW2 5934   4.751   0.020   1.119
 1679SOL     OW 5935   6.080   4.412   0.499
 1679SOL    HW1 5936   6.011   4.421   0.428
 1679SOL    HW2 5937   6.171   4.413   0.458
 1680SOL     OW 5938   1.599   2.431   4.845
 1680SOL    HW1 5939   1.556   2.362   4.787
 1680SOL    HW2 5940   1.603   2.398   4.939
 1681SOL     OW 5941   4.742   5.749   0.719
 1681SOL    HW1 5942   4.693   5.733   0.805
 1681SOL    HW2 5943   4.678   5.749   0.643
 1682SOL     OW 5944   6.610   3.707   5.483
 1682SOL    HW1 5945   6.657   3.622   5.505
 1682SOL    HW2 5946   6.642   3.742   5.395
 1683SOL     OW 5947   5.417   6.208   6.884
 1683SOL    HW1 5948   5.482   6.142   6.923
 1683SOL    HW2 5949   5.443   6.228   6.790
 1684SOL     OW 5950   0.332   6.240   5.040
 1684SOL    HW1 5951   0.294   6.333   5.037
 1684SOL    HW2 5952   0.422   6.239   4.995
 1685SOL     OW 5953   1.249   1.402   0.310
 1685SOL    HW1 5954   1.317   1.350   0.259
 1685SOL    HW2 5955   1.185   1.445   0.245
 1686SOL     OW 5956   2.189   5.654   6.711
 1686SOL    HW1 5957   2.208   5.673   6.615
 1686SOL    HW2 5958   2.232   5.724   6.768
 1687SOL     OW 5959   1.984   6.165   1.841
 1687SOL    HW1 5960   2.056   6.192   1.905
 1687SOL    HW2 5961   1.907   6.126   1.891
 1688SOL     OW 5962   0.354   1.786   4.055
 1688SOL    HW1 5963   0.338   1.832   3.967
 1688SOL    HW2 5964   0.450   1.794   4.079
 1689SOL     OW 5965   3.263   1.038   2.405
 1689SOL    HW1 5966   3.289   0.968   2.339
 1689SOL    HW2 5967   3.255   1.126   2.359
 1690SOL     OW 5968   0.778   2.234   0.803
 1690SOL    HW1 5969   0.817   2.326   0.791
 1690SOL    HW2 5970   0.732   2.206   0.718
 1691SOL     OW 5971   4.621   4.335   2.645
 1691SOL    HW1 5972   4.578   4.273   2.711
 1691SOL    HW2 5973   4.556   4.407   2.620
 1692SOL     OW 5974   1.516   6.919   3.282
 1692SOL    HW1 5975   1.547   7.011   3.306
 1692SOL    HW2 5976   1.440   6.926   3.216
 1693SOL     OW 5977   2.782   2.004   3.764
 1693SOL    HW1 5978   2.766   1.923   3.820
 1693SOL    HW2 5979   2.802   2.082   3.823
 1694SOL     OW 5980   4.587   6.222   5.700
 1694SOL    HW1 5981   4.504   6.207   5.755
 1694SOL    HW2 5982   4.657   6.266   5.757
 1695SOL     OW 5983   3.250   1.172   6.087
 1695SOL    HW1 5984   3.174   1.137   6.032
 1695SOL    HW2 5985   3.327   1.195   6.028
 1696SOL     OW 5986   3.292   5.406   1.724
 1696SOL    HW1 5987   3.223   5.396   1.653
 1696SOL    HW2 5988   3.304   5.503   1.747
 1697SOL     OW 5989   1.366   1.248   2.243
 1697SOL    HW1 5990   1.399   1.233   2.336
 1697SOL    HW2 5991   1.290   1.186   2.225
 1698SOL     OW 5992   5.405   1.825   0.910
 1698SOL    HW1 5993   5.482   1.767   0.884
 1698SOL    HW2 5994   5.320   1.774   0.900
 1699SOL     OW 5995   2.661   3.894   0.741
 1699SOL    HW1 5996   2.740   3.932   0.694
 1699SOL    HW2 5997   2.691   3.828   0.810
 1700SOL     OW 5998   6.344   2.851   4.805
 1700SOL    HW1 5999   6.286   2.827   4.882
 1700SOL    HW2 6000   6.291   2.902   4.737
 1701SOL     OW 6001   5.769   3.011   5.079
 1701SOL    HW1 6002   5.864   3.014   5.111
 1701SOL    HW2 6003   5.715   3.081   5.127
 1702SOL     OW 6004   4.968   3.021   1.853
 1702SOL    HW1 6005   4.933   3.005   1.761
 1702SOL    HW2 6006   4.893   3.021   1.918
 1703SOL     OW 6007   1.490   3.595   6.807
 1703SOL    HW1 6008   1.511   3.626   6.899
 1703SOL    HW2 6009   1.534   3.655   6.740
 1704SOL     OW 6010   0.361   0.560   1.798
 1704SOL    HW1 6011   0.276   0.535   1.845
 1704SOL    HW2 6012   0.436   0.564   1.865
 1705SOL     OW 6013   3.861   3.462   2.482
 1705SOL    HW1 6014   3.950   3.505   2.463
 1705SOL    HW2 6015   3.796   3.488   2.411
 1706SOL     OW 6016   2.263   0.530   6.525
 1706SOL    HW1 6017   2.236   0.510   6.619
 1706SOL    HW2 6018   2.358   0.561   6.523
 1707SOL     OW 6019   5.523   1.291   2.912
 1707SOL    HW1 6020   5.427   1.284   2.883
 1707SOL    HW2 6021   5.579   1.228   2.857
 1708SOL     OW 6022   0.597   4.566   1.583
 1708SOL    HW1 6023   0.696   4.575   1.576
 1708SOL    HW2 6024   0.553   4.630   1.520
 1709SOL     OW 6025   3.036   5.841   4.701
 1709SOL    HW1 6026   3.125   5.853   4.657
 1709SOL    HW2 6027   2.976   5.787   4.643
 1710SOL     OW 6028   0.535   5.769   4.042
 1710SOL    HW1 6029   0.478   5.831   4.095
 1710SOL    HW2 6030   0.540   5.680   4.089
 1711SOL     OW 6031   2.156   4.399   5.394
 1711SOL    HW1 6032   2.218   4.331   5.354
 1711SOL    HW2 6033   2.209   4.460   5.453
 1712SOL     OW 6034   1.890   4.879   1.113
 1712SOL    HW1 6035   1.911   4.783   1.097
 1712SOL    HW2 6036   1.968   4.923   1.157
 1713SOL     OW 6037   2.007   3.492   0.267
 1713SOL    HW1 6038   2.103   3.491   0.239
 1713SOL    HW2 6039   1.995   3.428   0.343
 1714SOL     OW 6040   3.788   1.664   1.277
 1714SOL    HW1 6041   3.757   1.580   1.231
 1714SOL    HW2 6042   3.723   1.738   1.259
 1715SOL     OW 6043   0.404   2.954   3.724
 1715SOL    HW1 6044   0.419   3.050   3.698
 1715SOL    HW2 6045   0.416   2.896   3.643
 1716SOL     OW 6046   6.997   0.277   0.105
 1716SOL    HW1 6047   6.969   0.373   0.110
 1716SOL    HW2 6048   6.916   0.219   0.113
 1717SOL     OW 6049   3.091   0.206   0.140
 1717SOL    HW1 6050   3.099   0.135   0.210
 1717SOL    HW2 6051   3.007   0.259   0.156
 1718SOL     OW 6052   1.239   4.688   5.706
 1718SOL    HW1 6053   1.245   4.591   5.727
 1718SOL    HW2 6054   1.148   4.722   5.729
 1719SOL     OW 6055   2.284   3.534   1.607
 1719SOL    HW1 6056   2.280   3.507   1.703
 1719SOL    HW2 6057   2.196   3.517   1.564
 1720SOL     OW 6058   6.581   1.251   2.614
 1720SOL    HW1 6059   6.567   1.254   2.713
 1720SOL    HW2 6060   6.578   1.155   2.583
 1721SOL     OW 6061   1.669   6.244   3.611
 1721SOL    HW1 6062   1.706   6.254   3.519
 1721SOL    HW2 6063   1.638   6.333   3.644
 1722SOL     OW 6064   5.670   6.934   1.487
 1722SOL    HW1 6065   5.713   6.846   1.505
 1722SOL    HW2 6066   5.570   6.925   1.497
 1723SOL     OW 6067   5.893   0.908   2.866
 1723SOL    HW1 6068   5.830   0.830   2.860
 1723SOL    HW2 6069   5.967   0.896   2.801
 1724SOL     OW 6070   5.198   0.555   0.094
 1724SOL    HW1 6071   5.158   0.584   0.007
 1724SOL    HW2 6072   5.138   0.582   0.169
 1725SOL     OW 6073   4.079   5.166   2.172
 1725SOL    HW1 6074   4.034   5.189   2.258
 1725SOL    HW2 6075   4.142   5.240   2.148
 1726SOL     OW 6076   0.232   4.011   4.285
 1726SOL    HW1 6077   0.312   4.037   4.231
 1726SOL    HW2 6078   0.159   4.079   4.272
 1727SOL     OW 6079   3.214   3.204   5.453
 1727SOL    HW1 6080   3.301   3.236   5.490
 1727SOL    HW2 6081   3.222   3.193   5.354
 1728SOL     OW 6082   4.261   4.758   3.581
 1728SOL    HW1 6083   4.196   4.799   3.645
 1728SOL    HW2 6084   4.227   4.770   3.487
 1729SOL     OW 6085   2.124   3.496   2.566
 1729SOL    HW1 6086   2.213   3.536   2.547
 1729SOL    HW2 6087   2.052   3.560   2.541
 1730SOL     OW 6088   5.918   2.492   4.566
 1730SOL    HW1 6089   6.005   2.444   4.561
 1730SOL    HW2 6090   5.916   2.565   4.498
 1731SOL     OW 6091   0.942   6.076   0.489
 1731SOL    HW1 6092   1.020   6.129   0.454
 1731SOL    HW2 6093   0.922   6.103   0.583
 1732SOL     OW 6094   0.599   4.475   6.957
 1732SOL    HW1 6095   0.598   4.477   6.857
 1732SOL    HW2 6096   0.684   4.432   6.988
 1733SOL     OW 6097   1.142   4.073   0.373
 1733SOL    HW1 6098   1.187   4.063   0.461
 1733SOL    HW2 6099   1.193   4.024   0.303
 1734SOL     OW 6100   4.718   3.397   1.218
 1734SOL    HW1 6101   4.723   3.481   1.164
 1734SOL    HW2 6102   4.810   3.363   1.236
 1735SOL     OW 6103   5.547   6.337   0.707
 1735SOL    HW1 6104   5.448   6.341   0.694
 1735SOL    HW2 6105   5.586   6.270   0.643
 1736SOL     OW 6106   3.227   3.756   0.335
 1736SOL    HW1 6107   3.188   3.772   0.245
 1736SOL    HW2 6108   3.327   3.746   0.327
 1737SOL     OW 6109   1.112   6.324   3.649
 1737SOL    HW1 6110   1.174   6.267   3.596
 1737SOL    HW2 6111   1.025   6.275   3.663
 1738SOL     OW 6112   1.113   1.629   1.614
 1738SOL    HW1 6113   1.115   1.529   1.605
 1738SOL    HW2 6114   1.174   1.670   1.547
 1739SOL     OW 6115   4.567   2.487   6.069
 1739SOL    HW1 6116   4.473   2.504   6.038
 1739SOL    HW2 6117   4.629   2.550   6.023
 1740SOL     OW 6118   0.881   1.209   5.431
 1740SOL    HW1 6119   0.898   1.149   5.509
 1740SOL    HW2 6120   0.961   1.268   5.417
 1741SOL     OW 6121   2.290   0.731   2.373
 1741SOL    HW1 6122   2.245   0.661   2.317
 1741SOL    HW2 6123   2.383   0.702   2.394
 1742SOL     OW 6124   6.277   6.217   4.648
 1742SOL    HW1 6125   6.267   6.131   4.598
 1742SOL    HW2 6126   6.222   6.288   4.604
 1743SOL     OW 6127   4.500   1.187   0.696
 1743SOL    HW1 6128   4.417   1.176   0.751
 1743SOL    HW2 6129   4.526   1.099   0.657
 1744SOL     OW 6130   3.005   0.032   1.735
 1744SOL    HW1 6131   3.007   0.115   1.679
 1744SOL    HW2 6132   3.092   7.007   1.726
 1745SOL     OW 6133   6.043   2.993   5.168
 1745SOL    HW1 6134   6.099   3.074   5.152
 1745SOL    HW2 6135   6.094   2.911   5.141
 1746SOL     OW 6136   2.416   0.850   5.727
 1746SOL    HW1 6137   2.402   0.830   5.630
 1746SOL    HW2 6138   2.494   0.796   5.761
 1747SOL     OW 6139   4.949   6.948   5.764
 1747SOL    HW1 6140   4.985   6.905   5.846
 1747SOL    HW2 6141   5.024   6.983   5.708
 1748SOL     OW 6142   5.928   1.670   1.691
 1748SOL    HW1 6143   5.983   1.670   1.608
 1748SOL    HW2 6144   5.973   1.727   1.761
 1749SOL     OW 6145   4.496   0.268   6.089
 1749SOL    HW1 6146   4.444   0.274   6.174
 1749SOL    HW2 6147   4.461   0.336   6.024
 1750SOL     OW 6148   4.811   0.293   3.908
 1750SOL    HW1 6149   4.796   0.391   3.893
 1750SOL    HW2 6150   4.872   0.281   3.986
 1751SOL     OW 6151   1.991   5.807   3.458
 1751SOL    HW1 6152   1.932   5.778   3.382
 1751SOL    HW2 6153   1.954   5.890   3.499
 1752SOL     OW 6154   6.835   2.061   6.820
 1752SOL    HW1 6155   6.789   2.017   6.742
 1752SOL    HW2 6156   6.871   2.149   6.791
 1753SOL     OW 6157   2.426   6.994   2.391
 1753SOL    HW1 6158   2.509   0.026   2.380
 1753SOL    HW2 6159   2.404   6.950   2.304
 1754SOL     OW 6160   3.848   2.625   1.574
 1754SOL    HW1 6161   3.920   2.557   1.587
 1754SOL    HW2 6162   3.766   2.580   1.537
 1755SOL     OW 6163   5.833   3.480   0.352
 1755SOL    HW1 6164   5.870   3.487   0.259
 1755SOL    HW2 6165   5.818   3.572   0.389
 1756SOL     OW 6166   5.822   5.634   4.753
 1756SOL    HW1 6167   5.804   5.548   4.799
 1756SOL    HW2 6168   5.867   5.698   4.816
 1757SOL     OW 6169   3.540   0.708   4.914
 1757SOL    HW1 6170   3.458   0.657   4.939
 1757SOL    HW2 6171   3.515   0.784   4.855
 1758SOL     OW 6172   2.603   1.708   3.327
 1758SOL    HW1 6173   2.567   1.628   3.278
 1758SOL    HW2 6174   2.703   1.707   3.323
 1759SOL     OW 6175   0.454   5.248   5.938
 1759SOL    HW1 6176   0.396   5.237   5.857
 1759SOL    HW2 6177   0.411   5.315   6.000
 1760SOL     OW 6178   4.931   0.615   2.013
 1760SOL    HW1 6179   4.903   0.524   1.982
 1760SOL    HW2 6180   4.980   0.607   2.100
 1761SOL     OW 6181   5.871   2.691   1.355
 1761SOL    HW1 6182   5.809   2.768   1.343
 1761SOL    HW2 6183   5.819   2.607   1.371
 1762SOL     OW 6184   5.701   2.793   0.718
 1762SOL    HW1 6185   5.734   2.754   0.804
 1762SOL    HW2 6186   5.620   2.742   0.688
 1763SOL     OW 6187   2.115   3.661   3.706
 1763SOL    HW1 6188   2.126   3.755   3.738
 1763SOL    HW2 6189   2.132   3.597   3.781
 1764SOL     OW 6190   6.447   3.084   4.561
 1764SOL    HW1 6191   6.372   3.136   4.521
 1764SOL    HW2 6192   6.448   3.098   4.660
 1765SOL     OW 6193   2.376   2.733   6.124
 1765SOL    HW1 6194   2.399   2.791   6.202
 1765SOL    HW2 6195   2.316   2.783   6.061
 1766SOL     OW 6196   6.250   3.019   5.430
 1766SOL    HW1 6197   6.233   2.930   5.387
 1766SOL    HW2 6198   6.163   3.062   5.453
 1767SOL     OW 6199   6.831   3.815   1.713
 1767SOL    HW1 6200   6.826   3.915   1.717
 1767SOL    HW2 6201   6.880   3.788   1.630
 1768SOL     OW 6202   5.769   6.480   3.693
 1768SOL    HW1 6203   5.820   6.542   3.633
 1768SOL    HW2 6204   5.818   6.470   3.780
 1769SOL     OW 6205   5.746   0.434   3.533
 1769SOL    HW1 6206   5.680   0.360   3.547
 1769SOL    HW2 6207   5.729   0.507   3.600
 1770SOL     OW 6208   3.417   5.402   4.886
 1770SOL    HW1 6209   3.451   5.326   4.941
 1770SOL    HW2 6210   3.418   5.378   4.789
 1771SOL     OW 6211   4.557   6.595   0.100
 1771SOL    HW1 6212   4.567   6.562   0.193
 1771SOL    HW2 6213   4.501   6.532   0.047
 1772SOL     OW 6214   3.183   6.283   3.023
 1772SOL    HW1 6215   3.109   6.335   3.065
 1772SOL    HW2 6216   3.266   6.293   3.079
 1773SOL     OW 6217   0.944   6.285   6.764
 1773SOL    HW1 6218   0.925   6.326   6.853
 1773SOL    HW2 6219   0.918   6.349   6.692
 1774SOL     OW 6220   3.261   5.108   2.159
 1774SOL    HW1 6221   3.165   5.097   2.181
 1774SOL    HW2 6222   3.271   5.143   2.066
 1775SOL     OW 6223   0.906   4.503   1.246
 1775SOL    HW1 6224   0.823   4.446   1.242
 1775SOL    HW2 6225   0.979   4.459   1.194
 1776SOL     OW 6226   3.041   6.083   5.309
 1776SOL    HW1 6227   2.976   6.026   5.360
 1776SOL    HW2 6228   2.990   6.150   5.255
 1777SOL     OW 6229   3.213   5.574   0.226
 1777SOL    HW1 6230   3.210   5.603   0.130
 1777SOL    HW2 6231   3.123   5.541   0.253
 1778SOL     OW 6232   6.536   3.995   5.827
 1778SOL    HW1 6233   6.605   4.065   5.845
 1778SOL    HW2 6234   6.579   3.915   5.786
 1779SOL     OW 6235   3.644   0.401   5.523
 1779SOL    HW1 6236   3.658   0.425   5.619
 1779SOL    HW2 6237   3.674   0.476   5.464
 1780SOL     OW 6238   3.660   3.564   6.719
 1780SOL    HW1 6239   3.744   3.567   6.666
 1780SOL    HW2 6240   3.636   3.468   6.738
 1781SOL     OW 6241   3.720   5.598   3.696
 1781SOL    HW1 6242   3.628   5.607   3.658
 1781SOL    HW2 6243   3.787   5.603   3.622
 1782SOL     OW 6244   3.329   1.697   4.315
 1782SOL    HW1 6245   3.424   1.718   4.290
 1782SOL    HW2 6246   3.329   1.630   4.390
 1783SOL     OW 6247   2.360   5.776   6.901
 1783SOL    HW1 6248   2.407   5.829   6.830
 1783SOL    HW2 6249   2.350   5.832   6.983
 1784SOL     OW 6250   3.684   6.433   5.675
 1784SOL    HW1 6251   3.622   6.446   5.752
 1784SOL    HW2 6252   3.771   6.396   5.708
 1785SOL     OW 6253   6.933   4.321   1.685
 1785SOL    HW1 6254   6.959   4.389   1.753
 1785SOL    HW2 6255   6.876   4.364   1.615
 1786SOL     OW 6256   3.994   2.212   1.168
 1786SOL    HW1 6257   4.019   2.176   1.078
 1786SOL    HW2 6258   3.949   2.141   1.221
 1787SOL     OW 6259   3.710   0.571   6.056
 1787SOL    HW1 6260   3.639   0.584   6.125
 1787SOL    HW2 6261   3.772   0.499   6.086
 1788SOL     OW 6262   1.600   4.467   6.069
 1788SOL    HW1 6263   1.603   4.517   6.156
 1788SOL    HW2 6264   1.633   4.526   5.995
 1789SOL     OW 6265   5.995   0.399   0.222
 1789SOL    HW1 6266   5.993   0.472   0.154
 1789SOL    HW2 6267   6.064   0.420   0.292
 1790SOL     OW 6268   3.314   6.905   3.017
 1790SOL    HW1 6269   3.271   6.985   2.977
 1790SOL    HW2 6270   3.356   6.849   2.945
 1791SOL     OW 6271   0.092   6.435   2.418
 1791SOL    HW1 6272   0.055   6.350   2.455
 1791SOL    HW2 6273   0.143   6.483   2.489
 1792SOL     OW 6274   1.261   3.995   5.254
 1792SOL    HW1 6275   1.316   4.068   5.295
 1792SOL    HW2 6276   1.267   4.001   5.154
 1793SOL     OW 6277   0.364   0.613   3.646
 1793SOL    HW1 6278   0.333   0.641   3.737
 1793SOL    HW2 6279   0.457   0.644   3.631
 1794SOL     OW 6280   4.532   6.303   6.354
 1794SOL    HW1 6281   4.593   6.378   6.329
 1794SOL    HW2 6282   4.441   6.320   6.315
 1795SOL     OW 6283   0.710   3.086   0.144
 1795SOL    HW1 6284   0.753   3.149   0.080
 1795SOL    HW2 6285   0.756   3.091   0.232
 1796SOL     OW 6286   3.303   0.380   6.521
 1796SOL    HW1 6287   3.229   0.357   6.458
 1796SOL    HW2 6288   3.373   0.308   6.516
 1797SOL     OW 6289   0.810   0.620   0.586
 1797SOL    HW1 6290   0.741   0.655   0.523
 1797SOL    HW2 6291   0.792   0.523   0.605
 1798SOL     OW 6292   5.659   2.461   3.507
 1798SOL    HW1 6293   5.570   2.481   3.548
 1798SOL    HW2 6294   5.724   2.438   3.579
 1799SOL     OW 6295   2.316   1.561   6.816
 1799SOL    HW1 6296   2.328   1.478   6.762
 1799SOL    HW2 6297   2.237   1.612   6.782
 1800SOL     OW 6298   4.129   4.897   2.249
 1800SOL    HW1 6299   4.036   4.911   2.284
 1800SOL    HW2 6300   4.154   4.973   2.190
 1801SOL     OW 6301   5.557   0.103   0.962
 1801SOL    HW1 6302   5.642   0.081   1.010
 1801SOL    HW2 6303   5.516   0.185   1.003
 1802SOL     OW 6304   5.231   5.158   3.986
 1802SOL    HW1 6305   5.198   5.252   3.997
 1802SOL    HW2 6306   5.256   5.143   3.890
 1803SOL     OW 6307   5.787   5.649   0.933
 1803SOL    HW1 6308   5.730   5.606   1.003
 1803SOL    HW2 6309   5.839   5.724   0.973
 1804SOL     OW 6310   3.256   3.060   6.035
 1804SOL    HW1 6311   3.244   3.016   5.946
 1804SOL    HW2 6312   3.244   3.159   6.025
 1805SOL     OW 6313   5.376   2.945   6.381
 1805SOL    HW1 6314   5.358   2.857   6.338
 1805SOL    HW2 6315   5.369   2.935   6.481
 1806SOL     OW 6316   0.269   0.771   0.673
 1806SOL    HW1 6317   0.362   0.800   0.693
 1806SOL    HW2 6318   0.207   0.849   0.677
 1807SOL     OW 6319   5.928   1.870   5.939
 1807SOL    HW1 6320   5.910   1.944   6.005
 1807SOL    HW2 6321   5.955   1.910   5.851
 1808SOL     OW 6322   2.055   4.338   4.075
 1808SOL    HW1 6323   2.049   4.410   4.005
 1808SOL    HW2 6324   2.151   4.314   4.089
 1809SOL     OW 6325   3.527   0.245   6.402
 1809SOL    HW1 6326   3.583   0.268   6.322
 1809SOL    HW2 6327   3.480   0.158   6.386
 1810SOL     OW 6328   3.658   5.768   2.880
 1810SOL    HW1 6329   3.586   5.771   2.812
 1810SOL    HW2 6330   3.712   5.853   2.876
 1811SOL     OW 6331   6.175   5.585   2.538
 1811SOL    HW1 6332   6.198   5.558   2.445
 1811SOL    HW2 6333   6.259   5.598   2.591
 1812SOL     OW 6334   4.276   5.439   6.741
 1812SOL    HW1 6335   4.343   5.437   6.815
 1812SOL    HW2 6336   4.286   5.524   6.688
 1813SOL     OW 6337   6.671   5.202   5.418
 1813SOL    HW1 6338   6.635   5.185   5.509
 1813SOL    HW2 6339   6.724   5.122   5.388
 1814SOL     OW 6340   5.159   6.483   2.506
 1814SOL    HW1 6341   5.241   6.493   2.450
 1814SOL    HW2 6342   5.184   6.491   2.603
 1815SOL     OW 6343   0.200   1.014   2.308
 1815SOL    HW1 6344   0.276   1.011   2.372
 1815SOL    HW2 6345   0.130   1.077   2.342
 1816SOL     OW 6346   1.069   4.341   0.358
 1816SOL    HW1 6347   1.078   4.243   0.376
 1816SOL    HW2 6348   1.099   4.360   0.264
 1817SOL     OW 6349   1.024   5.407   2.043
 1817SOL    HW1 6350   0.952   5.413   1.973
 1817SOL    HW2 6351   1.069   5.319   2.037
 1818SOL     OW 6352   2.130   0.971   2.946
 1818SOL    HW1 6353   2.046   0.936   2.904
 1818SOL    HW2 6354   2.198   0.897   2.951
 1819SOL     OW 6355   1.428   4.472   2.541
 1819SOL    HW1 6356   1.355   4.498   2.478
 1819SOL    HW2 6357   1.388   4.423   2.619
 1820SOL     OW 6358   5.638   0.458   2.617
 1820SOL    HW1 6359   5.567   0.441   2.685
 1820SOL    HW2 6360   5.702   0.526   2.652
 1821SOL     OW 6361   1.743   1.800   3.201
 1821SOL    HW1 6362   1.719   1.889   3.163
 1821SOL    HW2 6363   1.797   1.749   3.135
 1822SOL     OW 6364   3.631   3.584   1.575
 1822SOL    HW1 6365   3.563   3.570   1.646
 1822SOL    HW2 6366   3.680   3.498   1.557
 1823SOL     OW 6367   4.279   6.995   2.668
 1823SOL    HW1 6368   4.353   0.005   2.609
 1823SOL    HW2 6369   4.290   0.009   2.760
 1824SOL     OW 6370   5.174   2.326   1.799
 1824SOL    HW1 6371   5.132   2.237   1.816
 1824SOL    HW2 6372   5.104   2.389   1.764
 1825SOL     OW 6373   1.181   1.202   1.314
 1825SOL    HW1 6374   1.205   1.172   1.406
 1825SOL    HW2 6375   1.174   1.302   1.312
 1826SOL     OW 6376   3.177   6.229   6.571
 1826SOL    HW1 6377   3.079   6.222   6.594
 1826SOL    HW2 6378   3.231   6.212   6.653
 1827SOL     OW 6379   6.024   6.815   1.678
 1827SOL    HW1 6380   6.063   6.773   1.596
 1827SOL    HW2 6381   5.972   6.747   1.729
 1828SOL     OW 6382   1.632   1.991   0.296
 1828SOL    HW1 6383   1.609   2.038   0.381
 1828SOL    HW2 6384   1.548   1.957   0.253
 1829SOL     OW 6385   6.317   5.793   1.450
 1829SOL    HW1 6386   6.379   5.715   1.443
 1829SOL    HW2 6387   6.368   5.878   1.433
 1830SOL     OW 6388   5.761   6.028   3.821
 1830SOL    HW1 6389   5.779   6.069   3.731
 1830SOL    HW2 6390   5.662   6.028   3.838
 1831SOL     OW 6391   5.090   0.747   3.263
 1831SOL    HW1 6392   5.118   0.726   3.357
 1831SOL    HW2 6393   5.006   0.802   3.265
 1832SOL     OW 6394   5.121   2.969   0.517
 1832SOL    HW1 6395   5.037   3.007   0.555
 1832SOL    HW2 6396   5.143   2.884   0.564
 1833SOL     OW 6397   6.108   1.913   5.415
 1833SOL    HW1 6398   6.113   1.982   5.486
 1833SOL    HW2 6399   6.074   1.954   5.330
 1834SOL     OW 6400   2.920   3.584   0.732
 1834SOL    HW1 6401   2.862   3.649   0.782
 1834SOL    HW2 6402   2.871   3.498   0.721
 1835SOL     OW 6403   1.110   4.489   0.116
 1835SOL    HW1 6404   1.047   4.447   0.051
 1835SOL    HW2 6405   1.062   4.559   0.169
 1836SOL     OW 6406   0.471   5.969   0.463
 1836SOL    HW1 6407   0.379   5.980   0.425
 1836SOL    HW2 6408   0.479   6.020   0.548
 1837SOL     OW 6409   1.193   2.453   4.689
 1837SOL    HW1 6410   1.107   2.504   4.684
 1837SOL    HW2 6411   1.263   2.509   4.734
 1838SOL     OW 6412   0.530   2.596   3.818
 1838SOL    HW1 6413   0.620   2.634   3.839
 1838SOL    HW2 6414   0.467   2.617   3.893
 1839SOL     OW 6415   0.224   2.038   6.055
 1839SOL    HW1 6416   0.233   1.962   5.991
 1839SOL    HW2 6417   0.312   2.083   6.065
 1840SOL     OW 6418   1.727   5.097   0.355
 1840SOL    HW1 6419   1.722   5.095   0.455
 1840SOL    HW2 6420   1.778   5.018   0.323
 1841SOL     OW 6421   1.794   3.062   2.991
 1841SOL    HW1 6422   1.848   3.001   3.050
 1841SOL    HW2 6423   1.714   3.014   2.957
 1842SOL     OW 6424   0.810   4.859   6.967
 1842SOL    HW1 6425   0.892   4.807   6.994
 1842SOL    HW2 6426   0.819   4.953   6.998
 1843SOL     OW 6427   3.570   2.072   5.047
 1843SOL    HW1 6428   3.573   2.098   5.144
 1843SOL    HW2 6429   3.483   2.026   5.027
 1844SOL     OW 6430   5.170   3.748   3.637
 1844SOL    HW1 6431   5.178   3.818   3.708
 1844SOL    HW2 6432   5.212   3.663   3.670
 1845SOL     OW 6433   4.221   0.251   0.507
 1845SOL    HW1 6434   4.187   0.222   0.597
 1845SOL    HW2 6435   4.153   0.312   0.465
 1846SOL     OW 6436   3.273   0.917   5.356
 1846SOL    HW1 6437   3.339   0.992   5.366
 1846SOL    HW2 6438   3.234   0.895   5.445
 1847SOL     OW 6439   1.899   6.977   0.357
 1847SOL    HW1 6440   1.807   6.995   0.323
 1847SOL    HW2 6441   1.895   6.926   0.442
 1848SOL     OW 6442   3.111   6.819   2.318
 1848SOL    HW1 6443   3.108   6.788   2.413
 1848SOL    HW2 6444   3.041   6.890   2.305
 1849SOL     OW 6445   2.829   1.432   6.245
 1849SOL    HW1 6446   2.910   1.467   6.197
 1849SOL    HW2 6447   2.830   1.332   6.244
 1850SOL     OW 6448   5.597   1.385   1.882
 1850SOL    HW1 6449   5.620   1.289   1.867
 1850SOL    HW2 6450   5.673   1.431   1.927
 1851SOL     OW 6451   6.445   3.407   3.384
 1851SOL    HW1 6452   6.429   3.310   3.399
 1851SOL    HW2 6453   6.448   3.454   3.472
 1852SOL     OW 6454   5.573   3.201   6.787
 1852SOL    HW1 6455   5.618   3.239   6.706
 1852SOL    HW2 6456   5.602   3.251   6.868
 1853SOL     OW 6457   1.647   4.383   0.489
 1853SOL    HW1 6458   1.557   4.390   0.448
 1853SOL    HW2 6459   1.715   4.424   0.429
 1854SOL     OW 6460   3.094   5.212   3.856
 1854SOL    HW1 6461   3.155   5.134   3.843
 1854SOL    HW2 6462   3.090   5.237   3.952
 1855SOL     OW 6463   5.608   4.466   1.717
 1855SOL    HW1 6464   5.551   4.442   1.795
 1855SOL    HW2 6465   5.552   4.466   1.634
 1856SOL     OW 6466   4.833   3.200   6.151
 1856SOL    HW1 6467   4.889   3.235   6.226
 1856SOL    HW2 6468   4.849   3.102   6.140
 1857SOL     OW 6469   4.863   1.356   3.789
 1857SOL    HW1 6470   4.962   1.370   3.781
 1857SOL    HW2 6471   4.820   1.371   3.700
 1858SOL     OW 6472   5.282   3.790   3.369
 1858SOL    HW1 6473   5.247   3.873   3.325
 1858SOL    HW2 6474   5.236   3.777   3.457
 1859SOL     OW 6475   5.127   1.415   3.690
 1859SOL    HW1 6476   5.160   1.438   3.781
 1859SOL    HW2 6477   5.124   1.316   3.679
 1860SOL     OW 6478   4.257   2.014   5.303
 1860SOL    HW1 6479   4.341   1.992   5.354
 1860SOL    HW2 6480   4.258   2.110   5.278
 1861SOL     OW 6481   5.630   6.365   1.816
 1861SOL    HW1 6482   5.573   6.284   1.831
 1861SOL    HW2 6483   5.661   6.400   1.905
 1862SOL     OW 6484   1.478   1.704   0.667
 1862SOL    HW1 6485   1.405   1.667   0.610
 1862SOL    HW2 6486   1.535   1.630   0.700
 1863SOL     OW 6487   2.270   2.460   1.710
 1863SOL    HW1 6488   2.196   2.521   1.680
 1863SOL    HW2 6489   2.347   2.468   1.647
 1864SOL     OW 6490   1.052   6.763   3.801
 1864SOL    HW1 6491   1.125   6.794   3.741
 1864SOL    HW2 6492   1.078   6.780   3.896
 1865SOL     OW 6493   5.287   2.255   6.506
 1865SOL    HW1 6494   5.255   2.174   6.555
 1865SOL    HW2 6495   5.243   2.336   6.544
 1866SOL     OW 6496   5.500   5.421   2.662
 1866SOL    HW1 6497   5.479   5.518   2.646
 1866SOL    HW2 6498   5.588   5.413   2.708
 1867SOL     OW 6499   1.091   4.971   6.515
 1867SOL    HW1 6500   1.118   4.972   6.418
 1867SOL    HW2 6501   1.021   4.901   6.529
 1868SOL     OW 6502   6.098   4.082   5.648
 1868SOL    HW1 6503   6.146   4.166   5.622
 1868SOL    HW2 6504   6.162   4.021   5.695
 1869SOL     OW 6505   5.955   1.234   4.734
 1869SOL    HW1 6506   5.936   1.252   4.831
 1869SOL    HW2 6507   5.944   1.318   4.681
 1870SOL     OW 6508   2.445   4.403   4.421
 1870SOL    HW1 6509   2.491   4.461   4.489
 1870SOL    HW2 6510   2.379   4.343   4.467
 1871SOL     OW 6511   1.343   0.274   0.956
 1871SOL    HW1 6512   1.262   0.215   0.949
 1871SOL    HW2 6513   1.420   0.231   0.908
 1872SOL     OW 6514   2.587   4.584   6.975
 1872SOL    HW1 6515   2.674   4.632   6.970
 1872SOL    HW2 6516   2.535   4.599   6.891
 1873SOL     OW 6517   5.112   0.957   0.495
 1873SOL    HW1 6518   5.155   1.037   0.536
 1873SOL    HW2 6519   5.140   0.949   0.399
 1874SOL     OW 6520   1.273   3.592   2.849
 1874SOL    HW1 6521   1.203   3.614   2.782
 1874SOL    HW2 6522   1.344   3.662   2.847
 1875SOL     OW 6523   1.295   6.956   1.042
 1875SOL    HW1 6524   1.289   6.926   0.947
 1875SOL    HW2 6525   1.348   6.889   1.095
 1876SOL     OW 6526   2.326   6.946   4.519
 1876SOL    HW1 6527   2.324   6.846   4.517
 1876SOL    HW2 6528   2.235   6.981   4.543
 1877SOL     OW 6529   6.967   6.711   3.749
 1877SOL    HW1 6530   0.024   6.664   3.783
 1877SOL    HW2 6531   6.991   6.804   3.721
 1878SOL     OW 6532   5.983   2.170   6.008
 1878SOL    HW1 6533   6.072   2.148   6.046
 1878SOL    HW2 6534   5.913   2.161   6.079
 1879SOL     OW 6535   1.747   4.614   5.613
 1879SOL    HW1 6536   1.671   4.641   5.553
 1879SOL    HW2 6537   1.833   4.651   5.575
 1880SOL     OW 6538   6.068   0.220   5.160
 1880SOL    HW1 6539   6.094   0.123   5.159
 1880SOL    HW2 6540   6.051   0.251   5.067
 1881SOL     OW 6541   0.170   2.578   6.832
 1881SOL    HW1 6542   0.193   2.577   6.734
 1881SOL    HW2 6543   0.143   2.671   6.859
 1882SOL     OW 6544   1.162   6.191   6.450
 1882SOL    HW1 6545   1.072   6.224   6.423
 1882SOL    HW2 6546   1.225   6.268   6.459
 1883SOL     OW 6547   0.210   2.236   4.037
 1883SOL    HW1 6548   0.155   2.270   4.113
 1883SOL    HW2 6549   0.172   2.149   4.005
 1884SOL     OW 6550   0.429   2.887   0.974
 1884SOL    HW1 6551   0.390   2.945   1.045
 1884SOL    HW2 6552   0.434   2.793   1.006
 1885SOL     OW 6553   1.873   1.295   4.342
 1885SOL    HW1 6554   1.891   1.393   4.354
 1885SOL    HW2 6555   1.776   1.281   4.322
 1886SOL     OW 6556   0.876   6.597   3.150
 1886SOL    HW1 6557   0.821   6.515   3.163
 1886SOL    HW2 6558   0.838   6.672   3.203
 1887SOL     OW 6559   2.733   6.361   5.942
 1887SOL    HW1 6560   2.738   6.325   5.848
 1887SOL    HW2 6561   2.702   6.289   6.003
 1888SOL     OW 6562   2.876   1.210   2.970
 1888SOL    HW1 6563   2.828   1.291   3.003
 1888SOL    HW2 6564   2.958   1.239   2.920
 1889SOL     OW 6565   0.723   3.126   2.704
 1889SOL    HW1 6566   0.627   3.146   2.684
 1889SOL    HW2 6567   0.734   3.112   2.802
 1890SOL     OW 6568   0.797   5.879   4.711
 1890SOL    HW1 6569   0.791   5.796   4.767
 1890SOL    HW2 6570   0.883   5.878   4.659
 1891SOL     OW 6571   3.082   3.088   3.531
 1891SOL    HW1 6572   3.014   3.015   3.519
 1891SOL    HW2 6573   3.122   3.111   3.442
 1892SOL     OW 6574   1.005   0.602   2.534
 1892SOL    HW1 6575   1.087   0.560   2.496
 1892SOL    HW2 6576   1.013   0.702   2.531
 1893SOL     OW 6577   3.864   3.557   4.154
 1893SOL    HW1 6578   3.871   3.617   4.234
 1893SOL    HW2 6579   3.936   3.579   4.089
 1894SOL     OW 6580   3.150   3.279   4.380
 1894SOL    HW1 6581   3.158   3.180   4.391
 1894SOL    HW2 6582   3.054   3.306   4.389
 1895SOL     OW 6583   1.727   6.295   0.421
 1895SOL    HW1 6584   1.824   6.272   0.429
 1895SOL    HW2 6585   1.679   6.221   0.374
 1896SOL     OW 6586   5.475   2.755   1.293
 1896SOL    HW1 6587   5.542   2.743   1.220
 1896SOL    HW2 6588   5.422   2.838   1.276
 1897SOL     OW 6589   1.503   4.499   4.616
 1897SOL    HW1 6590   1.447   4.431   4.664
 1897SOL    HW2 6591   1.589   4.513   4.665
 1898SOL     OW 6592   1.683   6.437   3.106
 1898SOL    HW1 6593   1.703   6.351   3.059
 1898SOL    HW2 6594   1.716   6.432   3.201
 1899SOL     OW 6595   6.951   0.768   2.232
 1899SOL    HW1 6596   6.894   0.846   2.258
 1899SOL    HW2 6597   7.002   0.736   2.312
 1900SOL     OW 6598   2.506   6.500   6.881
 1900SOL    HW1 6599   2.423   6.484   6.934
 1900SOL    HW2 6600   2.584   6.511   6.943
 1901SOL     OW 6601   2.721   3.846   1.703
 1901SOL    HW1 6602   2.730   3.868   1.606
 1901SOL    HW2 6603   2.810   3.855   1.747
 1902SOL     OW 6604   1.324   0.372   4.519
 1902SOL    HW1 6605   1.315   0.274   4.532
 1902SOL    HW2 6606   1.281   0.420   4.596
 1903SOL     OW 6607   1.267   2.518   4.068
 1903SOL    HW1 6608   1.228   2.448   4.008
 1903SOL    HW2 6609   1.299   2.595   4.013
 1904SOL     OW 6610   6.054   5.752   1.513
 1904SOL    HW1 6611   6.019   5.815   1.581
 1904SOL    HW2 6612   6.138   5.790   1.472
 1905SOL     OW 6613   1.082   2.005   3.899
 1905SOL    HW1 6614   0.998   2.059   3.889
 1905SOL    HW2 6615   1.116   1.980   3.808
 1906SOL     OW 6616   1.602   0.022   4.584
 1906SOL    HW1 6617   1.552   6.965   4.614
 1906SOL    HW2 6618   1.564   0.103   4.628
 1907SOL     OW 6619   4.874   2.756   0.401
 1907SOL    HW1 6620   4.899   2.820   0.328
 1907SOL    HW2 6621   4.886   2.801   0.490
 1908SOL     OW 6622   3.430   1.184   1.218
 1908SOL    HW1 6623   3.431   1.229   1.307
 1908SOL    HW2 6624   3.454   1.088   1.229
 1909SOL     OW 6625   6.451   4.829   4.814
 1909SOL    HW1 6626   6.400   4.890   4.876
 1909SOL    HW2 6627   6.404   4.741   4.808
 1910SOL     OW 6628   0.570   5.944   5.817
 1910SOL    HW1 6629   0.605   6.037   5.825
 1910SOL    HW2 6630   0.647   5.879   5.816
 1911SOL     OW 6631   6.090   6.043   4.409
 1911SOL    HW1 6632   6.027   6.119   4.393
 1911SOL    HW2 6633   6.050   5.979   4.475
 1912SOL     OW 6634   3.501   4.978   1.988
 1912SOL    HW1 6635   3.413   4.965   2.035
 1912SOL    HW2 6636   3.521   4.897   1.933
 1913SOL     OW 6637   3.701   4.248   6.635
 1913SOL    HW1 6638   3.724   4.176   6.700
 1913SOL    HW2 6639   3.762   4.327   6.651
 1914SOL     OW 6640   3.432   4.367   6.944
 1914SOL    HW1 6641   3.485   4.343   0.002
 1914SOL    HW2 6642   3.404   4.283   6.897
 1915SOL     OW 6643   3.466   2.810   6.547
 1915SOL    HW1 6644   3.385   2.785   6.496
 1915SOL    HW2 6645   3.465   2.765   6.636
 1916SOL     OW 6646   4.095   1.033   2.426
 1916SOL    HW1 6647   4.163   1.078   2.369
 1916SOL    HW2 6648   4.020   1.000   2.369
 1917SOL     OW 6649   1.867   3.990   1.230
 1917SOL    HW1 6650   1.907   4.021   1.144
 1917SOL    HW2 6651   1.935   3.940   1.283
 1918SOL     OW 6652   5.733   2.518   4.064
 1918SOL    HW1 6653   5.818   2.491   4.018
 1918SOL    HW2 6654   5.687   2.436   4.098
 1919SOL     OW 6655   0.010   2.767   6.107
 1919SOL    HW1 6656   7.019   2.864   6.124
 1919SOL    HW2 6657   6.964   2.713   6.154
 1920SOL     OW 6658   5.246   3.228   1.017
 1920SOL    HW1 6659   5.207   3.188   1.100
 1920SOL    HW2 6660   5.174   3.275   0.965
 1921SOL     OW 6661   2.645   2.051   6.724
 1921SOL    HW1 6662   2.602   2.091   6.805
 1921SOL    HW2 6663   2.697   1.970   6.751
 1922SOL     OW 6664   3.213   2.985   3.136
 1922SOL    HW1 6665   3.302   2.945   3.156
 1922SOL    HW2 6666   3.197   3.064   3.195
 1923SOL     OW 6667   3.783   0.794   4.391
 1923SOL    HW1 6668   3.774   0.797   4.292
 1923SOL    HW2 6669   3.694   0.773   4.432
 1924SOL     OW 6670   4.902   1.231   0.639
 1924SOL    HW1 6671   4.847   1.204   0.559
 1924SOL    HW2 6672   4.858   1.199   0.722
 1925SOL     OW 6673   1.203   3.622   1.287
 1925SOL    HW1 6674   1.283   3.564   1.300
 1925SOL    HW2 6675   1.232   3.712   1.254
 1926SOL     OW 6676   4.040   0.426   2.204
 1926SOL    HW1 6677   4.076   0.352   2.147
 1926SOL    HW2 6678   4.030   0.394   2.298
 1927SOL     OW 6679   2.097   5.259   1.008
 1927SOL    HW1 6680   2.109   5.249   0.909
 1927SOL    HW2 6681   2.019   5.318   1.027
 1928SOL     OW 6682   6.062   4.542   2.681
 1928SOL    HW1 6683   6.133   4.473   2.668
 1928SOL    HW2 6684   6.086   4.601   2.758
 1929SOL     OW 6685   3.323   6.872   3.446
 1929SOL    HW1 6686   3.368   6.808   3.508
 1929SOL    HW2 6687   3.269   6.937   3.500
 1930SOL     OW 6688   3.881   3.194   0.362
 1930SOL    HW1 6689   3.917   3.278   0.402
 1930SOL    HW2 6690   3.956   3.140   0.324
 1931SOL     OW 6691   0.113   2.014   3.909
 1931SOL    HW1 6692   0.037   2.009   3.843
 1931SOL    HW2 6693   0.186   1.952   3.880
 1932SOL     OW 6694   4.812   1.988   2.401
 1932SOL    HW1 6695   4.745   1.920   2.372
 1932SOL    HW2 6696   4.890   1.987   2.340
 1933SOL     OW 6697   1.201   0.968   0.989
 1933SOL    HW1 6698   1.191   0.885   1.043
 1933SOL    HW2 6699   1.270   1.027   1.032
 1934SOL     OW 6700   6.888   0.822   6.709
 1934SOL    HW1 6701   6.899   0.920   6.693
 1934SOL    HW2 6702   6.863   0.777   6.623
 1935SOL     OW 6703   5.938   4.994   3.804
 1935SOL    HW1 6704   5.939   4.906   3.757
 1935SOL    HW2 6705   5.889   5.061   3.749
 1936SOL     OW 6706   4.618   3.304   6.033
 1936SOL    HW1 6707   4.539   3.266   6.081
 1936SOL    HW2 6708   4.701   3.257   6.064
 1937SOL     OW 6709   6.150   4.984   6.906
 1937SOL    HW1 6710   6.231   4.991   6.847
 1937SOL    HW2 6711   6.070   4.965   6.850
 1938SOL     OW 6712   6.586   3.187   0.206
 1938SOL    HW1 6713   6.592   3.266   0.268
 1938SOL    HW2 6714   6.636   3.110   0.246
 1939SOL     OW 6715   0.674   0.621   4.401
 1939SOL    HW1 6716   0.601   0.670   4.449
 1939SOL    HW2 6717   0.652   0.524   4.395
 1940SOL     OW 6718   0.260   5.045   0.572
 1940SOL    HW1 6719   0.218   5.037   0.663
 1940SOL    HW2 6720   0.359   5.052   0.581
 1941SOL     OW 6721   5.310   1.788   4.595
 1941SOL    HW1 6722   5.270   1.862   4.649
 1941SOL    HW2 6723   5.256   1.774   4.512
 1942SOL     OW 6724   0.381   4.570   1.772
 1942SOL    HW1 6725   0.447   4.590   1.700
 1942SOL    HW2 6726   0.418   4.499   1.831
 1943SOL     OW 6727   0.894   2.889   3.348
 1943SOL    HW1 6728   0.966   2.850   3.292
 1943SOL    HW2 6729   0.922   2.888   3.444
 1944SOL     OW 6730   0.534   3.213   3.676
 1944SOL    HW1 6731   0.580   3.286   3.625
 1944SOL    HW2 6732   0.518   3.244   3.770
 1945SOL     OW 6733   5.046   1.455   2.013
 1945SOL    HW1 6734   5.103   1.380   2.048
 1945SOL    HW2 6735   5.105   1.524   1.972
 1946SOL     OW 6736   6.442   5.938   0.662
 1946SOL    HW1 6737   6.420   5.856   0.610
 1946SOL    HW2 6738   6.419   5.923   0.758
 1947SOL     OW 6739   6.336   5.222   2.854
 1947SOL    HW1 6740   6.368   5.309   2.893
 1947SOL    HW2 6741   6.244   5.234   2.818
 1948SOL     OW 6742   5.141   3.404   3.810
 1948SOL    HW1 6743   5.145   3.316   3.856
 1948SOL    HW2 6744   5.127   3.389   3.712
 1949SOL     OW 6745   3.498   4.205   6.450
 1949SOL    HW1 6746   3.564   4.206   6.526
 1949SOL    HW2 6747   3.500   4.293   6.403
 1950SOL     OW 6748   3.968   3.942   3.275
 1950SOL    HW1 6749   4.017   4.023   3.308
 1950SOL    HW2 6750   3.888   3.972   3.223
 1951SOL     OW 6751   6.155   5.287   5.979
 1951SOL    HW1 6752   6.096   5.208   5.969
 1951SOL    HW2 6753   6.166   5.309   6.076
 1952SOL     OW 6754   5.773   5.021   6.892
 1952SOL    HW1 6755   5.681   5.059   6.892
 1952SOL    HW2 6756   5.840   5.095   6.879
 1953SOL     OW 6757   1.195   1.459   6.994
 1953SOL    HW1 6758   1.228   1.429   6.904
 1953SOL    HW2 6759   1.267   1.511   0.017
 1954SOL     OW 6760   4.095   6.716   1.776
 1954SOL    HW1 6761   4.004   6.735   1.740
 1954SOL    HW2 6762   4.151   6.799   1.772
 1955SOL     OW 6763   0.018   2.725   3.683
 1955SOL    HW1 6764   0.088   2.786   3.645
 1955SOL    HW2 6765   0.051   2.687   3.769
 1956SOL     OW 6766   5.321   1.031   1.552
 1956SOL    HW1 6767   5.358   1.084   1.628
 1956SOL    HW2 6768   5.265   0.956   1.588
 1957SOL     OW 6769   6.548   2.279   4.248
 1957SOL    HW1 6770   6.462   2.295   4.198
 1957SOL    HW2 6771   6.537   2.309   4.342
 1958SOL     OW 6772   3.925   1.502   0.607
 1958SOL    HW1 6773   3.947   1.404   0.607
 1958SOL    HW2 6774   3.934   1.537   0.701
 1959SOL     OW 6775   0.959   2.125   5.171
 1959SOL    HW1 6776   0.989   2.125   5.266
 1959SOL    HW2 6777   0.986   2.040   5.127
 1960SOL     OW 6778   5.840   4.163   3.851
 1960SOL    HW1 6779   5.806   4.102   3.780
 1960SOL    HW2 6780   5.866   4.110   3.932
 1961SOL     OW 6781   0.742   3.696   3.584
 1961SOL    HW1 6782   0.696   3.620   3.539
 1961SOL    HW2 6783   0.814   3.661   3.644
 1962SOL     OW 6784   0.534   0.571   1.991
 1962SOL    HW1 6785   0.503   0.666   1.986
 1962SOL    HW2 6786   0.633   0.568   1.979
 1963SOL     OW 6787   0.889   2.513   6.741
 1963SOL    HW1 6788   0.893   2.504   6.840
 1963SOL    HW2 6789   0.980   2.498   6.702
 1964SOL     OW 6790   5.626   3.705   0.710
 1964SOL    HW1 6791   5.614   3.662   0.799
 1964SOL    HW2 6792   5.621   3.805   0.721
 1965SOL     OW 6793   6.305   4.226   3.651
 1965SOL    HW1 6794   6.336   4.282   3.574
 1965SOL    HW2 6795   6.205   4.227   3.654
 1966SOL     OW 6796   1.018   4.549   6.437
 1966SOL    HW1 6797   0.977   4.633   6.470
 1966SOL    HW2 6798   0.965   4.513   6.360
 1967SOL     OW 6799   6.226   3.203   5.153
 1967SOL    HW1 6800   6.296   3.212   5.224
 1967SOL    HW2 6801   6.267   3.215   5.063
 1968SOL     OW 6802   2.803   0.990   5.816
 1968SOL    HW1 6803   2.722   1.032   5.857
 1968SOL    HW2 6804   2.840   0.921   5.878
 1969SOL     OW 6805   1.538   6.039   0.907
 1969SOL    HW1 6806   1.446   6.049   0.869
 1969SOL    HW2 6807   1.544   5.954   0.960
 1970SOL     OW 6808   5.354   4.843   3.951
 1970SOL    HW1 6809   5.327   4.750   3.977
 1970SOL    HW2 6810   5.374   4.896   4.033
 1971SOL     OW 6811   2.030   4.555   4.835
 1971SOL    HW1 6812   2.035   4.462   4.871
 1971SOL    HW2 6813   2.089   4.562   4.754
 1972SOL     OW 6814   6.148   2.138   2.604
 1972SOL    HW1 6815   6.131   2.218   2.547
 1972SOL    HW2 6816   6.166   2.167   2.698
 1973SOL     OW 6817   3.253   2.322   0.892
 1973SOL    HW1 6818   3.227   2.417   0.873
 1973SOL    HW2 6819   3.252   2.270   0.807
 1974SOL     OW 6820   2.250   6.787   5.113
 1974SOL    HW1 6821   2.325   6.824   5.168
 1974SOL    HW2 6822   2.170   6.846   5.122
 1975SOL     OW 6823   2.170   2.754   2.949
 1975SOL    HW1 6824   2.219   2.789   3.028
 1975SOL    HW2 6825   2.186   2.815   2.871
 1976SOL     OW 6826   1.093   0.906   5.235
 1976SOL    HW1 6827   1.130   0.847   5.164
 1976SOL    HW2 6828   1.149   0.989   5.243
 1977SOL     OW 6829   2.018   3.626   6.425
 1977SOL    HW1 6830   1.983   3.688   6.356
 1977SOL    HW2 6831   1.942   3.578   6.469
 1978SOL     OW 6832   3.120   0.422   2.192
 1978SOL    HW1 6833   3.146   0.345   2.250
 1978SOL    HW2 6834   3.027   0.408   2.157
 1979SOL     OW 6835   5.943   4.421   6.538
 1979SOL    HW1 6836   5.867   4.406   6.475
 1979SOL    HW2 6837   5.981   4.333   6.566
 1980SOL     OW 6838   3.534   0.742   0.919
 1980SOL    HW1 6839   3.618   0.793   0.898
 1980SOL    HW2 6840   3.538   0.708   1.013
 1981SOL     OW 6841   3.906   1.873   2.255
 1981SOL    HW1 6842   3.930   1.948   2.194
 1981SOL    HW2 6843   3.830   1.821   2.216
 1982SOL     OW 6844   1.589   2.799   6.045
 1982SOL    HW1 6845   1.510   2.841   5.999
 1982SOL    HW2 6846   1.673   2.844   6.015
 1983SOL     OW 6847   6.602   1.479   1.966
 1983SOL    HW1 6848   6.503   1.493   1.966
 1983SOL    HW2 6849   6.622   1.384   1.990
 1984SOL     OW 6850   4.391   4.020   5.943
 1984SOL    HW1 6851   4.323   4.015   5.871
 1984SOL    HW2 6852   4.480   4.044   5.904
 1985SOL     OW 6853   6.114   4.325   4.251
 1985SOL    HW1 6854   6.105   4.407   4.308
 1985SOL    HW2 6855   6.192   4.271   4.283
 1986SOL     OW 6856   3.253   3.634   2.228
 1986SOL    HW1 6857   3.212   3.548   2.199
 1986SOL    HW2 6858   3.252   3.699   2.152
 1987SOL     OW 6859   2.375   0.572   2.063
 1987SOL    HW1 6860   2.290   0.545   2.110
 1987SOL    HW2 6861   2.354   0.594   1.968
 1988SOL     OW 6862   0.565   1.897   1.941
 1988SOL    HW1 6863   0.535   1.850   2.023
 1988SOL    HW2 6864   0.559   1.836   1.863
 1989SOL     OW 6865   2.865   5.817   5.184
 1989SOL    HW1 6866   2.929   5.797   5.109
 1989SOL    HW2 6867   2.898   5.776   5.269
 1990SOL     OW 6868   3.955   0.632   0.072
 1990SOL    HW1 6869   3.939   0.714   0.127
 1990SOL    HW2 6870   4.054   0.617   0.062
 1991SOL     OW 6871   2.465   5.378   1.325
 1991SOL    HW1 6872   2.396   5.366   1.397
 1991SOL    HW2 6873   2.425   5.353   1.237
 1992SOL     OW 6874   0.643   6.586   2.558
 1992SOL    HW1 6875   0.606   6.630   2.640
 1992SOL    HW2 6876   0.738   6.613   2.544
 1993SOL     OW 6877   1.998   1.695   3.094
 1993SOL    HW1 6878   2.030   1.660   3.006
 1993SOL    HW2 6879   2.036   1.639   3.168
 1994SOL     OW 6880   3.980   3.008   0.947
 1994SOL    HW1 6881   3.988   2.910   0.967
 1994SOL    HW2 6882   4.064   3.040   0.904
 1995SOL     OW 6883   5.832   1.816   4.197
 1995SOL    HW1 6884   5.928   1.816   4.223
 1995SOL    HW2 6885   5.821   1.865   4.110
 1996SOL     OW 6886   4.884   0.854   0.658
 1996SOL    HW1 6887   4.863   0.908   0.739
 1996SOL    HW2 6888   4.960   0.897   0.608
 1997SOL     OW 6889   3.538   1.172   3.457
 1997SOL    HW1 6890   3.614   1.126   3.504
 1997SOL    HW2 6891   3.453   1.123   3.476
 1998SOL     OW 6892   2.665   3.805   1.290
 1998SOL    HW1 6893   2.570   3.836   1.284
 1998SOL    HW2 6894   2.723   3.881   1.320
 1999SOL     OW 6895   0.391   6.935   6.641
 1999SOL    HW1 6896   0.450   7.010   6.611
 1999SOL    HW2 6897   0.322   6.970   6.705
 2000SOL     OW 6898   4.323   4.520   6.085
 2000SOL    HW1 6899   4.303   4.443   6.146
 2000SOL    HW2 6900   4.309   4.491   5.990
 2001SOL     OW 6901   1.492   2.407   1.140
 2001SOL    HW1 6902   1.542   2.488   1.172
 2001SOL    HW2 6903   1.537   2.325   1.175
 2002SOL     OW 6904   6.626   5.453   0.994
 2002SOL    HW1 6905   6.594   5.391   1.065
 2002SOL    HW2 6906   6.548   5.502   0.954
 2003SOL     OW 6907   5.537   5.411   1.932
 2003SOL    HW1 6908   5.569   5.398   1.838
 2003SOL    HW2 6909   5.478   5.334   1.958
 2004SOL     OW 6910   3.656   6.758   2.914
 2004SOL    HW1 6911   3.684   6.662   2.919
 2004SOL    HW2 6912   3.566   6.765   2.871
 2005SOL     OW 6913   1.257   6.539   0.461
 2005SOL    HW1 6914   1.210   6.475   0.521
 2005SOL    HW2 6915   1.349   6.505   0.442
 2006SOL     OW 6916   5.426   6.654   2.410
 2006SOL    HW1 6917   5.489   6.583   2.378
 2006SOL    HW2 6918   5.376   6.692   2.333
 2007SOL     OW 6919   5.925   5.157   5.984
 2007SOL    HW1 6920   5.847   5.171   6.046
 2007SOL    HW2 6921   5.910   5.074   5.930
 2008SOL     OW 6922   2.079   3.517   2.946
 2008SOL    HW1 6923   2.073   3.424   2.909
 2008SOL    HW2 6924   2.096   3.582   2.872
 2009SOL     OW 6925   6.263   0.071   2.576
 2009SOL    HW1 6926   6.243   0.102   2.670
 2009SOL    HW2 6927   6.306   7.005   2.579
 2010SOL     OW 6928   6.661   1.983   2.056
 2010SOL    HW1 6929   6.653   2.065   2.112
 2010SOL    HW2 6930   6.701   2.007   1.967
 2011SOL     OW 6931   0.910   6.989   4.920
 2011SOL    HW1 6932   0.844   7.009   4.847
 2011SOL    HW2 6933   0.905   0.037   4.990
 2012SOL     OW 6934   0.414   3.061   0.764
 2012SOL    HW1 6935   0.507   3.098   0.765
 2012SOL    HW2 6936   0.401   3.003   0.844
 2013SOL     OW 6937   0.176   2.650   1.994
 2013SOL    HW1 6938   0.147   2.561   1.957
 2013SOL    HW2 6939   0.138   2.723   1.937
 2014SOL     OW 6940   3.948   1.285   4.219
 2014SOL    HW1 6941   3.952   1.269   4.120
 2014SOL    HW2 6942   3.891   1.215   4.262
 2015SOL     OW 6943   4.186   6.607   2.031
 2015SOL    HW1 6944   4.159   6.633   1.938
 2015SOL    HW2 6945   4.216   6.511   2.031
 2016SOL     OW 6946   2.258   0.765   4.423
 2016SOL    HW1 6947   2.318   0.740   4.498
 2016SOL    HW2 6948   2.224   0.858   4.437
 2017SOL     OW 6949   3.124   6.109   3.621
 2017SOL    HW1 6950   3.204   6.081   3.675
 2017SOL    HW2 6951   3.152   6.175   3.552
 2018SOL     OW 6952   0.785   0.631   4.096
 2018SOL    HW1 6953   0.731   0.623   4.012
 2018SOL    HW2 6954   0.724   0.649   4.173
 2019SOL     OW 6955   5.854   5.387   6.548
 2019SOL    HW1 6956   5.862   5.437   6.635
 2019SOL    HW2 6957   5.813   5.446   6.479
 2020SOL     OW 6958   1.876   6.726   0.500
 2020SOL    HW1 6959   1.841   6.642   0.540
 2020SOL    HW2 6960   1.954   6.705   0.441
 2021SOL     OW 6961   0.062   5.803   4.930
 2021SOL    HW1 6962   0.106   5.795   5.020
 2021SOL    HW2 6963   0.132   5.811   4.859
 2022SOL     OW 6964   1.978   3.311   4.281
 2022SOL    HW1 6965   2.057   3.265   4.239
 2022SOL    HW2 6966   1.959   3.269   4.370
 2023SOL     OW 6967   6.788   5.957   6.246
 2023SOL    HW1 6968   6.774   5.995   6.155
 2023SOL    HW2 6969   6.835   6.023   6.304
 2024SOL     OW 6970   0.407   5.852   3.816
 2024SOL    HW1 6971   0.464   5.800   3.880
 2024SOL    HW2 6972   0.318   5.809   3.809
 2025SOL     OW 6973   1.943   6.019   4.445
 2025SOL    HW1 6974   1.878   6.088   4.415
 2025SOL    HW2 6975   2.005   5.996   4.370
 2026SOL     OW 6976   0.354   0.515   5.912
 2026SOL    HW1 6977   0.368   0.549   6.005
 2026SOL    HW2 6978   0.265   0.471   5.906
 2027SOL     OW 6979   6.860   6.132   2.054
 2027SOL    HW1 6980   6.765   6.105   2.072
 2027SOL    HW2 6981   6.880   6.217   2.102
 2028SOL     OW 6982   3.122   5.404   4.729
 2028SOL    HW1 6983   3.207   5.395   4.678
 2028SOL    HW2 6984   3.136   5.463   4.809
 2029SOL     OW 6985   6.423   2.915   6.557
 2029SOL    HW1 6986   6.337   2.956   6.525
 2029SOL    HW2 6987   6.449   2.956   6.645
 2030SOL     OW 6988   2.113   6.630   2.443
 2030SOL    HW1 6989   2.086   6.726   2.444
 2030SOL    HW2 6990   2.200   6.619   2.489
 2031SOL     OW 6991   0.611   6.178   4.972
 2031SOL    HW1 6992   0.645   6.155   5.063
 2031SOL    HW2 6993   0.636   6.106   4.908
 2032SOL     OW 6994   2.225   2.795   5.878
 2032SOL    HW1 6995   2.149   2.838   5.829
 2032SOL    HW2 6996   2.258   2.716   5.826
 2033SOL     OW 6997   2.028   1.233   0.707
 2033SOL    HW1 6998   2.057   1.314   0.657
 2033SOL    HW2 6999   2.092   1.214   0.781
 2034SOL     OW 7000   0.866   4.322   5.226
 2034SOL    HW1 7001   0.806   4.353   5.299
 2034SOL    HW2 7002   0.896   4.228   5.245
 2035SOL     OW 7003   5.542   5.935   3.108
 2035SOL    HW1 7004   5.525   6.003   3.180
 2035SOL    HW2 7005   5.459   5.882   3.092
 2036SOL     OW 7006   0.351   4.393   6.304
 2036SOL    HW1 7007   0.320   4.380   6.398
 2036SOL    HW2 7008   0.283   4.353   6.241
 2037SOL     OW 7009   1.263   2.561   6.844
 2037SOL    HW1 7010   1.242   2.659   6.854
 2037SOL    HW2 7011   1.312   2.530   6.925
 2038SOL     OW 7012   0.684   1.418   5.541
 2038SOL    HW1 7013   0.685   1.517   5.531
 2038SOL    HW2 7014   0.755   1.390   5.604
 2039SOL     OW 7015   5.115   6.121   3.279
 2039SOL    HW1 7016   5.021   6.122   3.311
 2039SOL    HW2 7017   5.126   6.055   3.205
 2040SOL     OW 7018   2.650   2.118   6.999
 2040SOL    HW1 7019   2.748   2.103   7.012
 2040SOL    HW2 7020   2.607   2.141   0.062
 2041SOL     OW 7021   2.951   6.605   6.725
 2041SOL    HW1 7022   2.945   6.623   6.627
 2041SOL    HW2 7023   3.031   6.548   6.743
 2042SOL     OW 7024   5.926   0.428   5.866
 2042SOL    HW1 7025   5.905   0.495   5.795
 2042SOL    HW2 7026   5.841   0.394   5.906
 2043SOL     OW 7027   0.681   4.214   0.450
 2043SOL    HW1 7028   0.588   4.220   0.414
 2043SOL    HW2 7029   0.695   4.125   0.494
 2044SOL     OW 7030   4.220   0.329   1.801
 2044SOL    HW1 7031   4.281   0.288   1.868
 2044SOL    HW2 7032   4.195   0.422   1.830
 2045SOL     OW 7033   2.011   5.978   4.028
 2045SOL    HW1 7034   2.025   6.072   4.060
 2045SOL    HW2 7035   2.064   5.915   4.085
 2046SOL     OW 7036   0.870   3.161   6.106
 2046SOL    HW1 7037   0.897   3.246   6.152
 2046SOL    HW2 7038   0.947   3.097   6.107
 2047SOL     OW 7039   6.855   0.158   1.230
 2047SOL    HW1 7040   6.799   0.237   1.205
 2047SOL    HW2 7041   6.910   0.181   1.311
 2048SOL     OW 7042   2.136   1.222   4.220
 2048SOL    HW1 7043   2.227   1.263   4.223
 2048SOL    HW2 7044   2.073   1.275   4.277
 2049SOL     OW 7045   4.635   2.841   5.050
 2049SOL    HW1 7046   4.540   2.852   5.078
 2049SOL    HW2 7047   4.684   2.927   5.065
 2050SOL     OW 7048   0.499   1.074   3.594
 2050SOL    HW1 7049   0.502   1.070   3.694
 2050SOL    HW2 7050   0.590   1.096   3.559
 2051SOL     OW 7051   3.168   6.095   0.761
 2051SOL    HW1 7052   3.145   6.018   0.821
 2051SOL    HW2 7053   3.181   6.063   0.668
 2052SOL     OW 7054   1.007   3.843   0.777
 2052SOL    HW1 7055   1.075   3.873   0.711
 2052SOL    HW2 7056   1.032   3.753   0.813
 2053SOL     OW 7057   6.290   4.798   2.777
 2053SOL    HW1 7058   6.322   4.716   2.729
 2053SOL    HW2 7059   6.368   4.845   2.818
 2054SOL     OW 7060   3.014   3.912   3.023
 2054SOL    HW1 7061   2.964   3.966   2.955
 2054SOL    HW2 7062   3.083   3.856   2.977
 2055SOL     OW 7063   4.551   2.703   5.728
 2055SOL    HW1 7064   4.478   2.635   5.724
 2055SOL    HW2 7065   4.511   2.794   5.745
 2056SOL     OW 7066   3.110   5.114   1.575
 2056SOL    HW1 7067   3.142   5.184   1.512
 2056SOL    HW2 7068   3.184   5.051   1.596
 2057SOL     OW 7069   5.846   3.273   4.224
 2057SOL    HW1 7070   5.842   3.331   4.306
 2057SOL    HW2 7071   5.869   3.179   4.251
 2058SOL     OW 7072   5.856   6.961   3.561
 2058SOL    HW1 7073   5.778   6.965   3.498
 2058SOL    HW2 7074   5.938   6.998   3.516
 2059SOL     OW 7075   2.134   1.965   5.330
 2059SOL    HW1 7076   2.233   1.983   5.328
 2059SOL    HW2 7077   2.113   1.903   5.405
 2060SOL     OW 7078   2.156   2.290   6.359
 2060SOL    HW1 7079   2.112   2.271   6.447
 2060SOL    HW2 7080   2.233   2.228   6.346
 2061SOL     OW 7081   1.968   2.047   3.427
 2061SOL    HW1 7082   1.904   2.028   3.502
 2061SOL    HW2 7083   2.061   2.027   3.456
 2062SOL     OW 7084   6.044   4.853   4.594
 2062SOL    HW1 7085   5.962   4.824   4.544
 2062SOL    HW2 7086   6.082   4.935   4.550
 2063SOL     OW 7087   1.344   2.196   3.958
 2063SOL    HW1 7088   1.305   2.164   4.045
 2063SOL    HW2 7089   1.270   2.232   3.901
 2064SOL     OW 7090   0.860   3.729   4.305
 2064SOL    HW1 7091   0.812   3.643   4.319
 2064SOL    HW2 7092   0.848   3.759   4.210
 2065SOL     OW 7093   4.005   3.612   5.993
 2065SOL    HW1 7094   4.007   3.531   5.934
 2065SOL    HW2 7095   3.913   3.650   5.995
 2066SOL     OW 7096   1.383   3.111   5.048
 2066SOL    HW1 7097   1.323   3.037   5.017
 2066SOL    HW2 7098   1.327   3.187   5.081
 2067SOL     OW 7099   6.273   4.449   2.031
 2067SOL    HW1 7100   6.356   4.436   1.977
 2067SOL    HW2 7101   6.292   4.513   2.106
 2068SOL     OW 7102   4.353   6.452   4.365
 2068SOL    HW1 7103   4.420   6.518   4.398
 2068SOL    HW2 7104   4.384   6.414   4.277
 2069SOL     OW 7105   6.690   1.035   3.767
 2069SOL    HW1 7106   6.755   1.107   3.790
 2069SOL    HW2 7107   6.604   1.050   3.816
 2070SOL     OW 7108   1.459   5.084   1.320
 2070SOL    HW1 7109   1.400   5.125   1.250
 2070SOL    HW2 7110   1.505   5.003   1.282
 2071SOL     OW 7111   0.126   2.501   4.843
 2071SOL    HW1 7112   0.155   2.418   4.795
 2071SOL    HW2 7113   0.026   2.504   4.846
 2072SOL     OW 7114   5.570   4.131   5.344
 2072SOL    HW1 7115   5.487   4.132   5.399
 2072SOL    HW2 7116   5.556   4.075   5.263
 2073SOL     OW 7117   3.579   5.431   6.531
 2073SOL    HW1 7118   3.511   5.504   6.543
 2073SOL    HW2 7119   3.534   5.351   6.492
 2074SOL     OW 7120   2.450   4.576   5.831
 2074SOL    HW1 7121   2.522   4.632   5.789
 2074SOL    HW2 7122   2.492   4.497   5.876
 2075SOL     OW 7123   5.509   2.495   1.756
 2075SOL    HW1 7124   5.482   2.408   1.714
 2075SOL    HW2 7125   5.428   2.540   1.794
 2076SOL     OW 7126   6.944   6.787   4.693
 2076SOL    HW1 7127   6.987   6.808   4.781
 2076SOL    HW2 7128   7.011   6.799   4.620
 2077SOL     OW 7129   6.310   4.483   0.389
 2077SOL    HW1 7130   6.409   4.474   0.398
 2077SOL    HW2 7131   6.288   4.568   0.342
 2078SOL     OW 7132   1.070   2.664   6.266
 2078SOL    HW1 7133   0.994   2.688   6.326
 2078SOL    HW2 7134   1.155   2.703   6.301
 2079SOL     OW 7135   5.170   1.303   2.955
 2079SOL    HW1 7136   5.075   1.273   2.946
 2079SOL    HW2 7137   5.192   1.316   3.052
 2080SOL     OW 7138   2.436   3.246   6.242
 2080SOL    HW1 7139   2.471   3.252   6.148
 2080SOL    HW2 7140   2.366   3.316   6.256
 2081SOL     OW 7141   6.915   6.355   2.187
 2081SOL    HW1 7142   6.816   6.342   2.197
 2081SOL    HW2 7143   6.943   6.436   2.239
 2082SOL     OW 7144   0.031   5.674   4.071
 2082SOL    HW1 7145   0.045   5.602   4.003
 2082SOL    HW2 7146   0.016   5.761   4.024
 2083SOL     OW 7147   0.479   6.022   4.165
 2083SOL    HW1 7148   0.456   6.088   4.094
 2083SOL    HW2 7149   0.564   6.050   4.211
 2084SOL     OW 7150   6.914   2.251   1.045
 2084SOL    HW1 7151   6.938   2.323   0.980
 2084SOL    HW2 7152   6.979   2.252   1.122
 2085SOL     OW 7153   6.537   5.965   0.342
 2085SOL    HW1 7154   6.467   5.947   0.272
 2085SOL    HW2 7155   6.542   6.063   0.359
 2086SOL     OW 7156   5.458   0.239   6.917
 2086SOL    HW1 7157   5.377   0.268   6.866
 2086SOL    HW2 7158   5.512   0.177   6.861
 2087SOL     OW 7159   4.155   1.843   6.782
 2087SOL    HW1 7160   4.184   1.910   6.850
 2087SOL    HW2 7161   4.120   1.762   6.830
 2088SOL     OW 7162   6.871   4.508   5.967
 2088SOL    HW1 7163   6.864   4.433   5.902
 2088SOL    HW2 7164   6.782   4.526   6.008
 2089SOL     OW 7165   2.710   4.203   6.047
 2089SOL    HW1 7166   2.806   4.174   6.048
 2089SOL    HW2 7167   2.653   4.132   6.087
 2090SOL     OW 7168   5.237   3.056   0.282
 2090SOL    HW1 7169   5.333   3.031   0.276
 2090SOL    HW2 7170   5.198   3.022   0.368
 2091SOL     OW 7171   5.240   6.410   0.622
 2091SOL    HW1 7172   5.170   6.478   0.603
 2091SOL    HW2 7173   5.202   6.318   0.608
 2092SOL     OW 7174   3.586   3.481   2.097
 2092SOL    HW1 7175   3.518   3.417   2.133
 2092SOL    HW2 7176   3.664   3.486   2.161
 2093SOL     OW 7177   4.299   0.569   1.245
 2093SOL    HW1 7178   4.373   0.503   1.228
 2093SOL    HW2 7179   4.268   0.560   1.339
 2094SOL     OW 7180   5.293   2.321   0.506
 2094SOL    HW1 7181   5.361   2.339   0.577
 2094SOL    HW2 7182   5.245   2.236   0.527
 2095SOL     OW 7183   5.105   5.409   4.486
 2095SOL    HW1 7184   5.161   5.442   4.411
 2095SOL    HW2 7185   5.100   5.309   4.483
 2096SOL     OW 7186   4.009   6.992   2.599
 2096SOL    HW1 7187   4.101   6.991   2.639
 2096SOL    HW2 7188   3.956   0.043   2.639
 2097SOL     OW 7189   0.804   5.844   5.925
 2097SOL    HW1 7190   0.785   5.760   5.874
 2097SOL    HW2 7191   0.785   5.828   6.022
 2098SOL     OW 7192   2.636   6.790   3.631
 2098SOL    HW1 7193   2.724   6.799   3.585
 2098SOL    HW2 7194   2.584   6.715   3.590
 2099SOL     OW 7195   4.176   1.945   0.225
 2099SOL    HW1 7196   4.204   2.006   0.299
 2099SOL    HW2 7197   4.084   1.910   0.244
 2100SOL     OW 7198   4.507   0.592   7.019
 2100SOL    HW1 7199   4.605   0.571   0.001
 2100SOL    HW2 7200   4.461   0.522   6.965
 2101SOL     OW 7201   1.735   0.049   2.579
 2101SOL    HW1 7202   1.760   6.980   2.608
 2101SOL    HW2 7203   1.780   0.070   2.492
 2102SOL     OW 7204   4.098   2.470   1.608
 2102SOL    HW1 7205   4.181   2.523   1.625
 2102SOL    HW2 7206   4.098   2.389   1.666
 2103SOL     OW 7207   1.244   6.930   0.773
 2103SOL    HW1 7208   1.307   6.860   0.741
 2103SOL    HW2 7209   1.155   6.920   0.727
 2104SOL     OW 7210   2.162   3.914   2.693
 2104SOL    HW1 7211   2.210   3.859   2.625
 2104SOL    HW2 7212   2.152   4.008   2.660
 2105SOL     OW 7213   5.393   0.258   5.236
 2105SOL    HW1 7214   5.479   0.226   5.195
 2105SOL    HW2 7215   5.316   0.218   5.188
 2106SOL     OW 7216   3.571   2.597   1.486
 2106SOL    HW1 7217   3.529   2.556   1.404
 2106SOL    HW2 7218   3.539   2.548   1.567
 2107SOL     OW 7219   5.139   4.603   4.885
 2107SOL    HW1 7220   5.216   4.595   4.822
 2107SOL    HW2 7221   5.059   4.555   4.846
 2108SOL     OW 7222   4.684   6.955   4.726
 2108SOL    HW1 7223   4.675   6.877   4.787
 2108SOL    HW2 7224   4.759   7.014   4.756
 2109SOL     OW 7225   2.596   6.055   1.853
 2109SOL    HW1 7226   2.639   6.044   1.942
 2109SOL    HW2 7227   2.545   5.971   1.831
 2110SOL     OW 7228   3.221   5.928   0.263
 2110SOL    HW1 7229   3.172   5.842   0.262
 2110SOL    HW2 7230   3.184   5.989   0.193
 2111SOL     OW 7231   1.319   2.339   6.450
 2111SOL    HW1 7232   1.377   2.297   6.381
 2111SOL    HW2 7233   1.320   2.284   6.533
 2112SOL     OW 7234   1.108   0.293   6.603
 2112SOL    HW1 7235   1.037   0.344   6.652
 2112SOL    HW2 7236   1.068   0.210   6.564
 2113SOL     OW 7237   6.234   1.361   5.103
 2113SOL    HW1 7238   6.148   1.407   5.126
 2113SOL    HW2 7239   6.259   1.382   5.009
 2114SOL     OW 7240   2.163   0.745   5.209
 2114SOL    HW1 7241   2.210   0.659   5.191
 2114SOL    HW2 7242   2.069   0.740   5.175
 2115SOL     OW 7243   6.661   6.636   3.099
 2115SOL    HW1 7244   6.638   6.568   3.168
 2115SOL    HW2 7245   6.650   6.728   3.138
 2116SOL     OW 7246   2.317   1.286   6.742
 2116SOL    HW1 7247   2.224   1.250   6.744
 2116SOL    HW2 7248   2.370   1.245   6.816
 2117SOL     OW 7249   6.348   2.212   3.233
 2117SOL    HW1 7250   6.336   2.185   3.137
 2117SOL    HW2 7251   6.291   2.292   3.252
 2118SOL     OW 7252   6.966   2.848   2.668
 2118SOL    HW1 7253   6.935   2.943   2.668
 2118SOL    HW2 7254   0.012   2.836   2.738
 2119SOL     OW 7255   0.580   3.001   0.458
 2119SOL    HW1 7256   0.530   2.921   0.489
 2119SOL    HW2 7257   0.676   2.977   0.442
 2120SOL     OW 7258   5.614   1.970   0.692
 2120SOL    HW1 7259   5.526   2.014   0.709
 2120SOL    HW2 7260   5.611   1.922   0.604
 2121SOL     OW 7261   1.884   6.713   1.407
 2121SOL    HW1 7262   1.944   6.659   1.348
 2121SOL    HW2 7263   1.851   6.655   1.482
 2122SOL     OW 7264   6.457   1.039   4.878
 2122SOL    HW1 7265   6.377   0.983   4.898
 2122SOL    HW2 7266   6.501   1.007   4.794
 2123SOL     OW 7267   0.975   5.220   3.712
 2123SOL    HW1 7268   0.910   5.296   3.708
 2123SOL    HW2 7269   1.014   5.204   3.621
 2124SOL     OW 7270   4.867   3.631   6.189
 2124SOL    HW1 7271   4.767   3.630   6.187
 2124SOL    HW2 7272   4.898   3.725   6.203
 2125SOL     OW 7273   1.242   5.703   4.679
 2125SOL    HW1 7274   1.324   5.669   4.633
 2125SOL    HW2 7275   1.198   5.628   4.728
 2126SOL     OW 7276   3.047   3.581   0.436
 2126SOL    HW1 7277   3.112   3.645   0.395
 2126SOL    HW2 7278   3.031   3.605   0.532
 2127SOL     OW 7279   1.144   3.663   3.999
 2127SOL    HW1 7280   1.244   3.652   4.002
 2127SOL    HW2 7281   1.102   3.581   3.961
 2128SOL     OW 7282   5.407   3.320   2.372
 2128SOL    HW1 7283   5.461   3.247   2.330
 2128SOL    HW2 7284   5.315   3.287   2.390
 2129SOL     OW 7285   5.048   4.477   3.939
 2129SOL    HW1 7286   5.118   4.512   3.876
 2129SOL    HW2 7287   5.092   4.422   4.010
 2130SOL     OW 7288   1.681   0.640   1.660
 2130SOL    HW1 7289   1.603   0.699   1.637
 2130SOL    HW2 7290   1.752   0.695   1.705
 2131SOL     OW 7291   5.733   0.642   6.469
 2131SOL    HW1 7292   5.659   0.695   6.429
 2131SOL    HW2 7293   5.695   0.565   6.521
 2132SOL     OW 7294   2.766   2.560   6.878
 2132SOL    HW1 7295   2.827   2.530   6.805
 2132SOL    HW2 7296   2.688   2.498   6.885
 2133SOL     OW 7297   3.877   1.965   1.267
 2133SOL    HW1 7298   3.941   1.928   1.335
 2133SOL    HW2 7299   3.794   1.909   1.265
 2134SOL     OW 7300   1.768   6.577   5.345
 2134SOL    HW1 7301   1.743   6.488   5.305
 2134SOL    HW2 7302   1.812   6.563   5.433
 2135SOL     OW 7303   0.913   6.211   4.005
 2135SOL    HW1 7304   0.841   6.245   3.945
 2135SOL    HW2 7305   0.875   6.144   4.068
 2136SOL     OW 7306   1.344   5.008   4.318
 2136SOL    HW1 7307   1.396   4.979   4.238
 2136SOL    HW2 7308   1.374   5.099   4.347
 2137SOL     OW 7309   0.205   0.315   4.114
 2137SOL    HW1 7310   0.175   0.256   4.188
 2137SOL    HW2 7311   0.257   0.261   4.048
 2138SOL     OW 7312   1.210   2.337   5.968
 2138SOL    HW1 7313   1.171   2.384   6.047
 2138SOL    HW2 7314   1.310   2.336   5.976
 2139SOL     OW 7315   2.991   6.772   4.140
 2139SOL    HW1 7316   2.915   6.837   4.152
 2139SOL    HW2 7317   2.970   6.687   4.188
 2140SOL     OW 7318   1.153   5.695   3.825
 2140SOL    HW1 7319   1.140   5.613   3.881
 2140SOL    HW2 7320   1.109   5.773   3.870
 2141SOL     OW 7321   6.441   2.132   6.781
 2141SOL    HW1 7322   6.517   2.140   6.846
 2141SOL    HW2 7323   6.429   2.218   6.732
 2142SOL     OW 7324   3.725   1.046   3.592
 2142SOL    HW1 7325   3.819   1.042   3.625
 2142SOL    HW2 7326   3.705   0.964   3.538
 2143SOL     OW 7327   3.505   5.942   0.308
 2143SOL    HW1 7328   3.510   5.969   0.404
 2143SOL    HW2 7329   3.411   5.951   0.276
 2144SOL     OW 7330   1.108   0.844   1.690
 2144SOL    HW1 7331   1.110   0.891   1.778
 2144SOL    HW2 7332   1.027   0.785   1.685
 2145SOL     OW 7333   2.991   5.599   2.695
 2145SOL    HW1 7334   2.946   5.601   2.784
 2145SOL    HW2 7335   2.980   5.688   2.650
 2146SOL     OW 7336   2.742   1.998   0.927
 2146SOL    HW1 7337   2.783   2.041   1.008
 2146SOL    HW2 7338   2.726   2.067   0.857
 2147SOL     OW 7339   0.182   1.042   4.329
 2147SOL    HW1 7340   0.094   1.064   4.371
 2147SOL    HW2 7341   0.251   1.029   4.401
 2148SOL     OW 7342   6.076   3.627   4.605
 2148SOL    HW1 7343   6.095   3.724   4.625
 2148SOL    HW2 7344   6.014   3.591   4.675
 2149SOL     OW 7345   2.814   0.432   3.066
 2149SOL    HW1 7346   2.812   0.405   2.970
 2149SOL    HW2 7347   2.741   0.499   3.083
 2150SOL     OW 7348   4.542   0.034   3.278
 2150SOL    HW1 7349   4.626   7.005   3.271
 2150SOL    HW2 7350   4.557   0.113   3.338
 2151SOL     OW 7351   3.771   4.426   5.748
 2151SOL    HW1 7352   3.779   4.355   5.818
 2151SOL    HW2 7353   3.848   4.421   5.685
 2152SOL     OW 7354   6.565   6.926   2.573
 2152SOL    HW1 7355   6.621   6.908   2.492
 2152SOL    HW2 7356   6.477   6.879   2.565
 2153SOL     OW 7357   4.524   1.746   3.489
 2153SOL    HW1 7358   4.538   1.846   3.489
 2153SOL    HW2 7359   4.564   1.708   3.573
 2154SOL     OW 7360   3.742   6.804   5.305
 2154SOL    HW1 7361   3.665   6.796   5.367
 2154SOL    HW2 7362   3.828   6.800   5.357
 2155SOL     OW 7363   6.219   3.270   6.339
 2155SOL    HW1 7364   6.125   3.281   6.307
 2155SOL    HW2 7365   6.270   3.216   6.273
 2156SOL     OW 7366   6.687   0.571   1.996
 2156SOL    HW1 7367   6.641   0.506   1.936
 2156SOL    HW2 7368   6.623   0.603   2.066
 2157SOL     OW 7369   6.150   0.930   4.259
 2157SOL    HW1 7370   6.140   1.020   4.302
 2157SOL    HW2 7371   6.101   0.861   4.312
 2158SOL     OW 7372   5.082   0.268   3.546
 2158SOL    HW1 7373   5.049   0.310   3.462
 2158SOL    HW2 7374   5.007   0.223   3.593
 2159SOL     OW 7375   2.430   0.335   5.326
 2159SOL    HW1 7376   2.423   0.267   5.399
 2159SOL    HW2 7377   2.500   0.306   5.261
 2160SOL     OW 7378   2.870   2.762   0.771
 2160SOL    HW1 7379   2.941   2.802   0.713
 2160SOL    HW2 7380   2.781   2.775   0.728
 2161SOL     OW 7381   5.091   2.504   4.166
 2161SOL    HW1 7382   5.073   2.547   4.254
 2161SOL    HW2 7383   5.022   2.434   4.148
 2162SOL     OW 7384   2.166   1.267   1.667
 2162SOL    HW1 7385   2.079   1.234   1.632
 2162SOL    HW2 7386   2.214   1.193   1.714
 2163SOL     OW 7387   2.303   1.611   1.005
 2163SOL    HW1 7388   2.359   1.566   1.075
 2163SOL    HW2 7389   2.285   1.706   1.033
 2164SOL     OW 7390   6.768   0.648   1.294
 2164SOL    HW1 7391   6.861   0.629   1.262
 2164SOL    HW2 7392   6.733   0.730   1.250
 2165SOL     OW 7393   3.170   0.074   2.079
 2165SOL    HW1 7394   3.077   0.090   2.046
 2165SOL    HW2 7395   3.198   7.004   2.055
 2166SOL     OW 7396   5.587   2.506   5.687
 2166SOL    HW1 7397   5.530   2.440   5.736
 2166SOL    HW2 7398   5.682   2.493   5.713
 2167SOL     OW 7399   3.070   1.024   1.365
 2167SOL    HW1 7400   3.124   1.007   1.283
 2167SOL    HW2 7401   3.009   1.102   1.349
 2168SOL     OW 7402   5.789   6.652   4.779
 2168SOL    HW1 7403   5.760   6.673   4.872
 2168SOL    HW2 7404   5.882   6.685   4.764
 2169SOL     OW 7405   5.456   1.357   6.070
 2169SOL    HW1 7406   5.361   1.369   6.099
 2169SOL    HW2 7407   5.469   1.399   5.980
 2170SOL     OW 7408   5.163   4.777   4.248
 2170SOL    HW1 7409   5.255   4.779   4.210
 2170SOL    HW2 7410   5.127   4.684   4.244
 2171SOL     OW 7411   6.794   3.689   0.440
 2171SOL    HW1 7412   6.742   3.635   0.373
 2171SOL    HW2 7413   6.821   3.630   0.516
 2172SOL     OW 7414   2.346   0.280   1.927
 2172SOL    HW1 7415   2.280   0.284   1.852
 2172SOL    HW2 7416   2.431   0.325   1.898
 2173SOL     OW 7417   4.603   2.302   4.797
 2173SOL    HW1 7418   4.683   2.308   4.855
 2173SOL    HW2 7419   4.541   2.378   4.818
 2174SOL     OW 7420   1.304   5.380   4.692
 2174SOL    HW1 7421   1.233   5.326   4.737
 2174SOL    HW2 7422   1.390   5.371   4.742
 2175SOL     OW 7423   1.340   5.914   5.811
 2175SOL    HW1 7424   1.255   5.863   5.798
 2175SOL    HW2 7425   1.370   5.952   5.723
 2176SOL     OW 7426   1.803   2.260   2.648
 2176SOL    HW1 7427   1.874   2.207   2.603
 2176SOL    HW2 7428   1.839   2.351   2.671
 2177SOL     OW 7429   1.235   2.051   0.876
 2177SOL    HW1 7430   1.240   2.009   0.967
 2177SOL    HW2 7431   1.166   2.004   0.821
 2178SOL     OW 7432   6.106   6.323   0.931
 2178SOL    HW1 7433   6.054   6.405   0.956
 2178SOL    HW2 7434   6.202   6.336   0.953
 2179SOL     OW 7435   1.239   4.324   4.061
 2179SOL    HW1 7436   1.230   4.312   4.160
 2179SOL    HW2 7437   1.150   4.311   4.017
 2180SOL     OW 7438   3.248   2.508   1.547
 2180SOL    HW1 7439   3.204   2.574   1.607
 2180SOL    HW2 7440   3.327   2.468   1.594
 2181SOL     OW 7441   3.209   6.612   1.513
 2181SOL    HW1 7442   3.150   6.689   1.539
 2181SOL    HW2 7443   3.302   6.629   1.546
 2182SOL     OW 7444   4.978   3.035   1.074
 2182SOL    HW1 7445   4.960   3.099   0.999
 2182SOL    HW2 7446   4.906   3.044   1.143
 2183SOL     OW 7447   3.650   2.189   0.950
 2183SOL    HW1 7448   3.590   2.117   0.983
 2183SOL    HW2 7449   3.713   2.153   0.881
 2184SOL     OW 7450   5.003   3.304   6.355
 2184SOL    HW1 7451   5.050   3.366   6.292
 2184SOL    HW2 7452   5.043   3.213   6.348
 2185SOL     OW 7453   6.750   6.836   1.833
 2185SOL    HW1 7454   6.748   6.863   1.737
 2185SOL    HW2 7455   6.833   6.870   1.876
 2186SOL     OW 7456   0.532   4.133   3.427
 2186SOL    HW1 7457   0.445   4.157   3.470
 2186SOL    HW2 7458   0.591   4.213   3.421
 2187SOL     OW 7459   6.225   1.223   0.422
 2187SOL    HW1 7460   6.265   1.211   0.331
 2187SOL    HW2 7461   6.126   1.231   0.414
 2188SOL     OW 7462   4.697   1.176   3.902
 2188SOL    HW1 7463   4.751   1.232   3.839
 2188SOL    HW2 7464   4.709   1.210   3.995
 2189SOL     OW 7465   3.071   0.202   6.868
 2189SOL    HW1 7466   3.085   0.299   6.850
 2189SOL    HW2 7467   3.041   0.189   6.962
 2190SOL     OW 7468   5.276   2.994   0.837
 2190SOL    HW1 7469   5.239   3.059   0.903
 2190SOL    HW2 7470   5.201   2.941   0.797
 2191SOL     OW 7471   2.609   1.728   0.427
 2191SOL    HW1 7472   2.657   1.643   0.445
 2191SOL    HW2 7473   2.515   1.708   0.398
 2192SOL     OW 7474   4.185   5.305   2.702
 2192SOL    HW1 7475   4.155   5.223   2.653
 2192SOL    HW2 7476   4.265   5.284   2.757
 2193SOL     OW 7477   6.797   6.145   4.805
 2193SOL    HW1 7478   6.754   6.208   4.739
 2193SOL    HW2 7479   6.892   6.172   4.819
 2194SOL     OW 7480   2.763   0.043   1.985
 2194SOL    HW1 7481   2.830   0.117   1.990
 2194SOL    HW2 7482   2.764   0.004   1.892
 2195SOL     OW 7483   0.870   4.657   1.845
 2195SOL    HW1 7484   0.837   4.647   1.752
 2195SOL    HW2 7485   0.918   4.573   1.873
 2196SOL     OW 7486   4.400   3.720   0.610
 2196SOL    HW1 7487   4.306   3.697   0.584
 2196SOL    HW2 7488   4.462   3.696   0.536
 2197SOL     OW 7489   4.330   3.855   6.953
 2197SOL    HW1 7490   4.355   3.929   7.016
 2197SOL    HW2 7491   4.303   3.893   6.865
 2198SOL     OW 7492   6.289   4.637   0.666
 2198SOL    HW1 7493   6.200   4.677   0.689
 2198SOL    HW2 7494   6.291   4.612   0.569
 2199SOL     OW 7495   4.429   1.049   3.123
 2199SOL    HW1 7496   4.526   1.038   3.141
 2199SOL    HW2 7497   4.414   1.070   3.026
 2200SOL     OW 7498   2.947   6.946   4.419
 2200SOL    HW1 7499   2.862   6.991   4.446
 2200SOL    HW2 7500   2.934   6.847   4.425
 2201SOL     OW 7501   4.718   4.190   4.131
 2201SOL    HW1 7502   4.686   4.233   4.046
 2201SOL    HW2 7503   4.674   4.235   4.209
 2202SOL     OW 7504   4.707   5.625   3.832
 2202SOL    HW1 7505   4.635   5.569   3.792
 2202SOL    HW2 7506   4.790   5.571   3.843
 2203SOL     OW 7507   3.065   2.027   2.513
 2203SOL    HW1 7508   3.045   2.075   2.427
 2203SOL    HW2 7509   3.038   2.084   2.590
 2204SOL     OW 7510   2.604   2.470   0.153
 2204SOL    HW1 7511   2.554   2.543   0.199
 2204SOL    HW2 7512   2.699   2.469   0.185
 2205SOL     OW 7513   2.906   0.998   2.061
 2205SOL    HW1 7514   2.914   0.992   1.961
 2205SOL    HW2 7515   2.939   0.913   2.101
 2206SOL     OW 7516   1.895   3.077   0.370
 2206SOL    HW1 7517   1.856   3.046   0.283
 2206SOL    HW2 7518   1.892   3.176   0.375
 2207SOL     OW 7519   7.019   4.415   4.733
 2207SOL    HW1 7520   0.064   4.375   4.794
 2207SOL    HW2 7521   6.936   4.434   4.785
 2208SOL     OW 7522   6.781   4.665   2.282
 2208SOL    HW1 7523   6.835   4.649   2.365
 2208SOL    HW2 7524   6.740   4.755   2.286
 2209SOL     OW 7525   0.458   6.872   1.565
 2209SOL    HW1 7526   0.396   6.913   1.632
 2209SOL    HW2 7527   0.552   6.880   1.598
 2210SOL     OW 7528   1.954   5.063   3.834
 2210SOL    HW1 7529   2.051   5.084   3.817
 2210SOL    HW2 7530   1.898   5.138   3.801
 2211SOL     OW 7531   6.622   1.927   5.028
 2211SOL    HW1 7532   6.662   1.986   5.098
 2211SOL    HW2 7533   6.557   1.864   5.070
 2212SOL     OW 7534   2.256   6.697   6.286
 2212SOL    HW1 7535   2.341   6.656   6.254
 2212SOL    HW2 7536   2.233   6.662   6.376
 2213SOL     OW 7537   4.306   0.749   3.222
 2213SOL    HW1 7538   4.404   0.737   3.236
 2213SOL    HW2 7539   4.276   0.833   3.267
 2214SOL     OW 7540   4.115   0.017   5.231
 2214SOL    HW1 7541   4.082   0.069   5.152
 2214SOL    HW2 7542   4.061   0.042   5.312
 2215SOL     OW 7543   5.707   2.157   5.279
 2215SOL    HW1 7544   5.789   2.192   5.233
 2215SOL    HW2 7545   5.667   2.229   5.336
 2216SOL     OW 7546   2.929   1.079   2.466
 2216SOL    HW1 7547   2.981   1.001   2.501
 2216SOL    HW2 7548   2.883   1.124   2.543
 2217SOL     OW 7549   4.151   0.600   1.844
 2217SOL    HW1 7550   4.051   0.611   1.846
 2217SOL    HW2 7551   4.186   0.628   1.755
 2218SOL     OW 7552   0.618   0.361   2.862
 2218SOL    HW1 7553   0.595   0.289   2.927
 2218SOL    HW2 7554   0.663   0.436   2.911
 2219SOL     OW 7555   1.603   1.980   2.371
 2219SOL    HW1 7556   1.533   2.027   2.423
 2219SOL    HW2 7557   1.688   1.979   2.424
 2220SOL     OW 7558   1.004   0.631   2.014
 2220SOL    HW1 7559   0.941   0.708   2.013
 2220SOL    HW2 7560   1.073   0.645   2.086
 2221SOL     OW 7561   0.462   0.732   6.090
 2221SOL    HW1 7562   0.515   0.813   6.117
 2221SOL    HW2 7563   0.364   0.752   6.097
 2222SOL     OW 7564   6.455   5.150   3.950
 2222SOL    HW1 7565   6.404   5.189   4.027
 2222SOL    HW2 7566   6.417   5.061   3.926
 2223SOL     OW 7567   6.673   6.655   1.458
 2223SOL    HW1 7568   6.710   6.565   1.484
 2223SOL    HW2 7569   6.672   6.662   1.358
 2224SOL     OW 7570   0.876   5.091   0.815
 2224SOL    HW1 7571   0.910   5.050   0.731
 2224SOL    HW2 7572   0.891   5.190   0.813
 2225SOL     OW 7573   0.801   3.614   0.385
 2225SOL    HW1 7574   0.815   3.515   0.381
 2225SOL    HW2 7575   0.800   3.644   0.481
 2226SOL     OW 7576   3.718   3.813   2.329
 2226SOL    HW1 7577   3.763   3.899   2.356
 2226SOL    HW2 7578   3.711   3.809   2.230
 2227SOL     OW 7579   0.816   2.345   3.691
 2227SOL    HW1 7580   0.865   2.414   3.637
 2227SOL    HW2 7581   0.718   2.364   3.686
 2228SOL     OW 7582   2.926   4.862   3.717
 2228SOL    HW1 7583   3.021   4.851   3.745
 2228SOL    HW2 7584   2.869   4.879   3.798
 2229SOL     OW 7585   5.769   6.444   2.915
 2229SOL    HW1 7586   5.747   6.526   2.862
 2229SOL    HW2 7587   5.827   6.383   2.859
 2230SOL     OW 7588   2.533   5.268   1.678
 2230SOL    HW1 7589   2.462   5.271   1.607
 2230SOL    HW2 7590   2.619   5.305   1.641
 2231SOL     OW 7591   1.914   6.021   1.006
 2231SOL    HW1 7592   1.820   6.033   1.038
 2231SOL    HW2 7593   1.976   6.075   1.063
 2232SOL     OW 7594   5.569   2.718   4.112
 2232SOL    HW1 7595   5.628   2.799   4.108
 2232SOL    HW2 7596   5.620   2.637   4.084
 2233SOL     OW 7597   3.344   1.066   6.572
 2233SOL    HW1 7598   3.385   1.066   6.481
 2233SOL    HW2 7599   3.248   1.092   6.565
 2234SOL     OW 7600   3.643   2.353   1.196
 2234SOL    HW1 7601   3.625   2.293   1.274
 2234SOL    HW2 7602   3.617   2.307   1.112
 2235SOL     OW 7603   2.147   1.646   1.923
 2235SOL    HW1 7604   2.234   1.688   1.896
 2235SOL    HW2 7605   2.085   1.717   1.955
 2236SOL     OW 7606   1.185   4.846   5.493
 2236SOL    HW1 7607   1.270   4.865   5.443
 2236SOL    HW2 7608   1.206   4.786   5.571
 2237SOL     OW 7609   6.632   3.315   4.540
 2237SOL    HW1 7610   6.669   3.298   4.449
 2237SOL    HW2 7611   6.589   3.231   4.575
 2238SOL     OW 7612   5.857   6.566   0.474
 2238SOL    HW1 7613   5.920   6.565   0.397
 2238SOL    HW2 7614   5.780   6.625   0.453
 2239SOL     OW 7615   6.106   6.086   1.871
 2239SOL    HW1 7616   6.012   6.104   1.900
 2239SOL    HW2 7617   6.169   6.108   1.946
 2240SOL     OW 7618   6.349   3.625   2.004
 2240SOL    HW1 7619   6.359   3.622   1.905
 2240SOL    HW2 7620   6.411   3.559   2.046
 2241SOL     OW 7621   1.229   0.755   3.840
 2241SOL    HW1 7622   1.215   0.668   3.887
 2241SOL    HW2 7623   1.306   0.746   3.777
 2242SOL     OW 7624   3.377   1.776   2.300
 2242SOL    HW1 7625   3.343   1.813   2.386
 2242SOL    HW2 7626   3.472   1.803   2.287
 2243SOL     OW 7627   2.873   0.266   5.326
 2243SOL    HW1 7628   2.889   0.222   5.238
 2243SOL    HW2 7629   2.830   0.355   5.312
 2244SOL     OW 7630   3.676   1.205   5.193
 2244SOL    HW1 7631   3.608   1.175   5.260
 2244SOL    HW2 7632   3.679   1.305   5.191
 2245SOL     OW 7633   0.447   2.134   1.696
 2245SOL    HW1 7634   0.434   2.052   1.641
 2245SOL    HW2 7635   0.390   2.128   1.778
 2246SOL     OW 7636   1.064   4.645   5.361
 2246SOL    HW1 7637   0.982   4.616   5.411
 2246SOL    HW2 7638   1.098   4.730   5.402
 2247SOL     OW 7639   1.516   1.251   4.634
 2247SOL    HW1 7640   1.473   1.189   4.568
 2247SOL    HW2 7641   1.607   1.217   4.658
 2248SOL     OW 7642   4.405   3.974   5.611
 2248SOL    HW1 7643   4.328   4.004   5.667
 2248SOL    HW2 7644   4.385   3.884   5.571
 2249SOL     OW 7645   4.292   5.491   5.725
 2249SOL    HW1 7646   4.222   5.421   5.714
 2249SOL    HW2 7647   4.383   5.449   5.721
 2250SOL     OW 7648   4.575   5.010   1.408
 2250SOL    HW1 7649   4.558   4.938   1.474
 2250SOL    HW2 7650   4.506   5.082   1.417
 2251SOL     OW 7651   0.277   0.780   6.522
 2251SOL    HW1 7652   0.223   0.854   6.481
 2251SOL    HW2 7653   0.250   0.693   6.482
 2252SOL     OW 7654   3.171   0.825   6.364
 2252SOL    HW1 7655   3.247   0.824   6.429
 2252SOL    HW2 7656   3.202   0.787   6.276
 2253SOL     OW 7657   1.130   4.147   6.667
 2253SOL    HW1 7658   1.167   4.130   6.758
 2253SOL    HW2 7659   1.069   4.073   6.641
 2254SOL     OW 7660   1.800   4.521   6.503
 2254SOL    HW1 7661   1.808   4.614   6.467
 2254SOL    HW2 7662   1.823   4.455   6.432
 2255SOL     OW 7663   6.243   3.467   6.539
 2255SOL    HW1 7664   6.174   3.449   6.609
 2255SOL    HW2 7665   6.237   3.397   6.467
 2256SOL     OW 7666   2.531   4.646   2.070
 2256SOL    HW1 7667   2.510   4.736   2.031
 2256SOL    HW2 7668   2.616   4.612   2.030
 2257SOL     OW 7669   1.786   3.827   4.836
 2257SOL    HW1 7670   1.719   3.757   4.863
 2257SOL    HW2 7671   1.825   3.868   4.919
 2258SOL     OW 7672   2.259   5.174   4.809
 2258SOL    HW1 7673   2.208   5.260   4.813
 2258SOL    HW2 7674   2.279   5.152   4.713
 2259SOL     OW 7675   5.982   3.061   6.193
 2259SOL    HW1 7676   6.007   3.032   6.101
 2259SOL    HW2 7677   5.930   3.146   6.188
 2260SOL     OW 7678   4.393   3.003   0.724
 2260SOL    HW1 7679   4.461   2.934   0.697
 2260SOL    HW2 7680   4.328   2.963   0.788
 2261SOL     OW 7681   2.759   6.356   4.927
 2261SOL    HW1 7682   2.792   6.262   4.926
 2261SOL    HW2 7683   2.759   6.393   4.834
 2262SOL     OW 7684   3.580   1.750   3.161
 2262SOL    HW1 7685   3.617   1.695   3.236
 2262SOL    HW2 7686   3.564   1.843   3.193
 2263SOL     OW 7687   1.106   4.118   6.021
 2263SOL    HW1 7688   1.097   4.209   6.061
 2263SOL    HW2 7689   1.134   4.053   6.092
 2264SOL     OW 7690   3.334   3.901   3.460
 2264SOL    HW1 7691   3.256   3.961   3.479
 2264SOL    HW2 7692   3.311   3.838   3.386
 2265SOL     OW 7693   0.321   0.044   3.431
 2265SOL    HW1 7694   0.257   0.057   3.355
 2265SOL    HW2 7695   0.351   0.133   3.465
 2266SOL     OW 7696   6.319   0.536   5.869
 2266SOL    HW1 7697   6.380   0.463   5.900
 2266SOL    HW2 7698   6.263   0.503   5.793
 2267SOL     OW 7699   5.093   1.492   5.029
 2267SOL    HW1 7700   5.164   1.561   5.043
 2267SOL    HW2 7701   5.007   1.536   5.003
 2268SOL     OW 7702   6.907   5.788   0.104
 2268SOL    HW1 7703   6.883   5.796   0.201
 2268SOL    HW2 7704   6.824   5.768   0.051
 2269SOL     OW 7705   0.349   6.802   2.931
 2269SOL    HW1 7706   0.285   6.869   2.969
 2269SOL    HW2 7707   0.323   6.710   2.961
 2270SOL     OW 7708   3.742   2.890   3.545
 2270SOL    HW1 7709   3.808   2.964   3.531
 2270SOL    HW2 7710   3.697   2.870   3.458
 2271SOL     OW 7711   1.306   4.676   3.131
 2271SOL    HW1 7712   1.389   4.724   3.159
 2271SOL    HW2 7713   1.325   4.578   3.122
 2272SOL     OW 7714   5.085   1.145   5.819
 2272SOL    HW1 7715   5.180   1.115   5.827
 2272SOL    HW2 7716   5.076   1.208   5.742
 2273SOL     OW 7717   0.441   0.999   2.423
 2273SOL    HW1 7718   0.499   1.019   2.345
 2273SOL    HW2 7719   0.453   0.904   2.451
 2274SOL     OW 7720   1.054   4.085   3.448
 2274SOL    HW1 7721   1.118   4.049   3.379
 2274SOL    HW2 7722   1.106   4.124   3.524
 2275SOL     OW 7723   5.072   6.282   4.030
 2275SOL    HW1 7724   5.163   6.316   4.006
 2275SOL    HW2 7725   5.004   6.328   3.974
 2276SOL     OW 7726   3.410   5.883   2.185
 2276SOL    HW1 7727   3.355   5.961   2.215
 2276SOL    HW2 7728   3.356   5.825   2.124
 2277SOL     OW 7729   3.269   3.204   1.704
 2277SOL    HW1 7730   3.352   3.252   1.733
 2277SOL    HW2 7731   3.288   3.154   1.619
 2278SOL     OW 7732   4.116   5.629   1.587
 2278SOL    HW1 7733   4.127   5.712   1.531
 2278SOL    HW2 7734   4.196   5.571   1.576
 2279SOL     OW 7735   5.545   4.064   5.765
 2279SOL    HW1 7736   5.640   4.086   5.742
 2279SOL    HW2 7737   5.525   4.092   5.859
 2280SOL     OW 7738   5.382   0.294   5.993
 2280SOL    HW1 7739   5.337   0.235   5.925
 2280SOL    HW2 7740   5.449   0.240   6.044
 2281SOL     OW 7741   2.092   1.172   0.361
 2281SOL    HW1 7742   2.019   1.172   0.293
 2281SOL    HW2 7743   2.053   1.157   0.451
 2282SOL     OW 7744   3.960   5.835   2.763
 2282SOL    HW1 7745   3.881   5.785   2.728
 2282SOL    HW2 7746   4.040   5.817   2.704
 2283SOL     OW 7747   0.841   3.493   1.944
 2283SOL    HW1 7748   0.869   3.399   1.925
 2283SOL    HW2 7749   0.834   3.506   2.043
 2284SOL     OW 7750   1.995   2.058   1.778
 2284SOL    HW1 7751   2.093   2.069   1.758
 2284SOL    HW2 7752   1.981   2.060   1.877
 2285SOL     OW 7753   1.549   3.495   6.125
 2285SOL    HW1 7754   1.501   3.502   6.037
 2285SOL    HW2 7755   1.499   3.433   6.185
 2286SOL     OW 7756   6.799   6.583   4.555
 2286SOL    HW1 7757   6.871   6.546   4.496
 2286SOL    HW2 7758   6.831   6.666   4.599
 2287SOL     OW 7759   2.318   2.069   0.348
 2287SOL    HW1 7760   2.319   2.013   0.431
 2287SOL    HW2 7761   2.253   2.029   0.283
 2288SOL     OW 7762   2.494   5.693   4.593
 2288SOL    HW1 7763   2.485   5.594   4.601
 2288SOL    HW2 7764   2.536   5.729   4.676
 2289SOL     OW 7765   3.598   0.867   6.980
 2289SOL    HW1 7766   3.631   0.777   6.950
 2289SOL    HW2 7767   3.562   0.917   6.901
 2290SOL     OW 7768   3.274   3.897   4.425
 2290SOL    HW1 7769   3.311   3.806   4.442
 2290SOL    HW2 7770   3.349   3.958   4.398
 2291SOL     OW 7771   1.982   2.638   0.109
 2291SOL    HW1 7772   2.058   2.604   0.054
 2291SOL    HW2 7773   2.017   2.692   0.185
 2292SOL     OW 7774   4.641   1.848   3.214
 2292SOL    HW1 7775   4.554   1.894   3.230
 2292SOL    HW2 7776   4.693   1.897   3.144
 2293SOL     OW 7777   0.757   1.417   6.236
 2293SOL    HW1 7778   0.688   1.484   6.264
 2293SOL    HW2 7779   0.845   1.463   6.226
 2294SOL     OW 7780   6.487   1.704   5.085
 2294SOL    HW1 7781   6.430   1.699   5.167
 2294SOL    HW2 7782   6.565   1.642   5.095
 2295SOL     OW 7783   5.520   5.594   0.733
 2295SOL    HW1 7784   5.617   5.575   0.750
 2295SOL    HW2 7785   5.511   5.648   0.649
 2296SOL     OW 7786   3.638   5.530   4.662
 2296SOL    HW1 7787   3.685   5.617   4.675
 2296SOL    HW2 7788   3.683   5.459   4.716
 2297SOL     OW 7789   6.338   3.273   5.705
 2297SOL    HW1 7790   6.436   3.291   5.708
 2297SOL    HW2 7791   6.301   3.278   5.798
 2298SOL     OW 7792   2.662   3.316   5.367
 2298SOL    HW1 7793   2.579   3.260   5.372
 2298SOL    HW2 7794   2.728   3.283   5.434
 2299SOL     OW 7795   5.936   3.532   4.817
 2299SOL    HW1 7796   5.956   3.439   4.850
 2299SOL    HW2 7797   5.838   3.541   4.803
 2300SOL     OW 7798   5.304   0.032   2.941
 2300SOL    HW1 7799   5.340   0.034   2.848
 2300SOL    HW2 7800   5.379   0.038   3.007
 2301SOL     OW 7801   3.666   3.357   5.048
 2301SOL    HW1 7802   3.625   3.323   5.133
 2301SOL    HW2 7803   3.595   3.396   4.990
 2302SOL     OW 7804   6.576   3.115   6.033
 2302SOL    HW1 7805   6.669   3.086   6.057
 2302SOL    HW2 7806   6.515   3.099   6.111
 2303SOL     OW 7807   2.627   1.723   6.557
 2303SOL    HW1 7808   2.723   1.723   6.587
 2303SOL    HW2 7809   2.609   1.639   6.505
 2304SOL     OW 7810   6.220   0.028   2.318
 2304SOL    HW1 7811   6.242   0.055   2.412
 2304SOL    HW2 7812   6.269   6.967   2.296
 2305SOL     OW 7813   2.889   7.017   5.355
 2305SOL    HW1 7814   2.907   7.015   5.257
 2305SOL    HW2 7815   2.855   0.083   5.381
 2306SOL     OW 7816   1.736   4.546   4.788
 2306SOL    HW1 7817   1.739   4.491   4.872
 2306SOL    HW2 7818   1.827   4.582   4.768
 2307SOL     OW 7819   6.803   3.629   4.564
 2307SOL    HW1 7820   6.804   3.649   4.662
 2307SOL    HW2 7821   6.873   3.561   4.543
 2308SOL     OW 7822   0.685   5.337   2.117
 2308SOL    HW1 7823   0.630   5.420   2.104
 2308SOL    HW2 7824   0.765   5.359   2.173
 2309SOL     OW 7825   2.165   0.480   4.769
 2309SOL    HW1 7826   2.084   0.531   4.798
 2309SOL    HW2 7827   2.150   0.442   4.678
 2310SOL     OW 7828   4.165   0.005   0.342
 2310SOL    HW1 7829   4.180   0.101   0.363
 2310SOL    HW2 7830   4.202   6.972   0.415
 2311SOL     OW 7831   2.400   5.776   0.751
 2311SOL    HW1 7832   2.465   5.728   0.810
 2311SOL    HW2 7833   2.333   5.823   0.808
 2312SOL     OW 7834   3.642   4.900   2.820
 2312SOL    HW1 7835   3.561   4.932   2.868
 2312SOL    HW2 7836   3.715   4.881   2.885
 2313SOL     OW 7837   4.794   4.749   1.615
 2313SOL    HW1 7838   4.702   4.769   1.647
 2313SOL    HW2 7839   4.856   4.744   1.693
 2314SOL     OW 7840   2.498   4.622   3.510
 2314SOL    HW1 7841   2.494   4.649   3.606
 2314SOL    HW2 7842   2.591   4.630   3.476
 2315SOL     OW 7843   4.861   2.122   0.063
 2315SOL    HW1 7844   4.846   2.195   7.021
 2315SOL    HW2 7845   4.816   2.039   0.031
 2316SOL     OW 7846   4.908   3.501   2.015
 2316SOL    HW1 7847   4.877   3.411   2.046
 2316SOL    HW2 7848   4.982   3.532   2.074
 2317SOL     OW 7849   0.426   6.213   3.611
 2317SOL    HW1 7850   0.361   6.262   3.552
 2317SOL    HW2 7851   0.490   6.278   3.650
 2318SOL     OW 7852   0.230   1.536   3.946
 2318SOL    HW1 7853   0.243   1.440   3.970
 2318SOL    HW2 7854   0.196   1.586   4.025
 2319SOL     OW 7855   1.315   4.679   1.532
 2319SOL    HW1 7856   1.351   4.639   1.448
 2319SOL    HW2 7857   1.290   4.775   1.515
 2320SOL     OW 7858   6.399   4.664   4.549
 2320SOL    HW1 7859   6.499   4.668   4.559
 2320SOL    HW2 7860   6.357   4.654   4.639
 2321SOL     OW 7861   3.874   5.114   4.283
 2321SOL    HW1 7862   3.955   5.155   4.241
 2321SOL    HW2 7863   3.804   5.099   4.212
 2322SOL     OW 7864   2.753   0.817   4.679
 2322SOL    HW1 7865   2.695   0.764   4.617
 2322SOL    HW2 7866   2.767   0.909   4.642
 2323SOL     OW 7867   5.041   3.428   1.780
 2323SOL    HW1 7868   4.965   3.418   1.844
 2323SOL    HW2 7869   5.125   3.445   1.830
 2324SOL     OW 7870   0.918   5.135   4.248
 2324SOL    HW1 7871   0.942   5.104   4.156
 2324SOL    HW2 7872   0.856   5.068   4.290
 2325SOL     OW 7873   0.250   2.445   0.418
 2325SOL    HW1 7874   0.340   2.470   0.454
 2325SOL    HW2 7875   0.262   2.393   0.333
 2326SOL     OW 7876   0.819   4.429   0.445
 2326SOL    HW1 7877   0.910   4.391   0.428
 2326SOL    HW2 7878   0.753   4.354   0.452
 2327SOL     OW 7879   5.144   1.152   3.598
 2327SOL    HW1 7880   5.218   1.096   3.560
 2327SOL    HW2 7881   5.056   1.110   3.575
 2328SOL     OW 7882   6.295   5.301   4.149
 2328SOL    HW1 7883   6.325   5.230   4.213
 2328SOL    HW2 7884   6.231   5.263   4.083
 2329SOL     OW 7885   1.182   5.895   3.645
 2329SOL    HW1 7886   1.166   5.831   3.720
 2329SOL    HW2 7887   1.280   5.901   3.626
 2330SOL     OW 7888   1.363   4.651   0.642
 2330SOL    HW1 7889   1.270   4.640   0.674
 2330SOL    HW2 7890   1.420   4.576   0.676
 2331SOL     OW 7891   0.910   4.587   5.030
 2331SOL    HW1 7892   0.887   4.526   5.107
 2331SOL    HW2 7893   0.997   4.558   4.990
 2332SOL     OW 7894   5.551   3.133   5.743
 2332SOL    HW1 7895   5.630   3.136   5.683
 2332SOL    HW2 7896   5.542   3.221   5.791
 2333SOL     OW 7897   2.773   4.804   3.514
 2333SOL    HW1 7898   2.764   4.893   3.469
 2333SOL    HW2 7899   2.827   4.814   3.597
 2334SOL     OW 7900   2.517   0.257   6.078
 2334SOL    HW1 7901   2.588   0.326   6.087
 2334SOL    HW2 7902   2.457   0.259   6.158
 2335SOL     OW 7903   4.519   4.465   4.542
 2335SOL    HW1 7904   4.445   4.528   4.520
 2335SOL    HW2 7905   4.540   4.470   4.640
 2336SOL     OW 7906   4.284   2.766   5.829
 2336SOL    HW1 7907   4.238   2.810   5.906
 2336SOL    HW2 7908   4.318   2.835   5.766
 2337SOL     OW 7909   6.230   0.305   4.493
 2337SOL    HW1 7910   6.300   0.371   4.462
 2337SOL    HW2 7911   6.204   0.247   4.416
 2338SOL     OW 7912   1.706   0.153   6.923
 2338SOL    HW1 7913   1.706   0.172   6.825
 2338SOL    HW2 7914   1.723   0.056   6.938
 2339SOL     OW 7915   4.068   4.913   0.089
 2339SOL    HW1 7916   3.988   4.973   0.100
 2339SOL    HW2 7917   4.142   4.964   0.045
 2340SOL     OW 7918   3.337   5.253   4.292
 2340SOL    HW1 7919   3.400   5.227   4.366
 2340SOL    HW2 7920   3.282   5.331   4.321
 2341SOL     OW 7921   5.923   5.113   6.554
 2341SOL    HW1 7922   5.876   5.072   6.476
 2341SOL    HW2 7923   5.895   5.208   6.564
 2342SOL     OW 7924   6.592   0.902   5.592
 2342SOL    HW1 7925   6.624   0.986   5.637
 2342SOL    HW2 7926   6.666   0.865   5.536
 2343SOL     OW 7927   0.834   0.041   0.437
 2343SOL    HW1 7928   0.803   6.971   0.451
 2343SOL    HW2 7929   0.891   0.070   0.513
 2344SOL     OW 7930   2.466   0.761   2.712
 2344SOL    HW1 7931   2.457   0.854   2.676
 2344SOL    HW2 7932   2.527   0.708   2.654
 2345SOL     OW 7933   1.111   1.978   2.012
 2345SOL    HW1 7934   1.024   2.016   1.979
 2345SOL    HW2 7935   1.094   1.926   2.096
 2346SOL     OW 7936   4.654   3.209   5.553
 2346SOL    HW1 7937   4.655   3.275   5.478
 2346SOL    HW2 7938   4.741   3.160   5.555
 2347SOL     OW 7939   2.110   3.459   0.842
 2347SOL    HW1 7940   2.169   3.449   0.923
 2347SOL    HW2 7941   2.035   3.521   0.862
 2348SOL     OW 7942   2.124   6.751   1.785
 2348SOL    HW1 7943   2.048   6.798   1.741
 2348SOL    HW2 7944   2.210   6.784   1.748
 2349SOL     OW 7945   5.189   3.878   6.816
 2349SOL    HW1 7946   5.098   3.916   6.833
 2349SOL    HW2 7947   5.246   3.891   6.897
 2350SOL     OW 7948   2.392   6.351   5.195
 2350SOL    HW1 7949   2.404   6.296   5.113
 2350SOL    HW2 7950   2.465   6.419   5.200
 2351SOL     OW 7951   1.672   5.335   2.765
 2351SOL    HW1 7952   1.683   5.434   2.762
 2351SOL    HW2 7953   1.575   5.312   2.755
 2352SOL     OW 7954   5.725   5.044   1.149
 2352SOL    HW1 7955   5.685   4.986   1.079
 2352SOL    HW2 7956   5.676   5.131   1.152
 2353SOL     OW 7957   2.460   3.532   6.075
 2353SOL    HW1 7958   2.455   3.618   6.023
 2353SOL    HW2 7959   2.423   3.458   6.019
 2354SOL     OW 7960   4.456   1.651   1.976
 2354SOL    HW1 7961   4.490   1.653   1.882
 2354SOL    HW2 7962   4.358   1.672   1.976
 2355SOL     OW 7963   0.208   1.677   1.661
 2355SOL    HW1 7964   0.248   1.701   1.572
 2355SOL    HW2 7965   0.178   1.759   1.708
 2356SOL     OW 7966   2.927   5.160   3.645
 2356SOL    HW1 7967   2.926   5.064   3.620
 2356SOL    HW2 7968   2.971   5.171   3.734
 2357SOL     OW 7969   1.315   4.921   0.556
 2357SOL    HW1 7970   1.352   4.843   0.607
 2357SOL    HW2 7971   1.275   4.889   0.470
 2358SOL     OW 7972   3.120   0.876   4.926
 2358SOL    HW1 7973   3.174   0.960   4.930
 2358SOL    HW2 7974   3.077   0.859   5.015
 2359SOL     OW 7975   1.999   2.122   5.704
 2359SOL    HW1 7976   2.089   2.102   5.666
 2359SOL    HW2 7977   1.953   2.037   5.730
 2360SOL     OW 7978   3.203   5.172   0.933
 2360SOL    HW1 7979   3.128   5.113   0.902
 2360SOL    HW2 7980   3.167   5.243   0.994
 2361SOL     OW 7981   3.608   5.853   1.171
 2361SOL    HW1 7982   3.541   5.811   1.110
 2361SOL    HW2 7983   3.577   5.841   1.266
 2362SOL     OW 7984   3.482   4.969   3.920
 2362SOL    HW1 7985   3.580   4.969   3.899
 2362SOL    HW2 7986   3.467   5.012   4.009
 2363SOL     OW 7987   2.168   3.736   1.177
 2363SOL    HW1 7988   2.082   3.757   1.224
 2363SOL    HW2 7989   2.157   3.752   1.079
 2364SOL     OW 7990   3.983   1.491   2.465
 2364SOL    HW1 7991   3.886   1.513   2.453
 2364SOL    HW2 7992   4.032   1.510   2.379
 2365SOL     OW 7993   5.780   4.216   3.087
 2365SOL    HW1 7994   5.683   4.201   3.064
 2365SOL    HW2 7995   5.815   4.293   3.033
 2366SOL     OW 7996   2.811   5.416   5.189
 2366SOL    HW1 7997   2.790   5.397   5.093
 2366SOL    HW2 7998   2.883   5.485   5.194
 2367SOL     OW 7999   5.889   5.000   5.593
 2367SOL    HW1 8000   5.835   4.974   5.512
 2367SOL    HW2 8001   5.934   5.088   5.576
 2368SOL     OW 8002   5.129   1.002   5.208
 2368SOL    HW1 8003   5.205   0.987   5.271
 2368SOL    HW2 8004   5.164   1.030   5.119
 2369SOL     OW 8005   3.791   2.118   4.201
 2369SOL    HW1 8006   3.723   2.144   4.133
 2369SOL    HW2 8007   3.789   2.019   4.213
 2370SOL     OW 8008   5.622   1.786   1.783
 2370SOL    HW1 8009   5.677   1.707   1.756
 2370SOL    HW2 8010   5.566   1.815   1.706
 2371SOL     OW 8011   1.388   6.431   1.825
 2371SOL    HW1 8012   1.460   6.439   1.756
 2371SOL    HW2 8013   1.329   6.512   1.823
 2372SOL     OW 8014   6.725   0.581   5.967
 2372SOL    HW1 8015   6.824   0.573   5.953
 2372SOL    HW2 8016   6.680   0.499   5.932
 2373SOL     OW 8017   5.974   4.468   5.860
 2373SOL    HW1 8018   5.886   4.426   5.838
 2373SOL    HW2 8019   6.017   4.420   5.936
 2374SOL     OW 8020   6.652   6.395   2.121
 2374SOL    HW1 8021   6.609   6.465   2.178
 2374SOL    HW2 8022   6.661   6.429   2.027
 2375SOL     OW 8023   1.602   0.362   3.960
 2375SOL    HW1 8024   1.615   0.300   4.037
 2375SOL    HW2 8025   1.663   0.441   3.969
 2376SOL     OW 8026   5.043   2.361   3.333
 2376SOL    HW1 8027   5.003   2.343   3.424
 2376SOL    HW2 8028   4.974   2.403   3.275
 2377SOL     OW 8029   4.169   4.058   5.729
 2377SOL    HW1 8030   4.213   4.146   5.713
 2377SOL    HW2 8031   4.080   4.072   5.773
 2378SOL     OW 8032   0.480   0.969   0.328
 2378SOL    HW1 8033   0.489   1.052   0.384
 2378SOL    HW2 8034   0.390   0.928   0.344
 2379SOL     OW 8035   0.437   4.825   2.645
 2379SOL    HW1 8036   0.473   4.917   2.628
 2379SOL    HW2 8037   0.435   4.775   2.559
 2380SOL     OW 8038   4.285   5.705   6.682
 2380SOL    HW1 8039   4.319   5.740   6.769
 2380SOL    HW2 8040   4.273   5.781   6.618
 2381SOL     OW 8041   2.148   3.415   3.896
 2381SOL    HW1 8042   2.197   3.365   3.824
 2381SOL    HW2 8043   2.157   3.367   3.983
 2382SOL     OW 8044   0.023   5.100   3.322
 2382SOL    HW1 8045   6.961   5.148   3.336
 2382SOL    HW2 8046   0.098   5.167   3.316
 2383SOL     OW 8047   4.655   4.087   5.754
 2383SOL    HW1 8048   4.636   4.176   5.712
 2383SOL    HW2 8049   4.607   4.015   5.703
 2384SOL     OW 8050   0.451   2.250   2.255
 2384SOL    HW1 8051   0.486   2.164   2.217
 2384SOL    HW2 8052   0.514   2.324   2.232
 2385SOL     OW 8053   0.167   0.917   6.995
 2385SOL    HW1 8054   0.114   0.832   6.995
 2385SOL    HW2 8055   0.223   0.921   6.913
 2386SOL     OW 8056   6.045   5.671   4.970
 2386SOL    HW1 8057   6.054   5.668   5.070
 2386SOL    HW2 8058   6.123   5.625   4.928
 2387SOL     OW 8059   0.818   0.614   3.712
 2387SOL    HW1 8060   0.876   0.681   3.757
 2387SOL    HW2 8061   0.723   0.645   3.716
 2388SOL     OW 8062   0.822   3.389   5.659
 2388SOL    HW1 8063   0.773   3.432   5.584
 2388SOL    HW2 8064   0.865   3.459   5.715
 2389SOL     OW 8065   4.255   5.340   3.633
 2389SOL    HW1 8066   4.337   5.393   3.653
 2389SOL    HW2 8067   4.264   5.298   3.543
 2390SOL     OW 8068   5.035   2.718   6.358
 2390SOL    HW1 8069   4.990   2.633   6.332
 2390SOL    HW2 8070   5.081   2.757   6.279
 2391SOL     OW 8071   3.292   3.772   6.731
 2391SOL    HW1 8072   3.258   3.725   6.650
 2391SOL    HW2 8073   3.216   3.822   6.775
 2392SOL     OW 8074   3.854   5.243   5.901
 2392SOL    HW1 8075   3.775   5.239   5.840
 2392SOL    HW2 8076   3.878   5.339   5.918
 2393SOL     OW 8077   3.803   4.237   0.267
 2393SOL    HW1 8078   3.778   4.296   0.344
 2393SOL    HW2 8079   3.728   4.235   0.201
 2394SOL     OW 8080   6.371   1.459   3.951
 2394SOL    HW1 8081   6.347   1.457   4.048
 2394SOL    HW2 8082   6.420   1.544   3.930
 2395SOL     OW 8083   1.748   2.888   3.852
 2395SOL    HW1 8084   1.735   2.953   3.776
 2395SOL    HW2 8085   1.740   2.795   3.817
 2396SOL     OW 8086   6.705   0.329   6.445
 2396SOL    HW1 8087   6.613   0.350   6.478
 2396SOL    HW2 8088   6.772   0.365   6.509
 2397SOL     OW 8089   2.265   4.561   5.152
 2397SOL    HW1 8090   2.253   4.480   5.210
 2397SOL    HW2 8091   2.304   4.635   5.207
 2398SOL     OW 8092   4.128   6.055   4.286
 2398SOL    HW1 8093   4.177   6.090   4.207
 2398SOL    HW2 8094   4.194   6.016   4.351
 2399SOL     OW 8095   2.976   1.487   2.521
 2399SOL    HW1 8096   2.956   1.582   2.497
 2399SOL    HW2 8097   3.062   1.459   2.479
 2400SOL     OW 8098   1.532   3.462   0.272
 2400SOL    HW1 8099   1.578   3.406   0.202
 2400SOL    HW2 8100   1.512   3.406   0.352
 2401SOL     OW 8101   1.884   6.347   6.961
 2401SOL    HW1 8102   1.829   6.266   6.943
 2401SOL    HW2 8103   1.946   6.363   6.884
 2402SOL     OW 8104   1.354   4.273   2.324
 2402SOL    HW1 8105   1.348   4.324   2.238
 2402SOL    HW2 8106   1.450   4.257   2.347
 2403SOL     OW 8107   3.112   3.970   5.533
 2403SOL    HW1 8108   3.082   4.022   5.453
 2403SOL    HW2 8109   3.109   3.872   5.513
 2404SOL     OW 8110   6.022   1.361   1.284
 2404SOL    HW1 8111   5.990   1.417   1.359
 2404SOL    HW2 8112   6.026   1.416   1.200
 2405SOL     OW 8113   2.243   3.017   0.712
 2405SOL    HW1 8114   2.206   3.007   0.620
 2405SOL    HW2 8115   2.331   3.063   0.708
 2406SOL     OW 8116   3.811   5.351   4.801
 2406SOL    HW1 8117   3.879   5.423   4.786
 2406SOL    HW2 8118   3.845   5.265   4.760
 2407SOL     OW 8119   2.259   1.963   3.349
 2407SOL    HW1 8120   2.206   1.956   3.264
 2407SOL    HW2 8121   2.273   1.872   3.387
 2408SOL     OW 8122   3.533   0.314   5.897
 2408SOL    HW1 8123   3.497   0.356   5.813
 2408SOL    HW2 8124   3.626   0.283   5.881
 2409SOL     OW 8125   0.852   2.773   6.967
 2409SOL    HW1 8126   0.853   2.674   6.978
 2409SOL    HW2 8127   0.761   2.808   6.989
 2410SOL     OW 8128   6.967   3.433   4.493
 2410SOL    HW1 8129   6.919   3.371   4.431
 2410SOL    HW2 8130   0.010   3.381   4.547
 2411SOL     OW 8131   3.025   1.815   6.974
 2411SOL    HW1 8132   2.947   1.768   7.014
 2411SOL    HW2 8133   3.110   1.772   7.006
 2412SOL     OW 8134   3.469   2.364   6.146
 2412SOL    HW1 8135   3.507   2.454   6.125
 2412SOL    HW2 8136   3.393   2.373   6.209
 2413SOL     OW 8137   0.473   3.650   6.821
 2413SOL    HW1 8138   0.492   3.583   6.749
 2413SOL    HW2 8139   0.375   3.670   6.822
 2414SOL     OW 8140   6.930   1.458   5.447
 2414SOL    HW1 8141   6.955   1.386   5.381
 2414SOL    HW2 8142   6.851   1.428   5.500
 2415SOL     OW 8143   3.036   4.788   6.620
 2415SOL    HW1 8144   3.060   4.804   6.524
 2415SOL    HW2 8145   2.951   4.836   6.642
 2416SOL     OW 8146   0.327   2.563   2.783
 2416SOL    HW1 8147   0.344   2.661   2.794
 2416SOL    HW2 8148   0.366   2.514   2.862
 2417SOL     OW 8149   3.383   2.249   1.279
 2417SOL    HW1 8150   3.303   2.287   1.324
 2417SOL    HW2 8151   3.357   2.213   1.189
 2418SOL     OW 8152   5.090   4.310   0.005
 2418SOL    HW1 8153   5.079   4.405   0.035
 2418SOL    HW2 8154   5.186   4.294   7.006
 2419SOL     OW 8155   3.223   1.143   3.203
 2419SOL    HW1 8156   3.307   1.183   3.167
 2419SOL    HW2 8157   3.155   1.216   3.217
 2420SOL     OW 8158   1.552   3.669   2.841
 2420SOL    HW1 8159   1.531   3.664   2.743
 2420SOL    HW2 8160   1.628   3.733   2.855
 2421SOL     OW 8161   2.912   6.876   3.419
 2421SOL    HW1 8162   2.993   6.851   3.473
 2421SOL    HW2 8163   2.898   6.807   3.347
 2422SOL     OW 8164   4.199   5.502   0.478
 2422SOL    HW1 8165   4.119   5.442   0.472
 2422SOL    HW2 8166   4.190   5.562   0.557
 2423SOL     OW 8167   2.869   5.395   4.025
 2423SOL    HW1 8168   2.779   5.431   4.047
 2423SOL    HW2 8169   2.880   5.391   3.925
 2424SOL     OW 8170   4.934   6.712   6.292
 2424SOL    HW1 8171   4.999   6.647   6.333
 2424SOL    HW2 8172   4.847   6.706   6.340
 2425SOL     OW 8173   3.949   5.617   5.028
 2425SOL    HW1 8174   4.020   5.678   5.062
 2425SOL    HW2 8175   3.987   5.557   4.957
 2426SOL     OW 8176   2.858   2.197   5.070
 2426SOL    HW1 8177   2.955   2.215   5.053
 2426SOL    HW2 8178   2.807   2.283   5.068
 2427SOL     OW 8179   4.751   1.788   0.615
 2427SOL    HW1 8180   4.653   1.771   0.599
 2427SOL    HW2 8181   4.804   1.709   0.583
 2428SOL     OW 8182   1.615   1.430   2.993
 2428SOL    HW1 8183   1.591   1.521   2.959
 2428SOL    HW2 8184   1.665   1.380   2.922
 2429SOL     OW 8185   6.341   6.059   1.081
 2429SOL    HW1 8186   6.276   6.078   1.155
 2429SOL    HW2 8187   6.429   6.100   1.104
 2430SOL     OW 8188   6.341   0.396   6.195
 2430SOL    HW1 8189   6.333   0.495   6.182
 2430SOL    HW2 8190   6.254   0.353   6.170
 2431SOL     OW 8191   1.131   3.398   2.076
 2431SOL    HW1 8192   1.100   3.304   2.060
 2431SOL    HW2 8193   1.090   3.433   2.160
 2432SOL     OW 8194   2.399   5.631   2.261
 2432SOL    HW1 8195   2.470   5.597   2.323
 2432SOL    HW2 8196   2.313   5.642   2.311
 2433SOL     OW 8197   0.339   4.282   5.288
 2433SOL    HW1 8198   0.378   4.339   5.216
 2433SOL    HW2 8199   0.412   4.230   5.333
 2434SOL     OW 8200   4.567   1.081   3.489
 2434SOL    HW1 8201   4.531   1.075   3.582
 2434SOL    HW2 8202   4.499   1.126   3.430
 2435SOL     OW 8203   5.939   6.580   6.419
 2435SOL    HW1 8204   5.952   6.559   6.322
 2435SOL    HW2 8205   6.006   6.530   6.473
 2436SOL     OW 8206   0.361   3.359   0.385
 2436SOL    HW1 8207   0.347   3.451   0.420
 2436SOL    HW2 8208   0.331   3.355   0.290
 2437SOL     OW 8209   0.228   4.078   1.256
 2437SOL    HW1 8210   0.200   4.114   1.167
 2437SOL    HW2 8211   0.305   4.015   1.243
 2438SOL     OW 8212   3.816   1.660   4.571
 2438SOL    HW1 8213   3.780   1.751   4.547
 2438SOL    HW2 8214   3.824   1.605   4.488
 2439SOL     OW 8215   0.675   5.594   1.284
 2439SOL    HW1 8216   0.662   5.505   1.239
 2439SOL    HW2 8217   0.656   5.585   1.382
 2440SOL     OW 8218   6.371   1.199   5.290
 2440SOL    HW1 8219   6.337   1.227   5.380
 2440SOL    HW2 8220   6.329   1.256   5.219
 2441SOL     OW 8221   6.293   0.748   0.638
 2441SOL    HW1 8222   6.275   0.721   0.732
 2441SOL    HW2 8223   6.306   0.847   0.633
 2442SOL     OW 8224   5.123   3.493   2.209
 2442SOL    HW1 8225   5.133   3.395   2.223
 2442SOL    HW2 8226   5.115   3.539   2.297
 2443SOL     OW 8227   0.585   3.455   1.200
 2443SOL    HW1 8228   0.543   3.375   1.158
 2443SOL    HW2 8229   0.571   3.452   1.299
 2444SOL     OW 8230   3.442   5.460   2.459
 2444SOL    HW1 8231   3.344   5.456   2.482
 2444SOL    HW2 8232   3.496   5.443   2.541
 2445SOL     OW 8233   0.379   2.108   0.565
 2445SOL    HW1 8234   0.471   2.105   0.526
 2445SOL    HW2 8235   0.335   2.019   0.554
 2446SOL     OW 8236   0.164   5.728   1.839
 2446SOL    HW1 8237   0.182   5.825   1.854
 2446SOL    HW2 8238   0.208   5.674   1.910
 2447SOL     OW 8239   1.789   6.944   0.631
 2447SOL    HW1 8240   1.835   6.864   0.591
 2447SOL    HW2 8241   1.817   6.953   0.727
 2448SOL     OW 8242   5.851   0.929   4.386
 2448SOL    HW1 8243   5.928   0.873   4.419
 2448SOL    HW2 8244   5.794   0.955   4.464
 2449SOL     OW 8245   1.755   4.291   0.811
 2449SOL    HW1 8246   1.789   4.384   0.821
 2449SOL    HW2 8247   1.792   4.251   0.727
 2450SOL     OW 8248   0.494   6.543   4.856
 2450SOL    HW1 8249   0.562   6.615   4.842
 2450SOL    HW2 8250   0.492   6.483   4.777
 2451SOL     OW 8251   1.968   6.609   5.846
 2451SOL    HW1 8252   1.971   6.524   5.898
 2451SOL    HW2 8253   2.062   6.638   5.825
 2452SOL     OW 8254   2.408   1.619   4.147
 2452SOL    HW1 8255   2.347   1.674   4.204
 2452SOL    HW2 8256   2.390   1.522   4.162
 2453SOL     OW 8257   1.372   2.146   5.718
 2453SOL    HW1 8258   1.470   2.155   5.702
 2453SOL    HW2 8259   1.349   2.188   5.806
 2454SOL     OW 8260   3.191   5.916   0.957
 2454SOL    HW1 8261   3.166   5.966   1.040
 2454SOL    HW2 8262   3.142   5.828   0.955
 2455SOL     OW 8263   4.073   2.131   0.910
 2455SOL    HW1 8264   4.142   2.197   0.880
 2455SOL    HW2 8265   3.990   2.143   0.857
 2456SOL     OW 8266   0.550   3.867   5.822
 2456SOL    HW1 8267   0.474   3.837   5.879
 2456SOL    HW2 8268   0.635   3.823   5.853
 2457SOL     OW 8269   3.890   1.840   5.422
 2457SOL    HW1 8270   3.938   1.867   5.339
 2457SOL    HW2 8271   3.884   1.741   5.427
 2458SOL     OW 8272   0.005   6.729   2.539
 2458SOL    HW1 8273   0.088   6.677   2.516
 2458SOL    HW2 8274   0.026   6.792   2.614
 2459SOL     OW 8275   1.757   7.004   0.960
 2459SOL    HW1 8276   1.777   0.075   0.985
 2459SOL    HW2 8277   1.833   6.946   0.990
 2460SOL     OW 8278   0.568   1.112   4.383
 2460SOL    HW1 8279   0.632   1.129   4.458
 2460SOL    HW2 8280   0.498   1.047   4.413
 2461SOL     OW 8281   3.613   1.451   4.009
 2461SOL    HW1 8282   3.686   1.516   3.989
 2461SOL    HW2 8283   3.604   1.387   3.933
 2462SOL     OW 8284   0.665   5.457   0.453
 2462SOL    HW1 8285   0.673   5.549   0.414
 2462SOL    HW2 8286   0.644   5.392   0.381
 2463SOL     OW 8287   6.596   0.082   0.127
 2463SOL    HW1 8288   6.557   0.142   0.198
 2463SOL    HW2 8289   6.592   7.011   0.158
 2464SOL     OW 8290   0.867   2.606   4.205
 2464SOL    HW1 8291   0.937   2.538   4.184
 2464SOL    HW2 8292   0.898   2.697   4.178
 2465SOL     OW 8293   6.680   0.047   6.456
 2465SOL    HW1 8294   6.716   0.017   6.545
 2465SOL    HW2 8295   6.703   0.143   6.441
 2466SOL     OW 8296   0.818   2.034   1.854
 2466SOL    HW1 8297   0.740   1.976   1.875
 2466SOL    HW2 8298   0.841   2.025   1.757
 2467SOL     OW 8299   5.260   3.268   4.979
 2467SOL    HW1 8300   5.324   3.343   4.997
 2467SOL    HW2 8301   5.189   3.299   4.916
 2468SOL     OW 8302   3.396   0.114   5.438
 2468SOL    HW1 8303   3.479   0.109   5.495
 2468SOL    HW2 8304   3.420   0.093   5.343
 2469SOL     OW 8305   3.333   2.027   5.939
 2469SOL    HW1 8306   3.420   2.029   5.890
 2469SOL    HW2 8307   3.299   2.121   5.950
 2470SOL     OW 8308   2.645   5.449   6.736
 2470SOL    HW1 8309   2.546   5.463   6.741
 2470SOL    HW2 8310   2.668   5.362   6.779
 2471SOL     OW 8311   3.003   5.113   2.130
 2471SOL    HW1 8312   3.016   5.198   2.080
 2471SOL    HW2 8313   2.923   5.123   2.191
 2472SOL     OW 8314   4.732   1.409   3.563
 2472SOL    HW1 8315   4.672   1.347   3.512
 2472SOL    HW2 8316   4.776   1.473   3.499
 2473SOL     OW 8317   0.567   3.944   3.912
 2473SOL    HW1 8318   0.566   4.028   3.858
 2473SOL    HW2 8319   0.527   3.869   3.859
 2474SOL     OW 8320   0.875   6.015   1.838
 2474SOL    HW1 8321   0.954   6.006   1.777
 2474SOL    HW2 8322   0.808   6.077   1.797
 2475SOL     OW 8323   4.760   1.159   0.407
 2475SOL    HW1 8324   4.758   1.061   0.424
 2475SOL    HW2 8325   4.726   1.178   0.314
 2476SOL     OW 8326   4.389   0.754   0.858
 2476SOL    HW1 8327   4.445   0.689   0.911
 2476SOL    HW2 8328   4.303   0.710   0.832
 2477SOL     OW 8329   3.837   0.292   3.535
 2477SOL    HW1 8330   3.836   0.380   3.583
 2477SOL    HW2 8331   3.743   0.266   3.512
 2478SOL     OW 8332   4.519   0.177   4.740
 2478SOL    HW1 8333   4.576   0.100   4.713
 2478SOL    HW2 8334   4.495   0.168   4.837
 2479SOL     OW 8335   5.788   3.363   1.425
 2479SOL    HW1 8336   5.813   3.379   1.520
 2479SOL    HW2 8337   5.796   3.265   1.404
 2480SOL     OW 8338   3.891   2.334   1.452
 2480SOL    HW1 8339   3.924   2.340   1.358
 2480SOL    HW2 8340   3.961   2.290   1.508
 2481SOL     OW 8341   3.242   6.804   2.055
 2481SOL    HW1 8342   3.208   6.802   2.149
 2481SOL    HW2 8343   3.320   6.741   2.047
 2482SOL     OW 8344   6.476   3.389   7.007
 2482SOL    HW1 8345   6.415   3.382   0.062
 2482SOL    HW2 8346   6.571   3.399   0.015
 2483SOL     OW 8347   1.864   2.606   0.797
 2483SOL    HW1 8348   1.803   2.538   0.836
 2483SOL    HW2 8349   1.817   2.694   0.791
 2484SOL     OW 8350   4.341   0.493   0.271
 2484SOL    HW1 8351   4.407   0.448   0.331
 2484SOL    HW2 8352   4.311   0.429   0.200
 2485SOL     OW 8353   0.688   2.247   6.159
 2485SOL    HW1 8354   0.775   2.198   6.160
 2485SOL    HW2 8355   0.653   2.254   6.253
 2486SOL     OW 8356   0.140   5.777   3.807
 2486SOL    HW1 8357   0.074   5.705   3.827
 2486SOL    HW2 8358   0.107   5.864   3.842
 2487SOL     OW 8359   4.579   5.996   0.077
 2487SOL    HW1 8360   4.551   6.004   7.005
 2487SOL    HW2 8361   4.571   6.085   0.122
 2488SOL     OW 8362   6.637   4.079   0.627
 2488SOL    HW1 8363   6.608   4.144   0.697
 2488SOL    HW2 8364   6.718   4.114   0.580
 2489SOL     OW 8365   6.179   5.086   4.561
 2489SOL    HW1 8366   6.177   5.129   4.651
 2489SOL    HW2 8367   6.119   5.137   4.499
 2490SOL     OW 8368   2.571   5.749   2.952
 2490SOL    HW1 8369   2.538   5.815   3.019
 2490SOL    HW2 8370   2.671   5.747   2.953
 2491SOL     OW 8371   3.835   4.613   1.502
 2491SOL    HW1 8372   3.770   4.547   1.465
 2491SOL    HW2 8373   3.895   4.645   1.428
 2492SOL     OW 8374   6.559   5.055   1.399
 2492SOL    HW1 8375   6.482   5.103   1.440
 2492SOL    HW2 8376   6.643   5.109   1.413
 2493SOL     OW 8377   5.286   6.782   0.989
 2493SOL    HW1 8378   5.302   6.699   0.937
 2493SOL    HW2 8379   5.370   6.836   0.993
 2494SOL     OW 8380   6.728   3.524   1.333
 2494SOL    HW1 8381   6.779   3.536   1.419
 2494SOL    HW2 8382   6.726   3.427   1.309
 2495SOL     OW 8383   0.640   4.604   2.016
 2495SOL    HW1 8384   0.723   4.651   1.985
 2495SOL    HW2 8385   0.651   4.576   2.111
 2496SOL     OW 8386   5.691   4.872   6.683
 2496SOL    HW1 8387   5.713   4.932   6.759
 2496SOL    HW2 8388   5.763   4.803   6.674
 2497SOL     OW 8389   0.317   6.878   2.029
 2497SOL    HW1 8390   0.409   6.916   2.018
 2497SOL    HW2 8391   0.282   6.902   2.119
 2498SOL     OW 8392   1.899   3.546   5.357
 2498SOL    HW1 8393   1.898   3.485   5.437
 2498SOL    HW2 8394   1.907   3.641   5.387
 2499SOL     OW 8395   0.297   3.791   1.476
 2499SOL    HW1 8396   0.343   3.816   1.391
 2499SOL    HW2 8397   0.245   3.870   1.510
 2500SOL     OW 8398   3.824   3.101   1.139
 2500SOL    HW1 8399   3.736   3.054   1.132
 2500SOL    HW2 8400   3.888   3.062   1.072
 2501SOL     OW 8401   6.155   5.348   6.518
 2501SOL    HW1 8402   6.056   5.357   6.504
 2501SOL    HW2 8403   6.184   5.406   6.594
 2502SOL     OW 8404   2.416   6.081   4.528
 2502SOL    HW1 8405   2.391   5.992   4.492
 2502SOL    HW2 8406   2.362   6.152   4.483
 2503SOL     OW 8407   3.287   6.656   5.785
 2503SOL    HW1 8408   3.251   6.734   5.835
 2503SOL    HW2 8409   3.253   6.571   5.827
 2504SOL     OW 8410   4.110   6.729   3.536
 2504SOL    HW1 8411   4.192   6.744   3.590
 2504SOL    HW2 8412   4.066   6.817   3.518
 2505SOL     OW 8413   6.955   4.324   4.070
 2505SOL    HW1 8414   6.964   4.258   4.145
 2505SOL    HW2 8415   6.912   4.279   3.992
 2506SOL     OW 8416   5.460   5.353   5.943
 2506SOL    HW1 8417   5.450   5.390   6.035
 2506SOL    HW2 8418   5.396   5.399   5.881
 2507SOL     OW 8419   6.828   3.059   1.943
 2507SOL    HW1 8420   6.865   3.025   2.029
 2507SOL    HW2 8421   6.730   3.040   1.939
 2508SOL     OW 8422   5.310   1.372   4.463
 2508SOL    HW1 8423   5.368   1.418   4.396
 2508SOL    HW2 8424   5.247   1.310   4.416
 2509SOL     OW 8425   0.301   3.499   5.776
 2509SOL    HW1 8426   0.228   3.559   5.808
 2509SOL    HW2 8427   0.381   3.554   5.751
 2510SOL     OW 8428   3.067   4.030   2.203
 2510SOL    HW1 8429   3.002   4.104   2.183
 2510SOL    HW2 8430   3.019   3.956   2.250
 2511SOL     OW 8431   2.139   0.370   4.532
 2511SOL    HW1 8432   2.143   0.425   4.449
 2511SOL    HW2 8433   2.140   0.273   4.508
 2512SOL     OW 8434   3.972   4.828   4.258
 2512SOL    HW1 8435   3.888   4.790   4.297
 2512SOL    HW2 8436   4.031   4.862   4.331
 2513SOL     OW 8437   2.524   5.547   6.117
 2513SOL    HW1 8438   2.552   5.635   6.154
 2513SOL    HW2 8439   2.466   5.500   6.183
 2514SOL     OW 8440   1.417   1.892   2.830
 2514SOL    HW1 8441   1.479   1.970   2.829
 2514SOL    HW2 8442   1.335   1.914   2.883
 2515SOL     OW 8443   1.045   1.367   1.572
 2515SOL    HW1 8444   0.964   1.348   1.517
 2515SOL    HW2 8445   1.096   1.282   1.588
 2516SOL     OW 8446   5.848   2.132   4.737
 2516SOL    HW1 8447   5.758   2.136   4.781
 2516SOL    HW2 8448   5.853   2.048   4.682
 2517SOL     OW 8449   1.309   1.551   4.060
 2517SOL    HW1 8450   1.281   1.475   4.118
 2517SOL    HW2 8451   1.230   1.608   4.039
 2518SOL     OW 8452   2.451   4.870   1.482
 2518SOL    HW1 8453   2.495   4.808   1.547
 2518SOL    HW2 8454   2.502   4.956   1.477
 2519SOL     OW 8455   0.908   1.254   1.130
 2519SOL    HW1 8456   0.917   1.264   1.031
 2519SOL    HW2 8457   0.939   1.163   1.157
 2520SOL     OW 8458   2.548   2.161   0.220
 2520SOL    HW1 8459   2.469   2.135   0.275
 2520SOL    HW2 8460   2.559   2.260   0.222
 2521SOL     OW 8461   4.889   0.919   5.333
 2521SOL    HW1 8462   4.871   0.957   5.424
 2521SOL    HW2 8463   4.985   0.934   5.309
 2522SOL     OW 8464   1.364   2.137   6.647
 2522SOL    HW1 8465   1.444   2.181   6.686
 2522SOL    HW2 8466   1.389   2.045   6.615
 2523SOL     OW 8467   1.667   5.209   6.842
 2523SOL    HW1 8468   1.684   5.233   6.938
 2523SOL    HW2 8469   1.711   5.122   6.821
 2524SOL     OW 8470   1.436   0.522   4.322
 2524SOL    HW1 8471   1.414   0.458   4.396
 2524SOL    HW2 8472   1.356   0.579   4.302
 2525SOL     OW 8473   6.676   2.553   5.430
 2525SOL    HW1 8474   6.628   2.610   5.363
 2525SOL    HW2 8475   6.775   2.564   5.420
 2526SOL     OW 8476   1.524   6.917   1.343
 2526SOL    HW1 8477   1.545   6.901   1.247
 2526SOL    HW2 8478   1.495   6.831   1.386
 2527SOL     OW 8479   4.718   5.153   6.052
 2527SOL    HW1 8480   4.737   5.242   6.011
 2527SOL    HW2 8481   4.623   5.127   6.034
 2528SOL     OW 8482   4.469   5.933   6.508
 2528SOL    HW1 8483   4.380   5.946   6.551
 2528SOL    HW2 8484   4.507   6.022   6.482
 2529SOL     OW 8485   0.567   0.051   6.210
 2529SOL    HW1 8486   0.529   0.130   6.258
 2529SOL    HW2 8487   0.503   6.998   6.215
 2530SOL     OW 8488   2.225   5.594   6.412
 2530SOL    HW1 8489   2.145   5.587   6.352
 2530SOL    HW2 8490   2.267   5.504   6.422
 2531SOL     OW 8491   0.088   5.490   6.455
 2531SOL    HW1 8492   0.063   5.395   6.437
 2531SOL    HW2 8493   0.150   5.522   6.383
 2532SOL     OW 8494   5.551   6.387   0.986
 2532SOL    HW1 8495   5.593   6.343   0.906
 2532SOL    HW2 8496   5.478   6.329   1.022
 2533SOL     OW 8497   4.821   0.605   3.943
 2533SOL    HW1 8498   4.884   0.633   3.870
 2533SOL    HW2 8499   4.873   0.567   4.019
 2534SOL     OW 8500   3.845   1.130   2.945
 2534SOL    HW1 8501   3.822   1.124   3.042
 2534SOL    HW2 8502   3.920   1.195   2.932
 2535SOL     OW 8503   3.870   2.944   6.522
 2535SOL    HW1 8504   3.899   3.033   6.486
 2535SOL    HW2 8505   3.786   2.916   6.477
 2536SOL     OW 8506   1.377   1.183   0.776
 2536SOL    HW1 8507   1.295   1.221   0.733
 2536SOL    HW2 8508   1.367   1.186   0.876
 2537SOL     OW 8509   3.972   6.910   6.754
 2537SOL    HW1 8510   4.071   6.910   6.745
 2537SOL    HW2 8511   3.947   6.908   6.851
 2538SOL     OW 8512   6.497   3.148   3.634
 2538SOL    HW1 8513   6.528   3.072   3.691
 2538SOL    HW2 8514   6.456   3.218   3.692
 2539SOL     OW 8515   5.532   2.649   5.466
 2539SOL    HW1 8516   5.567   2.586   5.396
 2539SOL    HW2 8517   5.555   2.614   5.557
 2540SOL     OW 8518   2.762   1.684   1.887
 2540SOL    HW1 8519   2.830   1.647   1.825
 2540SOL    HW2 8520   2.756   1.627   1.969
 2541SOL     OW 8521   3.921   6.510   4.315
 2541SOL    HW1 8522   3.938   6.412   4.329
 2541SOL    HW2 8523   3.990   6.563   4.366
 2542SOL     OW 8524   2.091   5.206   6.644
 2542SOL    HW1 8525   2.189   5.213   6.628
 2542SOL    HW2 8526   2.064   5.269   6.717
 2543SOL     OW 8527   1.508   1.081   3.412
 2543SOL    HW1 8528   1.526   1.125   3.500
 2543SOL    HW2 8529   1.434   1.130   3.365
 2544SOL     OW 8530   1.298   5.680   6.983
 2544SOL    HW1 8531   1.211   5.729   6.983
 2544SOL    HW2 8532   1.301   5.617   0.037
 2545SOL     OW 8533   2.840   5.983   2.874
 2545SOL    HW1 8534   2.887   6.001   2.960
 2545SOL    HW2 8535   2.744   6.009   2.882
 2546SOL     OW 8536   6.769   1.433   1.022
 2546SOL    HW1 8537   6.748   1.457   1.116
 2546SOL    HW2 8538   6.791   1.335   1.017
 2547SOL     OW 8539   0.825   3.522   4.886
 2547SOL    HW1 8540   0.810   3.613   4.925
 2547SOL    HW2 8541   0.920   3.513   4.856
 2548SOL     OW 8542   1.010   0.518   4.224
 2548SOL    HW1 8543   0.995   0.509   4.322
 2548SOL    HW2 8544   0.929   0.556   4.180
 2549SOL     OW 8545   6.449   2.524   1.345
 2549SOL    HW1 8546   6.423   2.591   1.415
 2549SOL    HW2 8547   6.386   2.447   1.347
 2550SOL     OW 8548   6.118   6.206   7.017
 2550SOL    HW1 8549   6.102   6.284   0.054
 2550SOL    HW2 8550   6.186   6.145   0.034
 2551SOL     OW 8551   1.326   4.297   6.575
 2551SOL    HW1 8552   1.236   4.259   6.596
 2551SOL    HW2 8553   1.350   4.367   6.644
 2552SOL     OW 8554   1.759   5.384   3.253
 2552SOL    HW1 8555   1.690   5.409   3.321
 2552SOL    HW2 8556   1.742   5.292   3.219
 2553SOL     OW 8557   4.219   3.586   7.000
 2553SOL    HW1 8558   4.165   3.546   6.926
 2553SOL    HW2 8559   4.263   3.670   6.967
 2554SOL     OW 8560   1.971   1.435   0.168
 2554SOL    HW1 8561   1.926   1.521   0.194
 2554SOL    HW2 8562   1.913   1.358   0.194
 2555SOL     OW 8563   6.289   1.111   6.657
 2555SOL    HW1 8564   6.256   1.018   6.673
 2555SOL    HW2 8565   6.245   1.149   6.576
 2556SOL     OW 8566   2.870   5.674   0.905
 2556SOL    HW1 8567   2.880   5.733   0.825
 2556SOL    HW2 8568   2.958   5.661   0.949
 2557SOL     OW 8569   1.908   4.171   0.144
 2557SOL    HW1 8570   1.959   4.148   0.061
 2557SOL    HW2 8571   1.812   4.144   0.133
 2558SOL     OW 8572   3.773   0.266   5.788
 2558SOL    HW1 8573   3.840   0.318   5.735
 2558SOL    HW2 8574   3.813   0.180   5.818
 2559SOL     OW 8575   0.015   5.387   4.964
 2559SOL    HW1 8576   0.048   5.333   5.041
 2559SOL    HW2 8577   0.021   5.333   4.880
 2560SOL     OW 8578   6.169   1.391   6.901
 2560SOL    HW1 8579   6.099   1.320   6.907
 2560SOL    HW2 8580   6.258   1.349   6.884
 2561SOL     OW 8581   3.377   5.374   4.608
 2561SOL    HW1 8582   3.409   5.288   4.568
 2561SOL    HW2 8583   3.453   5.438   4.618
 2562SOL     OW 8584   1.961   3.966   6.715
 2562SOL    HW1 8585   1.907   3.883   6.722
 2562SOL    HW2 8586   1.910   4.035   6.665
 2563SOL     OW 8587   1.957   0.958   0.101
 2563SOL    HW1 8588   1.978   0.872   0.148
 2563SOL    HW2 8589   1.888   1.009   0.152
 2564SOL     OW 8590   1.466   6.191   1.659
 2564SOL    HW1 8591   1.522   6.139   1.724
 2564SOL    HW2 8592   1.417   6.128   1.599
 2565SOL     OW 8593   1.391   0.490   1.377
 2565SOL    HW1 8594   1.337   0.517   1.456
 2565SOL    HW2 8595   1.340   0.422   1.324
 2566SOL     OW 8596   1.610   6.808   6.079
 2566SOL    HW1 8597   1.707   6.835   6.082
 2566SOL    HW2 8598   1.604   6.709   6.091
 2567SOL     OW 8599   0.421   6.604   0.484
 2567SOL    HW1 8600   0.446   6.670   0.556
 2567SOL    HW2 8601   0.396   6.654   0.401
 2568SOL     OW 8602   4.969   3.568   0.054
 2568SOL    HW1 8603   4.927   3.632   7.014
 2568SOL    HW2 8604   4.898   3.510   0.095
 2569SOL     OW 8605   2.742   0.701   2.949
 2569SOL    HW1 8606   2.665   0.639   2.966
 2569SOL    HW2 8607   2.737   0.779   3.012
 2570SOL     OW 8608   5.350   2.397   6.277
 2570SOL    HW1 8609   5.299   2.363   6.355
 2570SOL    HW2 8610   5.407   2.324   6.239
 2571SOL     OW 8611   1.062   3.974   4.774
 2571SOL    HW1 8612   1.138   3.960   4.711
 2571SOL    HW2 8613   0.988   3.910   4.753
 2572SOL     OW 8614   1.663   4.938   3.736
 2572SOL    HW1 8615   1.678   4.909   3.641
 2572SOL    HW2 8616   1.709   4.875   3.797
 2573SOL     OW 8617   1.014   0.249   0.631
 2573SOL    HW1 8618   1.026   0.348   0.640
 2573SOL    HW2 8619   0.965   0.214   0.711
 2574SOL     OW 8620   6.230   3.181   0.657
 2574SOL    HW1 8621   6.249   3.117   0.582
 2574SOL    HW2 8622   6.242   3.275   0.624
 2575SOL     OW 8623   0.767   5.799   6.196
 2575SOL    HW1 8624   0.810   5.883   6.230
 2575SOL    HW2 8625   0.748   5.738   6.273
 2576SOL     OW 8626   4.231   5.768   4.102
 2576SOL    HW1 8627   4.233   5.735   4.008
 2576SOL    HW2 8628   4.240   5.868   4.102
 2577SOL     OW 8629   2.355   4.225   2.208
 2577SOL    HW1 8630   2.411   4.248   2.288
 2577SOL    HW2 8631   2.345   4.306   2.150
 2578SOL     OW 8632   4.099   2.263   3.036
 2578SOL    HW1 8633   4.192   2.294   3.012
 2578SOL    HW2 8634   4.039   2.275   2.957
 2579SOL     OW 8635   1.155   6.764   3.458
 2579SOL    HW1 8636   1.207   6.692   3.413
 2579SOL    HW2 8637   1.196   6.784   3.547
 2580SOL     OW 8638   1.975   1.755   6.114
 2580SOL    HW1 8639   2.020   1.840   6.142
 2580SOL    HW2 8640   1.881   1.776   6.085
 2581SOL     OW 8641   3.583   0.761   5.226
 2581SOL    HW1 8642   3.500   0.712   5.254
 2581SOL    HW2 8643   3.557   0.839   5.169
 2582SOL     OW 8644   6.969   3.152   1.731
 2582SOL    HW1 8645   6.923   3.114   1.812
 2582SOL    HW2 8646   0.042   3.163   1.750
 2583SOL     OW 8647   6.052   0.316   0.522
 2583SOL    HW1 8648   6.006   0.405   0.522
 2583SOL    HW2 8649   6.149   0.328   0.539
 2584SOL     OW 8650   3.903   4.562   6.315
 2584SOL    HW1 8651   3.994   4.571   6.355
 2584SOL    HW2 8652   3.871   4.652   6.285
 2585SOL     OW 8653   3.201   4.522   6.415
 2585SOL    HW1 8654   3.179   4.429   6.386
 2585SOL    HW2 8655   3.145   4.588   6.366
 2586SOL     OW 8656   2.793   0.640   3.386
 2586SOL    HW1 8657   2.817   0.719   3.330
 2586SOL    HW2 8658   2.744   0.671   3.467
 2587SOL     OW 8659   6.699   0.964   4.075
 2587SOL    HW1 8660   6.611   0.919   4.090
 2587SOL    HW2 8661   6.773   0.907   4.108
 2588SOL     OW 8662   4.555   0.809   6.360
 2588SOL    HW1 8663   4.556   0.730   6.299
 2588SOL    HW2 8664   4.569   0.893   6.307
 2589SOL     OW 8665   2.115   6.585   0.368
 2589SOL    HW1 8666   2.081   6.548   0.282
 2589SOL    HW2 8667   2.214   6.573   0.372
 2590SOL     OW 8668   2.494   5.277   0.090
 2590SOL    HW1 8669   2.564   5.230   0.038
 2590SOL    HW2 8670   2.494   5.374   0.066
 2591SOL     OW 8671   6.351   5.674   3.547
 2591SOL    HW1 8672   6.274   5.708   3.493
 2591SOL    HW2 8673   6.378   5.743   3.614
 2592SOL     OW 8674   2.784   3.714   0.938
 2592SOL    HW1 8675   2.734   3.628   0.954
 2592SOL    HW2 8676   2.821   3.748   1.024
 2593SOL     OW 8677   3.489   3.976   0.681
 2593SOL    HW1 8678   3.469   3.892   0.731
 2593SOL    HW2 8679   3.407   4.004   0.631
 2594SOL     OW 8680   1.866   3.182   4.502
 2594SOL    HW1 8681   1.928   3.140   4.568
 2594SOL    HW2 8682   1.777   3.137   4.507
 2595SOL     OW 8683   1.982   1.244   2.672
 2595SOL    HW1 8684   2.063   1.196   2.705
 2595SOL    HW2 8685   2.010   1.329   2.627
 2596SOL     OW 8686   1.342   1.590   0.471
 2596SOL    HW1 8687   1.278   1.665   0.485
 2596SOL    HW2 8688   1.292   1.509   0.439
 2597SOL     OW 8689   6.860   6.488   0.150
 2597SOL    HW1 8690   6.839   6.574   0.198
 2597SOL    HW2 8691   6.942   6.500   0.095
 2598SOL     OW 8692   5.905   2.359   2.780
 2598SOL    HW1 8693   5.812   2.381   2.811
 2598SOL    HW2 8694   5.901   2.323   2.687
 2599SOL     OW 8695   3.026   5.880   2.094
 2599SOL    HW1 8696   3.088   5.808   2.124
 2599SOL    HW2 8697   3.078   5.951   2.047
 2600SOL     OW 8698   5.506   4.071   4.477
 2600SOL    HW1 8699   5.476   4.039   4.387
 2600SOL    HW2 8700   5.582   4.135   4.467
 2601SOL     OW 8701   6.581   1.448   3.579
 2601SOL    HW1 8702   6.501   1.411   3.533
 2601SOL    HW2 8703   6.663   1.400   3.548
 2602SOL     OW 8704   0.992   4.203   2.994
 2602SOL    HW1 8705   0.935   4.172   3.069
 2602SOL    HW2 8706   1.025   4.296   3.014
 2603SOL     OW 8707   2.518   6.082   2.592
 2603SOL    HW1 8708   2.510   5.982   2.594
 2603SOL    HW2 8709   2.452   6.122   2.655
 2604SOL     OW 8710   4.655   2.733   3.426
 2604SOL    HW1 8711   4.680   2.816   3.475
 2604SOL    HW2 8712   4.661   2.654   3.487
 2605SOL     OW 8713   1.882   3.956   1.860
 2605SOL    HW1 8714   1.854   3.910   1.944
 2605SOL    HW2 8715   1.923   4.044   1.881
 2606SOL     OW 8716   4.752   3.659   1.124
 2606SOL    HW1 8717   4.745   3.733   1.191
 2606SOL    HW2 8718   4.840   3.667   1.076
 2607SOL     OW 8719   2.685   2.076   1.415
 2607SOL    HW1 8720   2.699   2.145   1.487
 2607SOL    HW2 8721   2.598   2.029   1.430
 2608SOL     OW 8722   2.595   5.103   5.865
 2608SOL    HW1 8723   2.496   5.089   5.865
 2608SOL    HW2 8724   2.620   5.166   5.791
 2609SOL     OW 8725   0.151   2.609   0.622
 2609SOL    HW1 8726   0.164   2.539   0.552
 2609SOL    HW2 8727   0.122   2.694   0.579
 2610SOL     OW 8728   1.742   4.223   4.879
 2610SOL    HW1 8729   1.681   4.188   4.808
 2610SOL    HW2 8730   1.802   4.149   4.910
 2611SOL     OW 8731   5.190   0.296   6.824
 2611SOL    HW1 8732   5.234   0.366   6.768
 2611SOL    HW2 8733   5.186   0.210   6.774
 2612SOL     OW 8734   6.608   0.142   6.125
 2612SOL    HW1 8735   6.688   0.110   6.074
 2612SOL    HW2 8736   6.590   0.080   6.202
 2613SOL     OW 8737   0.834   6.824   6.785
 2613SOL    HW1 8738   0.930   6.796   6.786
 2613SOL    HW2 8739   0.781   6.763   6.844
 2614SOL     OW 8740   5.757   1.718   6.882
 2614SOL    HW1 8741   5.811   1.683   6.805
 2614SOL    HW2 8742   5.704   1.798   6.851
 2615SOL     OW 8743   0.319   3.230   6.776
 2615SOL    HW1 8744   0.346   3.199   6.685
 2615SOL    HW2 8745   0.226   3.199   6.796
 2616SOL     OW 8746   1.084   1.154   4.917
 2616SOL    HW1 8747   1.110   1.105   4.833
 2616SOL    HW2 8748   1.047   1.090   4.983
 2617SOL     OW 8749   4.848   0.503   1.356
 2617SOL    HW1 8750   4.760   0.463   1.330
 2617SOL    HW2 8751   4.837   0.553   1.442
 2618SOL     OW 8752   1.287   6.399   6.267
 2618SOL    HW1 8753   1.191   6.416   6.249
 2618SOL    HW2 8754   1.324   6.470   6.327
 2619SOL     OW 8755   4.711   1.155   2.708
 2619SOL    HW1 8756   4.645   1.220   2.745
 2619SOL    HW2 8757   4.801   1.172   2.749
 2620SOL     OW 8758   6.052   1.576   1.462
 2620SOL    HW1 8759   6.123   1.507   1.476
 2620SOL    HW2 8760   6.084   1.643   1.394
 2621SOL     OW 8761   1.772   6.069   1.570
 2621SOL    HW1 8762   1.724   6.038   1.652
 2621SOL    HW2 8763   1.769   5.997   1.500
 2622SOL     OW 8764   2.882   3.742   6.858
 2622SOL    HW1 8765   2.888   3.726   6.760
 2622SOL    HW2 8766   2.787   3.761   6.884
 2623SOL     OW 8767   0.057   6.134   3.698
 2623SOL    HW1 8768   0.021   6.196   3.767
 2623SOL    HW2 8769   7.011   6.115   3.629
 2624SOL     OW 8770   0.775   1.457   4.812
 2624SOL    HW1 8771   0.864   1.418   4.786
 2624SOL    HW2 8772   0.790   1.538   4.869
 2625SOL     OW 8773   2.626   5.095   6.517
 2625SOL    HW1 8774   2.700   5.109   6.582
 2625SOL    HW2 8775   2.642   5.010   6.466
 2626SOL     OW 8776   6.894   5.997   6.788
 2626SOL    HW1 8777   6.898   6.041   6.877
 2626SOL    HW2 8778   6.972   5.935   6.777
 2627SOL     OW 8779   2.028   0.294   6.249
 2627SOL    HW1 8780   2.127   0.282   6.253
 2627SOL    HW2 8781   1.986   0.251   6.328
 2628SOL     OW 8782   0.295   4.520   1.070
 2628SOL    HW1 8783   0.218   4.457   1.064
 2628SOL    HW2 8784   0.340   4.509   1.158
 2629SOL     OW 8785   3.267   4.102   2.401
 2629SOL    HW1 8786   3.228   4.116   2.310
 2629SOL    HW2 8787   3.287   4.005   2.414
 2630SOL     OW 8788   3.944   0.688   4.605
 2630SOL    HW1 8789   4.015   0.746   4.645
 2630SOL    HW2 8790   3.923   0.720   4.513
 2631SOL     OW 8791   5.398   0.065   0.134
 2631SOL    HW1 8792   5.430   0.112   0.051
 2631SOL    HW2 8793   5.452   0.097   0.212
 2632SOL     OW 8794   5.812   5.274   1.913
 2632SOL    HW1 8795   5.835   5.181   1.886
 2632SOL    HW2 8796   5.752   5.272   1.993
 2633SOL     OW 8797   0.216   3.211   6.150
 2633SOL    HW1 8798   0.148   3.273   6.190
 2633SOL    HW2 8799   0.283   3.263   6.098
 2634SOL     OW 8800   0.488   1.219   5.545
 2634SOL    HW1 8801   0.557   1.292   5.551
 2634SOL    HW2 8802   0.533   1.130   5.549
 2635SOL     OW 8803   4.482   5.481   3.726
 2635SOL    HW1 8804   4.527   5.394   3.710
 2635SOL    HW2 8805   4.440   5.480   3.817
 2636SOL     OW 8806   3.608   6.527   6.225
 2636SOL    HW1 8807   3.532   6.577   6.267
 2636SOL    HW2 8808   3.663   6.484   6.296
 2637SOL     OW 8809   0.624   0.895   3.055
 2637SOL    HW1 8810   0.704   0.952   3.039
 2637SOL    HW2 8811   0.543   0.953   3.063
 2638SOL     OW 8812   0.964   6.356   4.467
 2638SOL    HW1 8813   1.041   6.414   4.491
 2638SOL    HW2 8814   0.996   6.263   4.449
 2639SOL     OW 8815   4.296   4.718   4.717
 2639SOL    HW1 8816   4.309   4.649   4.788
 2639SOL    HW2 8817   4.384   4.756   4.690
 2640SOL     OW 8818   2.668   0.715   3.617
 2640SOL    HW1 8819   2.605   0.759   3.681
 2640SOL    HW2 8820   2.701   0.629   3.656
 2641SOL     OW 8821   5.426   2.171   0.203
 2641SOL    HW1 8822   5.341   2.128   0.172
 2641SOL    HW2 8823   5.494   2.165   0.130
 2642SOL     OW 8824   6.351   0.325   3.094
 2642SOL    HW1 8825   6.429   0.356   3.148
 2642SOL    HW2 8826   6.272   0.312   3.154
 2643SOL     OW 8827   2.024   4.781   4.231
 2643SOL    HW1 8828   2.076   4.717   4.175
 2643SOL    HW2 8829   1.963   4.834   4.173
 2644SOL     OW 8830   5.647   5.291   4.886
 2644SOL    HW1 8831   5.664   5.300   4.984
 2644SOL    HW2 8832   5.548   5.288   4.869
 2645SOL     OW 8833   4.927   6.005   3.447
 2645SOL    HW1 8834   4.950   5.909   3.464
 2645SOL    HW2 8835   4.828   6.015   3.445
 2646SOL     OW 8836   1.109   2.372   6.244
 2646SOL    HW1 8837   1.167   2.368   6.325
 2646SOL    HW2 8838   1.069   2.464   6.237
 2647SOL     OW 8839   4.708   6.781   2.521
 2647SOL    HW1 8840   4.640   6.751   2.454
 2647SOL    HW2 8841   4.728   6.878   2.507
 2648SOL     OW 8842   0.788   6.968   6.067
 2648SOL    HW1 8843   0.705   6.986   6.120
 2648SOL    HW2 8844   0.826   0.031   6.034
 2649SOL     OW 8845   5.113   1.653   3.546
 2649SOL    HW1 8846   5.107   1.560   3.582
 2649SOL    HW2 8847   5.178   1.656   3.470
 2650SOL     OW 8848   2.854   6.676   3.783
 2650SOL    HW1 8849   2.770   6.704   3.737
 2650SOL    HW2 8850   2.836   6.665   3.881
 2651SOL     OW 8851   4.028   2.212   4.001
 2651SOL    HW1 8852   4.029   2.261   4.089
 2651SOL    HW2 8853   3.946   2.238   3.950
 2652SOL     OW 8854   4.989   4.178   5.305
 2652SOL    HW1 8855   4.936   4.192   5.389
 2652SOL    HW2 8856   5.045   4.258   5.287
 2653SOL     OW 8857   2.265   6.338   6.877
 2653SOL    HW1 8858   2.181   6.355   6.825
 2653SOL    HW2 8859   2.340   6.319   6.814
 2654SOL     OW 8860   0.091   0.957   0.776
 2654SOL    HW1 8861   0.174   1.013   0.770
 2654SOL    HW2 8862   0.055   0.962   0.870
 2655SOL     OW 8863   5.496   6.442   2.775
 2655SOL    HW1 8864   5.531   6.352   2.748
 2655SOL    HW2 8865   5.565   6.512   2.754
 2656SOL     OW 8866   4.243   6.122   3.553
 2656SOL    HW1 8867   4.324   6.074   3.518
 2656SOL    HW2 8868   4.170   6.118   3.486
 2657SOL     OW 8869   1.358   3.994   6.753
 2657SOL    HW1 8870   1.445   4.036   6.729
 2657SOL    HW2 8871   1.325   4.032   6.839
 2658SOL     OW 8872   4.121   5.128   0.641
 2658SOL    HW1 8873   4.174   5.044   0.632
 2658SOL    HW2 8874   4.150   5.177   0.723
 2659SOL     OW 8875   0.011   2.304   5.205
 2659SOL    HW1 8876   7.006   2.223   5.155
 2659SOL    HW2 8877   0.102   2.289   5.244
 2660SOL     OW 8878   0.286   1.547   1.140
 2660SOL    HW1 8879   0.371   1.598   1.127
 2660SOL    HW2 8880   0.208   1.609   1.130
 2661SOL     OW 8881   1.567   1.388   1.050
 2661SOL    HW1 8882   1.486   1.419   1.000
 2661SOL    HW2 8883   1.584   1.292   1.031
 2662SOL     OW 8884   2.918   1.879   2.046
 2662SOL    HW1 8885   2.897   1.781   2.045
 2662SOL    HW2 8886   3.015   1.893   2.031
 2663SOL     OW 8887   3.923   0.033   0.505
 2663SOL    HW1 8888   3.908   6.967   0.545
 2663SOL    HW2 8889   4.001   0.030   0.442
 2664SOL     OW 8890   4.910   3.718   5.408
 2664SOL    HW1 8891   4.883   3.803   5.454
 2664SOL    HW2 8892   4.880   3.640   5.463
 2665SOL     OW 8893   1.850   3.320   3.819
 2665SOL    HW1 8894   1.856   3.312   3.918
 2665SOL    HW2 8895   1.905   3.398   3.788
 2666SOL     OW 8896   2.109   4.033   1.602
 2666SOL    HW1 8897   2.069   4.120   1.576
 2666SOL    HW2 8898   2.074   4.006   1.692
 2667SOL     OW 8899   6.528   2.909   5.737
 2667SOL    HW1 8900   6.578   2.977   5.682
 2667SOL    HW2 8901   6.549   2.923   5.834
 2668SOL     OW 8902   6.315   0.482   2.886
 2668SOL    HW1 8903   6.320   0.419   2.964
 2668SOL    HW2 8904   6.379   0.557   2.900
 2669SOL     OW 8905   2.373   0.999   0.561
 2669SOL    HW1 8906   2.383   0.960   0.653
 2669SOL    HW2 8907   2.297   0.953   0.514
 2670SOL     OW 8908   0.051   0.042   6.492
 2670SOL    HW1 8909   0.119   0.109   6.520
 2670SOL    HW2 8910   0.027   0.056   6.396
 2671SOL     OW 8911   5.280   4.830   6.106
 2671SOL    HW1 8912   5.344   4.805   6.034
 2671SOL    HW2 8913   5.330   4.855   6.189
 2672SOL     OW 8914   2.899   0.948   1.706
 2672SOL    HW1 8915   2.818   0.908   1.749
 2672SOL    HW2 8916   2.872   1.026   1.650
 2673SOL     OW 8917   3.853   0.191   2.654
 2673SOL    HW1 8918   3.863   0.287   2.681
 2673SOL    HW2 8919   3.782   0.148   2.710
 2674SOL     OW 8920   0.280   5.725   3.087
 2674SOL    HW1 8921   0.292   5.823   3.067
 2674SOL    HW2 8922   0.183   5.701   3.078
 2675SOL     OW 8923   4.506   1.029   5.111
 2675SOL    HW1 8924   4.484   1.081   5.028
 2675SOL    HW2 8925   4.599   1.053   5.140
 2676SOL     OW 8926   3.862   4.049   3.827
 2676SOL    HW1 8927   3.789   3.982   3.811
 2676SOL    HW2 8928   3.919   4.018   3.903
 2677SOL     OW 8929   1.552   5.885   1.123
 2677SOL    HW1 8930   1.559   5.791   1.089
 2677SOL    HW2 8931   1.521   5.884   1.218
 2678SOL     OW 8932   3.883   1.830   2.673
 2678SOL    HW1 8933   3.966   1.830   2.729
 2678SOL    HW2 8934   3.813   1.888   2.716
 2679SOL     OW 8935   2.120   3.306   2.371
 2679SOL    HW1 8936   2.103   3.366   2.449
 2679SOL    HW2 8937   2.090   3.351   2.287
 2680SOL     OW 8938   5.677   2.506   0.191
 2680SOL    HW1 8939   5.602   2.480   0.252
 2680SOL    HW2 8940   5.641   2.562   0.116
 2681SOL     OW 8941   2.185   2.597   3.592
 2681SOL    HW1 8942   2.266   2.570   3.645
 2681SOL    HW2 8943   2.215   2.645   3.510
 2682SOL     OW 8944   3.696   3.806   1.739
 2682SOL    HW1 8945   3.685   3.750   1.657
 2682SOL    HW2 8946   3.626   3.781   1.806
 2683SOL     OW 8947   2.333   4.109   1.431
 2683SOL    HW1 8948   2.262   4.087   1.499
 2683SOL    HW2 8949   2.400   4.171   1.473
 2684SOL     OW 8950   6.468   0.118   3.782
 2684SOL    HW1 8951   6.443   0.169   3.864
 2684SOL    HW2 8952   6.566   0.123   3.768
 2685SOL     OW 8953   0.501   6.297   5.592
 2685SOL    HW1 8954   0.530   6.211   5.632
 2685SOL    HW2 8955   0.542   6.307   5.501
 2686SOL     OW 8956   1.311   0.839   5.625
 2686SOL    HW1 8957   1.372   0.827   5.703
 2686SOL    HW2 8958   1.296   0.936   5.609
 2687SOL     OW 8959   4.130   1.802   1.630
 2687SOL    HW1 8960   4.192   1.857   1.575
 2687SOL    HW2 8961   4.049   1.778   1.577
 2688SOL     OW 8962   4.068   2.578   0.145
 2688SOL    HW1 8963   4.155   2.625   0.129
 2688SOL    HW2 8964   4.000   2.643   0.178
 2689SOL     OW 8965   1.058   3.415   3.255
 2689SOL    HW1 8966   1.123   3.405   3.179
 2689SOL    HW2 8967   1.006   3.500   3.244
 2690SOL     OW 8968   4.519   1.361   5.594
 2690SOL    HW1 8969   4.498   1.454   5.564
 2690SOL    HW2 8970   4.435   1.306   5.596
 2691SOL     OW 8971   0.176   4.093   5.113
 2691SOL    HW1 8972   0.221   4.168   5.160
 2691SOL    HW2 8973   0.224   4.007   5.133
 2692SOL     OW 8974   2.393   5.953   2.141
 2692SOL    HW1 8975   2.491   5.940   2.127
 2692SOL    HW2 8976   2.370   5.936   2.237
 2693SOL     OW 8977   0.817   6.034   3.297
 2693SOL    HW1 8978   0.913   6.062   3.290
 2693SOL    HW2 8979   0.797   6.005   3.391
 2694SOL     OW 8980   2.379   0.235   2.296
 2694SOL    HW1 8981   2.415   0.223   2.388
 2694SOL    HW2 8982   2.437   0.187   2.230
 2695SOL     OW 8983   0.008   5.093   3.932
 2695SOL    HW1 8984   6.991   5.130   4.015
 2695SOL    HW2 8985   6.974   5.114   3.854
 2696SOL     OW 8986   4.494   4.985   6.325
 2696SOL    HW1 8987   4.508   5.050   6.399
 2696SOL    HW2 8988   4.413   4.929   6.344
 2697SOL     OW 8989   3.926   1.872   0.378
 2697SOL    HW1 8990   3.882   1.789   0.344
 2697SOL    HW2 8991   3.916   1.877   0.478
 2698SOL     OW 8992   1.694   5.633   6.041
 2698SOL    HW1 8993   1.757   5.700   6.082
 2698SOL    HW2 8994   1.747   5.561   5.997
 2699SOL     OW 8995   2.558   6.525   2.261
 2699SOL    HW1 8996   2.462   6.543   2.239
 2699SOL    HW2 8997   2.573   6.426   2.266
 2700SOL     OW 8998   4.330   1.991   1.562
 2700SOL    HW1 8999   4.358   2.048   1.484
 2700SOL    HW2 9000   4.411   1.967   1.616
 2701SOL     OW 9001   4.956   3.699   4.782
 2701SOL    HW1 9002   4.913   3.788   4.764
 2701SOL    HW2 9003   4.912   3.656   4.860
 2702SOL     OW 9004   2.544   1.224   4.785
 2702SOL    HW1 9005   2.586   1.310   4.758
 2702SOL    HW2 9006   2.602   1.178   4.852
 2703SOL     OW 9007   2.617   6.286   2.455
 2703SOL    HW1 9008   2.683   6.327   2.518
 2703SOL    HW2 9009   2.579   6.203   2.497
 2704SOL     OW 9010   4.775   0.544   3.603
 2704SOL    HW1 9011   4.699   0.518   3.663
 2704SOL    HW2 9012   4.861   0.511   3.642
 2705SOL     OW 9013   0.847   0.667   5.256
 2705SOL    HW1 9014   0.811   0.760   5.252
 2705SOL    HW2 9015   0.792   0.613   5.320
 2706SOL     OW 9016   6.981   4.327   3.539
 2706SOL    HW1 9017   7.001   4.416   3.581
 2706SOL    HW2 9018   6.885   4.304   3.554
 2707SOL     OW 9019   4.215   1.167   3.665
 2707SOL    HW1 9020   4.154   1.243   3.689
 2707SOL    HW2 9021   4.307   1.186   3.699
 2708SOL     OW 9022   5.283   3.639   5.826
 2708SOL    HW1 9023   5.319   3.550   5.855
 2708SOL    HW2 9024   5.183   3.635   5.824
 2709SOL     OW 9025   4.456   1.625   5.542
 2709SOL    HW1 9026   4.357   1.613   5.549
 2709SOL    HW2 9027   4.476   1.705   5.486
 2710SOL     OW 9028   1.325   2.969   4.471
 2710SOL    HW1 9029   1.348   3.044   4.533
 2710SOL    HW2 9030   1.398   2.957   4.404
 2711SOL     OW 9031   3.906   0.947   1.830
 2711SOL    HW1 9032   3.846   0.868   1.842
 2711SOL    HW2 9033   3.859   1.017   1.777
 2712SOL     OW 9034   5.132   6.220   2.107
 2712SOL    HW1 9035   5.059   6.209   2.174
 2712SOL    HW2 9036   5.093   6.218   2.014
 2713SOL     OW 9037   3.718   4.926   5.226
 2713SOL    HW1 9038   3.789   4.869   5.268
 2713SOL    HW2 9039   3.716   5.015   5.270
 2714SOL     OW 9040   3.116   4.399   6.006
 2714SOL    HW1 9041   3.049   4.325   5.994
 2714SOL    HW2 9042   3.207   4.366   5.983
 2715SOL     OW 9043   4.225   6.855   6.692
 2715SOL    HW1 9044   4.306   6.808   6.656
 2715SOL    HW2 9045   4.144   6.800   6.671
 2716SOL     OW 9046   4.119   0.741   2.772
 2716SOL    HW1 9047   4.046   0.809   2.775
 2716SOL    HW2 9048   4.180   0.753   2.851
 2717SOL     OW 9049   1.160   2.403   1.824
 2717SOL    HW1 9050   1.209   2.334   1.877
 2717SOL    HW2 9051   1.210   2.423   1.739
 2718SOL     OW 9052   6.597   1.864   5.677
 2718SOL    HW1 9053   6.544   1.949   5.682
 2718SOL    HW2 9054   6.572   1.806   5.754
 2719SOL     OW 9055   1.594   5.180   3.844
 2719SOL    HW1 9056   1.640   5.092   3.837
 2719SOL    HW2 9057   1.605   5.231   3.759
 2720SOL     OW 9058   1.787   5.799   6.326
 2720SOL    HW1 9059   1.827   5.846   6.404
 2720SOL    HW2 9060   1.701   5.756   6.353
 2721SOL     OW 9061   2.396   6.843   1.711
 2721SOL    HW1 9062   2.454   6.765   1.690
 2721SOL    HW2 9063   2.451   6.926   1.713
 2722SOL     OW 9064   3.858   5.085   6.583
 2722SOL    HW1 9065   3.854   5.093   6.483
 2722SOL    HW2 9066   3.936   5.028   6.609
 2723SOL     OW 9067   3.841   6.326   6.702
 2723SOL    HW1 9068   3.751   6.284   6.703
 2723SOL    HW2 9069   3.834   6.421   6.734
 2724SOL     OW 9070   6.818   5.307   0.887
 2724SOL    HW1 9071   6.751   5.368   0.930
 2724SOL    HW2 9072   6.783   5.214   0.887
 2725SOL     OW 9073   5.679   4.692   3.805
 2725SOL    HW1 9074   5.697   4.593   3.806
 2725SOL    HW2 9075   5.622   4.716   3.884
 2726SOL     OW 9076   6.111   1.503   2.545
 2726SOL    HW1 9077   6.053   1.561   2.488
 2726SOL    HW2 9078   6.053   1.441   2.598
 2727SOL     OW 9079   1.444   5.941   3.565
 2727SOL    HW1 9080   1.532   5.932   3.611
 2727SOL    HW2 9081   1.447   5.891   3.478
 2728SOL     OW 9082   4.126   5.600   6.356
 2728SOL    HW1 9083   4.225   5.606   6.373
 2728SOL    HW2 9084   4.110   5.541   6.277
 2729SOL     OW 9085   6.159   0.270   6.679
 2729SOL    HW1 9086   6.126   0.247   6.587
 2729SOL    HW2 9087   6.258   0.262   6.681
 2730SOL     OW 9088   1.278   5.734   2.872
 2730SOL    HW1 9089   1.201   5.754   2.932
 2730SOL    HW2 9090   1.325   5.819   2.848
 2731SOL     OW 9091   3.125   3.936   4.672
 2731SOL    HW1 9092   3.192   3.962   4.741
 2731SOL    HW2 9093   3.172   3.917   4.586
 2732SOL     OW 9094   5.415   0.444   1.890
 2732SOL    HW1 9095   5.476   0.369   1.915
 2732SOL    HW2 9096   5.466   0.515   1.842
 2733SOL     OW 9097   0.576   6.350   6.934
 2733SOL    HW1 9098   0.646   6.301   6.985
 2733SOL    HW2 9099   0.486   6.313   6.958
 2734SOL     OW 9100   3.712   6.093   2.343
 2734SOL    HW1 9101   3.810   6.094   2.361
 2734SOL    HW2 9102   3.696   6.089   2.244
 2735SOL     OW 9103   0.811   1.693   1.962
 2735SOL    HW1 9104   0.777   1.603   1.935
 2735SOL    HW2 9105   0.748   1.736   2.027
 2736SOL     OW 9106   5.991   4.267   3.275
 2736SOL    HW1 9107   6.015   4.173   3.298
 2736SOL    HW2 9108   5.914   4.268   3.212
 2737SOL     OW 9109   3.134   0.525   5.209
 2737SOL    HW1 9110   3.215   0.581   5.227
 2737SOL    HW2 9111   3.055   0.566   5.255
 2738SOL     OW 9112   4.952   5.640   1.429
 2738SOL    HW1 9113   4.894   5.562   1.406
 2738SOL    HW2 9114   5.044   5.625   1.394
 2739SOL     OW 9115   6.550   5.261   1.189
 2739SOL    HW1 9116   6.579   5.337   1.246
 2739SOL    HW2 9117   6.587   5.176   1.226
 2740SOL     OW 9118   0.585   5.322   3.304
 2740SOL    HW1 9119   0.670   5.283   3.338
 2740SOL    HW2 9120   0.529   5.249   3.264
 2741SOL     OW 9121   0.539   0.099   5.480
 2741SOL    HW1 9122   0.531   0.195   5.507
 2741SOL    HW2 9123   0.454   0.051   5.500
 2742SOL     OW 9124   3.462   5.747   2.421
 2742SOL    HW1 9125   3.463   5.789   2.331
 2742SOL    HW2 9126   3.440   5.650   2.413
 2743SOL     OW 9127   4.804   1.475   2.437
 2743SOL    HW1 9128   4.752   1.508   2.515
 2743SOL    HW2 9129   4.858   1.551   2.398
 2744SOL     OW 9130   3.548   4.116   2.446
 2744SOL    HW1 9131   3.456   4.130   2.410
 2744SOL    HW2 9132   3.542   4.078   2.538
 2745SOL     OW 9133   0.709   6.045   0.334
 2745SOL    HW1 9134   0.781   6.071   0.398
 2745SOL    HW2 9135   0.630   6.011   0.385
 2746SOL     OW 9136   1.839   1.183   3.448
 2746SOL    HW1 9137   1.933   1.214   3.458
 2746SOL    HW2 9138   1.792   1.241   3.381
 2747SOL     OW 9139   3.951   3.938   1.215
 2747SOL    HW1 9140   3.959   4.037   1.206
 2747SOL    HW2 9141   3.984   3.894   1.131
 2748SOL     OW 9142   3.847   0.280   0.577
 2748SOL    HW1 9143   3.873   0.189   0.544
 2748SOL    HW2 9144   3.773   0.317   0.520
 2749SOL     OW 9145   2.927   1.789   1.181
 2749SOL    HW1 9146   3.004   1.730   1.155
 2749SOL    HW2 9147   2.947   1.883   1.154
 2750SOL     OW 9148   3.421   5.805   2.707
 2750SOL    HW1 9149   3.359   5.879   2.734
 2750SOL    HW2 9150   3.425   5.799   2.608
 2751SOL     OW 9151   6.235   5.216   0.915
 2751SOL    HW1 9152   6.149   5.165   0.917
 2751SOL    HW2 9153   6.249   5.261   1.003
 2752SOL     OW 9154   4.055   5.879   6.864
 2752SOL    HW1 9155   4.093   5.813   6.928
 2752SOL    HW2 9156   4.115   5.959   6.858
 2753SOL     OW 9157   5.448   5.888   5.288
 2753SOL    HW1 9158   5.462   5.878   5.387
 2753SOL    HW2 9159   5.359   5.931   5.272
 2754SOL     OW 9160   1.380   6.884   5.730
 2754SOL    HW1 9161   1.362   6.787   5.746
 2754SOL    HW2 9162   1.367   6.934   5.815
 2755SOL     OW 9163   4.138   0.286   2.459
 2755SOL    HW1 9164   4.236   0.270   2.461
 2755SOL    HW2 9165   4.117   0.370   2.508
 2756SOL     OW 9166   4.461   6.124   0.594
 2756SOL    HW1 9167   4.519   6.056   0.551
 2756SOL    HW2 9168   4.514   6.176   0.661
 2757SOL     OW 9169   0.562   4.762   0.936
 2757SOL    HW1 9170   0.536   4.760   0.840
 2757SOL    HW2 9171   0.488   4.801   0.991
 2758SOL     OW 9172   4.086   1.243   5.320
 2758SOL    HW1 9173   4.029   1.161   5.328
 2758SOL    HW2 9174   4.052   1.300   5.245
 2759SOL     OW 9175   4.799   4.965   4.220
 2759SOL    HW1 9176   4.859   5.016   4.159
 2759SOL    HW2 9177   4.733   4.912   4.167
 2760SOL     OW 9178   1.394   6.467   3.775
 2760SOL    HW1 9179   1.326   6.446   3.704
 2760SOL    HW2 9180   1.382   6.404   3.852
 2761SOL     OW 9181   2.439   5.028   3.919
 2761SOL    HW1 9182   2.441   4.993   3.826
 2761SOL    HW2 9183   2.477   5.120   3.921
 2762SOL     OW 9184   1.651   0.793   4.879
 2762SOL    HW1 9185   1.564   0.841   4.870
 2762SOL    HW2 9186   1.634   0.699   4.910
 2763SOL     OW 9187   5.125   1.583   2.660
 2763SOL    HW1 9188   5.138   1.549   2.567
 2763SOL    HW2 9189   5.174   1.670   2.671
 2764SOL     OW 9190   6.230   0.941   1.683
 2764SOL    HW1 9191   6.291   0.954   1.606
 2764SOL    HW2 9192   6.154   1.006   1.678
 2765SOL     OW 9193   5.216   1.821   2.861
 2765SOL    HW1 9194   5.211   1.723   2.879
 2765SOL    HW2 9195   5.274   1.865   2.930
 2766SOL     OW 9196   5.966   0.271   2.733
 2766SOL    HW1 9197   6.013   0.201   2.787
 2766SOL    HW2 9198   6.017   0.287   2.648
 2767SOL     OW 9199   6.183   4.327   5.603
 2767SOL    HW1 9200   6.227   4.379   5.529
 2767SOL    HW2 9201   6.168   4.388   5.681
 2768SOL     OW 9202   6.131   1.206   6.429
 2768SOL    HW1 9203   6.210   1.267   6.437
 2768SOL    HW2 9204   6.129   1.166   6.338
 2769SOL     OW 9205   1.409   4.572   1.305
 2769SOL    HW1 9206   1.421   4.472   1.302
 2769SOL    HW2 9207   1.368   4.603   1.219
 2770SOL     OW 9208   6.663   5.972   1.527
 2770SOL    HW1 9209   6.578   5.951   1.479
 2770SOL    HW2 9210   6.741   5.952   1.467
 2771SOL     OW 9211   4.943   1.461   1.029
 2771SOL    HW1 9212   4.849   1.490   1.048
 2771SOL    HW2 9213   4.947   1.420   0.938
 2772SOL     OW 9214   4.041   2.254   6.604
 2772SOL    HW1 9215   4.137   2.271   6.582
 2772SOL    HW2 9216   4.034   2.216   6.696
 2773SOL     OW 9217   3.329   4.456   0.803
 2773SOL    HW1 9218   3.385   4.397   0.860
 2773SOL    HW2 9219   3.296   4.534   0.857
 2774SOL     OW 9220   5.513   3.501   2.560
 2774SOL    HW1 9221   5.473   3.440   2.492
 2774SOL    HW2 9222   5.591   3.548   2.520
 2775SOL     OW 9223   6.668   6.873   2.307
 2775SOL    HW1 9224   6.747   6.812   2.317
 2775SOL    HW2 9225   6.699   6.968   2.308
 2776SOL     OW 9226   3.472   6.205   5.722
 2776SOL    HW1 9227   3.400   6.256   5.675
 2776SOL    HW2 9228   3.491   6.248   5.810
 2777SOL     OW 9229   2.614   1.376   3.307
 2777SOL    HW1 9230   2.665   1.422   3.380
 2777SOL    HW2 9231   2.559   1.302   3.345
 2778SOL     OW 9232   2.586   1.888   4.628
 2778SOL    HW1 9233   2.505   1.894   4.686
 2778SOL    HW2 9234   2.665   1.923   4.678
 2779SOL     OW 9235   6.275   1.417   0.908
 2779SOL    HW1 9236   6.262   1.462   0.996
 2779SOL    HW2 9237   6.368   1.434   0.875
 2780SOL     OW 9238   3.959   5.921   0.415
 2780SOL    HW1 9239   3.979   5.962   0.326
 2780SOL    HW2 9240   3.934   5.993   0.480
 2781SOL     OW 9241   4.729   4.708   0.360
 2781SOL    HW1 9242   4.699   4.712   0.455
 2781SOL    HW2 9243   4.653   4.730   0.299
 2782SOL     OW 9244   2.863   1.272   5.980
 2782SOL    HW1 9245   2.890   1.343   5.915
 2782SOL    HW2 9246   2.764   1.270   5.988
 2783SOL     OW 9247   0.178   4.352   5.981
 2783SOL    HW1 9248   0.092   4.312   6.012
 2783SOL    HW2 9249   0.168   4.451   5.972
 2784SOL     OW 9250   2.285   2.183   1.786
 2784SOL    HW1 9251   2.274   2.280   1.767
 2784SOL    HW2 9252   2.354   2.170   1.857
 2785SOL     OW 9253   5.940   1.007   1.689
 2785SOL    HW1 9254   5.955   0.927   1.747
 2785SOL    HW2 9255   5.892   0.980   1.606
 2786SOL     OW 9256   2.796   0.011   0.159
 2786SOL    HW1 9257   2.817   0.108   0.143
 2786SOL    HW2 9258   2.816   6.982   0.077
 2787SOL     OW 9259   2.085   2.626   5.091
 2787SOL    HW1 9260   2.026   2.565   5.144
 2787SOL    HW2 9261   2.035   2.659   5.011
 2788SOL     OW 9262   0.596   4.007   7.006
 2788SOL    HW1 9263   0.560   4.062   6.932
 2788SOL    HW2 9264   0.617   3.915   6.973
 2789SOL     OW 9265   0.032   2.308   4.317
 2789SOL    HW1 9266   0.058   2.404   4.331
 2789SOL    HW2 9267   6.965   2.304   4.276
 2790SOL     OW 9268   3.336   6.156   3.819
 2790SOL    HW1 9269   3.431   6.173   3.845
 2790SOL    HW2 9270   3.281   6.237   3.838
 2791SOL     OW 9271   2.215   2.919   2.737
 2791SOL    HW1 9272   2.285   2.860   2.696
 2791SOL    HW2 9273   2.189   2.990   2.671
 2792SOL     OW 9274   1.438   2.286   4.666
 2792SOL    HW1 9275   1.475   2.304   4.574
 2792SOL    HW2 9276   1.346   2.325   4.673
 2793SOL     OW 9277   5.145   0.850   4.320
 2793SOL    HW1 9278   5.095   0.924   4.274
 2793SOL    HW2 9279   5.092   0.817   4.398
 2794SOL     OW 9280   0.711   1.217   1.578
 2794SOL    HW1 9281   0.660   1.182   1.499
 2794SOL    HW2 9282   0.791   1.268   1.547
 2795SOL     OW 9283   2.035   4.267   1.506
 2795SOL    HW1 9284   2.078   4.301   1.423
 2795SOL    HW2 9285   1.975   4.338   1.543
 2796SOL     OW 9286   5.559   4.530   2.461
 2796SOL    HW1 9287   5.638   4.501   2.408
 2796SOL    HW2 9288   5.574   4.510   2.557
 2797SOL     OW 9289   4.610   4.477   4.824
 2797SOL    HW1 9290   4.687   4.542   4.825
 2797SOL    HW2 9291   4.546   4.501   4.896
 2798SOL     OW 9292   1.788   3.283   4.104
 2798SOL    HW1 9293   1.858   3.294   4.175
 2798SOL    HW2 9294   1.702   3.322   4.136
 2799SOL     OW 9295   6.421   5.440   5.955
 2799SOL    HW1 9296   6.326   5.453   5.982
 2799SOL    HW2 9297   6.425   5.377   5.877
 2800SOL     OW 9298   2.802   1.844   6.812
 2800SOL    HW1 9299   2.741   1.772   6.846
 2800SOL    HW2 9300   2.880   1.853   6.874
 2801SOL     OW 9301   4.439   5.337   2.490
 2801SOL    HW1 9302   4.347   5.357   2.523
 2801SOL    HW2 9303   4.504   5.401   2.532
 2802SOL     OW 9304   5.717   0.701   5.972
 2802SOL    HW1 9305   5.810   0.693   6.007
 2802SOL    HW2 9306   5.658   0.636   6.019
 2803SOL     OW 9307   2.261   5.472   5.552
 2803SOL    HW1 9308   2.288   5.397   5.493
 2803SOL    HW2 9309   2.336   5.494   5.615
 2804SOL     OW 9310   0.191   4.640   2.583
 2804SOL    HW1 9311   0.221   4.696   2.660
 2804SOL    HW2 9312   0.148   4.699   2.514
 2805SOL     OW 9313   5.190   4.184   6.210
 2805SOL    HW1 9314   5.205   4.279   6.181
 2805SOL    HW2 9315   5.150   4.132   6.134
 2806SOL     OW 9316   6.888   5.347   2.777
 2806SOL    HW1 9317   6.859   5.369   2.684
 2806SOL    HW2 9318   6.809   5.352   2.838
 2807SOL     OW 9319   4.162   4.741   4.080
 2807SOL    HW1 9320   4.183   4.750   4.177
 2807SOL    HW2 9321   4.072   4.781   4.062
 2808SOL     OW 9322   4.477   6.014   3.891
 2808SOL    HW1 9323   4.520   6.102   3.870
 2808SOL    HW2 9324   4.526   5.941   3.843
 2809SOL     OW 9325   5.452   3.219   0.780
 2809SOL    HW1 9326   5.551   3.212   0.788
 2809SOL    HW2 9327   5.409   3.139   0.821
 2810SOL     OW 9328   1.665   0.304   5.589
 2810SOL    HW1 9329   1.599   0.367   5.629
 2810SOL    HW2 9330   1.619   0.246   5.522
 2811SOL     OW 9331   0.149   1.077   4.062
 2811SOL    HW1 9332   0.200   1.052   4.144
 2811SOL    HW2 9333   0.052   1.086   4.085
 2812SOL     OW 9334   5.172   3.731   2.755
 2812SOL    HW1 9335   5.170   3.780   2.668
 2812SOL    HW2 9336   5.259   3.680   2.763
 2813SOL     OW 9337   6.282   1.819   6.529
 2813SOL    HW1 9338   6.203   1.773   6.489
 2813SOL    HW2 9339   6.355   1.753   6.544
 2814SOL     OW 9340   5.069   4.440   5.158
 2814SOL    HW1 9341   5.157   4.468   5.195
 2814SOL    HW2 9342   5.083   4.369   5.088
 2815SOL     OW 9343   0.128   1.567   5.060
 2815SOL    HW1 9344   0.165   1.491   5.112
 2815SOL    HW2 9345   0.043   1.598   5.103
 2816SOL     OW 9346   5.712   6.516   3.174
 2816SOL    HW1 9347   5.746   6.492   3.083
 2816SOL    HW2 9348   5.626   6.467   3.191
 2817SOL     OW 9349   1.412   1.427   1.487
 2817SOL    HW1 9350   1.382   1.359   1.554
 2817SOL    HW2 9351   1.448   1.507   1.534
 2818SOL     OW 9352   0.356   3.737   5.999
 2818SOL    HW1 9353   0.258   3.727   5.986
 2818SOL    HW2 9354   0.389   3.668   6.063
 2819SOL     OW 9355   5.898   2.972   0.991
 2819SOL    HW1 9356   5.892   2.963   1.090
 2819SOL    HW2 9357   5.993   2.958   0.961
 2820SOL     OW 9358   5.963   2.968   4.279
 2820SOL    HW1 9359   6.048   2.991   4.232
 2820SOL    HW2 9360   5.982   2.937   4.371
 2821SOL     OW 9361   1.435   3.085   3.657
 2821SOL    HW1 9362   1.421   3.091   3.756
 2821SOL    HW2 9363   1.519   3.036   3.638
 2822SOL     OW 9364   2.987   1.749   0.406
 2822SOL    HW1 9365   2.959   1.685   0.335
 2822SOL    HW2 9366   3.010   1.698   0.489
 2823SOL     OW 9367   1.994   6.516   3.226
 2823SOL    HW1 9368   2.005   6.446   3.155
 2823SOL    HW2 9369   1.909   6.498   3.276
 2824SOL     OW 9370   2.958   1.495   4.712
 2824SOL    HW1 9371   2.925   1.531   4.625
 2824SOL    HW2 9372   2.881   1.455   4.762
 2825SOL     OW 9373   6.423   6.014   1.385
 2825SOL    HW1 9374   6.333   6.053   1.363
 2825SOL    HW2 9375   6.493   6.057   1.328
 2826SOL     OW 9376   4.621   2.699   3.916
 2826SOL    HW1 9377   4.620   2.685   4.015
 2826SOL    HW2 9378   4.683   2.774   3.893
 2827SOL     OW 9379   5.468   1.027   6.380
 2827SOL    HW1 9380   5.560   1.040   6.344
 2827SOL    HW2 9381   5.403   1.019   6.303
 2828SOL     OW 9382   3.397   1.771   6.629
 2828SOL    HW1 9383   3.494   1.788   6.612
 2828SOL    HW2 9384   3.387   1.711   6.708
 2829SOL     OW 9385   1.972   0.075   6.555
 2829SOL    HW1 9386   1.893   0.135   6.563
 2829SOL    HW2 9387   1.952   0.001   6.490
 2830SOL     OW 9388   3.342   3.447   6.688
 2830SOL    HW1 9389   3.441   3.456   6.678
 2830SOL    HW2 9390   3.319   3.440   6.785
 2831SOL     OW 9391   6.142   5.547   4.208
 2831SOL    HW1 9392   6.195   5.464   4.224
 2831SOL    HW2 9393   6.204   5.626   4.207
 2832SOL     OW 9394   0.170   0.891   1.756
 2832SOL    HW1 9395   0.100   0.877   1.686
 2832SOL    HW2 9396   0.128   0.885   1.847
 2833SOL     OW 9397   6.229   3.066   2.376
 2833SOL    HW1 9398   6.139   3.079   2.334
 2833SOL    HW2 9399   6.218   3.060   2.476
 2834SOL     OW 9400   3.710   0.855   6.000
 2834SOL    HW1 9401   3.701   0.855   5.900
 2834SOL    HW2 9402   3.706   0.761   6.034
 2835SOL     OW 9403   0.719   6.796   3.228
 2835SOL    HW1 9404   0.714   6.810   3.129
 2835SOL    HW2 9405   0.636   6.749   3.259
 2836SOL     OW 9406   6.469   0.810   1.053
 2836SOL    HW1 9407   6.419   0.786   1.136
 2836SOL    HW2 9408   6.418   0.879   1.002
 2837SOL     OW 9409   6.593   2.948   3.829
 2837SOL    HW1 9410   6.643   2.958   3.915
 2837SOL    HW2 9411   6.496   2.938   3.848
 2838SOL     OW 9412   1.875   4.911   4.064
 2838SOL    HW1 9413   1.908   4.960   3.983
 2838SOL    HW2 9414   1.813   4.969   4.115
 2839SOL     OW 9415   5.575   2.118   1.754
 2839SOL    HW1 9416   5.488   2.148   1.713
 2839SOL    HW2 9417   5.557   2.077   1.843
 2840SOL     OW 9418   6.975   2.370   5.656
 2840SOL    HW1 9419   6.905   2.303   5.632
 2840SOL    HW2 9420   6.936   2.440   5.716
 2841SOL     OW 9421   0.718   6.480   1.574
 2841SOL    HW1 9422   0.704   6.544   1.499
 2841SOL    HW2 9423   0.787   6.516   1.637
 2842SOL     OW 9424   6.230   2.867   3.230
 2842SOL    HW1 9425   6.198   2.804   3.159
 2842SOL    HW2 9426   6.227   2.960   3.195
 2843SOL     OW 9427   4.078   2.153   4.852
 2843SOL    HW1 9428   4.153   2.152   4.786
 2843SOL    HW2 9429   4.116   2.161   4.944
 2844SOL     OW 9430   0.240   3.984   5.428
 2844SOL    HW1 9431   0.143   4.006   5.419
 2844SOL    HW2 9432   0.252   3.884   5.426
 2845SOL     OW 9433   6.656   4.233   5.887
 2845SOL    HW1 9434   6.723   4.188   5.830
 2845SOL    HW2 9435   6.602   4.297   5.832
 2846SOL     OW 9436   4.658   1.064   6.691
 2846SOL    HW1 9437   4.559   1.064   6.704
 2846SOL    HW2 9438   4.693   1.157   6.706
 2847SOL     OW 9439   4.675   4.347   3.873
 2847SOL    HW1 9440   4.606   4.341   3.800
 2847SOL    HW2 9441   4.763   4.316   3.837
 2848SOL     OW 9442   1.405   6.358   5.177
 2848SOL    HW1 9443   1.440   6.442   5.135
 2848SOL    HW2 9444   1.407   6.284   5.110
 2849SOL     OW 9445   2.364   2.957   1.574
 2849SOL    HW1 9446   2.334   3.040   1.527
 2849SOL    HW2 9447   2.322   2.954   1.665
 2850SOL     OW 9448   3.216   1.187   0.304
 2850SOL    HW1 9449   3.163   1.158   0.225
 2850SOL    HW2 9450   3.264   1.273   0.283
 2851SOL     OW 9451   2.186   4.665   6.208
 2851SOL    HW1 9452   2.212   4.656   6.112
 2851SOL    HW2 9453   2.184   4.762   6.233
 2852SOL     OW 9454   0.342   3.362   6.398
 2852SOL    HW1 9455   0.312   3.276   6.356
 2852SOL    HW2 9456   0.373   3.425   6.327
 2853SOL     OW 9457   3.572   2.867   1.421
 2853SOL    HW1 9458   3.667   2.895   1.412
 2853SOL    HW2 9459   3.568   2.769   1.443
 2854SOL     OW 9460   1.111   1.054   3.673
 2854SOL    HW1 9461   1.086   1.107   3.754
 2854SOL    HW2 9462   1.158   1.113   3.607
 2855SOL     OW 9463   3.052   0.914   5.189
 2855SOL    HW1 9464   3.020   1.009   5.189
 2855SOL    HW2 9465   3.139   0.908   5.238
 2856SOL     OW 9466   2.314   1.378   5.248
 2856SOL    HW1 9467   2.265   1.369   5.161
 2856SOL    HW2 9468   2.354   1.290   5.272
 2857SOL     OW 9469   3.441   3.488   3.307
 2857SOL    HW1 9470   3.373   3.452   3.372
 2857SOL    HW2 9471   3.463   3.582   3.332
 2858SOL     OW 9472   5.513   2.684   3.109
 2858SOL    HW1 9473   5.558   2.598   3.134
 2858SOL    HW2 9474   5.550   2.717   3.022
 2859SOL     OW 9475   5.863   6.274   0.508
 2859SOL    HW1 9476   5.858   6.373   0.492
 2859SOL    HW2 9477   5.924   6.233   0.440
 2860SOL     OW 9478   4.640   2.194   1.472
 2860SOL    HW1 9479   4.635   2.238   1.562
 2860SOL    HW2 9480   4.549   2.161   1.446
 2861SOL     OW 9481   3.122   5.124   5.844
 2861SOL    HW1 9482   3.032   5.164   5.865
 2861SOL    HW2 9483   3.137   5.127   5.745
 2862SOL     OW 9484   6.387   0.503   4.394
 2862SOL    HW1 9485   6.455   0.503   4.321
 2862SOL    HW2 9486   6.420   0.558   4.471
 2863SOL     OW 9487   6.055   1.946   0.757
 2863SOL    HW1 9488   6.041   1.871   0.823
 2863SOL    HW2 9489   6.023   1.917   0.667
 2864SOL     OW 9490   3.219   1.507   0.251
 2864SOL    HW1 9491   3.119   1.509   0.260
 2864SOL    HW2 9492   3.260   1.497   0.342
 2865SOL     OW 9493   4.479   5.068   5.125
 2865SOL    HW1 9494   4.448   5.006   5.052
 2865SOL    HW2 9495   4.480   5.162   5.090
 2866SOL     OW 9496   6.967   0.061   6.171
 2866SOL    HW1 9497   6.934   0.086   6.080
 2866SOL    HW2 9498   6.918   7.004   6.203
 2867SOL     OW 9499   6.637   4.262   3.369
 2867SOL    HW1 9500   6.657   4.171   3.333
 2867SOL    HW2 9501   6.705   4.327   3.335
 2868SOL     OW 9502   1.956   4.720   5.373
 2868SOL    HW1 9503   1.923   4.780   5.300
 2868SOL    HW2 9504   1.971   4.628   5.336
 2869SOL     OW 9505   6.240   1.262   2.709
 2869SOL    HW1 9506   6.266   1.197   2.638
 2869SOL    HW2 9507   6.143   1.286   2.699
 2870SOL     OW 9508   4.937   2.233   2.662
 2870SOL    HW1 9509   4.896   2.239   2.570
 2870SOL    HW2 9510   4.959   2.138   2.682
 2871SOL     OW 9511   2.299   1.644   5.824
 2871SOL    HW1 9512   2.335   1.718   5.881
 2871SOL    HW2 9513   2.361   1.566   5.828
 2872SOL     OW 9514   2.143   6.546   4.125
 2872SOL    HW1 9515   2.209   6.606   4.170
 2872SOL    HW2 9516   2.145   6.564   4.026
 2873SOL     OW 9517   0.085   5.243   1.816
 2873SOL    HW1 9518   0.047   5.288   1.897
 2873SOL    HW2 9519   0.025   5.167   1.789
 2874SOL     OW 9520   5.494   1.564   2.952
 2874SOL    HW1 9521   5.513   1.467   2.939
 2874SOL    HW2 9522   5.573   1.607   2.996
 2875SOL     OW 9523   2.885   4.911   0.721
 2875SOL    HW1 9524   2.862   4.928   0.817
 2875SOL    HW2 9525   2.887   4.998   0.671
 2876SOL     OW 9526   0.020   1.635   2.409
 2876SOL    HW1 9527   0.020   1.731   2.439
 2876SOL    HW2 9528   0.021   1.575   2.489
 2877SOL     OW 9529   2.465   3.249   5.975
 2877SOL    HW1 9530   2.514   3.271   5.890
 2877SOL    HW2 9531   2.438   3.153   5.974
 2878SOL     OW 9532   3.182   4.624   0.014
 2878SOL    HW1 9533   3.206   4.602   6.944
 2878SOL    HW2 9534   3.166   4.723   0.022
 2879SOL     OW 9535   4.999   5.037   6.893
 2879SOL    HW1 9536   4.950   4.961   6.935
 2879SOL    HW2 9537   5.024   5.104   6.963
 2880SOL     OW 9538   0.958   6.298   1.725
 2880SOL    HW1 9539   1.031   6.264   1.784
 2880SOL    HW2 9540   0.895   6.354   1.779
 2881SOL     OW 9541   0.242   0.228   6.542
 2881SOL    HW1 9542   0.217   0.317   6.504
 2881SOL    HW2 9543   0.314   0.188   6.486
 2882SOL     OW 9544   6.955   3.333   3.736
 2882SOL    HW1 9545   6.945   3.247   3.686
 2882SOL    HW2 9546   6.908   3.406   3.686
 2883SOL     OW 9547   4.782   6.263   2.747
 2883SOL    HW1 9548   4.854   6.233   2.810
 2883SOL    HW2 9549   4.804   6.354   2.712
 2884SOL     OW 9550   1.670   6.164   3.344
 2884SOL    HW1 9551   1.758   6.187   3.303
 2884SOL    HW2 9552   1.657   6.065   3.341
 2885SOL     OW 9553   0.437   2.096   3.669
 2885SOL    HW1 9554   0.399   2.175   3.717
 2885SOL    HW2 9555   0.494   2.127   3.593
 2886SOL     OW 9556   2.139   2.488   6.189
 2886SOL    HW1 9557   2.211   2.554   6.210
 2886SOL    HW2 9558   2.148   2.409   6.249
 2887SOL     OW 9559   2.368   0.997   4.811
 2887SOL    HW1 9560   2.291   1.035   4.861
 2887SOL    HW2 9561   2.433   1.070   4.789
 2888SOL     OW 9562   6.924   5.070   6.888
 2888SOL    HW1 9563   7.019   5.062   6.917
 2888SOL    HW2 9564   6.899   5.167   6.884
 2889SOL     OW 9565   0.212   0.316   1.367
 2889SOL    HW1 9566   0.182   0.221   1.379
 2889SOL    HW2 9567   0.250   0.350   1.453
 2890SOL     OW 9568   3.092   6.694   0.515
 2890SOL    HW1 9569   3.048   6.780   0.486
 2890SOL    HW2 9570   3.190   6.709   0.526
 2891SOL     OW 9571   2.969   5.151   4.456
 2891SOL    HW1 9572   3.053   5.098   4.465
 2891SOL    HW2 9573   2.892   5.090   4.435
 2892SOL     OW 9574   4.420   4.569   5.575
 2892SOL    HW1 9575   4.456   4.642   5.632
 2892SOL    HW2 9576   4.320   4.571   5.578
 2893SOL     OW 9577   2.552   0.630   6.023
 2893SOL    HW1 9578   2.635   0.595   6.066
 2893SOL    HW2 9579   2.568   0.645   5.925
 2894SOL     OW 9580   3.318   2.617   1.069
 2894SOL    HW1 9581   3.276   2.626   1.159
 2894SOL    HW2 9582   3.416   2.632   1.077
 2895SOL     OW 9583   3.380   3.306   6.948
 2895SOL    HW1 9584   3.396   3.354   0.011
 2895SOL    HW2 9585   3.282   3.289   6.938
 2896SOL     OW 9586   2.068   5.631   0.863
 2896SOL    HW1 9587   2.106   5.570   0.794
 2896SOL    HW2 9588   2.005   5.696   0.819
 2897SOL     OW 9589   1.640   6.516   3.685
 2897SOL    HW1 9590   1.678   6.607   3.667
 2897SOL    HW2 9591   1.546   6.525   3.720
 2898SOL     OW 9592   2.648   4.974   2.476
 2898SOL    HW1 9593   2.734   4.936   2.511
 2898SOL    HW2 9594   2.657   4.990   2.377
 2899SOL     OW 9595   6.735   0.592   0.437
 2899SOL    HW1 9596   6.772   0.547   0.519
 2899SOL    HW2 9597   6.742   0.691   0.449
 2900SOL     OW 9598   2.884   5.619   5.909
 2900SOL    HW1 9599   2.892   5.585   6.003
 2900SOL    HW2 9600   2.824   5.559   5.856
 2901SOL     OW 9601   3.065   0.271   1.406
 2901SOL    HW1 9602   3.120   0.188   1.422
 2901SOL    HW2 9603   3.111   0.350   1.446
 2902SOL     OW 9604   5.410   5.898   1.646
 2902SOL    HW1 9605   5.414   5.815   1.702
 2902SOL    HW2 9606   5.443   5.976   1.699
 2903SOL     OW 9607   2.644   2.468   1.867
 2903SOL    HW1 9608   2.642   2.543   1.801
 2903SOL    HW2 9609   2.739   2.451   1.895
 2904SOL     OW 9610   1.837   3.750   4.570
 2904SOL    HW1 9611   1.935   3.766   4.557
 2904SOL    HW2 9612   1.807   3.794   4.654
 2905SOL     OW 9613   1.030   2.377   1.435
 2905SOL    HW1 9614   1.122   2.405   1.461
 2905SOL    HW2 9615   0.991   2.444   1.373
 2906SOL     OW 9616   5.273   5.988   2.352
 2906SOL    HW1 9617   5.186   5.999   2.400
 2906SOL    HW2 9618   5.272   5.904   2.298
 2907SOL     OW 9619   6.496   0.880   4.368
 2907SOL    HW1 9620   6.499   0.979   4.379
 2907SOL    HW2 9621   6.456   0.857   4.279
 2908SOL     OW 9622   4.228   6.039   4.778
 2908SOL    HW1 9623   4.250   6.033   4.875
 2908SOL    HW2 9624   4.209   6.135   4.754
 2909SOL     OW 9625   1.105   6.032   5.448
 2909SOL    HW1 9626   1.080   5.937   5.468
 2909SOL    HW2 9627   1.068   6.091   5.518
 2910SOL     OW 9628   5.193   6.356   6.205
 2910SOL    HW1 9629   5.139   6.436   6.181
 2910SOL    HW2 9630   5.277   6.355   6.150
 2911SOL     OW 9631   2.063   4.184   3.465
 2911SOL    HW1 9632   2.062   4.220   3.559
 2911SOL    HW2 9633   2.146   4.213   3.419
 2912SOL     OW 9634   2.632   5.137   0.551
 2912SOL    HW1 9635   2.608   5.147   0.454
 2912SOL    HW2 9636   2.636   5.040   0.574
 2913SOL     OW 9637   0.991   2.822   2.704
 2913SOL    HW1 9638   1.009   2.915   2.737
 2913SOL    HW2 9639   1.076   2.770   2.703
 2914SOL     OW 9640   4.930   5.363   5.527
 2914SOL    HW1 9641   4.995   5.419   5.475
 2914SOL    HW2 9642   4.865   5.320   5.463
 2915SOL     OW 9643   4.164   1.125   4.083
 2915SOL    HW1 9644   4.231   1.195   4.059
 2915SOL    HW2 9645   4.100   1.114   4.007
 2916SOL     OW 9646   4.656   5.570   4.345
 2916SOL    HW1 9647   4.644   5.667   4.322
 2916SOL    HW2 9648   4.746   5.557   4.386
 2917SOL     OW 9649   4.301   1.312   2.560
 2917SOL    HW1 9650   4.206   1.284   2.576
 2917SOL    HW2 9651   4.302   1.390   2.497
 2918SOL     OW 9652   0.127   3.619   3.813
 2918SOL    HW1 9653   0.164   3.686   3.877
 2918SOL    HW2 9654   0.195   3.598   3.744
 2919SOL     OW 9655   6.704   6.316   7.014
 2919SOL    HW1 9656   6.762   6.384   0.034
 2919SOL    HW2 9657   6.715   6.228   0.035
 2920SOL     OW 9658   4.343   2.379   3.011
 2920SOL    HW1 9659   4.381   2.353   3.100
 2920SOL    HW2 9660   4.404   2.445   2.967
 2921SOL     OW 9661   0.479   0.139   1.795
 2921SOL    HW1 9662   0.391   0.098   1.769
 2921SOL    HW2 9663   0.464   0.206   1.868
 2922SOL     OW 9664   4.299   6.473   5.796
 2922SOL    HW1 9665   4.371   6.518   5.849
 2922SOL    HW2 9666   4.239   6.424   5.858
 2923SOL     OW 9667   6.942   4.216   0.715
 2923SOL    HW1 9668   6.972   4.134   0.763
 2923SOL    HW2 9669   6.916   4.192   0.622
 2924SOL     OW 9670   5.610   0.237   5.749
 2924SOL    HW1 9671   5.597   0.334   5.729
 2924SOL    HW2 9672   5.616   0.185   5.663
 2925SOL     OW 9673   5.498   3.733   1.258
 2925SOL    HW1 9674   5.467   3.783   1.338
 2925SOL    HW2 9675   5.523   3.640   1.284
 2926SOL     OW 9676   6.952   1.600   3.962
 2926SOL    HW1 9677   6.875   1.567   3.908
 2926SOL    HW2 9678   6.934   1.694   3.991
 2927SOL     OW 9679   0.648   2.502   2.562
 2927SOL    HW1 9680   0.658   2.447   2.645
 2927SOL    HW2 9681   0.553   2.500   2.532
 2928SOL     OW 9682   5.335   6.543   0.863
 2928SOL    HW1 9683   5.414   6.492   0.897
 2928SOL    HW2 9684   5.301   6.501   0.779
 2929SOL     OW 9685   1.055   0.127   5.759
 2929SOL    HW1 9686   1.025   0.177   5.678
 2929SOL    HW2 9687   1.014   0.167   5.841
 2930SOL     OW 9688   3.808   6.412   4.750
 2930SOL    HW1 9689   3.899   6.370   4.749
 2930SOL    HW2 9690   3.744   6.352   4.701
 2931SOL     OW 9691   3.697   5.630   6.714
 2931SOL    HW1 9692   3.745   5.554   6.670
 2931SOL    HW2 9693   3.748   5.715   6.699
 2932SOL     OW 9694   1.614   4.570   2.031
 2932SOL    HW1 9695   1.597   4.600   2.125
 2932SOL    HW2 9696   1.531   4.584   1.976
 2933SOL     OW 9697   4.858   1.531   3.321
 2933SOL    HW1 9698   4.815   1.547   3.232
 2933SOL    HW2 9699   4.921   1.453   3.314
 2934SOL     OW 9700   2.706   0.702   0.024
 2934SOL    HW1 9701   2.659   0.688   0.111
 2934SOL    HW2 9702   2.642   0.686   6.973
 2935SOL     OW 9703   6.608   1.775   1.122
 2935SOL    HW1 9704   6.562   1.806   1.039
 2935SOL    HW2 9705   6.693   1.827   1.134
 2936SOL     OW 9706   3.484   6.057   1.026
 2936SOL    HW1 9707   3.402   6.003   1.007
 2936SOL    HW2 9708   3.548   6.001   1.080
 2937SOL     OW 9709   2.651   4.020   0.407
 2937SOL    HW1 9710   2.720   3.954   0.378
 2937SOL    HW2 9711   2.574   4.019   0.344
 2938SOL     OW 9712   4.814   5.176   5.679
 2938SOL    HW1 9713   4.859   5.253   5.635
 2938SOL    HW2 9714   4.866   5.149   5.760
 2939SOL     OW 9715   0.106   6.767   5.587
 2939SOL    HW1 9716   0.179   6.705   5.555
 2939SOL    HW2 9717   0.128   6.798   5.679
 2940SOL     OW 9718   4.202   0.556   5.613
 2940SOL    HW1 9719   4.207   0.645   5.568
 2940SOL    HW2 9720   4.294   0.515   5.615
 2941SOL     OW 9721   2.816   1.606   5.464
 2941SOL    HW1 9722   2.738   1.547   5.486
 2941SOL    HW2 9723   2.830   1.672   5.538
 2942SOL     OW 9724   3.940   6.229   4.359
 2942SOL    HW1 9725   4.008   6.167   4.322
 2942SOL    HW2 9726   3.851   6.184   4.362
 2943SOL     OW 9727   5.835   3.743   2.923
 2943SOL    HW1 9728   5.781   3.663   2.898
 2943SOL    HW2 9729   5.924   3.714   2.957
 2944SOL     OW 9730   4.033   6.214   6.551
 2944SOL    HW1 9731   4.067   6.126   6.585
 2944SOL    HW2 9732   3.976   6.257   6.621
 2945SOL     OW 9733   2.977   3.834   3.513
 2945SOL    HW1 9734   2.949   3.926   3.484
 2945SOL    HW2 9735   2.897   3.783   3.543
 2946SOL     OW 9736   0.003   5.926   5.799
 2946SOL    HW1 9737   6.951   5.909   5.736
 2946SOL    HW2 9738   7.011   6.012   5.848
 2947SOL     OW 9739   0.282   5.453   0.324
 2947SOL    HW1 9740   0.223   5.450   0.243
 2947SOL    HW2 9741   0.225   5.460   0.406
 2948SOL     OW 9742   5.959   4.465   5.286
 2948SOL    HW1 9743   5.961   4.549   5.233
 2948SOL    HW2 9744   5.865   4.437   5.302
 2949SOL     OW 9745   1.122   6.084   0.890
 2949SOL    HW1 9746   1.182   6.158   0.921
 2949SOL    HW2 9747   1.141   6.002   0.943
 2950SOL     OW 9748   5.494   3.696   4.653
 2950SOL    HW1 9749   5.568   3.733   4.598
 2950SOL    HW2 9750   5.407   3.710   4.606
 2951SOL     OW 9751   6.156   1.166   1.448
 2951SOL    HW1 9752   6.168   1.249   1.394
 2951SOL    HW2 9753   6.102   1.187   1.529
 2952SOL     OW 9754   1.597   3.654   2.170
 2952SOL    HW1 9755   1.579   3.622   2.077
 2952SOL    HW2 9756   1.679   3.712   2.170
 2953SOL     OW 9757   5.700   0.705   2.820
 2953SOL    HW1 9758   5.664   0.760   2.895
 2953SOL    HW2 9759   5.756   0.631   2.857
 2954SOL     OW 9760   5.711   6.445   1.437
 2954SOL    HW1 9761   5.611   6.439   1.426
 2954SOL    HW2 9762   5.755   6.383   1.372
 2955SOL     OW 9763   6.488   3.135   0.713
 2955SOL    HW1 9764   6.393   3.164   0.709
 2955SOL    HW2 9765   6.493   3.036   0.711
 2956SOL     OW 9766   6.634   5.408   2.613
 2956SOL    HW1 9767   6.672   5.403   2.521
 2956SOL    HW2 9768   6.608   5.316   2.644
 2957SOL     OW 9769   1.408   3.708   1.567
 2957SOL    HW1 9770   1.338   3.642   1.592
 2957SOL    HW2 9771   1.417   3.776   1.639
 2958SOL     OW 9772   3.724   4.760   6.582
 2958SOL    HW1 9773   3.802   4.797   6.632
 2958SOL    HW2 9774   3.656   4.832   6.569
 2959SOL     OW 9775   4.562   5.765   6.860
 2959SOL    HW1 9776   4.610   5.680   6.838
 2959SOL    HW2 9777   4.492   5.747   6.930
 2960SOL     OW 9778   2.700   1.671   7.018
 2960SOL    HW1 9779   2.603   1.648   0.003
 2960SOL    HW2 9780   2.731   1.719   0.076
 2961SOL     OW 9781   5.556   2.499   4.780
 2961SOL    HW1 9782   5.555   2.495   4.680
 2961SOL    HW2 9783   5.581   2.410   4.818
 2962SOL     OW 9784   3.773   1.394   3.537
 2962SOL    HW1 9785   3.695   1.366   3.482
 2962SOL    HW2 9786   3.857   1.381   3.484
 2963SOL     OW 9787   2.039   2.740   4.846
 2963SOL    HW1 9788   2.120   2.794   4.821
 2963SOL    HW2 9789   1.987   2.720   4.763
 2964SOL     OW 9790   2.678   5.954   0.508
 2964SOL    HW1 9791   2.664   6.043   0.464
 2964SOL    HW2 9792   2.616   5.886   0.467
 2965SOL     OW 9793   0.956   2.532   5.911
 2965SOL    HW1 9794   0.885   2.575   5.968
 2965SOL    HW2 9795   0.989   2.597   5.843
 2966SOL     OW 9796   4.567   4.390   3.565
 2966SOL    HW1 9797   4.485   4.433   3.602
 2966SOL    HW2 9798   4.607   4.448   3.495
 2967SOL     OW 9799   5.980   2.156   4.195
 2967SOL    HW1 9800   6.066   2.129   4.237
 2967SOL    HW2 9801   5.916   2.184   4.266
 2968SOL     OW 9802   6.728   4.236   3.644
 2968SOL    HW1 9803   6.670   4.199   3.571
 2968SOL    HW2 9804   6.671   4.279   3.714
 2969SOL     OW 9805   4.691   0.733   4.369
 2969SOL    HW1 9806   4.739   0.646   4.386
 2969SOL    HW2 9807   4.744   0.808   4.407
 2970SOL     OW 9808   1.423   4.654   6.480
 2970SOL    HW1 9809   1.394   4.746   6.453
 2970SOL    HW2 9810   1.348   4.590   6.465
 2971SOL     OW 9811   4.881   3.364   3.583
 2971SOL    HW1 9812   4.885   3.373   3.683
 2971SOL    HW2 9813   4.877   3.456   3.543
 2972SOL     OW 9814   0.588   4.263   6.242
 2972SOL    HW1 9815   0.514   4.328   6.259
 2972SOL    HW2 9816   0.551   4.170   6.239
 2973SOL     OW 9817   5.408   6.503   4.188
 2973SOL    HW1 9818   5.395   6.418   4.137
 2973SOL    HW2 9819   5.413   6.580   4.124
 2974SOL     OW 9820   0.461   3.737   2.478
 2974SOL    HW1 9821   0.472   3.822   2.531
 2974SOL    HW2 9822   0.461   3.659   2.540
 2975SOL     OW 9823   0.054   1.267   4.499
 2975SOL    HW1 9824   7.012   1.342   4.501
 2975SOL    HW2 9825   0.143   1.301   4.471
 2976SOL     OW 9826   3.194   6.470   1.738
 2976SOL    HW1 9827   3.180   6.473   1.639
 2976SOL    HW2 9828   3.162   6.556   1.778
 2977SOL     OW 9829   3.819   6.252   4.021
 2977SOL    HW1 9830   3.848   6.334   4.071
 2977SOL    HW2 9831   3.803   6.178   4.086
 2978SOL     OW 9832   4.093   6.307   6.879
 2978SOL    HW1 9833   4.103   6.377   6.809
 2978SOL    HW2 9834   4.027   6.338   6.948
 2979SOL     OW 9835   3.273   1.104   3.475
 2979SOL    HW1 9836   3.185   1.101   3.522
 2979SOL    HW2 9837   3.259   1.096   3.376
 2980SOL     OW 9838   6.942   6.279   3.893
 2980SOL    HW1 9839   6.854   6.249   3.931
 2980SOL    HW2 9840   7.004   6.303   3.967
 2981SOL     OW 9841   1.668   1.143   5.405
 2981SOL    HW1 9842   1.617   1.058   5.420
 2981SOL    HW2 9843   1.760   1.121   5.371
 2982SOL     OW 9844   4.845   7.008   3.453
 2982SOL    HW1 9845   4.847   0.056   3.523
 2982SOL    HW2 9846   4.916   0.003   3.385
 2983SOL     OW 9847   6.732   0.115   2.383
 2983SOL    HW1 9848   6.749   0.193   2.322
 2983SOL    HW2 9849   6.679   0.145   2.462
 2984SOL     OW 9850   5.663   4.993   1.941
 2984SOL    HW1 9851   5.667   4.897   1.913
 2984SOL    HW2 9852   5.575   5.033   1.915
 2985SOL     OW 9853   5.991   1.906   3.110
 2985SOL    HW1 9854   6.048   1.986   3.129
 2985SOL    HW2 9855   5.898   1.922   3.145
 2986SOL     OW 9856   2.401   3.743   5.309
 2986SOL    HW1 9857   2.418   3.841   5.316
 2986SOL    HW2 9858   2.368   3.722   5.217
 2987SOL     OW 9859   4.370   2.124   4.482
 2987SOL    HW1 9860   4.365   2.108   4.580
 2987SOL    HW2 9861   4.300   2.071   4.435
 2988SOL     OW 9862   0.476   0.284   2.032
 2988SOL    HW1 9863   0.552   0.227   2.065
 2988SOL    HW2 9864   0.505   0.380   2.030
 2989SOL     OW 9865   6.698   4.999   0.826
 2989SOL    HW1 9866   6.633   4.923   0.827
 2989SOL    HW2 9867   6.791   4.963   0.823
 2990SOL     OW 9868   3.391   0.189   0.797
 2990SOL    HW1 9869   3.425   0.137   0.876
 2990SOL    HW2 9870   3.466   0.201   0.731
 2991SOL     OW 9871   6.678   4.763   0.155
 2991SOL    HW1 9872   6.631   4.687   0.200
 2991SOL    HW2 9873   6.777   4.749   0.161
 2992SOL     OW 9874   3.936   4.726   6.959
 2992SOL    HW1 9875   4.000   4.784   7.008
 2992SOL    HW2 9876   3.907   4.650   7.017
 2993SOL     OW 9877   2.130   5.544   0.381
 2993SOL    HW1 9878   2.167   5.485   0.309
 2993SOL    HW2 9879   2.178   5.631   0.381
 2994SOL     OW 9880   4.155   6.622   0.111
 2994SOL    HW1 9881   4.182   6.576   0.195
 2994SOL    HW2 9882   4.217   6.595   0.037
 2995SOL     OW 9883   2.620   0.646   5.769
 2995SOL    HW1 9884   2.587   0.594   5.690
 2995SOL    HW2 9885   2.720   0.643   5.771
 2996SOL     OW 9886   3.938   5.564   5.923
 2996SOL    HW1 9887   3.855   5.614   5.949
 2996SOL    HW2 9888   3.942   5.556   5.824
 2997SOL     OW 9889   4.792   6.653   0.672
 2997SOL    HW1 9890   4.789   6.730   0.608
 2997SOL    HW2 9891   4.823   6.685   0.762
 2998SOL     OW 9892   6.190   5.517   5.259
 2998SOL    HW1 9893   6.259   5.554   5.196
 2998SOL    HW2 9894   6.194   5.417   5.258
 2999SOL     OW 9895   3.207   6.483   2.319
 2999SOL    HW1 9896   3.214   6.578   2.290
 2999SOL    HW2 9897   3.298   6.447   2.337
 3000SOL     OW 9898   1.733   2.607   4.449
 3000SOL    HW1 9899   1.655   2.587   4.509
 3000SOL    HW2 9900   1.700   2.655   4.367
 3001SOL     OW 9901   4.439   0.060   6.454
 3001SOL    HW1 9902   4.515   0.125   6.446
 3001SOL    HW2 9903   4.474   6.997   6.489
 3002SOL     OW 9904   3.559   6.737   5.776
 3002SOL    HW1 9905   3.580   6.769   5.868
 3002SOL    HW2 9906   3.469   6.693   5.776
 3003SOL     OW 9907   2.455   6.998   6.555
 3003SOL    HW1 9908   2.386   0.044   6.534
 3003SOL    HW2 9909   2.409   6.911   6.573
 3004SOL     OW 9910   6.474   3.736   5.005
 3004SOL    HW1 9911   6.506   3.671   5.075
 3004SOL    HW2 9912   6.374   3.742   5.008
 3005SOL     OW 9913   4.767   2.553   1.989
 3005SOL    HW1 9914   4.765   2.638   1.937
 3005SOL    HW2 9915   4.676   2.511   1.988
 3006SOL     OW 9916   4.987   0.875   1.166
 3006SOL    HW1 9917   5.058   0.871   1.236
 3006SOL    HW2 9918   5.024   0.842   1.079
 3007SOL     OW 9919   6.648   5.926   1.986
 3007SOL    HW1 9920   6.653   5.989   1.908
 3007SOL    HW2 9921   6.722   5.858   1.978
 3008SOL     OW 9922   4.071   5.810   5.978
 3008SOL    HW1 9923   3.996   5.855   6.027
 3008SOL    HW2 9924   4.056   5.711   5.979
 3009SOL     OW 9925   1.018   1.164   2.720
 3009SOL    HW1 9926   1.103   1.217   2.722
 3009SOL    HW2 9927   0.961   1.196   2.644
 3010SOL     OW 9928   3.283   6.748   2.524
 3010SOL    HW1 9929   3.329   6.783   2.442
 3010SOL    HW2 9930   3.347   6.747   2.600
 3011SOL     OW 9931   5.859   0.509   6.780
 3011SOL    HW1 9932   5.930   0.553   6.726
 3011SOL    HW2 9933   5.899   0.439   6.839
 3012SOL     OW 9934   0.095   4.836   2.410
 3012SOL    HW1 9935   0.135   4.788   2.332
 3012SOL    HW2 9936   0.122   4.932   2.406
 3013SOL     OW 9937   5.725   4.364   2.287
 3013SOL    HW1 9938   5.725   4.441   2.224
 3013SOL    HW2 9939   5.819   4.332   2.301
 3014SOL     OW 9940   4.967   0.638   5.334
 3014SOL    HW1 9941   4.998   0.640   5.239
 3014SOL    HW2 9942   4.881   0.687   5.342
 3015SOL     OW 9943   3.213   2.311   6.765
 3015SOL    HW1 9944   3.258   2.364   6.693
 3015SOL    HW2 9945   3.233   2.353   6.854
 3016SOL     OW 9946   3.413   5.938   3.498
 3016SOL    HW1 9947   3.490   5.993   3.529
 3016SOL    HW2 9948   3.354   5.993   3.439
 3017SOL     OW 9949   6.591   6.096   1.177
 3017SOL    HW1 9950   6.666   6.131   1.232
 3017SOL    HW2 9951   6.626   6.032   1.109
 3018SOL     OW 9952   3.847   0.031   6.125
 3018SOL    HW1 9953   3.927   0.081   6.157
 3018SOL    HW2 9954   3.767   0.090   6.129
 3019SOL     OW 9955   5.085   6.556   2.171
 3019SOL    HW1 9956   5.030   6.472   2.171
 3019SOL    HW2 9957   5.059   6.613   2.249
 3020SOL     OW 9958   1.831   1.465   0.936
 3020SOL    HW1 9959   1.906   1.458   1.002
 3020SOL    HW2 9960   1.744   1.453   0.983
 3021SOL     OW 9961   3.680   1.025   6.200
 3021SOL    HW1 9962   3.701   0.980   6.114
 3021SOL    HW2 9963   3.727   1.113   6.205
 3022SOL     OW 9964   5.708   6.788   2.235
 3022SOL    HW1 9965   5.753   6.872   2.205
 3022SOL    HW2 9966   5.611   6.791   2.210
 3023SOL     OW 9967   5.724   0.245   1.237
 3023SOL    HW1 9968   5.714   0.270   1.333
 3023SOL    HW2 9969   5.691   0.319   1.179
 3024SOL     OW 9970   3.244   6.708   6.667
 3024SOL    HW1 9971   3.226   6.783   6.730
 3024SOL    HW2 9972   3.234   6.621   6.714
 3025SOL     OW 9973   1.833   2.236   1.631
 3025SOL    HW1 9974   1.864   2.206   1.541
 3025SOL    HW2 9975   1.890   2.194   1.702
 3026SOL     OW 9976   1.933   4.887   0.804
 3026SOL    HW1 9977   1.987   4.804   0.796
 3026SOL    HW2 9978   1.885   4.888   0.892
 3027SOL     OW 9979   1.817   1.411   3.902
 3027SOL    HW1 9980   1.911   1.386   3.926
 3027SOL    HW2 9981   1.758   1.331   3.906
 3028SOL     OW 9982   1.752   0.776   4.481
 3028SOL    HW1 9983   1.753   0.691   4.535
 3028SOL    HW2 9984   1.835   0.780   4.425
 3029SOL     OW 9985   4.774   6.023   5.597
 3029SOL    HW1 9986   4.747   5.956   5.528
 3029SOL    HW2 9987   4.693   6.057   5.644
 3030SOL     OW 9988   1.368   1.786   5.991
 3030SOL    HW1 9989   1.397   1.795   5.895
 3030SOL    HW2 9990   1.377   1.875   6.037
 3031SOL     OW 9991   1.343   5.023   6.752
 3031SOL    HW1 9992   1.380   4.992   6.840
 3031SOL    HW2 9993   1.415   5.068   6.699
 3032SOL     OW 9994   4.021   0.359   5.698
 3032SOL    HW1 9995   4.019   0.423   5.775
 3032SOL    HW2 9996   4.081   0.394   5.626
 3033SOL     OW 9997   5.146   5.117   6.041
 3033SOL    HW1 9998   5.221   5.053   6.055
 3033SOL    HW2 9999   5.156   5.194   6.105
 3034SOL     OW10000   2.333   0.119   4.194
 3034SOL    HW110001   2.432   0.113   4.204
 3034SOL    HW210002   2.303   0.214   4.206
 3035SOL     OW10003   6.592   6.651   6.854
 3035SOL    HW110004   6.499   6.687   6.859
 3035SOL    HW210005   6.643   6.679   6.936
 3036SOL     OW10006   1.333   4.568   6.023
 3036SOL    HW110007   1.423   4.527   6.041
 3036SOL    HW210008   1.345   4.663   5.994
 3037SOL     OW10009   6.737   6.661   5.630
 3037SOL    HW110010   6.675   6.626   5.560
 3037SOL    HW210011   6.707   6.633   5.720
 3038SOL     OW10012   5.663   0.003   5.873
 3038SOL    HW110013   5.626   0.085   5.830
 3038SOL    HW210014   5.638   6.946   5.820
 3039SOL     OW10015   0.616   5.190   0.763
 3039SOL    HW110016   0.687   5.131   0.803
 3039SOL    HW210017   0.596   5.158   0.670
 3040SOL     OW10018   2.114   2.148   6.630
 3040SOL    HW110019   2.193   2.153   6.692
 3040SOL    HW210020   2.034   2.118   6.682
 3041SOL     OW10021   1.709   1.804   6.058
 3041SOL    HW110022   1.655   1.827   5.977
 3041SOL    HW210023   1.657   1.741   6.116
 3042SOL     OW10024   5.049   0.053   1.970
 3042SOL    HW110025   5.052   6.986   1.928
 3042SOL    HW210026   5.128   0.107   1.939
 3043SOL     OW10027   0.048   5.090   0.357
 3043SOL    HW110028   0.106   5.035   0.417
 3043SOL    HW210029   6.976   5.068   0.375
 3044SOL     OW10030   3.516   3.801   5.771
 3044SOL    HW110031   3.421   3.826   5.757
 3044SOL    HW210032   3.548   3.748   5.692
 3045SOL     OW10033   5.461   1.882   3.838
 3045SOL    HW110034   5.470   1.973   3.877
 3045SOL    HW210035   5.530   1.822   3.877
 3046SOL     OW10036   2.544   1.936   5.654
 3046SOL    HW110037   2.631   1.890   5.669
 3046SOL    HW210038   2.560   2.025   5.611
 3047SOL     OW10039   0.078   4.311   2.155
 3047SOL    HW110040   0.028   4.238   2.201
 3047SOL    HW210041   0.171   4.317   2.192
 3048SOL     OW10042   2.878   2.607   1.703
 3048SOL    HW110043   2.971   2.641   1.688
 3048SOL    HW210044   2.880   2.539   1.777
 3049SOL     OW10045   0.746   0.228   1.765
 3049SOL    HW110046   0.742   0.301   1.698
 3049SOL    HW210047   0.653   0.198   1.789
 3050SOL     OW10048   2.819   5.492   3.765
 3050SOL    HW110049   2.811   5.462   3.670
 3050SOL    HW210050   2.785   5.586   3.774
 3051SOL     OW10051   2.594   4.628   5.522
 3051SOL    HW110052   2.542   4.674   5.450
 3051SOL    HW210053   2.661   4.567   5.481
 3052SOL     OW10054   4.753   6.508   2.605
 3052SOL    HW110055   4.754   6.510   2.705
 3052SOL    HW210056   4.708   6.591   2.571
 3053SOL     OW10057   4.434   6.899   1.031
 3053SOL    HW110058   4.383   6.815   1.009
 3053SOL    HW210059   4.397   6.940   1.114
 3054SOL     OW10060   1.938   3.317   6.188
 3054SOL    HW110061   2.005   3.312   6.114
 3054SOL    HW210062   1.982   3.297   6.275
 3055SOL     OW10063   5.712   6.117   3.007
 3055SOL    HW110064   5.804   6.097   2.976
 3055SOL    HW210065   5.660   6.032   3.018
 3056SOL     OW10066   6.392   0.873   1.322
 3056SOL    HW110067   6.295   0.891   1.339
 3056SOL    HW210068   6.443   0.959   1.323
 3057SOL     OW10069   6.377   5.781   2.377
 3057SOL    HW110070   6.461   5.817   2.339
 3057SOL    HW210071   6.398   5.721   2.454
 3058SOL     OW10072   6.136   5.043   1.587
 3058SOL    HW110073   6.225   5.081   1.613
 3058SOL    HW210074   6.149   4.972   1.517
 3059SOL     OW10075   1.962   2.631   4.592
 3059SOL    HW110076   2.047   2.614   4.542
 3059SOL    HW210077   1.885   2.589   4.544
 3060SOL     OW10078   6.510   6.838   0.812
 3060SOL    HW110079   6.421   6.797   0.833
 3060SOL    HW210080   6.535   6.816   0.717
 3061SOL     OW10081   0.217   0.855   6.107
 3061SOL    HW110082   0.199   0.952   6.120
 3061SOL    HW210083   0.139   0.812   6.062
 3062SOL     OW10084   2.977   5.933   6.160
 3062SOL    HW110085   2.896   5.961   6.109
 3062SOL    HW210086   2.964   5.950   6.257
 3063SOL     OW10087   1.790   5.487   0.845
 3063SOL    HW110088   1.867   5.475   0.783
 3063SOL    HW210089   1.816   5.455   0.937
 3064SOL     OW10090   6.868   4.925   3.491
 3064SOL    HW110091   6.889   4.940   3.395
 3064SOL    HW210092   6.819   4.838   3.502
 3065SOL     OW10093   2.168   1.013   1.237
 3065SOL    HW110094   2.130   1.047   1.151
 3065SOL    HW210095   2.192   0.917   1.227
 3066SOL     OW10096   5.247   5.492   0.950
 3066SOL    HW110097   5.231   5.590   0.966
 3066SOL    HW210098   5.339   5.478   0.915
 3067SOL     OW10099   5.151   6.436   3.348
 3067SOL    HW110100   5.090   6.414   3.272
 3067SOL    HW210101   5.114   6.398   3.433
 3068SOL     OW10102   6.177   4.832   0.492
 3068SOL    HW110103   6.122   4.831   0.575
 3068SOL    HW210104   6.247   4.904   0.499
 3069SOL     OW10105   1.134   5.475   3.355
 3069SOL    HW110106   1.111   5.447   3.448
 3069SOL    HW210107   1.051   5.471   3.298
 3070SOL     OW10108   4.098   1.641   4.318
 3070SOL    HW110109   4.140   1.560   4.277
 3070SOL    HW210110   3.999   1.628   4.324
 3071SOL     OW10111   5.940   0.177   3.774
 3071SOL    HW110112   5.967   0.083   3.792
 3071SOL    HW210113   6.008   0.220   3.714
 3072SOL     OW10114   0.682   0.100   2.166
 3072SOL    HW110115   0.774   0.066   2.150
 3072SOL    HW210116   0.632   0.035   2.223
 3073SOL     OW10117   1.655   3.013   4.505
 3073SOL    HW110118   1.601   3.010   4.589
 3073SOL    HW210119   1.609   2.963   4.433
 3074SOL     OW10120   4.897   3.308   5.885
 3074SOL    HW110121   4.885   3.237   5.953
 3074SOL    HW210122   4.811   3.357   5.872
 3075SOL     OW10123   1.075   5.620   1.582
 3075SOL    HW110124   1.128   5.697   1.616
 3075SOL    HW210125   0.981   5.625   1.616
 3076SOL     OW10126   0.173   0.301   5.158
 3076SOL    HW110127   0.263   0.335   5.129
 3076SOL    HW210128   0.106   0.319   5.086
 3077SOL     OW10129   4.852   5.083   3.987
 3077SOL    HW110130   4.806   5.170   3.972
 3077SOL    HW210131   4.917   5.066   3.913
 3078SOL     OW10132   2.144   3.015   0.475
 3078SOL    HW110133   2.048   3.029   0.450
 3078SOL    HW210134   2.203   3.062   0.409
 3079SOL     OW10135   5.891   2.789   6.276
 3079SOL    HW110136   5.801   2.775   6.317
 3079SOL    HW210137   5.923   2.882   6.296
 3080SOL     OW10138   6.265   5.893   0.853
 3080SOL    HW110139   6.174   5.890   0.813
 3080SOL    HW210140   6.262   5.940   0.941
 3081SOL     OW10141   6.549   5.411   5.693
 3081SOL    HW110142   6.613   5.337   5.712
 3081SOL    HW210143   6.531   5.416   5.595
 3082SOL     OW10144   2.168   0.022   2.472
 3082SOL    HW110145   2.247   0.003   2.414
 3082SOL    HW210146   2.089   6.993   2.439
 3083SOL     OW10147   3.591   0.608   2.003
 3083SOL    HW110148   3.497   0.576   1.997
 3083SOL    HW210149   3.643   0.551   2.067
 3084SOL     OW10150   4.888   6.500   4.742
 3084SOL    HW110151   4.903   6.440   4.820
 3084SOL    HW210152   4.789   6.507   4.724
 3085SOL     OW10153   0.731   5.983   1.345
 3085SOL    HW110154   0.779   6.059   1.389
 3085SOL    HW210155   0.637   5.980   1.378
 3086SOL     OW10156   5.945   1.453   4.366
 3086SOL    HW110157   5.940   1.527   4.298
 3086SOL    HW210158   5.987   1.373   4.324
 3087SOL     OW10159   5.739   2.998   2.726
 3087SOL    HW110160   5.789   3.082   2.749
 3087SOL    HW210161   5.668   3.019   2.658
 3088SOL     OW10162   3.003   4.166   5.919
 3088SOL    HW110163   3.096   4.153   5.885
 3088SOL    HW210164   2.984   4.097   5.989
 3089SOL     OW10165   2.021   2.395   0.818
 3089SOL    HW110166   2.100   2.421   0.873
 3089SOL    HW210167   1.975   2.477   0.785
 3090SOL     OW10168   0.876   1.352   1.384
 3090SOL    HW110169   0.865   1.301   1.299
 3090SOL    HW210170   0.894   1.449   1.363
 3091SOL     OW10171   2.583   0.340   0.708
 3091SOL    HW110172   2.588   0.270   0.638
 3091SOL    HW210173   2.658   0.406   0.695
 3092SOL     OW10174   4.386   6.329   1.050
 3092SOL    HW110175   4.299   6.377   1.065
 3092SOL    HW210176   4.392   6.250   1.111
 3093SOL     OW10177   5.353   5.889   3.846
 3093SOL    HW110178   5.254   5.876   3.847
 3093SOL    HW210179   5.398   5.803   3.869
 3094SOL     OW10180   3.117   5.164   5.558
 3094SOL    HW110181   3.173   5.191   5.480
 3094SOL    HW210182   3.077   5.074   5.541
 3095SOL     OW10183   2.983   4.820   4.309
 3095SOL    HW110184   3.023   4.879   4.380
 3095SOL    HW210185   3.019   4.847   4.219
 3096SOL     OW10186   0.158   0.926   5.195
 3096SOL    HW110187   0.142   0.847   5.254
 3096SOL    HW210188   0.099   0.919   5.114
 3097SOL     OW10189   1.582   2.766   0.187
 3097SOL    HW110190   1.638   2.710   0.248
 3097SOL    HW210191   1.489   2.771   0.223
 3098SOL     OW10192   4.007   2.137   0.405
 3098SOL    HW110193   4.023   2.186   0.320
 3098SOL    HW210194   3.970   2.046   0.385
 3099SOL     OW10195   1.228   6.160   5.000
 3099SOL    HW110196   1.315   6.178   4.954
 3099SOL    HW210197   1.190   6.074   4.966
 3100SOL     OW10198   6.531   6.501   0.217
 3100SOL    HW110199   6.625   6.520   0.245
 3100SOL    HW210200   6.478   6.585   0.220
 3101SOL     OW10201   4.256   0.120   0.816
 3101SOL    HW110202   4.355   0.122   0.828
 3101SOL    HW210203   4.211   0.111   0.905
 3102SOL     OW10204   1.121   5.253   0.603
 3102SOL    HW110205   1.107   5.294   0.693
 3102SOL    HW210206   1.217   5.264   0.576
 3103SOL     OW10207   4.043   3.883   2.006
 3103SOL    HW110208   4.020   3.904   1.911
 3103SOL    HW210209   4.105   3.805   2.009
 3104SOL     OW10210   6.715   5.272   3.937
 3104SOL    HW110211   6.765   5.245   4.019
 3104SOL    HW210212   6.625   5.227   3.937
 3105SOL     OW10213   6.660   6.233   3.978
 3105SOL    HW110214   6.605   6.289   4.041
 3105SOL    HW210215   6.625   6.244   3.885
 3106SOL     OW10216   6.731   2.834   4.700
 3106SOL    HW110217   6.647   2.802   4.744
 3106SOL    HW210218   6.721   2.826   4.600
 3107SOL     OW10219   3.134   6.912   3.978
 3107SOL    HW110220   3.225   6.873   3.964
 3107SOL    HW210221   3.080   6.852   4.037
 3108SOL     OW10222   3.386   0.255   3.272
 3108SOL    HW110223   3.376   0.214   3.182
 3108SOL    HW210224   3.368   0.353   3.267
 3109SOL     OW10225   4.796   5.848   3.072
 3109SOL    HW110226   4.720   5.785   3.081
 3109SOL    HW210227   4.762   5.942   3.073
 3110SOL     OW10228   0.966   3.163   2.107
 3110SOL    HW110229   0.980   3.163   2.206
 3110SOL    HW210230   1.004   3.079   2.068
 3111SOL     OW10231   6.373   4.905   3.815
 3111SOL    HW110232   6.321   4.821   3.830
 3111SOL    HW210233   6.471   4.885   3.819
 3112SOL     OW10234   3.189   3.707   6.497
 3112SOL    HW110235   3.222   3.776   6.432
 3112SOL    HW210236   3.219   3.616   6.468
 3113SOL     OW10237   3.892   0.232   3.828
 3113SOL    HW110238   3.922   0.254   3.736
 3113SOL    HW210239   3.958   0.267   3.894
 3114SOL     OW10240   5.524   5.242   1.157
 3114SOL    HW110241   5.491   5.203   1.243
 3114SOL    HW210242   5.487   5.190   1.080
 3115SOL     OW10243   2.736   3.418   1.805
 3115SOL    HW110244   2.804   3.406   1.733
 3115SOL    HW210245   2.762   3.363   1.884
 3116SOL     OW10246   6.791   1.844   6.987
 3116SOL    HW110247   6.813   1.886   6.899
 3116SOL    HW210248   6.732   1.905   0.016
 3117SOL     OW10249   4.087   4.030   5.218
 3117SOL    HW110250   4.056   3.943   5.180
 3117SOL    HW210251   4.180   4.020   5.255
 3118SOL     OW10252   6.115   5.030   0.153
 3118SOL    HW110253   6.124   5.014   0.054
 3118SOL    HW210254   6.146   5.123   0.174
 3119SOL     OW10255   1.962   4.771   5.907
 3119SOL    HW110256   1.950   4.830   5.826
 3119SOL    HW210257   1.944   4.825   5.989
 3120SOL     OW10258   2.816   5.938   5.472
 3120SOL    HW110259   2.794   5.851   5.429
 3120SOL    HW210260   2.749   6.007   5.445
 3121SOL     OW10261   0.710   6.116   2.865
 3121SOL    HW110262   0.756   6.197   2.829
 3121SOL    HW210263   0.611   6.131   2.865
 3122SOL     OW10264   2.900   5.227   0.983
 3122SOL    HW110265   2.808   5.264   0.995
 3122SOL    HW210266   2.965   5.282   1.035
 3123SOL     OW10267   3.964   6.829   4.923
 3123SOL    HW110268   4.047   6.878   4.895
 3123SOL    HW210269   3.986   6.767   4.998
 3124SOL     OW10270   3.420   0.022   6.021
 3124SOL    HW110271   3.374   0.062   5.943
 3124SOL    HW210272   3.454   0.095   6.081
 3125SOL     OW10273   6.562   1.984   5.986
 3125SOL    HW110274   6.640   2.040   5.957
 3125SOL    HW210275   6.594   1.896   6.019
 3126SOL     OW10276   3.742   6.484   0.422
 3126SOL    HW110277   3.655   6.530   0.404
 3126SOL    HW210278   3.813   6.552   0.437
 3127SOL     OW10279   1.022   1.444   3.587
 3127SOL    HW110280   0.966   1.380   3.640
 3127SOL    HW210281   1.041   1.525   3.643
 3128SOL     OW10282   1.338   1.097   0.294
 3128SOL    HW110283   1.277   1.116   0.371
 3128SOL    HW210284   1.304   1.018   0.243
 3129SOL     OW10285   1.684   2.742   4.090
 3129SOL    HW110286   1.704   2.813   4.022
 3129SOL    HW210287   1.623   2.673   4.049
 3130SOL     OW10288   2.050   5.532   2.827
 3130SOL    HW110289   2.005   5.484   2.903
 3130SOL    HW210290   2.124   5.475   2.791
 3131SOL     OW10291   0.196   3.283   3.543
 3131SOL    HW110292   0.099   3.258   3.545
 3131SOL    HW210293   0.251   3.199   3.540
 3132SOL     OW10294   4.753   6.241   5.095
 3132SOL    HW110295   4.822   6.281   5.036
 3132SOL    HW210296   4.785   6.152   5.128
 3133SOL     OW10297   2.423   1.812   3.108
 3133SOL    HW110298   2.507   1.807   3.162
 3133SOL    HW210299   2.361   1.738   3.136
 3134SOL     OW10300   5.154   3.234   2.341
 3134SOL    HW110301   5.130   3.185   2.258
 3134SOL    HW210302   5.072   3.252   2.395
 3135SOL     OW10303   2.759   1.655   3.095
 3135SOL    HW110304   2.785   1.745   3.128
 3135SOL    HW210305   2.687   1.664   3.026
 3136SOL     OW10306   6.188   6.464   5.318
 3136SOL    HW110307   6.150   6.434   5.406
 3136SOL    HW210308   6.129   6.535   5.279
 3137SOL     OW10309   6.577   1.934   4.751
 3137SOL    HW110310   6.577   1.955   4.848
 3137SOL    HW210311   6.667   1.953   4.712
 3138SOL     OW10312   4.928   1.605   4.592
 3138SOL    HW110313   4.942   1.579   4.687
 3138SOL    HW210314   4.990   1.680   4.568
 3139SOL     OW10315   4.803   6.361   5.822
 3139SOL    HW110316   4.826   6.459   5.828
 3139SOL    HW210317   4.875   6.307   5.865
 3140SOL     OW10318   6.469   6.343   6.591
 3140SOL    HW110319   6.532   6.278   6.635
 3140SOL    HW210320   6.433   6.406   6.660
 3141SOL     OW10321   0.970   5.026   0.509
 3141SOL    HW110322   0.888   5.046   0.456
 3141SOL    HW210323   1.010   5.111   0.542
 3142SOL     OW10324   3.559   6.989   6.408
 3142SOL    HW110325   3.606   6.928   6.345
 3142SOL    HW210326   3.596   6.977   6.500
 3143SOL     OW10327   0.096   1.503   0.235
 3143SOL    HW110328   0.168   1.437   0.215
 3143SOL    HW210329   0.087   1.513   0.335
 3144SOL     OW10330   1.694   3.208   6.206
 3144SOL    HW110331   1.784   3.245   6.185
 3144SOL    HW210332   1.637   3.211   6.124
 3145SOL     OW10333   3.850   6.220   3.773
 3145SOL    HW110334   3.818   6.213   3.867
 3145SOL    HW210335   3.836   6.313   3.740
 3146SOL     OW10336   2.123   0.908   3.628
 3146SOL    HW110337   2.030   0.871   3.618
 3146SOL    HW210338   2.175   0.850   3.691
 3147SOL     OW10339   3.740   4.103   0.683
 3147SOL    HW110340   3.666   4.039   0.704
 3147SOL    HW210341   3.819   4.052   0.650
 3148SOL     OW10342   3.594   5.682   5.095
 3148SOL    HW110343   3.631   5.719   5.010
 3148SOL    HW210344   3.622   5.586   5.105
 3149SOL     OW10345   3.199   6.449   5.929
 3149SOL    HW110346   3.174   6.385   5.856
 3149SOL    HW210347   3.230   6.396   6.009
 3150SOL     OW10348   6.525   6.748   4.222
 3150SOL    HW110349   6.578   6.710   4.146
 3150SOL    HW210350   6.477   6.830   4.191
 3151SOL     OW10351   3.571   0.318   0.153
 3151SOL    HW110352   3.476   0.342   0.136
 3151SOL    HW210353   3.625   0.331   0.070
 3152SOL     OW10354   1.667   4.848   0.036
 3152SOL    HW110355   1.746   4.786   0.041
 3152SOL    HW210356   1.615   4.841   0.121
 3153SOL     OW10357   0.151   4.092   2.610
 3153SOL    HW110358   0.095   4.175   2.611
 3153SOL    HW210359   0.204   4.088   2.525
 3154SOL     OW10360   5.797   2.224   6.607
 3154SOL    HW110361   5.773   2.133   6.642
 3154SOL    HW210362   5.729   2.290   6.639
 3155SOL     OW10363   4.545   6.256   0.217
 3155SOL    HW110364   4.567   6.344   0.259
 3155SOL    HW210365   4.454   6.227   0.247
 3156SOL     OW10366   3.678   3.431   3.149
 3156SOL    HW110367   3.744   3.411   3.222
 3156SOL    HW210368   3.586   3.437   3.188
 3157SOL     OW10369   2.233   2.128   4.196
 3157SOL    HW110370   2.239   2.106   4.293
 3157SOL    HW210371   2.141   2.160   4.174
 3158SOL     OW10372   3.903   6.034   1.192
 3158SOL    HW110373   3.900   5.990   1.282
 3158SOL    HW210374   3.889   5.965   1.121
 3159SOL     OW10375   5.808   4.219   0.550
 3159SOL    HW110376   5.722   4.253   0.588
 3159SOL    HW210377   5.880   4.228   0.619
 3160SOL     OW10378   5.629   4.776   0.675
 3160SOL    HW110379   5.684   4.760   0.593
 3160SOL    HW210380   5.535   4.797   0.648
 3161SOL     OW10381   0.738   1.921   2.292
 3161SOL    HW110382   0.692   1.991   2.238
 3161SOL    HW210383   0.792   1.964   2.364
 3162SOL     OW10384   6.236   6.733   5.810
 3162SOL    HW110385   6.188   6.717   5.723
 3162SOL    HW210386   6.331   6.706   5.801
 3163SOL     OW10387   2.633   4.665   5.204
 3163SOL    HW110388   2.670   4.643   5.113
 3163SOL    HW210389   2.709   4.672   5.269
 3164SOL     OW10390   6.091   5.646   6.230
 3164SOL    HW110391   6.152   5.690   6.164
 3164SOL    HW210392   6.117   5.672   6.323
 3165SOL     OW10393   6.987   2.954   1.205
 3165SOL    HW110394   6.949   3.044   1.228
 3165SOL    HW210395   6.922   2.883   1.231
 3166SOL     OW10396   5.344   2.865   6.692
 3166SOL    HW110397   5.420   2.802   6.678
 3166SOL    HW210398   5.258   2.814   6.687
 3167SOL     OW10399   0.676   4.091   2.175
 3167SOL    HW110400   0.652   4.048   2.088
 3167SOL    HW210401   0.770   4.125   2.170
 3168SOL     OW10402   5.168   3.238   0.654
 3168SOL    HW110403   5.219   3.153   0.664
 3168SOL    HW210404   5.230   3.316   0.663
 3169SOL     OW10405   1.836   1.687   5.058
 3169SOL    HW110406   1.932   1.675   5.083
 3169SOL    HW210407   1.819   1.641   4.971
 3170SOL     OW10408   4.490   0.774   5.886
 3170SOL    HW110409   4.408   0.829   5.900
 3170SOL    HW210410   4.468   0.678   5.902
 3171SOL     OW10411   6.084   0.055   3.362
 3171SOL    HW110412   6.154   7.010   3.382
 3171SOL    HW210413   6.037   0.031   3.277
 3172SOL     OW10414   5.721   0.317   5.986
 3172SOL    HW110415   5.654   0.291   5.916
 3172SOL    HW210416   5.734   0.240   6.049
 3173SOL     OW10417   1.902   1.362   1.488
 3173SOL    HW110418   1.974   1.430   1.475
 3173SOL    HW210419   1.941   1.270   1.479
 3174SOL     OW10420   1.829   3.575   6.125
 3174SOL    HW110421   1.865   3.482   6.126
 3174SOL    HW210422   1.732   3.573   6.150
 3175SOL     OW10423   6.688   5.899   1.006
 3175SOL    HW110424   6.701   5.949   0.920
 3175SOL    HW210425   6.741   5.814   1.004
 3176SOL     OW10426   1.594   6.044   6.235
 3176SOL    HW110427   1.546   6.110   6.178
 3176SOL    HW210428   1.589   5.954   6.193
 3177SOL     OW10429   0.768   0.230   4.047
 3177SOL    HW110430   0.709   0.275   4.113
 3177SOL    HW210431   0.838   0.178   4.096
 3178SOL     OW10432   2.025   3.193   0.789
 3178SOL    HW110433   2.052   3.282   0.827
 3178SOL    HW210434   2.105   3.147   0.751
 3179SOL     OW10435   1.167   2.379   3.344
 3179SOL    HW110436   1.099   2.447   3.318
 3179SOL    HW210437   1.259   2.414   3.325
 3180SOL     OW10438   5.325   1.468   6.365
 3180SOL    HW110439   5.367   1.409   6.433
 3180SOL    HW210440   5.278   1.543   6.411
 3181SOL     OW10441   0.388   1.854   3.481
 3181SOL    HW110442   0.367   1.932   3.540
 3181SOL    HW210443   0.349   1.771   3.520
 3182SOL     OW10444   1.435   4.884   5.373
 3182SOL    HW110445   1.426   4.961   5.436
 3182SOL    HW210446   1.486   4.913   5.292
 3183SOL     OW10447   4.762   2.985   1.244
 3183SOL    HW110448   4.710   2.901   1.223
 3183SOL    HW210449   4.699   3.054   1.280
 3184SOL     OW10450   1.679   1.349   3.286
 3184SOL    HW110451   1.655   1.419   3.353
 3184SOL    HW210452   1.654   1.380   3.194
 3185SOL     OW10453   0.639   6.473   6.204
 3185SOL    HW110454   0.603   6.543   6.142
 3185SOL    HW210455   0.732   6.497   6.232
 3186SOL     OW10456   3.221   0.432   1.551
 3186SOL    HW110457   3.198   0.528   1.566
 3186SOL    HW210458   3.317   0.416   1.576
 3187SOL     OW10459   3.092   4.343   0.039
 3187SOL    HW110460   3.136   4.432   0.042
 3187SOL    HW210461   3.135   4.282   0.106
 3188SOL     OW10462   4.554   0.268   3.441
 3188SOL    HW110463   4.461   0.298   3.464
 3188SOL    HW210464   4.588   0.322   3.364
 3189SOL     OW10465   6.782   7.001   1.590
 3189SOL    HW110466   6.775   6.958   1.500
 3189SOL    HW210467   6.729   0.062   1.591
 3190SOL     OW10468   0.870   6.586   1.199
 3190SOL    HW110469   0.929   6.658   1.161
 3190SOL    HW210470   0.877   6.504   1.143
 3191SOL     OW10471   2.942   0.446   0.951
 3191SOL    HW110472   2.876   0.382   0.912
 3191SOL    HW210473   2.975   0.508   0.879
 3192SOL     OW10474   5.942   2.330   3.976
 3192SOL    HW110475   5.947   2.283   4.064
 3192SOL    HW210476   5.934   2.261   3.903
 3193SOL     OW10477   4.841   4.282   0.663
 3193SOL    HW110478   4.901   4.361   0.648
 3193SOL    HW210479   4.869   4.207   0.602
 3194SOL     OW10480   2.055   4.631   5.621
 3194SOL    HW110481   2.026   4.674   5.536
 3194SOL    HW210482   2.154   4.636   5.629
 3195SOL     OW10483   1.023   3.676   3.172
 3195SOL    HW110484   0.971   3.723   3.101
 3195SOL    HW210485   1.120   3.699   3.164
 3196SOL     OW10486   0.246   6.404   5.416
 3196SOL    HW110487   0.280   6.348   5.491
 3196SOL    HW210488   0.177   6.353   5.364
 3197SOL     OW10489   0.696   4.228   4.251
 3197SOL    HW110490   0.757   4.254   4.176
 3197SOL    HW210491   0.608   4.198   4.213
 3198SOL     OW10492   5.361   6.814   0.029
 3198SOL    HW110493   5.359   6.760   0.114
 3198SOL    HW210494   5.367   6.911   0.052
 3199SOL     OW10495   3.506   1.730   2.894
 3199SOL    HW110496   3.525   1.722   2.992
 3199SOL    HW210497   3.414   1.766   2.880
 3200SOL     OW10498   6.991   2.049   0.826
 3200SOL    HW110499   6.947   2.108   0.894
 3200SOL    HW210500   6.958   2.073   0.735
 3201SOL     OW10501   4.742   4.307   3.158
 3201SOL    HW110502   4.750   4.392   3.211
 3201SOL    HW210503   4.765   4.229   3.216
 3202SOL     OW10504   1.282   5.828   2.093
 3202SOL    HW110505   1.296   5.736   2.130
 3202SOL    HW210506   1.215   5.877   2.149
 3203SOL     OW10507   4.837   0.442   0.907
 3203SOL    HW110508   4.866   0.490   0.825
 3203SOL    HW210509   4.893   0.470   0.985
 3204SOL     OW10510   6.495   6.266   1.676
 3204SOL    HW110511   6.499   6.366   1.669
 3204SOL    HW210512   6.403   6.235   1.653
 3205SOL     OW10513   1.313   3.909   3.342
 3205SOL    HW110514   1.332   3.818   3.307
 3205SOL    HW210515   1.388   3.938   3.402
 3206SOL     OW10516   1.570   6.275   0.137
 3206SOL    HW110517   1.568   6.200   0.202
 3206SOL    HW210518   1.616   6.246   0.053
 3207SOL     OW10519   0.766   1.228   2.566
 3207SOL    HW110520   0.721   1.140   2.579
 3207SOL    HW210521   0.748   1.261   2.473
 3208SOL     OW10522   6.146   0.579   4.638
 3208SOL    HW110523   6.201   0.540   4.565
 3208SOL    HW210524   6.205   0.606   4.714
 3209SOL     OW10525   2.284   0.118   2.816
 3209SOL    HW110526   2.361   0.129   2.879
 3209SOL    HW210527   2.219   0.193   2.830
 3210SOL     OW10528   0.651   4.840   2.369
 3210SOL    HW110529   0.675   4.897   2.291
 3210SOL    HW210530   0.666   4.744   2.347
 3211SOL     OW10531   1.154   3.951   2.626
 3211SOL    HW110532   1.237   3.995   2.659
 3211SOL    HW210533   1.103   4.015   2.568
 3212SOL     OW10534   4.749   3.064   5.180
 3212SOL    HW110535   4.847   3.049   5.190
 3212SOL    HW210536   4.719   3.136   5.242
 3213SOL     OW10537   4.833   0.041   1.423
 3213SOL    HW110538   4.805   0.015   1.330
 3213SOL    HW210539   4.902   7.001   1.457
 3214SOL     OW10540   4.055   4.247   6.401
 3214SOL    HW110541   3.961   4.215   6.412
 3214SOL    HW210542   4.115   4.169   6.383
 3215SOL     OW10543   6.025   1.171   6.902
 3215SOL    HW110544   6.046   1.111   6.979
 3215SOL    HW210545   5.927   1.169   6.883
 3216SOL     OW10546   6.398   6.646   5.266
 3216SOL    HW110547   6.442   6.639   5.176
 3216SOL    HW210548   6.328   6.575   5.275
 3217SOL     OW10549   6.912   3.922   0.563
 3217SOL    HW110550   6.987   3.857   0.569
 3217SOL    HW210551   6.830   3.876   0.530
 3218SOL     OW10552   3.436   0.821   2.249
 3218SOL    HW110553   3.437   0.734   2.298
 3218SOL    HW210554   3.509   0.880   2.285
 3219SOL     OW10555   6.975   6.835   4.185
 3219SOL    HW110556   6.989   6.838   4.284
 3219SOL    HW210557   0.025   6.782   4.143
 3220SOL     OW10558   5.684   2.761   6.663
 3220SOL    HW110559   5.706   2.769   6.566
 3220SOL    HW210560   5.729   2.681   6.701
 3221SOL     OW10561   3.666   0.089   2.488
 3221SOL    HW110562   3.581   0.136   2.511
 3221SOL    HW210563   3.741   0.127   2.543
 3222SOL     OW10564   6.272   3.840   2.192
 3222SOL    HW110565   6.364   3.877   2.179
 3222SOL    HW210566   6.240   3.798   2.107
 3223SOL     OW10567   2.521   4.641   3.963
 3223SOL    HW110568   2.512   4.571   4.034
 3223SOL    HW210569   2.563   4.723   4.002
 3224SOL     OW10570   3.392   6.004   1.534
 3224SOL    HW110571   3.373   6.070   1.461
 3224SOL    HW210572   3.308   5.985   1.585
 3225SOL     OW10573   1.935   2.989   1.116
 3225SOL    HW110574   1.913   2.939   1.199
 3225SOL    HW210575   1.854   2.995   1.058
 3226SOL     OW10576   0.279   0.658   3.890
 3226SOL    HW110577   0.272   0.645   3.989
 3226SOL    HW210578   0.226   0.738   3.863
 3227SOL     OW10579   1.811   1.400   5.221
 3227SOL    HW110580   1.818   1.321   5.161
 3227SOL    HW210581   1.715   1.426   5.232
 3228SOL     OW10582   5.084   3.349   4.536
 3228SOL    HW110583   5.056   3.255   4.554
 3228SOL    HW210584   5.165   3.371   4.590
 3229SOL     OW10585   4.374   1.649   5.228
 3229SOL    HW110586   4.372   1.555   5.262
 3229SOL    HW210587   4.356   1.650   5.130
 3230SOL     OW10588   1.673   0.581   4.255
 3230SOL    HW110589   1.584   0.547   4.285
 3230SOL    HW210590   1.682   0.677   4.280
 3231SOL     OW10591   4.813   5.194   0.136
 3231SOL    HW110592   4.856   5.109   0.164
 3231SOL    HW210593   4.781   5.244   0.216
 3232SOL     OW10594   1.831   4.494   3.396
 3232SOL    HW110595   1.889   4.505   3.476
 3232SOL    HW210596   1.794   4.401   3.394
 3233SOL     OW10597   1.489   3.729   0.307
 3233SOL    HW110598   1.512   3.633   0.328
 3233SOL    HW210599   1.550   3.789   0.359
 3234SOL     OW10600   6.496   2.536   5.159
 3234SOL    HW110601   6.471   2.633   5.163
 3234SOL    HW210602   6.591   2.528   5.128
 3235SOL     OW10603   5.392   0.850   2.497
 3235SOL    HW110604   5.346   0.807   2.420
 3235SOL    HW210605   5.392   0.949   2.485
 3236SOL     OW10606   0.192   3.168   1.517
 3236SOL    HW110607   0.144   3.087   1.484
 3236SOL    HW210608   0.272   3.140   1.570
 3237SOL     OW10609   2.931   6.518   4.270
 3237SOL    HW110610   2.991   6.446   4.234
 3237SOL    HW210611   2.838   6.483   4.278
 3238SOL     OW10612   6.361   6.319   6.333
 3238SOL    HW110613   6.437   6.267   6.293
 3238SOL    HW210614   6.378   6.332   6.431
 3239SOL     OW10615   0.799   6.015   5.459
 3239SOL    HW110616   0.807   6.053   5.367
 3239SOL    HW210617   0.855   5.932   5.466
 3240SOL     OW10618   6.974   2.180   4.960
 3240SOL    HW110619   6.949   2.253   4.896
 3240SOL    HW210620   6.936   2.093   4.929
 3241SOL     OW10621   4.790   6.825   5.082
 3241SOL    HW110622   4.881   6.789   5.062
 3241SOL    HW210623   4.798   6.916   5.123
 3242SOL     OW10624   3.148   6.793   0.823
 3242SOL    HW110625   3.096   6.789   0.737
 3242SOL    HW210626   3.145   6.704   0.867
 3243SOL     OW10627   3.316   5.473   1.190
 3243SOL    HW110628   3.325   5.571   1.208
 3243SOL    HW210629   3.405   5.428   1.203
 3244SOL     OW10630   1.234   6.320   5.663
 3244SOL    HW110631   1.152   6.288   5.711
 3244SOL    HW210632   1.217   6.320   5.564
 3245SOL     OW10633   3.221   1.944   5.646
 3245SOL    HW110634   3.216   1.856   5.597
 3245SOL    HW210635   3.309   1.951   5.692
 3246SOL     OW10636   5.701   6.372   3.469
 3246SOL    HW110637   5.735   6.439   3.403
 3246SOL    HW210638   5.714   6.408   3.562
 3247SOL     OW10639   6.495   2.512   5.616
 3247SOL    HW110640   6.565   2.514   5.545
 3247SOL    HW210641   6.435   2.433   5.601
 3248SOL     OW10642   5.157   3.856   2.992
 3248SOL    HW110643   5.147   3.803   2.908
 3248SOL    HW210644   5.126   3.950   2.975
 3249SOL     OW10645   3.012   4.597   5.691
 3249SOL    HW110646   2.965   4.586   5.779
 3249SOL    HW210647   2.968   4.669   5.638
 3250SOL     OW10648   4.776   5.435   1.424
 3250SOL    HW110649   4.833   5.360   1.457
 3250SOL    HW210650   4.685   5.401   1.402
 3251SOL     OW10651   3.725   0.608   3.529
 3251SOL    HW110652   3.671   0.611   3.614
 3251SOL    HW210653   3.732   0.700   3.491
 3252SOL     OW10654   3.198   1.987   3.336
 3252SOL    HW110655   3.184   2.014   3.431
 3252SOL    HW210656   3.196   1.887   3.329
 3253SOL     OW10657   4.602   4.376   1.089
 3253SOL    HW110658   4.599   4.466   1.132
 3253SOL    HW210659   4.520   4.364   1.033
 3254SOL     OW10660   5.969   4.305   2.383
 3254SOL    HW110661   5.966   4.391   2.434
 3254SOL    HW210662   6.061   4.266   2.390
 3255SOL     OW10663   4.303   5.027   0.981
 3255SOL    HW110664   4.228   5.022   1.047
 3255SOL    HW210665   4.390   5.038   1.030
 3256SOL     OW10666   5.899   6.197   5.786
 3256SOL    HW110667   5.997   6.182   5.796
 3256SOL    HW210668   5.880   6.295   5.781
 3257SOL     OW10669   2.193   1.834   1.144
 3257SOL    HW110670   2.158   1.909   1.088
 3257SOL    HW210671   2.176   1.854   1.241
 3258SOL     OW10672   5.064   6.673   1.505
 3258SOL    HW110673   4.966   6.653   1.497
 3258SOL    HW210674   5.100   6.628   1.587
 3259SOL     OW10675   6.048   6.314   2.836
 3259SOL    HW110676   6.043   6.324   2.737
 3259SOL    HW210677   6.083   6.224   2.860
 3260SOL     OW10678   1.426   1.754   1.090
 3260SOL    HW110679   1.497   1.754   1.160
 3260SOL    HW210680   1.456   1.809   1.012
 3261SOL     OW10681   4.367   6.741   3.657
 3261SOL    HW110682   4.321   6.829   3.661
 3261SOL    HW210683   4.437   6.743   3.585
 3262SOL     OW10684   3.888   1.199   3.968
 3262SOL    HW110685   3.865   1.282   3.918
 3262SOL    HW210686   3.804   1.151   3.993
 3263SOL     OW10687   3.902   4.832   2.987
 3263SOL    HW110688   3.948   4.890   2.920
 3263SOL    HW210689   3.964   4.759   3.016
 3264SOL     OW10690   4.779   4.791   6.140
 3264SOL    HW110691   4.807   4.883   6.170
 3264SOL    HW210692   4.840   4.759   6.067
 3265SOL     OW10693   5.217   6.975   6.268
 3265SOL    HW110694   5.244   6.880   6.257
 3265SOL    HW210695   5.166   7.005   6.187
 3266SOL     OW10696   1.109   2.962   6.397
 3266SOL    HW110697   1.079   2.867   6.403
 3266SOL    HW210698   1.058   3.017   6.465
 3267SOL     OW10699   5.124   3.121   2.034
 3267SOL    HW110700   5.088   3.058   1.965
 3267SOL    HW210701   5.224   3.111   2.040
 3268SOL     OW10702   1.745   4.602   6.859
 3268SOL    HW110703   1.789   4.514   6.844
 3268SOL    HW210704   1.682   4.596   6.937
 3269SOL     OW10705   4.811   3.664   0.650
 3269SOL    HW110706   4.897   3.620   0.624
 3269SOL    HW210707   4.771   3.615   0.728
 3270SOL     OW10708   0.539   5.283   4.476
 3270SOL    HW110709   0.565   5.281   4.379
 3270SOL    HW210710   0.510   5.192   4.504
 3271SOL     OW10711   4.747   0.339   2.095
 3271SOL    HW110712   4.773   0.354   2.000
 3271SOL    HW210713   4.730   0.242   2.111
 3272SOL     OW10714   4.963   6.718   6.958
 3272SOL    HW110715   5.046   6.739   6.906
 3272SOL    HW210716   4.937   6.799   7.011
 3273SOL     OW10717   1.289   1.165   3.142
 3273SOL    HW110718   1.206   1.184   3.194
 3273SOL    HW210719   1.311   1.244   3.085
 3274SOL     OW10720   2.815   1.499   6.812
 3274SOL    HW110721   2.784   1.548   6.893
 3274SOL    HW210722   2.871   1.559   6.756
 3275SOL     OW10723   4.105   0.917   7.005
 3275SOL    HW110724   4.018   0.939   0.025
 3275SOL    HW210725   4.143   0.834   0.021
 3276SOL     OW10726   2.084   6.289   0.505
 3276SOL    HW110727   2.086   6.222   0.431
 3276SOL    HW210728   2.088   6.382   0.467
 3277SOL     OW10729   0.015   6.386   6.207
 3277SOL    HW110730   0.069   6.462   6.171
 3277SOL    HW210731   0.055   6.300   6.176
 3278SOL     OW10732   1.029   1.155   0.343
 3278SOL    HW110733   1.054   1.071   0.295
 3278SOL    HW210734   0.999   1.224   0.276
 3279SOL     OW10735   1.917   6.310   0.863
 3279SOL    HW110736   1.945   6.219   0.831
 3279SOL    HW210737   1.820   6.308   0.885
 3280SOL     OW10738   2.623   6.277   4.549
 3280SOL    HW110739   2.536   6.227   4.551
 3280SOL    HW210740   2.692   6.221   4.504
 3281SOL     OW10741   2.430   6.421   0.588
 3281SOL    HW110742   2.404   6.347   0.650
 3281SOL    HW210743   2.407   6.395   0.494
 3282SOL     OW10744   1.975   5.718   2.444
 3282SOL    HW110745   1.952   5.725   2.541
 3282SOL    HW210746   1.981   5.809   2.404
 3283SOL     OW10747   2.257   6.923   4.062
 3283SOL    HW110748   2.162   6.926   4.030
 3283SOL    HW210749   2.284   7.013   4.095
 3284SOL     OW10750   1.402   4.995   5.942
 3284SOL    HW110751   1.463   4.934   5.891
 3284SOL    HW210752   1.424   5.090   5.921
 3285SOL     OW10753   0.034   2.604   4.311
 3285SOL    HW110754   0.036   2.687   4.255
 3285SOL    HW210755   0.126   2.584   4.344
 3286SOL     OW10756   4.219   4.845   6.591
 3286SOL    HW110757   4.217   4.801   6.501
 3286SOL    HW210758   4.297   4.809   6.644
 3287SOL     OW10759   0.602   3.898   1.543
 3287SOL    HW110760   0.522   3.894   1.604
 3287SOL    HW210761   0.630   3.806   1.519
 3288SOL     OW10762   1.151   6.838   6.238
 3288SOL    HW110763   1.113   6.930   6.229
 3288SOL    HW210764   1.155   6.795   6.148
 3289SOL     OW10765   1.216   5.937   4.187
 3289SOL    HW110766   1.246   5.843   4.205
 3289SOL    HW210767   1.252   5.967   4.099
 3290SOL     OW10768   0.267   4.752   3.372
 3290SOL    HW110769   0.356   4.758   3.328
 3290SOL    HW210770   0.262   4.668   3.426
 3291SOL     OW10771   1.666   0.551   2.043
 3291SOL    HW110772   1.626   0.509   1.962
 3291SOL    HW210773   1.759   0.516   2.056
 3292SOL     OW10774   0.685   5.613   4.836
 3292SOL    HW110775   0.612   5.581   4.896
 3292SOL    HW210776   0.771   5.615   4.887
 3293SOL     OW10777   5.855   1.320   3.220
 3293SOL    HW110778   5.903   1.375   3.288
 3293SOL    HW210779   5.877   1.354   3.128
 3294SOL     OW10780   0.393   6.414   0.968
 3294SOL    HW110781   0.352   6.373   0.887
 3294SOL    HW210782   0.367   6.362   1.049
 3295SOL     OW10783   2.082   2.000   6.172
 3295SOL    HW110784   2.095   2.057   6.091
 3295SOL    HW210785   2.162   2.007   6.231
 3296SOL     OW10786   0.658   6.537   2.105
 3296SOL    HW110787   0.714   6.573   2.180
 3296SOL    HW210788   0.627   6.612   2.047
 3297SOL     OW10789   3.046   1.558   5.723
 3297SOL    HW110790   3.111   1.498   5.675
 3297SOL    HW210791   3.088   1.591   5.807
 3298SOL     OW10792   6.985   4.283   2.541
 3298SOL    HW110793   6.888   4.262   2.529
 3298SOL    HW210794   6.996   4.376   2.574
 3299SOL     OW10795   0.814   1.787   4.619
 3299SOL    HW110796   0.747   1.827   4.682
 3299SOL    HW210797   0.799   1.825   4.528
 3300SOL     OW10798   6.679   0.012   5.408
 3300SOL    HW110799   6.744   6.978   5.457
 3300SOL    HW210800   6.653   6.992   5.323
 3301SOL     OW10801   6.908   3.869   2.419
 3301SOL    HW110802   6.920   3.882   2.518
 3301SOL    HW210803   6.977   3.804   2.386
 3302SOL     OW10804   1.059   6.165   5.228
 3302SOL    HW110805   1.084   6.131   5.319
 3302SOL    HW210806   1.138   6.157   5.167
 3303SOL     OW10807   2.980   3.301   3.781
 3303SOL    HW110808   2.967   3.310   3.880
 3303SOL    HW210809   3.047   3.229   3.763
 3304SOL     OW10810   1.201   0.522   3.277
 3304SOL    HW110811   1.102   0.522   3.287
 3304SOL    HW210812   1.228   0.596   3.216
 3305SOL     OW10813   0.568   2.706   0.297
 3305SOL    HW110814   0.629   2.780   0.268
 3305SOL    HW210815   0.473   2.732   0.281
 3306SOL     OW10816   1.357   2.839   2.306
 3306SOL    HW110817   1.358   2.912   2.238
 3306SOL    HW210818   1.263   2.826   2.339
 3307SOL     OW10819   0.772   7.021   0.718
 3307SOL    HW110820   0.803   6.930   0.689
 3307SOL    HW210821   0.812   0.019   0.807
 3308SOL     OW10822   5.083   6.243   1.106
 3308SOL    HW110823   4.987   6.226   1.082
 3308SOL    HW210824   5.089   6.325   1.163
 3309SOL     OW10825   1.937   5.239   2.505
 3309SOL    HW110826   1.994   5.240   2.422
 3309SOL    HW210827   1.961   5.160   2.561
 3310SOL     OW10828   1.556   6.800   2.310
 3310SOL    HW110829   1.649   6.835   2.322
 3310SOL    HW210830   1.555   6.729   2.240
 3311SOL     OW10831   3.854   5.808   1.047
 3311SOL    HW110832   3.765   5.827   1.088
 3311SOL    HW210833   3.852   5.834   0.950
 3312SOL     OW10834   2.032   2.916   6.448
 3312SOL    HW110835   2.038   2.818   6.464
 3312SOL    HW210836   1.954   2.935   6.389
 3313SOL     OW10837   6.546   6.316   4.881
 3313SOL    HW110838   6.593   6.340   4.796
 3313SOL    HW210839   6.454   6.357   4.880
 3314SOL     OW10840   1.105   4.547   6.707
 3314SOL    HW110841   1.135   4.642   6.717
 3314SOL    HW210842   1.061   4.535   6.619
 3315SOL     OW10843   6.701   3.052   3.491
 3315SOL    HW110844   6.677   2.963   3.452
 3315SOL    HW210845   6.624   3.088   3.543
 3316SOL     OW10846   4.083   1.489   0.097
 3316SOL    HW110847   4.005   1.431   0.074
 3316SOL    HW210848   4.138   1.445   0.167
 3317SOL     OW10849   4.382   2.463   1.627
 3317SOL    HW110850   4.433   2.541   1.664
 3317SOL    HW210851   4.380   2.469   1.527
 3318SOL     OW10852   2.714   5.335   5.683
 3318SOL    HW110853   2.679   5.360   5.592
 3318SOL    HW210854   2.667   5.389   5.752
 3319SOL     OW10855   6.834   6.515   6.757
 3319SOL    HW110856   6.754   6.573   6.768
 3319SOL    HW210857   6.830   6.440   6.824
 3320SOL     OW10858   0.464   0.135   0.575
 3320SOL    HW110859   0.384   0.102   0.525
 3320SOL    HW210860   0.539   0.070   0.567
 3321SOL     OW10861   4.052   3.614   3.966
 3321SOL    HW110862   4.094   3.526   3.945
 3321SOL    HW210863   4.079   3.681   3.898
 3322SOL     OW10864   4.153   1.673   1.933
 3322SOL    HW110865   4.152   1.771   1.955
 3322SOL    HW210866   4.139   1.661   1.835
 3323SOL     OW10867   2.206   4.643   0.248
 3323SOL    HW110868   2.283   4.612   0.194
 3323SOL    HW210869   2.146   4.566   0.269
 3324SOL     OW10870   6.451   3.244   1.499
 3324SOL    HW110871   6.375   3.295   1.457
 3324SOL    HW210872   6.496   3.302   1.567
 3325SOL     OW10873   1.142   4.798   6.219
 3325SOL    HW110874   1.195   4.878   6.190
 3325SOL    HW210875   1.196   4.716   6.207
 3326SOL     OW10876   5.727   0.737   2.137
 3326SOL    HW110877   5.731   0.706   2.042
 3326SOL    HW210878   5.719   0.657   2.197
 3327SOL     OW10879   4.579   5.947   2.098
 3327SOL    HW110880   4.671   5.975   2.125
 3327SOL    HW210881   4.537   5.895   2.172
 3328SOL     OW10882   6.269   6.550   4.257
 3328SOL    HW110883   6.189   6.609   4.246
 3328SOL    HW210884   6.327   6.585   4.330
 3329SOL     OW10885   5.314   0.639   6.114
 3329SOL    HW110886   5.381   0.614   6.045
 3329SOL    HW210887   5.265   0.557   6.144
 3330SOL     OW10888   6.640   6.577   2.668
 3330SOL    HW110889   6.560   6.621   2.626
 3330SOL    HW210890   6.609   6.513   2.738
 3331SOL     OW10891   1.568   4.004   2.878
 3331SOL    HW110892   1.504   3.940   2.921
 3331SOL    HW210893   1.633   4.038   2.946
 3332SOL     OW10894   3.183   5.283   0.497
 3332SOL    HW110895   3.102   5.293   0.554
 3332SOL    HW210896   3.160   5.231   0.415
 3333SOL     OW10897   2.013   3.281   1.067
 3333SOL    HW110898   1.991   3.184   1.055
 3333SOL    HW210899   2.108   3.297   1.041
 3334SOL     OW10900   1.460   2.417   2.107
 3334SOL    HW110901   1.542   2.371   2.073
 3334SOL    HW210902   1.380   2.359   2.091
 3335SOL     OW10903   3.517   4.153   5.609
 3335SOL    HW110904   3.532   4.248   5.637
 3335SOL    HW210905   3.475   4.101   5.684
 3336SOL     OW10906   3.999   5.837   5.713
 3336SOL    HW110907   4.054   5.829   5.796
 3336SOL    HW210908   3.963   5.930   5.706
 3337SOL     OW10909   3.627   2.956   3.778
 3337SOL    HW110910   3.669   2.903   3.704
 3337SOL    HW210911   3.529   2.966   3.761
 3338SOL     OW10912   2.835   2.843   1.464
 3338SOL    HW110913   2.833   2.771   1.534
 3338SOL    HW210914   2.743   2.857   1.427
 3339SOL     OW10915   0.747   0.071   6.837
 3339SOL    HW110916   0.820   0.094   6.901
 3339SOL    HW210917   0.780   0.001   6.774
 3340SOL     OW10918   4.171   1.613   6.051
 3340SOL    HW110919   4.172   1.664   6.137
 3340SOL    HW210920   4.077   1.608   6.016
 3341SOL     OW10921   1.359   4.067   1.247
 3341SOL    HW110922   1.411   3.996   1.294
 3341SOL    HW210923   1.268   4.074   1.287
 3342SOL     OW10924   6.218   0.527   2.142
 3342SOL    HW110925   6.239   0.513   2.046
 3342SOL    HW210926   6.165   0.450   2.177
 3343SOL     OW10927   3.617   5.485   0.998
 3343SOL    HW110928   3.570   5.563   0.958
 3343SOL    HW210929   3.639   5.419   0.927
 3344SOL     OW10930   1.397   3.300   2.030
 3344SOL    HW110931   1.303   3.336   2.032
 3344SOL    HW210932   1.442   3.328   1.945
 3345SOL     OW10933   5.711   5.510   1.204
 3345SOL    HW110934   5.661   5.584   1.247
 3345SOL    HW210935   5.712   5.431   1.266
 3346SOL     OW10936   1.508   0.861   0.433
 3346SOL    HW110937   1.430   0.913   0.399
 3346SOL    HW210938   1.545   0.804   0.359
 3347SOL     OW10939   1.167   4.023   5.712
 3347SOL    HW110940   1.154   4.115   5.749
 3347SOL    HW210941   1.263   4.011   5.686
 3348SOL     OW10942   3.513   4.176   6.142
 3348SOL    HW110943   3.515   4.151   6.239
 3348SOL    HW210944   3.543   4.098   6.087
 3349SOL     OW10945   1.788   5.303   1.926
 3349SOL    HW110946   1.854   5.234   1.895
 3349SOL    HW210947   1.781   5.299   2.026
 3350SOL     OW10948   2.088   4.968   4.871
 3350SOL    HW110949   2.146   5.048   4.886
 3350SOL    HW210950   2.120   4.892   4.928
 3351SOL     OW10951   5.524   0.189   1.948
 3351SOL    HW110952   5.474   0.107   1.919
 3351SOL    HW210953   5.554   0.179   2.043
 3352SOL     OW10954   5.191   1.270   6.939
 3352SOL    HW110955   5.134   1.190   6.917
 3352SOL    HW210956   5.279   1.262   6.892
 3353SOL     OW10957   3.863   1.157   6.672
 3353SOL    HW110958   3.800   1.108   6.612
 3353SOL    HW210959   3.814   1.190   6.752
 3354SOL     OW10960   2.254   3.206   0.275
 3354SOL    HW110961   2.213   3.204   0.184
 3354SOL    HW210962   2.338   3.259   0.272
 3355SOL     OW10963   0.928   0.857   4.437
 3355SOL    HW110964   0.876   0.813   4.510
 3355SOL    HW210965   0.995   0.921   4.476
 3356SOL     OW10966   2.759   0.725   6.260
 3356SOL    HW110967   2.840   0.745   6.315
 3356SOL    HW210968   2.685   0.692   6.319
 3357SOL     OW10969   3.038   3.460   2.993
 3357SOL    HW110970   3.031   3.435   3.090
 3357SOL    HW210971   3.011   3.383   2.936
 3358SOL     OW10972   0.123   1.776   1.095
 3358SOL    HW110973   0.061   1.748   1.168
 3358SOL    HW210974   0.197   1.831   1.134
 3359SOL     OW10975   1.095   0.019   4.030
 3359SOL    HW110976   1.125   6.951   4.056
 3359SOL    HW210977   1.140   0.087   4.088
 3360SOL     OW10978   2.045   5.122   4.284
 3360SOL    HW110979   1.964   5.082   4.241
 3360SOL    HW210980   2.019   5.168   4.369
 3361SOL     OW10981   6.798   6.682   4.913
 3361SOL    HW110982   6.842   6.593   4.920
 3361SOL    HW210983   6.830   6.729   4.830
 3362SOL     OW10984   3.985   0.435   4.519
 3362SOL    HW110985   3.955   0.514   4.571
 3362SOL    HW210986   4.060   0.461   4.459
 3363SOL     OW10987   5.437   3.853   0.250
 3363SOL    HW110988   5.469   3.771   0.203
 3363SOL    HW210989   5.374   3.828   0.324
 3364SOL     OW10990   1.775   3.606   1.679
 3364SOL    HW110991   1.806   3.560   1.761
 3364SOL    HW210992   1.763   3.704   1.698
 3365SOL     OW10993   1.266   2.737   2.648
 3365SOL    HW110994   1.308   2.827   2.662
 3365SOL    HW210995   1.332   2.665   2.670
 3366SOL     OW10996   6.434   2.866   4.374
 3366SOL    HW110997   6.511   2.804   4.385
 3366SOL    HW210998   6.440   2.939   4.441
 3367SOL     OW10999   3.365   2.918   3.715
 3367SOL    HW111000   3.372   2.956   3.622
 3367SOL    HW211001   3.382   2.820   3.711
 3368SOL     OW11002   2.336   1.034   3.316
 3368SOL    HW111003   2.403   1.073   3.379
 3368SOL    HW211004   2.254   1.092   3.315
 3369SOL     OW11005   5.209   2.909   1.166
 3369SOL    HW111006   5.124   2.955   1.139
 3369SOL    HW211007   5.188   2.825   1.215
 3370SOL     OW11008   1.131   5.906   3.297
 3370SOL    HW111009   1.132   6.006   3.290
 3370SOL    HW211010   1.081   5.879   3.379
 3371SOL     OW11011   2.461   3.040   1.245
 3371SOL    HW111012   2.410   3.102   1.305
 3371SOL    HW211013   2.420   2.949   1.247
 3372SOL     OW11014   5.848   2.993   3.865
 3372SOL    HW111015   5.907   2.936   3.923
 3372SOL    HW211016   5.891   3.083   3.853
 3373SOL     OW11017   6.988   4.480   0.755
 3373SOL    HW111018   6.946   4.534   0.682
 3373SOL    HW211019   6.989   4.384   0.727
 3374SOL     OW11020   0.847   6.021   4.226
 3374SOL    HW111021   0.794   6.053   4.305
 3374SOL    HW211022   0.915   5.954   4.257
 3375SOL     OW11023   0.728   6.220   5.908
 3375SOL    HW111024   0.798   6.287   5.883
 3375SOL    HW211025   0.643   6.268   5.933
 3376SOL     OW11026   3.151   3.279   4.860
 3376SOL    HW111027   3.059   3.261   4.893
 3376SOL    HW211028   3.182   3.202   4.805
 3377SOL     OW11029   6.627   5.155   4.438
 3377SOL    HW111030   6.714   5.141   4.390
 3377SOL    HW211031   6.601   5.070   4.485
 3378SOL     OW11032   1.038   5.797   0.526
 3378SOL    HW111033   1.028   5.752   0.437
 3378SOL    HW211034   1.017   5.895   0.516
 3379SOL     OW11035   5.893   4.032   4.085
 3379SOL    HW111036   5.833   4.103   4.123
 3379SOL    HW211037   5.954   3.998   4.157
 3380SOL     OW11038   2.076   5.543   1.305
 3380SOL    HW111039   2.079   5.561   1.404
 3380SOL    HW211040   2.071   5.445   1.290
 3381SOL     OW11041   2.989   3.706   5.985
 3381SOL    HW111042   3.080   3.692   5.946
 3381SOL    HW211043   2.972   3.636   6.055
 3382SOL     OW11044   6.759   3.852   6.767
 3382SOL    HW111045   6.830   3.884   6.830
 3382SOL    HW211046   6.736   3.757   6.788
 3383SOL     OW11047   3.200   5.444   0.820
 3383SOL    HW111048   3.140   5.406   0.750
 3383SOL    HW211049   3.257   5.371   0.858
 3384SOL     OW11050   2.571   2.789   6.425
 3384SOL    HW111051   2.663   2.821   6.400
 3384SOL    HW211052   2.577   2.695   6.459
 3385SOL     OW11053   6.178   2.679   4.595
 3385SOL    HW111054   6.170   2.771   4.632
 3385SOL    HW211055   6.221   2.619   4.663
 3386SOL     OW11056   0.568   6.394   4.649
 3386SOL    HW111057   0.629   6.410   4.571
 3386SOL    HW211058   0.603   6.317   4.703
 3387SOL     OW11059   6.040   0.671   2.692
 3387SOL    HW111060   6.140   0.669   2.690
 3387SOL    HW211061   6.006   0.735   2.624
 3388SOL     OW11062   0.317   3.638   0.697
 3388SOL    HW111063   0.413   3.631   0.725
 3388SOL    HW211064   0.260   3.581   0.757
 3389SOL     OW11065   6.699   5.394   6.450
 3389SOL    HW111066   6.649   5.322   6.401
 3389SOL    HW211067   6.735   5.460   6.384
 3390SOL     OW11068   3.132   5.054   0.346
 3390SOL    HW111069   3.147   4.986   0.418
 3390SOL    HW211070   3.176   5.024   0.262
 3391SOL     OW11071   4.972   3.944   5.162
 3391SOL    HW111072   5.017   4.006   5.226
 3391SOL    HW211073   4.875   3.937   5.184
 3392SOL     OW11074   5.270   6.648   5.620
 3392SOL    HW111075   5.314   6.563   5.649
 3392SOL    HW211076   5.194   6.628   5.559
 3393SOL     OW11077   3.481   6.579   0.367
 3393SOL    HW111078   3.414   6.515   0.330
 3393SOL    HW211079   3.435   6.642   0.430
 3394SOL     OW11080   3.076   5.340   1.127
 3394SOL    HW111081   3.156   5.394   1.151
 3394SOL    HW211082   3.011   5.340   1.203
 3395SOL     OW11083   1.735   6.587   2.875
 3395SOL    HW111084   1.686   6.674   2.867
 3395SOL    HW211085   1.711   6.543   2.961
 3396SOL     OW11086   4.888   0.551   4.472
 3396SOL    HW111087   4.835   0.476   4.512
 3396SOL    HW211088   4.986   0.532   4.480
 3397SOL     OW11089   2.434   6.085   0.878
 3397SOL    HW111090   2.464   6.179   0.893
 3397SOL    HW211091   2.355   6.085   0.816
 3398SOL     OW11092   6.735   1.265   6.627
 3398SOL    HW111093   6.646   1.307   6.611
 3398SOL    HW211094   6.806   1.335   6.624
 3399SOL     OW11095   6.963   6.415   1.692
 3399SOL    HW111096   6.983   6.334   1.748
 3399SOL    HW211097   6.980   6.497   1.746
 3400SOL     OW11098   3.266   2.777   5.247
 3400SOL    HW111099   3.362   2.787   5.272
 3400SOL    HW211100   3.248   2.826   5.162
 3401SOL     OW11101   0.276   3.114   4.278
 3401SOL    HW111102   0.241   3.021   4.288
 3401SOL    HW211103   0.365   3.111   4.233
 3402SOL     OW11104   5.530   3.351   0.406
 3402SOL    HW111105   5.528   3.438   0.456
 3402SOL    HW211106   5.535   3.370   0.308
 3403SOL     OW11107   5.358   6.425   5.192
 3403SOL    HW111108   5.266   6.406   5.227
 3403SOL    HW211109   5.419   6.351   5.217
 3404SOL     OW11110   5.243   5.244   3.283
 3404SOL    HW111111   5.284   5.240   3.374
 3404SOL    HW211112   5.242   5.152   3.242
 3405SOL     OW11113   4.301   6.297   0.793
 3405SOL    HW111114   4.394   6.285   0.758
 3405SOL    HW211115   4.304   6.308   0.892
 3406SOL     OW11116   3.612   5.069   1.072
 3406SOL    HW111117   3.709   5.077   1.048
 3406SOL    HW211118   3.585   5.148   1.126
 3407SOL     OW11119   1.497   3.000   0.510
 3407SOL    HW111120   1.594   2.982   0.527
 3407SOL    HW211121   1.459   2.928   0.452
 3408SOL     OW11122   4.100   6.583   4.111
 3408SOL    HW111123   4.126   6.521   4.037
 3408SOL    HW211124   4.035   6.536   4.171
 3409SOL     OW11125   4.411   1.635   6.927
 3409SOL    HW111126   4.455   1.590   7.005
 3409SOL    HW211127   4.316   1.604   6.920
 3410SOL     OW11128   6.681   0.662   2.680
 3410SOL    HW111129   6.778   0.640   2.664
 3410SOL    HW211130   6.626   0.621   2.606
 3411SOL     OW11131   5.769   3.119   5.599
 3411SOL    HW111132   5.801   3.077   5.684
 3411SOL    HW211133   5.848   3.143   5.543
 3412SOL     OW11134   5.719   2.933   4.135
 3412SOL    HW111135   5.805   2.941   4.185
 3412SOL    HW211136   5.738   2.931   4.037
 3413SOL     OW11137   6.855   2.730   0.908
 3413SOL    HW111138   6.828   2.803   0.971
 3413SOL    HW211139   6.862   2.643   0.959
 3414SOL     OW11140   4.011   3.139   2.189
 3414SOL    HW111141   4.061   3.073   2.245
 3414SOL    HW211142   4.029   3.122   2.092
 3415SOL     OW11143   2.092   1.204   6.169
 3415SOL    HW111144   2.094   1.292   6.216
 3415SOL    HW211145   2.045   1.137   6.225
 3416SOL     OW11146   5.822   6.781   6.062
 3416SOL    HW111147   5.891   6.831   6.009
 3416SOL    HW211148   5.844   6.786   6.159
 3417SOL     OW11149   6.101   0.608   2.388
 3417SOL    HW111150   6.186   0.632   2.435
 3417SOL    HW211151   6.116   0.606   2.289
 3418SOL     OW11152   4.281   6.003   0.926
 3418SOL    HW111153   4.275   6.090   0.877
 3418SOL    HW211154   4.321   6.019   1.017
 3419SOL     OW11155   3.011   4.861   5.125
 3419SOL    HW111156   2.936   4.924   5.146
 3419SOL    HW211157   2.978   4.767   5.131
 3420SOL     OW11158   4.131   0.945   1.979
 3420SOL    HW111159   4.112   0.866   2.037
 3420SOL    HW211160   4.061   0.953   1.908
 3421SOL     OW11161   0.397   1.927   4.919
 3421SOL    HW111162   0.333   1.978   4.976
 3421SOL    HW211163   0.366   1.929   4.824
 3422SOL     OW11164   3.612   5.993   2.052
 3422SOL    HW111165   3.691   5.930   2.052
 3422SOL    HW211166   3.539   5.954   2.108
 3423SOL     OW11167   2.042   4.321   5.999
 3423SOL    HW111168   2.032   4.414   6.034
 3423SOL    HW211169   2.139   4.296   5.999
 3424SOL     OW11170   5.645   0.353   2.381
 3424SOL    HW111171   5.740   0.361   2.349
 3424SOL    HW211172   5.638   0.387   2.474
 3425SOL     OW11173   6.082   2.726   6.080
 3425SOL    HW111174   6.042   2.690   5.995
 3425SOL    HW211175   6.009   2.738   6.148
 3426SOL     OW11176   6.690   5.442   0.188
 3426SOL    HW111177   6.660   5.479   0.100
 3426SOL    HW211178   6.612   5.405   0.237
 3427SOL     OW11179   1.651   1.337   6.065
 3427SOL    HW111180   1.608   1.247   6.076
 3427SOL    HW211181   1.748   1.325   6.043
 3428SOL     OW11182   4.833   6.920   4.498
 3428SOL    HW111183   4.775   6.914   4.579
 3428SOL    HW211184   4.910   6.981   4.516
 3429SOL     OW11185   4.143   6.276   0.553
 3429SOL    HW111186   4.192   6.250   0.470
 3429SOL    HW211187   4.201   6.257   0.633
 3430SOL     OW11188   3.149   4.587   6.762
 3430SOL    HW111189   3.245   4.599   6.738
 3430SOL    HW211190   3.093   4.648   6.706
 3431SOL     OW11191   0.792   4.644   3.176
 3431SOL    HW111192   0.844   4.570   3.219
 3431SOL    HW211193   0.831   4.732   3.204
 3432SOL     OW11194   0.311   5.172   6.864
 3432SOL    HW111195   0.296   5.079   6.830
 3432SOL    HW211196   0.246   5.190   6.938
 3433SOL     OW11197   0.965   0.877   0.281
 3433SOL    HW111198   0.920   0.889   0.193
 3433SOL    HW211199   1.035   0.806   0.274
 3434SOL     OW11200   4.033   2.280   1.861
 3434SOL    HW111201   4.018   2.183   1.838
 3434SOL    HW211202   3.946   2.328   1.858
 3435SOL     OW11203   2.116   2.627   1.022
 3435SOL    HW111204   2.110   2.706   1.083
 3435SOL    HW211205   2.120   2.658   0.928
 3436SOL     OW11206   3.881   6.356   5.853
 3436SOL    HW111207   3.851   6.427   5.917
 3436SOL    HW211208   3.952   6.393   5.793
 3437SOL     OW11209   1.491   6.773   0.371
 3437SOL    HW111210   1.469   6.792   0.467
 3437SOL    HW211211   1.532   6.682   0.365
 3438SOL     OW11212   2.209   4.174   0.633
 3438SOL    HW111213   2.158   4.095   0.598
 3438SOL    HW211214   2.304   4.170   0.602
 3439SOL     OW11215   2.959   5.515   0.621
 3439SOL    HW111216   2.974   5.550   0.528
 3439SOL    HW211217   2.962   5.591   0.686
 3440SOL     OW11218   3.752   3.701   5.893
 3440SOL    HW111219   3.692   3.741   5.824
 3440SOL    HW211220   3.723   3.607   5.912
 3441SOL     OW11221   6.701   4.843   4.932
 3441SOL    HW111222   6.609   4.857   4.894
 3441SOL    HW211223   6.764   4.821   4.858
 3442SOL     OW11224   1.610   2.159   0.516
 3442SOL    HW111225   1.578   2.152   0.610
 3442SOL    HW211226   1.652   2.249   0.502
 3443SOL     OW11227   0.651   5.862   2.504
 3443SOL    HW111228   0.590   5.939   2.519
 3443SOL    HW211229   0.626   5.815   2.419
 3444SOL     OW11230   0.503   4.028   6.100
 3444SOL    HW111231   0.408   4.007   6.124
 3444SOL    HW211232   0.550   3.944   6.073
 3445SOL     OW11233   5.319   5.287   4.854
 3445SOL    HW111234   5.233   5.336   4.838
 3445SOL    HW211235   5.304   5.189   4.846
 3446SOL     OW11236   4.864   1.807   0.320
 3446SOL    HW111237   4.767   1.806   0.347
 3446SOL    HW211238   4.899   1.714   0.322
 3447SOL     OW11239   4.762   1.496   6.331
 3447SOL    HW111240   4.685   1.556   6.310
 3447SOL    HW211241   4.847   1.541   6.304
 3448SOL     OW11242   1.135   5.003   5.788
 3448SOL    HW111243   1.141   5.076   5.721
 3448SOL    HW211244   1.227   4.972   5.812
 3449SOL     OW11245   1.314   3.808   5.460
 3449SOL    HW111246   1.407   3.823   5.494
 3449SOL    HW211247   1.284   3.889   5.409
 3450SOL     OW11248   2.700   6.744   2.418
 3450SOL    HW111249   2.688   6.648   2.394
 3450SOL    HW211250   2.724   6.796   2.337
 3451SOL     OW11251   2.118   2.272   0.284
 3451SOL    HW111252   2.059   2.297   0.360
 3451SOL    HW211253   2.192   2.212   0.317
 3452SOL     OW11254   4.291   1.520   6.436
 3452SOL    HW111255   4.207   1.519   6.382
 3452SOL    HW211256   4.313   1.427   6.465
 3453SOL     OW11257   4.860   6.342   6.226
 3453SOL    HW111258   4.904   6.371   6.312
 3453SOL    HW211259   4.929   6.307   6.163
 3454SOL     OW11260   1.414   2.967   2.742
 3454SOL    HW111261   1.485   2.994   2.677
 3454SOL    HW211262   1.387   3.046   2.796
 3455SOL     OW11263   0.875   3.919   6.301
 3455SOL    HW111264   0.913   3.977   6.374
 3455SOL    HW211265   0.938   3.917   6.224
 3456SOL     OW11266   4.365   5.273   3.389
 3456SOL    HW111267   4.441   5.208   3.382
 3456SOL    HW211268   4.359   5.327   3.305
 3457SOL     OW11269   3.898   4.505   0.081
 3457SOL    HW111270   3.823   4.558   0.121
 3457SOL    HW211271   3.861   4.430   0.027
 3458SOL     OW11272   4.894   1.773   1.362
 3458SOL    HW111273   4.991   1.772   1.386
 3458SOL    HW211274   4.842   1.822   1.432
 3459SOL     OW11275   6.411   6.559   2.101
 3459SOL    HW111276   6.392   6.467   2.066
 3459SOL    HW211277   6.355   6.577   2.181
 3460SOL     OW11278   3.581   1.614   5.409
 3460SOL    HW111279   3.607   1.660   5.324
 3460SOL    HW211280   3.500   1.557   5.393
 3461SOL     OW11281   4.578   4.473   4.106
 3461SOL    HW111282   4.614   4.416   4.032
 3461SOL    HW211283   4.505   4.531   4.071
 3462SOL     OW11284   1.337   5.056   6.204
 3462SOL    HW111285   1.287   5.141   6.188
 3462SOL    HW211286   1.376   5.023   6.118
 3463SOL     OW11287   5.762   3.754   0.394
 3463SOL    HW111288   5.688   3.748   0.460
 3463SOL    HW211289   5.745   3.829   0.330
 3464SOL     OW11290   0.270   4.451   3.806
 3464SOL    HW111291   0.341   4.445   3.876
 3464SOL    HW211292   0.196   4.511   3.839
 3465SOL     OW11293   0.607   3.160   1.922
 3465SOL    HW111294   0.619   3.062   1.902
 3465SOL    HW211295   0.630   3.213   1.841
 3466SOL     OW11296   6.261   3.342   3.624
 3466SOL    HW111297   6.336   3.408   3.621
 3466SOL    HW211298   6.185   3.374   3.566
 3467SOL     OW11299   1.703   2.564   6.123
 3467SOL    HW111300   1.758   2.604   6.197
 3467SOL    HW211301   1.661   2.638   6.070
 3468SOL     OW11302   4.519   6.032   1.857
 3468SOL    HW111303   4.430   5.993   1.836
 3468SOL    HW211304   4.549   6.002   1.947
 3469SOL     OW11305   5.385   4.520   0.626
 3469SOL    HW111306   5.340   4.474   0.703
 3469SOL    HW211307   5.315   4.554   0.563
 3470SOL     OW11308   5.908   5.118   1.436
 3470SOL    HW111309   5.989   5.119   1.494
 3470SOL    HW211310   5.912   5.041   1.373
 3471SOL     OW11311   4.206   6.504   4.592
 3471SOL    HW111312   4.252   6.479   4.506
 3471SOL    HW211313   4.175   6.599   4.587
 3472SOL     OW11314   4.168   0.699   4.229
 3472SOL    HW111315   4.164   0.599   4.235
 3472SOL    HW211316   4.258   0.730   4.258
 3473SOL     OW11317   4.387   6.525   3.824
 3473SOL    HW111318   4.418   6.555   3.914
 3473SOL    HW211319   4.382   6.603   3.762
 3474SOL     OW11320   4.702   4.729   0.701
 3474SOL    HW111321   4.735   4.687   0.785
 3474SOL    HW211322   4.656   4.815   0.723
 3475SOL     OW11323   1.447   5.289   5.103
 3475SOL    HW111324   1.526   5.347   5.125
 3475SOL    HW211325   1.464   5.242   5.016
 3476SOL     OW11326   4.300   1.835   3.903
 3476SOL    HW111327   4.373   1.904   3.902
 3476SOL    HW211328   4.219   1.872   3.948
 3477SOL     OW11329   4.811   5.136   2.112
 3477SOL    HW111330   4.811   5.056   2.051
 3477SOL    HW211331   4.758   5.114   2.194
 3478SOL     OW11332   3.499   4.113   0.344
 3478SOL    HW111333   3.451   4.153   0.422
 3478SOL    HW211334   3.546   4.186   0.293
 3479SOL     OW11335   1.784   0.351   0.694
 3479SOL    HW111336   1.725   0.279   0.657
 3479SOL    HW211337   1.733   0.436   0.701
 3480SOL     OW11338   1.547   6.951   4.205
 3480SOL    HW111339   1.575   6.926   4.298
 3480SOL    HW211340   1.627   6.959   4.147
 3481SOL     OW11341   2.089   6.072   0.317
 3481SOL    HW111342   2.176   6.075   0.267
 3481SOL    HW211343   2.061   5.977   0.328
 3482SOL     OW11344   0.538   2.610   1.149
 3482SOL    HW111345   0.595   2.676   1.197
 3482SOL    HW211346   0.462   2.582   1.209
 3483SOL     OW11347   3.683   1.141   0.712
 3483SOL    HW111348   3.608   1.178   0.768
 3483SOL    HW211349   3.711   1.052   0.749
 3484SOL     OW11350   3.770   4.052   3.104
 3484SOL    HW111351   3.731   3.962   3.082
 3484SOL    HW211352   3.711   4.099   3.169
 3485SOL     OW11353   5.995   1.980   5.179
 3485SOL    HW111354   5.965   2.072   5.155
 3485SOL    HW211355   5.914   1.920   5.188
 3486SOL     OW11356   5.677   0.635   3.240
 3486SOL    HW111357   5.739   0.564   3.274
 3486SOL    HW211358   5.640   0.687   3.316
 3487SOL     OW11359   0.846   7.009   0.982
 3487SOL    HW111360   0.830   0.084   0.977
 3487SOL    HW211361   0.770   6.965   1.030
 3488SOL     OW11362   6.268   3.926   4.313
 3488SOL    HW111363   6.326   3.845   4.310
 3488SOL    HW211364   6.175   3.900   4.285
 3489SOL     OW11365   2.679   5.650   0.131
 3489SOL    HW111366   2.737   5.606   0.200
 3489SOL    HW211367   2.718   5.636   0.041
 3490SOL     OW11368   4.625   3.961   0.448
 3490SOL    HW111369   4.571   3.932   0.527
 3490SOL    HW211370   4.676   3.882   0.412
 3491SOL     OW11371   5.697   2.694   5.104
 3491SOL    HW111372   5.634   2.739   5.167
 3491SOL    HW211373   5.695   2.740   5.015
 3492SOL     OW11374   6.427   4.748   6.886
 3492SOL    HW111375   6.347   4.704   6.845
 3492SOL    HW211376   6.440   4.838   6.846
 3493SOL     OW11377   6.743   4.602   1.467
 3493SOL    HW111378   6.720   4.578   1.372
 3493SOL    HW211379   6.842   4.613   1.475
 3494SOL     OW11380   2.780   6.323   1.028
 3494SOL    HW111381   2.871   6.297   0.996
 3494SOL    HW211382   2.783   6.414   1.068
 3495SOL     OW11383   5.566   4.266   6.568
 3495SOL    HW111384   5.503   4.224   6.633
 3495SOL    HW211385   5.626   4.329   6.617
 3496SOL     OW11386   0.963   5.354   0.823
 3496SOL    HW111387   0.872   5.382   0.792
 3496SOL    HW211388   1.000   5.424   0.885
 3497SOL     OW11389   4.132   6.755   4.645
 3497SOL    HW111390   4.149   6.796   4.734
 3497SOL    HW211391   4.123   6.826   4.576
 3498SOL     OW11392   0.992   1.681   0.408
 3498SOL    HW111393   0.945   1.618   0.469
 3498SOL    HW211394   1.076   1.714   0.452
 3499SOL     OW11395   6.971   4.123   4.258
 3499SOL    HW111396   6.929   4.163   4.340
 3499SOL    HW211397   6.935   4.031   4.244
 3500SOL     OW11398   5.534   2.942   0.940
 3500SOL    HW111399   5.596   2.927   0.863
 3500SOL    HW211400   5.439   2.939   0.909
 3501SOL     OW11401   0.489   4.642   2.944
 3501SOL    HW111402   0.553   4.597   2.881
 3501SOL    HW211403   0.422   4.575   2.977
 3502SOL     OW11404   0.620   5.118   1.768
 3502SOL    HW111405   0.626   5.025   1.732
 3502SOL    HW211406   0.595   5.115   1.865
 3503SOL     OW11407   3.611   6.723   3.491
 3503SOL    HW111408   3.604   6.814   3.450
 3503SOL    HW211409   3.652   6.731   3.582
 3504SOL     OW11410   2.129   3.086   2.534
 3504SOL    HW111411   2.052   3.106   2.594
 3504SOL    HW211412   2.141   3.160   2.468
 3505SOL     OW11413   4.573   6.506   4.723
 3505SOL    HW111414   4.600   6.589   4.772
 3505SOL    HW211415   4.492   6.467   4.766
 3506SOL     OW11416   6.407   4.538   2.421
 3506SOL    HW111417   6.318   4.560   2.383
 3506SOL    HW211418   6.470   4.513   2.348
 3507SOL     OW11419   0.116   0.357   5.903
 3507SOL    HW111420   0.147   0.275   5.855
 3507SOL    HW211421   0.017   0.365   5.893
 3508SOL     OW11422   6.257   4.622   6.704
 3508SOL    HW111423   6.310   4.557   6.650
 3508SOL    HW211424   6.205   4.682   6.643
 3509SOL     OW11425   5.497   6.794   6.822
 3509SOL    HW111426   5.433   6.791   6.899
 3509SOL    HW211427   5.526   6.701   6.799
 3510SOL     OW11428   1.525   1.292   1.903
 3510SOL    HW111429   1.545   1.227   1.977
 3510SOL    HW211430   1.607   1.303   1.846
 3511SOL     OW11431   0.750   0.804   4.677
 3511SOL    HW111432   0.800   0.838   4.756
 3511SOL    HW211433   0.696   0.724   4.704
 3512SOL     OW11434   4.021   2.856   1.207
 3512SOL    HW111435   4.118   2.869   1.185
 3512SOL    HW211436   3.976   2.811   1.130
 3513SOL     OW11437   5.886   4.375   1.627
 3513SOL    HW111438   5.943   4.319   1.567
 3513SOL    HW211439   5.812   4.416   1.575
 3514SOL     OW11440   2.191   6.264   2.001
 3514SOL    HW111441   2.160   6.355   1.974
 3514SOL    HW211442   2.285   6.269   2.034
 3515SOL     OW11443   3.822   5.727   3.213
 3515SOL    HW111444   3.877   5.756   3.135
 3515SOL    HW211445   3.875   5.662   3.268
 3516SOL     OW11446   1.948   0.703   0.206
 3516SOL    HW111447   1.878   0.669   0.269
 3516SOL    HW211448   2.035   0.658   0.227
 3517SOL     OW11449   0.579   0.693   6.684
 3517SOL    HW111450   0.669   0.724   6.654
 3517SOL    HW211451   0.559   0.604   6.642
 3518SOL     OW11452   4.181   3.732   6.213
 3518SOL    HW111453   4.250   3.661   6.207
 3518SOL    HW211454   4.115   3.721   6.138
 3519SOL     OW11455   3.346   6.709   0.557
 3519SOL    HW111456   3.414   6.781   0.571
 3519SOL    HW211457   3.349   6.644   0.634
 3520SOL     OW11458   3.636   4.946   1.577
 3520SOL    HW111459   3.609   5.025   1.632
 3520SOL    HW211460   3.706   4.975   1.511
 3521SOL     OW11461   6.666   2.280   6.357
 3521SOL    HW111462   6.759   2.244   6.362
 3521SOL    HW211463   6.642   2.301   6.262
 3522SOL     OW11464   2.788   0.521   0.689
 3522SOL    HW111465   2.753   0.613   0.703
 3522SOL    HW211466   2.886   0.519   0.708
 3523SOL     OW11467   2.405   4.750   5.362
 3523SOL    HW111468   2.382   4.822   5.427
 3523SOL    HW211469   2.458   4.788   5.286
 3524SOL     OW11470   2.432   1.068   3.067
 3524SOL    HW111471   2.379   0.996   3.022
 3524SOL    HW211472   2.413   1.067   3.165
 3525SOL     OW11473   1.495   3.052   3.303
 3525SOL    HW111474   1.517   3.149   3.298
 3525SOL    HW211475   1.527   3.015   3.391
 3526SOL     OW11476   3.434   6.544   3.339
 3526SOL    HW111477   3.366   6.607   3.302
 3526SOL    HW211478   3.498   6.595   3.397
 3527SOL     OW11479   5.555   3.609   0.102
 3527SOL    HW111480   5.515   3.521   0.127
 3527SOL    HW211481   5.517   3.639   0.014
 3528SOL     OW11482   1.952   6.905   4.816
 3528SOL    HW111483   1.996   6.909   4.906
 3528SOL    HW211484   1.853   6.896   4.827
 3529SOL     OW11485   3.995   5.339   0.413
 3529SOL    HW111486   3.905   5.331   0.371
 3529SOL    HW211487   4.017   5.255   0.463
 3530SOL     OW11488   1.811   6.308   2.872
 3530SOL    HW111489   1.820   6.271   2.780
 3530SOL    HW211490   1.797   6.407   2.867
 3531SOL     OW11491   5.302   4.709   0.153
 3531SOL    HW111492   5.291   4.807   0.142
 3531SOL    HW211493   5.387   4.679   0.111
 3532SOL     OW11494   1.966   6.544   0.992
 3532SOL    HW111495   1.956   6.459   0.940
 3532SOL    HW211496   1.988   6.522   1.087
 3533SOL     OW11497   1.418   0.746   3.485
 3533SOL    HW111498   1.463   0.686   3.418
 3533SOL    HW211499   1.359   0.811   3.437
 3534SOL     OW11500   5.183   0.157   5.079
 3534SOL    HW111501   5.176   0.177   4.981
 3534SOL    HW211502   5.149   0.234   5.132
 3535SOL     OW11503   4.880   6.529   0.389
 3535SOL    HW111504   4.925   6.446   0.357
 3535SOL    HW211505   4.936   6.573   0.459
 3536SOL     OW11506   1.349   3.318   2.746
 3536SOL    HW111507   1.443   3.285   2.752
 3536SOL    HW211508   1.349   3.418   2.750
 3537SOL     OW11509   2.876   5.069   1.443
 3537SOL    HW111510   2.867   5.147   1.382
 3537SOL    HW211511   2.951   5.085   1.507
 3538SOL     OW11512   3.869   0.727   3.807
 3538SOL    HW111513   3.773   0.719   3.784
 3538SOL    HW211514   3.924   0.677   3.740
 3539SOL     OW11515   5.028   5.702   5.360
 3539SOL    HW111516   4.985   5.708   5.270
 3539SOL    HW211517   5.122   5.670   5.351
 3540SOL     OW11518   3.817   4.845   6.309
 3540SOL    HW111519   3.760   4.910   6.259
 3540SOL    HW211520   3.764   4.803   6.383
 3541SOL     OW11521   0.810   2.660   2.359
 3541SOL    HW111522   0.750   2.728   2.316
 3541SOL    HW211523   0.768   2.629   2.444
 3542SOL     OW11524   5.911   1.682   0.089
 3542SOL    HW111525   5.859   1.703   0.006
 3542SOL    HW211526   5.907   1.584   0.107
 3543SOL     OW11527   0.466   2.536   3.567
 3543SOL    HW111528   0.368   2.518   3.566
 3543SOL    HW211529   0.492   2.571   3.658
 3544SOL     OW11530   2.659   4.174   6.669
 3544SOL    HW111531   2.725   4.145   6.737
 3544SOL    HW211532   2.700   4.170   6.578
 3545SOL     OW11533   3.698   6.645   0.752
 3545SOL    HW111534   3.784   6.694   0.739
 3545SOL    HW211535   3.627   6.709   0.778
 3546SOL     OW11536   6.418   4.826   1.276
 3546SOL    HW111537   6.470   4.744   1.252
 3546SOL    HW211538   6.478   4.892   1.321
 3547SOL     OW11539   0.789   3.878   4.072
 3547SOL    HW111540   0.770   3.948   4.141
 3547SOL    HW211541   0.707   3.860   4.018
 3548SOL     OW11542   6.516   0.408   5.572
 3548SOL    HW111543   6.525   0.496   5.617
 3548SOL    HW211544   6.569   0.339   5.622
 3549SOL     OW11545   2.048   6.419   6.710
 3549SOL    HW111546   2.019   6.354   6.640
 3549SOL    HW211547   2.072   6.506   6.666
 3550SOL     OW11548   5.786   2.036   6.146
 3550SOL    HW111549   5.840   2.036   6.230
 3550SOL    HW211550   5.738   1.949   6.137
 3551SOL     OW11551   5.390   1.786   5.048
 3551SOL    HW111552   5.385   1.762   5.145
 3551SOL    HW211553   5.298   1.807   5.014
 3552SOL     OW11554   6.863   0.009   3.221
 3552SOL    HW111555   6.769   0.019   3.188
 3552SOL    HW211556   6.890   6.936   3.216
 3553SOL     OW11557   6.546   6.142   6.242
 3553SOL    HW111558   6.622   6.138   6.307
 3553SOL    HW211559   6.526   6.050   6.207
 3554SOL     OW11560   4.793   4.561   6.845
 3554SOL    HW111561   4.856   4.497   6.802
 3554SOL    HW211562   4.811   4.653   6.811
 3555SOL     OW11563   2.755   1.249   5.130
 3555SOL    HW111564   2.680   1.315   5.130
 3555SOL    HW211565   2.752   1.196   5.045
 3556SOL     OW11566   6.412   0.910   6.961
 3556SOL    HW111567   6.386   1.006   6.950
 3556SOL    HW211568   6.470   0.883   6.884
 3557SOL     OW11569   4.778   6.742   1.930
 3557SOL    HW111570   4.783   6.682   2.009
 3557SOL    HW211571   4.705   6.810   1.945
 3558SOL     OW11572   3.856   5.544   2.558
 3558SOL    HW111573   3.852   5.476   2.485
 3558SOL    HW211574   3.819   5.630   2.525
 3559SOL     OW11575   3.852   6.629   6.772
 3559SOL    HW111576   3.890   6.719   6.751
 3559SOL    HW211577   3.838   6.621   6.871
 3560SOL     OW11578   2.153   5.933   4.270
 3560SOL    HW111579   2.221   5.885   4.325
 3560SOL    HW211580   2.193   6.018   4.235
 3561SOL     OW11581   3.934   3.185   5.531
 3561SOL    HW111582   4.033   3.174   5.539
 3561SOL    HW211583   3.888   3.120   5.592
 3562SOL     OW11584   2.449   1.254   0.476
 3562SOL    HW111585   2.388   1.317   0.525
 3562SOL    HW211586   2.416   1.160   0.488
 3563SOL     OW11587   0.439   2.473   7.013
 3563SOL    HW111588   0.401   2.553   6.966
 3563SOL    HW211589   0.370   2.436   0.052
 3564SOL     OW11590   6.716   3.679   3.059
 3564SOL    HW111591   6.793   3.722   3.013
 3564SOL    HW211592   6.645   3.747   3.076
 3565SOL     OW11593   4.779   6.516   5.576
 3565SOL    HW111594   4.692   6.566   5.584
 3565SOL    HW211595   4.787   6.453   5.653
 3566SOL     OW11596   0.957   0.624   5.685
 3566SOL    HW111597   1.006   0.643   5.770
 3566SOL    HW211598   1.006   0.666   5.609
 3567SOL     OW11599   6.775   4.519   6.868
 3567SOL    HW111600   6.808   4.613   6.863
 3567SOL    HW211601   6.788   4.483   6.961
 3568SOL     OW11602   3.982   3.680   5.476
 3568SOL    HW111603   3.962   3.766   5.522
 3568SOL    HW211604   3.934   3.605   5.522
 3569SOL     OW11605   1.801   0.216   3.632
 3569SOL    HW111606   1.774   0.191   3.539
 3569SOL    HW211607   1.769   0.309   3.652
 3570SOL     OW11608   5.898   1.972   4.503
 3570SOL    HW111609   5.910   1.949   4.406
 3570SOL    HW211610   5.864   1.893   4.552
 3571SOL     OW11611   6.215   5.590   4.685
 3571SOL    HW111612   6.277   5.554   4.616
 3571SOL    HW211613   6.185   5.516   4.745
 3572SOL     OW11614   6.119   6.791   5.538
 3572SOL    HW111615   6.038   6.742   5.506
 3572SOL    HW211616   6.179   6.809   5.460
 3573SOL     OW11617   0.333   2.198   1.186
 3573SOL    HW111618   0.355   2.241   1.098
 3573SOL    HW211619   0.402   2.223   1.254
 3574SOL     OW11620   6.023   3.762   0.089
 3574SOL    HW111621   6.079   3.825   0.036
 3574SOL    HW211622   5.963   3.813   0.151
 3575SOL     OW11623   6.263   6.898   1.909
 3575SOL    HW111624   6.355   6.881   1.944
 3575SOL    HW211625   6.200   6.913   1.985
 3576SOL     OW11626   6.638   0.423   6.945
 3576SOL    HW111627   6.643   0.471   0.009
 3576SOL    HW211628   6.726   0.429   6.898
 3577SOL     OW11629   2.296   4.009   6.969
 3577SOL    HW111630   2.306   3.951   0.026
 3577SOL    HW211631   2.368   3.988   6.903
 3578SOL     OW11632   3.534   4.343   1.713
 3578SOL    HW111633   3.549   4.429   1.762
 3578SOL    HW211634   3.604   4.277   1.740
 3579SOL     OW11635   1.815   4.118   5.241
 3579SOL    HW111636   1.841   4.123   5.337
 3579SOL    HW211637   1.724   4.077   5.233
 3580SOL     OW11638   6.396   2.941   0.996
 3580SOL    HW111639   6.334   2.894   1.060
 3580SOL    HW211640   6.490   2.933   1.029
 3581SOL     OW11641   6.639   0.550   3.458
 3581SOL    HW111642   6.715   0.485   3.456
 3581SOL    HW211643   6.646   0.607   3.540
 3582SOL     OW11644   0.328   6.988   5.527
 3582SOL    HW111645   0.359   6.893   5.518
 3582SOL    HW211646   0.254   7.005   5.461
 3583SOL     OW11647   0.819   5.416   1.872
 3583SOL    HW111648   0.758   5.432   1.794
 3583SOL    HW211649   0.765   5.403   1.955
 3584SOL     OW11650   5.881   0.313   5.335
 3584SOL    HW111651   5.893   0.403   5.378
 3584SOL    HW211652   5.961   0.292   5.278
 3585SOL     OW11653   1.973   5.002   3.494
 3585SOL    HW111654   1.994   5.005   3.396
 3585SOL    HW211655   1.971   5.096   3.530
 3586SOL     OW11656   0.802   0.798   6.028
 3586SOL    HW111657   0.764   0.734   5.961
 3586SOL    HW211658   0.728   0.851   6.069
 3587SOL     OW11659   3.327   6.629   6.276
 3587SOL    HW111660   3.275   6.703   6.318
 3587SOL    HW211661   3.277   6.543   6.289
 3588SOL     OW11662   2.454   2.335   5.431
 3588SOL    HW111663   2.466   2.415   5.372
 3588SOL    HW211664   2.364   2.338   5.474
 3589SOL     OW11665   3.708   6.904   4.659
 3589SOL    HW111666   3.745   6.813   4.641
 3589SOL    HW211667   3.694   6.952   4.572
 3590SOL     OW11668   1.219   5.397   6.768
 3590SOL    HW111669   1.299   5.408   6.826
 3590SOL    HW211670   1.171   5.313   6.793
 3591SOL     OW11671   5.192   2.112   5.035
 3591SOL    HW111672   5.134   2.153   5.105
 3591SOL    HW211673   5.280   2.087   5.075
 3592SOL     OW11674   5.823   2.022   1.751
 3592SOL    HW111675   5.812   1.952   1.821
 3592SOL    HW211676   5.734   2.059   1.725
 3593SOL     OW11677   1.031   5.827   4.539
 3593SOL    HW111678   0.992   5.792   4.453
 3593SOL    HW211679   1.104   5.766   4.569
 3594SOL     OW11680   3.935   1.898   4.347
 3594SOL    HW111681   4.024   1.876   4.306
 3594SOL    HW211682   3.942   1.897   4.447
 3595SOL     OW11683   1.970   6.156   5.331
 3595SOL    HW111684   1.878   6.159   5.369
 3595SOL    HW211685   2.027   6.228   5.371
 3596SOL     OW11686   0.516   3.538   3.473
 3596SOL    HW111687   0.487   3.524   3.378
 3596SOL    HW211688   0.587   3.471   3.496
 3597SOL     OW11689   3.637   6.869   3.977
 3597SOL    HW111690   3.721   6.815   3.965
 3597SOL    HW211691   3.656   6.947   4.037
 3598SOL     OW11692   1.563   0.236   0.129
 3598SOL    HW111693   1.629   0.267   0.199
 3598SOL    HW211694   1.612   0.215   0.044
 3599SOL     OW11695   6.992   1.860   4.320
 3599SOL    HW111696   6.914   1.875   4.381
 3599SOL    HW211697   0.046   1.915   4.352
 3600SOL     OW11698   6.446   0.181   1.099
 3600SOL    HW111699   6.416   0.112   1.034
 3600SOL    HW211700   6.372   0.204   1.161
 3601SOL     OW11701   5.776   3.764   5.955
 3601SOL    HW111702   5.813   3.672   5.954
 3601SOL    HW211703   5.729   3.781   6.042
 3602SOL     OW11704   2.847   1.845   1.432
 3602SOL    HW111705   2.805   1.935   1.431
 3602SOL    HW211706   2.858   1.812   1.338
 3603SOL     OW11707   4.315   5.243   4.922
 3603SOL    HW111708   4.281   5.260   4.829
 3603SOL    HW211709   4.313   5.328   4.974
 3604SOL     OW11710   6.440   4.419   3.447
 3604SOL    HW111711   6.513   4.368   3.402
 3604SOL    HW211712   6.368   4.440   3.381
 3605SOL     OW11713   6.205   2.699   6.474
 3605SOL    HW111714   6.183   2.796   6.460
 3605SOL    HW211715   6.252   2.689   6.562
 3606SOL     OW11716   1.663   4.202   3.277
 3606SOL    HW111717   1.564   4.216   3.276
 3606SOL    HW211718   1.692   4.169   3.187
 3607SOL     OW11719   4.214   0.084   6.987
 3607SOL    HW111720   4.135   0.042   0.008
 3607SOL    HW211721   4.206   0.073   6.888
 3608SOL     OW11722   0.682   3.024   3.222
 3608SOL    HW111723   0.743   2.973   3.283
 3608SOL    HW211724   0.610   3.067   3.277
 3609SOL     OW11725   0.114   0.154   4.331
 3609SOL    HW111726   0.100   0.135   4.428
 3609SOL    HW211727   0.028   0.141   4.282
 3610SOL     OW11728   1.828   5.405   5.936
 3610SOL    HW111729   1.849   5.368   6.027
 3610SOL    HW211730   1.904   5.385   5.874
 3611SOL     OW11731   4.321   5.603   5.425
 3611SOL    HW111732   4.381   5.660   5.480
 3611SOL    HW211733   4.229   5.605   5.462
 3612SOL     OW11734   2.081   6.531   1.331
 3612SOL    HW111735   2.170   6.570   1.353
 3612SOL    HW211736   2.079   6.435   1.357
 3613SOL     OW11737   4.935   5.081   6.203
 3613SOL    HW111738   5.019   5.079   6.148
 3613SOL    HW211739   4.857   5.104   6.144
 3614SOL     OW11740   3.995   3.163   4.671
 3614SOL    HW111741   3.896   3.170   4.682
 3614SOL    HW211742   4.032   3.102   4.741
 3615SOL     OW11743   5.748   6.403   6.192
 3615SOL    HW111744   5.729   6.313   6.151
 3615SOL    HW211745   5.847   6.419   6.193
 3616SOL     OW11746   6.010   0.733   4.447
 3616SOL    HW111747   6.041   0.680   4.526
 3616SOL    HW211748   5.961   0.673   4.383
 3617SOL     OW11749   6.922   0.550   0.107
 3617SOL    HW111750   6.984   0.550   0.186
 3617SOL    HW211751   6.830   0.575   0.137
 3618SOL     OW11752   2.891   6.294   6.316
 3618SOL    HW111753   2.923   6.271   6.224
 3618SOL    HW211754   2.792   6.311   6.314
 3619SOL     OW11755   5.328   4.153   3.473
 3619SOL    HW111756   5.262   4.122   3.405
 3619SOL    HW211757   5.406   4.091   3.474
 3620SOL     OW11758   5.938   1.238   5.008
 3620SOL    HW111759   5.844   1.218   5.036
 3620SOL    HW211760   6.000   1.171   5.050
 3621SOL     OW11761   1.647   2.986   5.643
 3621SOL    HW111762   1.679   2.891   5.641
 3621SOL    HW211763   1.726   3.048   5.647
 3622SOL     OW11764   0.477   3.631   1.017
 3622SOL    HW111765   0.500   3.610   0.922
 3622SOL    HW211766   0.533   3.575   1.078
 3623SOL     OW11767   6.831   5.144   4.158
 3623SOL    HW111768   6.862   5.049   4.162
 3623SOL    HW211769   6.896   5.202   4.206
 3624SOL     OW11770   2.195   0.905   1.920
 3624SOL    HW111771   2.115   0.964   1.935
 3624SOL    HW211772   2.244   0.894   2.006
 3625SOL     OW11773   0.775   3.476   4.434
 3625SOL    HW111774   0.754   3.453   4.529
 3625SOL    HW211775   0.708   3.435   4.373
 3626SOL     OW11776   2.543   4.348   5.373
 3626SOL    HW111777   2.542   4.316   5.468
 3626SOL    HW211778   2.601   4.428   5.365
 3627SOL     OW11779   3.374   3.381   3.843
 3627SOL    HW111780   3.322   3.308   3.799
 3627SOL    HW211781   3.358   3.467   3.796
 3628SOL     OW11782   2.921   5.796   3.662
 3628SOL    HW111783   2.979   5.877   3.656
 3628SOL    HW211784   2.950   5.729   3.593
 3629SOL     OW11785   5.197   3.241   5.457
 3629SOL    HW111786   5.238   3.328   5.431
 3629SOL    HW211787   5.242   3.206   5.539
 3630SOL     OW11788   5.607   1.221   4.945
 3630SOL    HW111789   5.620   1.253   5.039
 3630SOL    HW211790   5.548   1.284   4.896
 3631SOL     OW11791   2.107   1.292   3.544
 3631SOL    HW111792   2.087   1.368   3.606
 3631SOL    HW211793   2.181   1.236   3.583
 3632SOL     OW11794   4.209   6.805   6.313
 3632SOL    HW111795   4.120   6.776   6.350
 3632SOL    HW211796   4.281   6.744   6.346
 3633SOL     OW11797   1.280   3.260   5.455
 3633SOL    HW111798   1.355   3.325   5.443
 3633SOL    HW211799   1.276   3.200   5.375
 3634SOL     OW11800   3.282   4.977   6.230
 3634SOL    HW111801   3.231   5.063   6.224
 3634SOL    HW211802   3.311   4.949   6.138
 3635SOL     OW11803   1.817   0.981   5.149
 3635SOL    HW111804   1.879   1.036   5.204
 3635SOL    HW211805   1.866   0.903   5.110
 3636SOL     OW11806   1.314   6.151   6.880
 3636SOL    HW111807   1.224   6.123   6.846
 3636SOL    HW211808   1.357   6.073   6.927
 3637SOL     OW11809   4.848   1.233   1.363
 3637SOL    HW111810   4.820   1.182   1.445
 3637SOL    HW211811   4.869   1.327   1.389
 3638SOL     OW11812   6.288   4.893   3.454
 3638SOL    HW111813   6.311   4.835   3.532
 3638SOL    HW211814   6.310   4.989   3.476
 3639SOL     OW11815   2.702   5.911   0.153
 3639SOL    HW111816   2.673   5.816   0.140
 3639SOL    HW211817   2.657   5.969   0.086
 3640SOL     OW11818   2.123   6.885   1.457
 3640SOL    HW111819   2.046   6.830   1.490
 3640SOL    HW211820   2.187   6.826   1.407
 3641SOL     OW11821   2.545   0.689   4.582
 3641SOL    HW111822   2.577   0.605   4.625
 3641SOL    HW211823   2.459   0.718   4.625
 3642SOL     OW11824   6.033   6.495   2.084
 3642SOL    HW111825   6.102   6.467   2.017
 3642SOL    HW211826   6.078   6.545   2.158
 3643SOL     OW11827   3.804   5.439   5.599
 3643SOL    HW111828   3.738   5.460   5.672
 3643SOL    HW211829   3.760   5.450   5.510
 3644SOL     OW11830   0.196   0.304   0.824
 3644SOL    HW111831   0.158   0.212   0.816
 3644SOL    HW211832   0.225   0.320   0.919
 3645SOL     OW11833   3.777   6.333   2.761
 3645SOL    HW111834   3.804   6.392   2.837
 3645SOL    HW211835   3.852   6.327   2.695
 3646SOL     OW11836   6.798   5.484   4.392
 3646SOL    HW111837   6.842   5.528   4.470
 3646SOL    HW211838   6.863   5.421   4.349
 3647SOL     OW11839   2.729   2.482   1.378
 3647SOL    HW111840   2.806   2.424   1.406
 3647SOL    HW211841   2.756   2.535   1.297
 3648SOL     OW11842   3.074   6.518   3.191
 3648SOL    HW111843   3.028   6.514   3.279
 3648SOL    HW211844   3.145   6.588   3.193
 3649SOL     OW11845   3.259   3.218   2.031
 3649SOL    HW111846   3.299   3.257   2.114
 3649SOL    HW211847   3.316   3.241   1.953
 3650SOL     OW11848   5.359   6.909   1.584
 3650SOL    HW111849   5.355   6.816   1.620
 3650SOL    HW211850   5.304   6.914   1.500
 3651SOL     OW11851   0.877   6.231   2.556
 3651SOL    HW111852   0.944   6.293   2.517
 3651SOL    HW211853   0.919   6.141   2.571
 3652SOL     OW11854   5.028   5.135   2.959
 3652SOL    HW111855   5.012   5.064   3.028
 3652SOL    HW211856   5.042   5.092   2.870
 3653SOL     OW11857   6.379   3.250   4.932
 3653SOL    HW111858   6.433   3.177   4.890
 3653SOL    HW211859   6.388   3.334   4.878
 3654SOL     OW11860   1.193   6.201   1.828
 3654SOL    HW111861   1.177   6.144   1.747
 3654SOL    HW211862   1.271   6.260   1.812
 3655SOL     OW11863   6.941   1.176   3.868
 3655SOL    HW111864   6.959   1.274   3.854
 3655SOL    HW211865   6.973   1.125   3.789
 3656SOL     OW11866   2.602   1.670   2.888
 3656SOL    HW111867   2.533   1.611   2.930
 3656SOL    HW211868   2.596   1.662   2.788
 3657SOL     OW11869   4.585   4.898   2.348
 3657SOL    HW111870   4.606   4.874   2.254
 3657SOL    HW211871   4.624   4.988   2.370
 3658SOL     OW11872   2.067   5.336   5.757
 3658SOL    HW111873   2.097   5.316   5.851
 3658SOL    HW211874   2.136   5.394   5.712
 3659SOL     OW11875   1.188   3.701   0.047
 3659SOL    HW111876   1.221   3.721   6.979
 3659SOL    HW211877   1.157   3.606   0.051
 3660SOL     OW11878   3.988   4.844   0.726
 3660SOL    HW111879   4.012   4.845   0.629
 3660SOL    HW211880   4.070   4.862   0.780
 3661SOL     OW11881   5.161   1.618   1.178
 3661SOL    HW111882   5.072   1.590   1.143
 3661SOL    HW211883   5.183   1.710   1.144
 3662SOL     OW11884   2.451   6.157   5.012
 3662SOL    HW111885   2.543   6.146   4.973
 3662SOL    HW211886   2.402   6.070   5.005
 3663SOL     OW11887   1.595   3.544   5.617
 3663SOL    HW111888   1.680   3.495   5.594
 3663SOL    HW211889   1.564   3.517   5.708
 3664SOL     OW11890   3.878   6.959   1.868
 3664SOL    HW111891   3.879   6.882   1.803
 3664SOL    HW211892   3.929   6.934   1.950
 3665SOL     OW11893   1.840   0.606   5.324
 3665SOL    HW111894   1.879   0.575   5.411
 3665SOL    HW211895   1.808   0.526   5.272
 3666SOL     OW11896   0.936   4.746   4.376
 3666SOL    HW111897   0.992   4.781   4.451
 3666SOL    HW211898   0.985   4.760   4.289
 3667SOL     OW11899   0.293   1.466   6.544
 3667SOL    HW111900   0.339   1.406   6.480
 3667SOL    HW211901   0.223   1.414   6.594
 3668SOL     OW11902   1.619   5.470   1.820
 3668SOL    HW111903   1.704   5.443   1.865
 3668SOL    HW211904   1.545   5.409   1.850
 3669SOL     OW11905   5.628   1.698   3.975
 3669SOL    HW111906   5.601   1.606   3.946
 3669SOL    HW211907   5.722   1.695   4.010
 3670SOL     OW11908   2.348   5.329   6.415
 3670SOL    HW111909   2.436   5.315   6.371
 3670SOL    HW211910   2.347   5.283   6.504
 3671SOL     OW11911   1.612   0.548   3.384
 3671SOL    HW111912   1.655   0.535   3.474
 3671SOL    HW211913   1.683   0.568   3.317
 3672SOL     OW11914   6.644   0.110   0.565
 3672SOL    HW111915   6.569   0.176   0.572
 3672SOL    HW211916   6.674   0.084   0.656
 3673SOL     OW11917   4.204   0.589   6.780
 3673SOL    HW111918   4.273   0.520   6.801
 3673SOL    HW211919   4.240   0.654   6.713
 3674SOL     OW11920   1.293   6.303   0.934
 3674SOL    HW111921   1.210   6.360   0.932
 3674SOL    HW211922   1.372   6.359   0.911
 3675SOL     OW11923   1.885   2.085   4.528
 3675SOL    HW111924   1.864   2.182   4.520
 3675SOL    HW211925   1.984   2.072   4.518
 3676SOL     OW11926   1.834   5.106   2.799
 3676SOL    HW111927   1.802   5.035   2.735
 3676SOL    HW211928   1.782   5.190   2.783
 3677SOL     OW11929   6.528   6.646   3.870
 3677SOL    HW111930   6.620   6.608   3.868
 3677SOL    HW211931   6.531   6.744   3.847
 3678SOL     OW11932   1.512   1.769   3.352
 3678SOL    HW111933   1.535   1.676   3.383
 3678SOL    HW211934   1.586   1.804   3.294
 3679SOL     OW11935   6.982   0.820   1.614
 3679SOL    HW111936   6.908   0.831   1.548
 3679SOL    HW211937   0.000   0.730   1.602
 3680SOL     OW11938   5.880   4.554   4.741
 3680SOL    HW111939   5.919   4.482   4.799
 3680SOL    HW211940   5.918   4.642   4.767
 3681SOL     OW11941   5.718   6.373   4.747
 3681SOL    HW111942   5.812   6.362   4.782
 3681SOL    HW211943   5.706   6.466   4.713
 3682SOL     OW11944   0.622   2.223   6.412
 3682SOL    HW111945   0.629   2.123   6.420
 3682SOL    HW211946   0.639   2.264   6.502
 3683SOL     OW11947   5.507   6.019   3.658
 3683SOL    HW111948   5.460   5.988   3.740
 3683SOL    HW211949   5.507   5.947   3.589
 3684SOL     OW11950   1.771   3.175   0.730
 3684SOL    HW111951   1.733   3.128   0.810
 3684SOL    HW211952   1.871   3.175   0.735
 3685SOL     OW11953   6.414   6.888   6.383
 3685SOL    HW111954   6.427   6.825   6.307
 3685SOL    HW211955   6.503   6.913   6.421
 3686SOL     OW11956   6.404   4.409   1.686
 3686SOL    HW111957   6.374   4.438   1.595
 3686SOL    HW211958   6.465   4.477   1.725
 3687SOL     OW11959   3.377   1.373   0.095
 3687SOL    HW111960   3.467   1.390   0.135
 3687SOL    HW211961   3.307   1.419   0.150
 3688SOL     OW11962   6.961   3.480   0.218
 3688SOL    HW111963   6.988   3.565   0.262
 3688SOL    HW211964   6.932   3.414   0.287
 3689SOL     OW11965   3.153   0.012   3.611
 3689SOL    HW111966   3.079   0.073   3.639
 3689SOL    HW211967   3.170   6.969   3.684
 3690SOL     OW11968   4.172   5.860   5.379
 3690SOL    HW111969   4.090   5.916   5.397
 3690SOL    HW211970   4.160   5.770   5.421
 3691SOL     OW11971   3.216   2.745   6.394
 3691SOL    HW111972   3.183   2.809   6.325
 3691SOL    HW211973   3.142   2.682   6.419
 3692SOL     OW11974   0.902   0.164   6.454
 3692SOL    HW111975   0.848   0.227   6.509
 3692SOL    HW211976   0.882   0.070   6.481
 3693SOL     OW11977   2.256   1.670   3.423
 3693SOL    HW111978   2.185   1.628   3.479
 3693SOL    HW211979   2.246   1.641   3.328
 3694SOL     OW11980   2.247   5.662   2.507
 3694SOL    HW111981   2.153   5.673   2.475
 3694SOL    HW211982   2.254   5.581   2.565
 3695SOL     OW11983   1.690   2.593   1.207
 3695SOL    HW111984   1.704   2.616   1.304
 3695SOL    HW211985   1.753   2.520   1.181
 3696SOL     OW11986   3.032   5.839   5.850
 3696SOL    HW111987   3.126   5.807   5.836
 3696SOL    HW211988   2.974   5.761   5.874
 3697SOL     OW11989   5.548   0.201   4.357
 3697SOL    HW111990   5.536   0.117   4.304
 3697SOL    HW211991   5.546   0.179   4.455
 3698SOL     OW11992   2.995   0.157   6.146
 3698SOL    HW111993   3.079   0.150   6.093
 3698SOL    HW211994   2.916   0.151   6.085
 3699SOL     OW11995   1.211   4.573   2.390
 3699SOL    HW111996   1.176   4.539   2.302
 3699SOL    HW211997   1.147   4.641   2.427
 3700SOL     OW11998   0.220   0.452   3.164
 3700SOL    HW111999   0.256   0.536   3.205
 3700SOL    HW212000   0.221   0.378   3.232
 3701SOL     OW12001   5.412   0.465   3.406
 3701SOL    HW112002   5.431   0.548   3.459
 3701SOL    HW212003   5.379   0.491   3.315
 3702SOL     OW12004   4.576   1.021   6.208
 3702SOL    HW112005   4.618   1.095   6.261
 3702SOL    HW212006   4.640   0.992   6.136
 3703SOL     OW12007   4.160   4.314   0.293
 3703SOL    HW112008   4.201   4.254   0.361
 3703SOL    HW212009   4.089   4.265   0.243
 3704SOL     OW12010   2.499   0.076   2.051
 3704SOL    HW112011   2.448   0.146   2.002
 3704SOL    HW212012   2.593   0.074   2.017
 3705SOL     OW12013   5.629   1.398   4.586
 3705SOL    HW112014   5.718   1.440   4.598
 3705SOL    HW212015   5.593   1.418   4.495
 3706SOL     OW12016   2.515   2.546   3.431
 3706SOL    HW112017   2.506   2.520   3.527
 3706SOL    HW212018   2.462   2.484   3.374
 3707SOL     OW12019   4.185   2.311   5.446
 3707SOL    HW112020   4.200   2.254   5.526
 3707SOL    HW212021   4.101   2.364   5.458
 3708SOL     OW12022   6.305   0.133   5.839
 3708SOL    HW112023   6.347   0.207   5.891
 3708SOL    HW212024   6.245   0.171   5.769
 3709SOL     OW12025   4.854   0.671   0.210
 3709SOL    HW112026   4.843   0.733   0.288
 3709SOL    HW212027   4.796   0.591   0.224
 3710SOL     OW12028   6.945   4.768   0.188
 3710SOL    HW112029   0.007   4.821   0.188
 3710SOL    HW212030   6.967   4.670   0.185
 3711SOL     OW12031   6.763   5.139   2.378
 3711SOL    HW112032   6.747   5.237   2.384
 3711SOL    HW212033   6.844   5.121   2.323
 3712SOL     OW12034   1.424   0.248   0.448
 3712SOL    HW112035   1.497   0.210   0.504
 3712SOL    HW212036   1.349   0.182   0.442
 3713SOL     OW12037   3.672   5.678   6.014
 3713SOL    HW112038   3.628   5.765   6.035
 3713SOL    HW212039   3.686   5.626   6.098
 3714SOL     OW12040   4.535   1.827   5.375
 3714SOL    HW112041   4.524   1.798   5.280
 3714SOL    HW212042   4.631   1.849   5.393
 3715SOL     OW12043   5.574   4.012   4.068
 3715SOL    HW112044   5.492   3.981   4.116
 3715SOL    HW212045   5.649   3.948   4.085
 3716SOL     OW12046   0.358   1.906   4.391
 3716SOL    HW112047   0.307   1.822   4.369
 3716SOL    HW212048   0.389   1.949   4.306
 3717SOL     OW12049   6.253   0.556   6.962
 3717SOL    HW112050   6.216   0.601   6.881
 3717SOL    HW212051   6.244   0.616   0.017
 3718SOL     OW12052   0.975   5.651   0.242
 3718SOL    HW112053   0.972   5.564   0.291
 3718SOL    HW212054   0.887   5.699   0.252
 3719SOL     OW12055   3.656   5.079   6.772
 3719SOL    HW112056   3.731   5.096   6.707
 3719SOL    HW212057   3.652   5.155   6.837
 3720SOL     OW12058   6.999   1.949   5.734
 3720SOL    HW112059   0.017   2.021   5.679
 3720SOL    HW212060   6.961   1.989   5.818
 3721SOL     OW12061   4.585   3.648   0.439
 3721SOL    HW112062   4.669   3.619   0.485
 3721SOL    HW212063   4.540   3.568   0.399
 3722SOL     OW12064   5.736   6.153   0.978
 3722SOL    HW112065   5.683   6.068   0.982
 3722SOL    HW212066   5.822   6.136   0.929
 3723SOL     OW12067   4.409   1.358   0.505
 3723SOL    HW112068   4.470   1.293   0.550
 3723SOL    HW212069   4.387   1.432   0.568
 3724SOL     OW12070   7.000   4.638   5.516
 3724SOL    HW112071   0.060   4.655   5.569
 3724SOL    HW212072   7.016   4.563   5.452
 3725SOL     OW12073   6.389   0.023   0.909
 3725SOL    HW112074   6.305   0.067   0.879
 3725SOL    HW212075   6.418   6.979   0.842
 3726SOL     OW12076   5.944   3.689   1.773
 3726SOL    HW112077   5.845   3.676   1.765
 3726SOL    HW212078   5.973   3.763   1.712
 3727SOL     OW12079   2.358   2.704   5.070
 3727SOL    HW112080   2.356   2.802   5.050
 3727SOL    HW212081   2.271   2.663   5.043
 3728SOL     OW12082   0.585   3.253   6.829
 3728SOL    HW112083   0.599   3.276   6.925
 3728SOL    HW212084   0.500   3.200   6.819
 3729SOL     OW12085   0.521   2.544   3.180
 3729SOL    HW112086   0.513   2.643   3.192
 3729SOL    HW212087   0.530   2.524   3.082
 3730SOL     OW12088   2.144   0.246   1.083
 3730SOL    HW112089   2.058   0.207   1.116
 3730SOL    HW212090   2.142   0.251   0.983
 3731SOL     OW12091   3.157   6.352   6.329
 3731SOL    HW112092   3.073   6.302   6.310
 3731SOL    HW212093   3.195   6.322   6.417
 3732SOL     OW12094   2.156   3.893   4.511
 3732SOL    HW112095   2.111   3.979   4.486
 3732SOL    HW212096   2.164   3.887   4.610
 3733SOL     OW12097   3.417   3.044   1.023
 3733SOL    HW112098   3.372   3.032   1.110
 3733SOL    HW212099   3.356   3.015   0.949
 3734SOL     OW12100   5.144   6.610   3.854
 3734SOL    HW112101   5.160   6.682   3.922
 3734SOL    HW212102   5.229   6.560   3.837
 3735SOL     OW12103   3.307   1.732   1.846
 3735SOL    HW112104   3.401   1.747   1.876
 3735SOL    HW212105   3.254   1.816   1.860
 3736SOL     OW12106   4.584   1.271   5.868
 3736SOL    HW112107   4.543   1.306   5.784
 3736SOL    HW212108   4.664   1.326   5.892
 3737SOL     OW12109   3.686   6.431   3.576
 3737SOL    HW112110   3.779   6.427   3.541
 3737SOL    HW212111   3.669   6.521   3.617
 3738SOL     OW12112   0.401   7.016   4.263
 3738SOL    HW112113   0.342   0.067   4.292
 3738SOL    HW212114   0.356   6.928   4.279
 3739SOL     OW12115   1.062   3.642   1.954
 3739SOL    HW112116   1.114   3.571   2.002
 3739SOL    HW212117   0.966   3.614   1.948
 3740SOL     OW12118   5.657   0.744   0.020
 3740SOL    HW112119   5.702   0.829   7.018
 3740SOL    HW212120   5.595   0.715   6.971
 3741SOL     OW12121   3.458   2.408   6.958
 3741SOL    HW112122   3.467   2.310   6.943
 3741SOL    HW212123   3.466   2.457   6.871
 3742SOL     OW12124   3.335   3.489   5.545
 3742SOL    HW112125   3.243   3.495   5.506
 3742SOL    HW212126   3.385   3.573   5.526
 3743SOL     OW12127   0.837   5.572   5.838
 3743SOL    HW112128   0.891   5.530   5.911
 3743SOL    HW212129   0.882   5.554   5.750
 3744SOL     OW12130   0.085   5.351   3.452
 3744SOL    HW112131   7.017   5.347   3.412
 3744SOL    HW212132   0.100   5.440   3.494
 3745SOL     OW12133   5.131   5.859   1.615
 3745SOL    HW112134   5.231   5.857   1.608
 3745SOL    HW212135   5.096   5.935   1.560
 3746SOL     OW12136   4.240   1.419   2.277
 3746SOL    HW112137   4.181   1.459   2.207
 3746SOL    HW212138   4.218   1.322   2.288
 3747SOL     OW12139   2.365   0.228   0.869
 3747SOL    HW112140   2.299   0.183   0.808
 3747SOL    HW212141   2.433   0.276   0.814
 3748SOL     OW12142   5.300   0.703   2.290
 3748SOL    HW112143   5.298   0.755   2.205
 3748SOL    HW212144   5.349   0.617   2.276
 3749SOL     OW12145   1.955   0.189   4.229
 3749SOL    HW112146   1.996   0.239   4.153
 3749SOL    HW212147   2.027   0.159   4.291
 3750SOL     OW12148   0.211   4.336   6.541
 3750SOL    HW112149   0.264   4.322   6.625
 3750SOL    HW212150   0.144   4.408   6.555
 3751SOL     OW12151   1.714   4.039   1.441
 3751SOL    HW112152   1.773   3.992   1.375
 3751SOL    HW212153   1.705   3.983   1.523
 3752SOL     OW12154   5.497   6.205   0.373
 3752SOL    HW112155   5.541   6.192   0.462
 3752SOL    HW212156   5.554   6.165   0.301
 3753SOL     OW12157   0.200   0.016   2.990
 3753SOL    HW112158   0.105   7.012   2.980
 3753SOL    HW212159   0.215   0.053   3.082
 3754SOL     OW12160   2.130   1.523   1.589
 3754SOL    HW112161   2.186   1.605   1.594
 3754SOL    HW212162   2.168   1.452   1.647
 3755SOL     OW12163   3.217   5.523   4.290
 3755SOL    HW112164   3.178   5.562   4.373
 3755SOL    HW212165   3.158   5.544   4.212
 3756SOL     OW12166   1.386   6.745   0.609
 3756SOL    HW112167   1.430   6.679   0.670
 3756SOL    HW212168   1.319   6.698   0.551
 3757SOL     OW12169   0.747   4.258   0.966
 3757SOL    HW112170   0.828   4.202   0.948
 3757SOL    HW212171   0.742   4.332   0.899
 3758SOL     OW12172   2.046   6.929   3.889
 3758SOL    HW112173   1.966   6.962   3.939
 3758SOL    HW212174   2.015   6.878   3.808
 3759SOL     OW12175   5.285   0.202   4.161
 3759SOL    HW112176   5.376   0.186   4.200
 3759SOL    HW212177   5.277   0.152   4.075
 3760SOL     OW12178   0.910   0.959   2.868
 3760SOL    HW112179   0.907   0.971   2.968
 3760SOL    HW212180   0.948   1.041   2.826
 3761SOL     OW12181   4.175   2.151   5.680
 3761SOL    HW112182   4.130   2.062   5.666
 3761SOL    HW212183   4.270   2.136   5.707
 3762SOL     OW12184   0.532   3.158   4.095
 3762SOL    HW112185   0.487   3.219   4.029
 3762SOL    HW212186   0.508   3.063   4.075
 3763SOL     OW12187   0.546   5.304   6.856
 3763SOL    HW112188   0.533   5.403   6.859
 3763SOL    HW212189   0.457   5.258   6.846
 3764SOL     OW12190   2.764   0.966   2.741
 3764SOL    HW112191   2.773   0.945   2.838
 3764SOL    HW212192   2.779   1.064   2.726
 3765SOL     OW12193   5.350   2.682   2.841
 3765SOL    HW112194   5.364   2.780   2.829
 3765SOL    HW212195   5.374   2.634   2.757
 3766SOL     OW12196   1.404   3.024   2.070
 3766SOL    HW112197   1.317   2.992   2.032
 3766SOL    HW212198   1.405   3.124   2.072
 3767SOL     OW12199   1.604   5.920   5.896
 3767SOL    HW112200   1.642   5.840   5.850
 3767SOL    HW212201   1.506   5.926   5.876
 3768SOL     OW12202   1.541   6.733   2.748
 3768SOL    HW112203   1.481   6.806   2.780
 3768SOL    HW212204   1.492   6.675   2.684
 3769SOL     OW12205   5.284   5.503   4.295
 3769SOL    HW112206   5.258   5.496   4.198
 3769SOL    HW212207   5.333   5.588   4.310
 3770SOL     OW12208   2.556   0.478   1.797
 3770SOL    HW112209   2.466   0.497   1.758
 3770SOL    HW212210   2.574   0.540   1.873
 3771SOL     OW12211   6.799   5.937   5.638
 3771SOL    HW112212   6.718   5.915   5.692
 3771SOL    HW212213   6.836   5.853   5.598
 3772SOL     OW12214   1.343   6.080   2.070
 3772SOL    HW112215   1.335   5.982   2.086
 3772SOL    HW212216   1.301   6.103   1.982
 3773SOL     OW12217   5.249   5.408   6.778
 3773SOL    HW112218   5.279   5.487   6.724
 3773SOL    HW212219   5.161   5.375   6.742
 3774SOL     OW12220   6.672   4.437   1.915
 3774SOL    HW112221   6.641   4.491   1.836
 3774SOL    HW212222   6.650   4.341   1.899
 3775SOL     OW12223   5.052   4.960   5.195
 3775SOL    HW112224   5.001   5.046   5.205
 3775SOL    HW212225   5.149   4.980   5.185
 3776SOL     OW12226   4.410   2.907   6.583
 3776SOL    HW112227   4.337   2.936   6.645
 3776SOL    HW212228   4.446   2.986   6.533
 3777SOL     OW12229   3.131   4.940   4.072
 3777SOL    HW112230   3.182   4.954   3.987
 3777SOL    HW212231   3.100   5.029   4.107
 3778SOL     OW12232   3.297   5.017   6.542
 3778SOL    HW112233   3.306   5.053   6.635
 3778SOL    HW212234   3.224   5.066   6.494
 3779SOL     OW12235   6.820   4.793   6.894
 3779SOL    HW112236   6.759   4.791   6.973
 3779SOL    HW212237   6.896   4.855   6.913
 3780SOL     OW12238   6.138   3.925   1.915
 3780SOL    HW112239   6.148   4.024   1.915
 3780SOL    HW212240   6.054   3.900   1.963
 3781SOL     OW12241   1.221   6.382   5.384
 3781SOL    HW112242   1.147   6.434   5.341
 3781SOL    HW212243   1.302   6.384   5.325
 3782SOL     OW12244   4.245   5.255   0.866
 3782SOL    HW112245   4.170   5.303   0.909
 3782SOL    HW212246   4.264   5.170   0.916
 3783SOL     OW12247   4.634   5.396   5.112
 3783SOL    HW112248   4.667   5.343   5.034
 3783SOL    HW212249   4.659   5.350   5.197
 3784SOL     OW12250   5.095   2.999   5.322
 3784SOL    HW112251   5.110   2.921   5.383
 3784SOL    HW212252   5.119   3.084   5.370
 3785SOL     OW12253   1.210   2.378   2.947
 3785SOL    HW112254   1.232   2.353   3.041
 3785SOL    HW212255   1.226   2.476   2.933
 3786SOL     OW12256   2.170   3.343   4.597
 3786SOL    HW112257   2.192   3.424   4.544
 3786SOL    HW212258   2.107   3.367   4.672
 3787SOL     OW12259   5.358   6.302   4.015
 3787SOL    HW112260   5.420   6.225   4.004
 3787SOL    HW212261   5.364   6.361   3.935
 3788SOL     OW12262   5.177   3.376   5.900
 3788SOL    HW112263   5.084   3.376   5.864
 3788SOL    HW212264   5.231   3.304   5.855
 3789SOL     OW12265   2.456   2.729   0.920
 3789SOL    HW112266   2.359   2.743   0.901
 3789SOL    HW212267   2.476   2.631   0.922
 3790SOL     OW12268   1.085   6.517   1.585
 3790SOL    HW112269   1.027   6.445   1.625
 3790SOL    HW212270   1.159   6.474   1.533
 3791SOL     OW12271   5.106   0.701   5.104
 3791SOL    HW112272   5.113   0.790   5.149
 3791SOL    HW212273   5.064   0.711   5.014
 3792SOL     OW12274   6.952   0.532   4.409
 3792SOL    HW112275   6.987   0.487   4.327
 3792SOL    HW212276   6.887   0.603   4.383
 3793SOL     OW12277   3.936   4.388   0.625
 3793SOL    HW112278   3.998   4.457   0.590
 3793SOL    HW212279   3.851   4.389   0.572
 3794SOL     OW12280   1.678   5.098   6.383
 3794SOL    HW112281   1.621   5.117   6.463
 3794SOL    HW212282   1.619   5.067   6.308
 3795SOL     OW12283   3.040   6.303   0.970
 3795SOL    HW112284   3.025   6.396   1.004
 3795SOL    HW212285   3.138   6.283   0.969
 3796SOL     OW12286   4.735   1.190   0.141
 3796SOL    HW112287   4.754   1.095   0.117
 3796SOL    HW212288   4.749   1.248   0.060
 3797SOL     OW12289   0.522   3.464   1.471
 3797SOL    HW112290   0.444   3.490   1.526
 3797SOL    HW212291   0.573   3.391   1.517
 3798SOL     OW12292   1.305   5.438   4.145
 3798SOL    HW112293   1.234   5.436   4.075
 3798SOL    HW212294   1.264   5.421   4.235
 3799SOL     OW12295   0.012   1.017   3.640
 3799SOL    HW112296   0.107   1.025   3.609
 3799SOL    HW212297   6.978   0.988   3.564
 3800SOL     OW12298   5.467   2.281   3.234
 3800SOL    HW112299   5.394   2.260   3.169
 3800SOL    HW212300   5.433   2.345   3.303
 3801SOL     OW12301   5.926   0.887   0.646
 3801SOL    HW112302   6.010   0.921   0.605
 3801SOL    HW212303   5.948   0.811   0.708
 3802SOL     OW12304   6.586   3.327   1.757
 3802SOL    HW112305   6.686   3.337   1.755
 3802SOL    HW212306   6.551   3.353   1.847
 3803SOL     OW12307   4.052   3.914   4.948
 3803SOL    HW112308   4.117   3.988   4.934
 3803SOL    HW212309   4.089   3.830   4.908
 3804SOL     OW12310   3.899   6.610   3.241
 3804SOL    HW112311   3.836   6.687   3.232
 3804SOL    HW212312   3.892   6.571   3.333
 3805SOL     OW12313   2.491   2.116   6.487
 3805SOL    HW112314   2.485   2.094   6.584
 3805SOL    HW212315   2.564   2.183   6.473
 3806SOL     OW12316   2.308   5.287   1.530
 3806SOL    HW112317   2.245   5.341   1.586
 3806SOL    HW212318   2.263   5.202   1.502
 3807SOL     OW12319   1.560   4.178   3.750
 3807SOL    HW112320   1.553   4.119   3.831
 3807SOL    HW212321   1.626   4.138   3.686
 3808SOL     OW12322   2.946   6.420   5.527
 3808SOL    HW112323   2.879   6.398   5.456
 3808SOL    HW212324   2.993   6.506   5.503
 3809SOL     OW12325   5.815   1.522   1.942
 3809SOL    HW112326   5.840   1.581   1.865
 3809SOL    HW212327   5.898   1.489   1.987
 3810SOL     OW12328   4.580   2.219   2.820
 3810SOL    HW112329   4.557   2.200   2.916
 3810SOL    HW212330   4.679   2.224   2.810
 3811SOL     OW12331   6.887   5.798   5.215
 3811SOL    HW112332   6.876   5.701   5.195
 3811SOL    HW212333   6.984   5.822   5.216
 3812SOL     OW12334   4.318   5.750   0.388
 3812SOL    HW112335   4.256   5.674   0.405
 3812SOL    HW212336   4.287   5.831   0.438
 3813SOL     OW12337   5.804   4.277   7.014
 3813SOL    HW112338   5.779   4.373   7.004
 3813SOL    HW212339   5.795   4.251   0.086
 3814SOL     OW12340   0.032   0.225   4.892
 3814SOL    HW112341   7.010   0.309   4.863
 3814SOL    HW212342   6.988   0.154   4.910
 3815SOL     OW12343   6.018   3.488   5.947
 3815SOL    HW112344   6.070   3.573   5.959
 3815SOL    HW212345   5.930   3.496   5.994
 3816SOL     OW12346   6.333   6.471   1.021
 3816SOL    HW112347   6.426   6.435   1.032
 3816SOL    HW212348   6.336   6.561   0.979
 3817SOL     OW12349   4.308   3.817   1.679
 3817SOL    HW112350   4.407   3.821   1.670
 3817SOL    HW212351   4.266   3.876   1.610
 3818SOL     OW12352   5.642   6.146   2.079
 3818SOL    HW112353   5.547   6.118   2.062
 3818SOL    HW212354   5.661   6.141   2.177
 3819SOL     OW12355   6.206   3.095   3.692
 3819SOL    HW112356   6.202   3.018   3.628
 3819SOL    HW212357   6.248   3.174   3.647
 3820SOL     OW12358   3.367   6.402   5.193
 3820SOL    HW112359   3.410   6.468   5.131
 3820SOL    HW212360   3.281   6.441   5.228
 3821SOL     OW12361   1.626   0.153   0.614
 3821SOL    HW112362   1.684   0.076   0.587
 3821SOL    HW212363   1.570   0.128   0.692
 3822SOL     OW12364   5.059   6.938   2.263
 3822SOL    HW112365   5.029   6.958   2.170
 3822SOL    HW212366   5.125   6.863   2.263
 3823SOL     OW12367   5.455   6.409   5.681
 3823SOL    HW112368   5.476   6.405   5.583
 3823SOL    HW212369   5.525   6.462   5.728
 3824SOL     OW12370   2.615   2.791   0.672
 3824SOL    HW112371   2.571   2.874   0.639
 3824SOL    HW212372   2.555   2.745   0.737
 3825SOL     OW12373   0.421   4.871   5.835
 3825SOL    HW112374   0.391   4.923   5.915
 3825SOL    HW212375   0.434   4.775   5.861
 3826SOL     OW12376   5.568   3.831   3.426
 3826SOL    HW112377   5.599   3.741   3.392
 3826SOL    HW212378   5.475   3.848   3.394
 3827SOL     OW12379   6.920   1.674   0.226
 3827SOL    HW112380   6.997   1.617   0.200
 3827SOL    HW212381   6.953   1.763   0.259
 3828SOL     OW12382   3.868   3.163   3.569
 3828SOL    HW112383   3.926   3.240   3.597
 3828SOL    HW212384   3.777   3.174   3.608
 3829SOL     OW12385   0.632   3.709   2.084
 3829SOL    HW112386   0.692   3.778   2.124
 3829SOL    HW212387   0.648   3.621   2.129
 3830SOL     OW12388   6.092   0.580   3.498
 3830SOL    HW112389   6.128   0.641   3.569
 3830SOL    HW212390   6.165   0.559   3.433
 3831SOL     OW12391   4.717   2.215   3.303
 3831SOL    HW112392   4.772   2.231   3.221
 3831SOL    HW212393   4.777   2.212   3.383
 3832SOL     OW12394   6.702   0.336   3.722
 3832SOL    HW112395   6.636   0.378   3.785
 3832SOL    HW212396   6.782   0.395   3.714
 3833SOL     OW12397   1.432   2.781   5.387
 3833SOL    HW112398   1.461   2.775   5.291
 3833SOL    HW212399   1.492   2.723   5.443
 3834SOL     OW12400   5.073   4.453   0.874
 3834SOL    HW112401   5.050   4.522   0.805
 3834SOL    HW212402   4.990   4.409   0.907
 3835SOL     OW12403   4.180   5.757   5.094
 3835SOL    HW112404   4.250   5.744   5.024
 3835SOL    HW212405   4.223   5.767   5.184
 3836SOL     OW12406   6.683   5.960   5.321
 3836SOL    HW112407   6.756   5.893   5.334
 3836SOL    HW212408   6.693   6.034   5.387
 3837SOL     OW12409   4.368   4.770   5.999
 3837SOL    HW112410   4.328   4.700   6.058
 3837SOL    HW212411   4.295   4.830   5.965
 3838SOL     OW12412   0.362   0.545   4.146
 3838SOL    HW112413   0.301   0.474   4.113
 3838SOL    HW212414   0.343   0.563   4.243
 3839SOL     OW12415   5.240   0.504   3.937
 3839SOL    HW112416   5.212   0.473   4.028
 3839SOL    HW212417   5.303   0.437   3.897
 3840SOL     OW12418   3.078   1.165   6.580
 3840SOL    HW112419   2.982   1.170   6.608
 3840SOL    HW212420   3.082   1.149   6.481
 3841SOL     OW12421   5.834   4.348   4.189
 3841SOL    HW112422   5.932   4.339   4.208
 3841SOL    HW212423   5.805   4.442   4.204
 3842SOL     OW12424   1.934   4.156   5.560
 3842SOL    HW112425   1.878   4.099   5.621
 3842SOL    HW212426   1.950   4.245   5.603
 3843SOL     OW12427   5.060   2.004   6.277
 3843SOL    HW112428   4.999   2.081   6.294
 3843SOL    HW212429   5.006   1.924   6.250
 3844SOL     OW12430   0.379   0.500   0.718
 3844SOL    HW112431   0.327   0.420   0.748
 3844SOL    HW212432   0.328   0.583   0.742
 3845SOL     OW12433   1.840   5.433   0.300
 3845SOL    HW112434   1.877   5.349   0.260
 3845SOL    HW212435   1.872   5.442   0.394
 3846SOL     OW12436   0.446   2.812   2.853
 3846SOL    HW112437   0.532   2.780   2.812
 3846SOL    HW212438   0.455   2.811   2.953
 3847SOL     OW12439   0.126   2.046   0.001
 3847SOL    HW112440   0.213   2.011   0.033
 3847SOL    HW212441   0.077   2.090   0.076
 3848SOL     OW12442   5.896   4.247   1.972
 3848SOL    HW112443   5.964   4.175   1.988
 3848SOL    HW212444   5.817   4.208   1.926
 3849SOL     OW12445   6.562   4.983   5.918
 3849SOL    HW112446   6.475   5.023   5.945
 3849SOL    HW212447   6.584   4.906   5.978
 3850SOL     OW12448   2.820   2.297   1.584
 3850SOL    HW112449   2.849   2.370   1.647
 3850SOL    HW212450   2.842   2.208   1.624
 3851SOL     OW12451   0.272   6.368   2.767
 3851SOL    HW112452   0.280   6.435   2.693
 3851SOL    HW212453   0.176   6.340   2.776
 3852SOL     OW12454   1.610   0.180   4.823
 3852SOL    HW112455   1.546   0.227   4.884
 3852SOL    HW212456   1.681   0.245   4.793
 3853SOL     OW12457   3.031   0.484   3.231
 3853SOL    HW112458   2.959   0.464   3.165
 3853SOL    HW212459   3.061   0.398   3.274
 3854SOL     OW12460   0.418   2.421   1.690
 3854SOL    HW112461   0.490   2.486   1.667
 3854SOL    HW212462   0.453   2.328   1.679
 3855SOL     OW12463   3.632   0.039   0.249
 3855SOL    HW112464   3.621   0.136   0.228
 3855SOL    HW212465   3.579   7.008   0.184
 3856SOL     OW12466   0.525   2.541   6.454
 3856SOL    HW112467   0.473   2.467   6.496
 3856SOL    HW212468   0.569   2.509   6.371
 3857SOL     OW12469   2.340   0.269   6.289
 3857SOL    HW112470   2.324   0.215   6.371
 3857SOL    HW212471   2.334   0.366   6.310
 3858SOL     OW12472   4.942   0.579   4.206
 3858SOL    HW112473   4.935   0.581   4.306
 3858SOL    HW212474   4.974   0.668   4.174
 3859SOL     OW12475   5.996   6.766   1.273
 3859SOL    HW112476   5.917   6.810   1.315
 3859SOL    HW212477   5.970   6.677   1.236
 3860SOL     OW12478   1.903   6.758   4.135
 3860SOL    HW112479   1.939   6.737   4.226
 3860SOL    HW212480   1.886   6.856   4.128
 3861SOL     OW12481   2.775   5.330   1.602
 3861SOL    HW112482   2.765   5.423   1.638
 3861SOL    HW212483   2.872   5.308   1.594
 3862SOL     OW12484   1.997   0.720   4.342
 3862SOL    HW112485   2.052   0.801   4.360
 3862SOL    HW212486   2.054   0.648   4.303
 3863SOL     OW12487   3.334   0.178   0.356
 3863SOL    HW112488   3.375   0.230   0.281
 3863SOL    HW212489   3.289   0.096   0.320
 3864SOL     OW12490   2.296   0.092   5.133
 3864SOL    HW112491   2.197   0.076   5.134
 3864SOL    HW212492   2.319   0.162   5.201
 3865SOL     OW12493   4.385   1.580   0.680
 3865SOL    HW112494   4.341   1.617   0.762
 3865SOL    HW212495   4.341   1.618   0.599
 3866SOL     OW12496   2.634   1.904   6.252
 3866SOL    HW112497   2.599   1.892   6.345
 3866SOL    HW212498   2.645   1.815   6.208
 3867SOL     OW12499   0.658   2.866   1.909
 3867SOL    HW112500   0.733   2.874   1.974
 3867SOL    HW212501   0.574   2.840   1.957
 3868SOL     OW12502   4.510   0.792   0.166
 3868SOL    HW112503   4.484   0.875   0.115
 3868SOL    HW212504   4.507   0.713   0.105
 3869SOL     OW12505   4.826   1.827   4.126
 3869SOL    HW112506   4.738   1.781   4.128
 3869SOL    HW212507   4.847   1.855   4.032
 3870SOL     OW12508   0.147   0.639   4.905
 3870SOL    HW112509   0.101   0.728   4.902
 3870SOL    HW212510   0.210   0.636   4.983
 3871SOL     OW12511   2.744   5.827   4.402
 3871SOL    HW112512   2.754   5.767   4.482
 3871SOL    HW212513   2.652   5.866   4.401
 3872SOL     OW12514   3.053   3.527   5.479
 3872SOL    HW112515   3.009   3.608   5.441
 3872SOL    HW212516   2.983   3.462   5.511
 3873SOL     OW12517   4.215   1.827   0.634
 3873SOL    HW112518   4.199   1.750   0.573
 3873SOL    HW212519   4.305   1.867   0.617
 3874SOL     OW12520   2.279   1.042   0.183
 3874SOL    HW112521   2.217   0.990   0.124
 3874SOL    HW212522   2.226   1.089   0.253
 3875SOL     OW12523   1.133   1.917   6.188
 3875SOL    HW112524   1.082   1.990   6.234
 3875SOL    HW212525   1.171   1.952   6.102
 3876SOL     OW12526   3.817   5.384   2.213
 3876SOL    HW112527   3.808   5.307   2.150
 3876SOL    HW212528   3.735   5.441   2.208
 3877SOL     OW12529   0.114   1.919   6.714
 3877SOL    HW112530   0.051   1.893   6.786
 3877SOL    HW212531   0.171   1.995   6.745
 3878SOL     OW12532   5.396   0.795   4.688
 3878SOL    HW112533   5.442   0.884   4.688
 3878SOL    HW212534   5.461   0.724   4.716
 3879SOL     OW12535   5.938   5.783   0.478
 3879SOL    HW112536   5.842   5.786   0.451
 3879SOL    HW212537   5.948   5.825   0.568
 3880SOL     OW12538   4.435   4.673   4.017
 3880SOL    HW112539   4.339   4.681   4.044
 3880SOL    HW212540   4.487   4.747   4.058
 3881SOL     OW12541   0.551   3.316   0.093
 3881SOL    HW112542   0.616   3.391   0.101
 3881SOL    HW212543   0.591   3.233   0.133
 3882SOL     OW12544   0.629   1.910   6.408
 3882SOL    HW112545   0.531   1.918   6.428
 3882SOL    HW212546   0.641   1.868   6.318
 3883SOL     OW12547   4.981   5.739   3.482
 3883SOL    HW112548   5.070   5.758   3.442
 3883SOL    HW212549   4.992   5.679   3.561
 3884SOL     OW12550   0.472   4.373   1.966
 3884SOL    HW112551   0.510   4.292   1.923
 3884SOL    HW212552   0.537   4.449   1.958
 3885SOL     OW12553   5.433   5.700   2.627
 3885SOL    HW112554   5.336   5.714   2.646
 3885SOL    HW212555   5.466   5.772   2.565
 3886SOL     OW12556   2.802   6.249   5.700
 3886SOL    HW112557   2.852   6.164   5.718
 3886SOL    HW212558   2.848   6.299   5.627
 3887SOL     OW12559   1.004   6.429   2.437
 3887SOL    HW112560   1.094   6.405   2.400
 3887SOL    HW212561   1.013   6.509   2.496
 3888SOL     OW12562   5.755   5.146   4.189
 3888SOL    HW112563   5.786   5.067   4.135
 3888SOL    HW212564   5.808   5.226   4.164
 3889SOL     OW12565   5.112   3.957   0.913
 3889SOL    HW112566   5.100   4.016   0.833
 3889SOL    HW212567   5.153   4.009   0.988
 3890SOL     OW12568   5.387   3.173   4.629
 3890SOL    HW112569   5.478   3.158   4.669
 3890SOL    HW212570   5.393   3.245   4.560
 3891SOL     OW12571   5.581   5.767   3.486
 3891SOL    HW112572   5.507   5.713   3.446
 3891SOL    HW212573   5.664   5.712   3.489
 3892SOL     OW12574   0.076   2.270   1.245
 3892SOL    HW112575   0.174   2.257   1.227
 3892SOL    HW212576   0.062   2.356   1.293
 3893SOL     OW12577   4.005   3.757   2.706
 3893SOL    HW112578   3.907   3.776   2.701
 3893SOL    HW212579   4.049   3.827   2.761
 3894SOL     OW12580   4.543   0.823   5.588
 3894SOL    HW112581   4.580   0.758   5.522
 3894SOL    HW212582   4.589   0.811   5.676
 3895SOL     OW12583   1.236   0.690   4.249
 3895SOL    HW112584   1.151   0.691   4.302
 3895SOL    HW212585   1.214   0.674   4.152
 3896SOL     OW12586   1.182   1.144   6.709
 3896SOL    HW112587   1.203   1.095   6.794
 3896SOL    HW212588   1.179   1.079   6.634
 3897SOL     OW12589   4.224   6.621   1.281
 3897SOL    HW112590   4.316   6.609   1.318
 3897SOL    HW212591   4.158   6.621   1.356
 3898SOL     OW12592   3.916   3.076   0.608
 3898SOL    HW112593   3.855   3.091   0.685
 3898SOL    HW212594   3.879   3.119   0.526
 3899SOL     OW12595   3.222   0.141   5.669
 3899SOL    HW112596   3.265   0.122   5.581
 3899SOL    HW212597   3.129   0.104   5.670
 3900SOL     OW12598   5.144   3.637   3.193
 3900SOL    HW112599   5.170   3.683   3.108
 3900SOL    HW212600   5.202   3.669   3.268
 3901SOL     OW12601   2.669   0.242   6.887
 3901SOL    HW112602   2.575   0.245   6.921
 3901SOL    HW212603   2.678   0.301   6.808
 3902SOL     OW12604   6.182   3.019   2.646
 3902SOL    HW112605   6.192   3.089   2.718
 3902SOL    HW212606   6.085   3.000   2.632
 3903SOL     OW12607   3.450   4.598   6.529
 3903SOL    HW112608   3.474   4.598   6.626
 3903SOL    HW212609   3.358   4.560   6.518
 3904SOL     OW12610   1.201   0.411   0.413
 3904SOL    HW112611   1.177   0.434   0.507
 3904SOL    HW212612   1.289   0.363   0.412
 3905SOL     OW12613   6.456   5.546   5.134
 3905SOL    HW112614   6.446   5.600   5.051
 3905SOL    HW212615   6.482   5.606   5.210
 3906SOL     OW12616   6.837   6.432   5.281
 3906SOL    HW112617   6.884   6.420   5.369
 3906SOL    HW212618   6.810   6.527   5.270
 3907SOL     OW12619   6.683   1.809   3.919
 3907SOL    HW112620   6.639   1.888   3.876
 3907SOL    HW212621   6.775   1.835   3.950
 3908SOL     OW12622   2.059   3.033   6.140
 3908SOL    HW112623   2.038   3.082   6.225
 3908SOL    HW212624   2.044   2.935   6.154
 3909SOL     OW12625   5.972   5.310   4.128
 3909SOL    HW112626   6.018   5.264   4.052
 3909SOL    HW212627   5.999   5.406   4.130
 3910SOL     OW12628   4.080   3.634   2.452
 3910SOL    HW112629   4.063   3.703   2.381
 3910SOL    HW212630   4.073   3.678   2.542
 3911SOL     OW12631   6.523   2.137   5.659
 3911SOL    HW112632   6.578   2.152   5.742
 3911SOL    HW212633   6.582   2.105   5.585
 3912SOL     OW12634   5.287   2.675   6.991
 3912SOL    HW112635   5.315   2.638   6.902
 3912SOL    HW212636   5.299   2.775   6.990
 3913SOL     OW12637   1.091   6.743   1.150
 3913SOL    HW112638   1.124   6.800   1.225
 3913SOL    HW212639   1.088   6.797   1.066
 3914SOL     OW12640   3.063   5.468   5.561
 3914SOL    HW112641   3.153   5.495   5.594
 3914SOL    HW212642   3.055   5.368   5.565
 3915SOL     OW12643   6.607   5.709   1.354
 3915SOL    HW112644   6.704   5.732   1.356
 3915SOL    HW212645   6.573   5.713   1.260
 3916SOL     OW12646   1.021   0.107   2.826
 3916SOL    HW112647   1.097   0.156   2.869
 3916SOL    HW212648   0.944   0.169   2.814
 3917SOL     OW12649   1.792   0.244   0.289
 3917SOL    HW112650   1.883   0.229   0.328
 3917SOL    HW212651   1.735   0.163   0.305
 3918SOL     OW12652   5.644   3.523   0.931
 3918SOL    HW112653   5.688   3.438   0.905
 3918SOL    HW212654   5.589   3.508   1.014
 3919SOL     OW12655   3.259   6.470   0.754
 3919SOL    HW112656   3.161   6.490   0.753
 3919SOL    HW212657   3.281   6.413   0.833
 3920SOL     OW12658   1.933   1.570   6.664
 3920SOL    HW112659   1.892   1.583   6.574
 3920SOL    HW212660   2.002   1.640   6.680
 3921SOL     OW12661   1.526   3.612   1.904
 3921SOL    HW112662   1.495   3.583   1.813
 3921SOL    HW212663   1.458   3.675   1.943
 3922SOL     OW12664   1.260   4.642   1.054
 3922SOL    HW112665   1.350   4.663   1.015
 3922SOL    HW212666   1.198   4.718   1.038
 3923SOL     OW12667   6.642   0.327   0.352
 3923SOL    HW112668   6.654   0.416   0.396
 3923SOL    HW212669   6.637   0.256   0.422
 3924SOL     OW12670   6.887   4.820   4.729
 3924SOL    HW112671   6.929   4.769   4.655
 3924SOL    HW212672   6.957   4.875   4.776
 3925SOL     OW12673   1.491   5.211   2.219
 3925SOL    HW112674   1.554   5.168   2.284
 3925SOL    HW212675   1.495   5.311   2.231
 3926SOL     OW12676   3.764   4.934   2.298
 3926SOL    HW112677   3.703   4.937   2.378
 3926SOL    HW212678   3.773   4.839   2.267
 3927SOL     OW12679   0.702   3.194   5.826
 3927SOL    HW112680   0.758   3.177   5.907
 3927SOL    HW212681   0.746   3.262   5.768
 3928SOL     OW12682   5.405   5.790   6.107
 3928SOL    HW112683   5.353   5.837   6.035
 3928SOL    HW212684   5.353   5.792   6.192
 3929SOL     OW12685   1.107   2.094   4.815
 3929SOL    HW112686   1.192   2.143   4.838
 3929SOL    HW212687   1.052   2.151   4.755
 3930SOL     OW12688   2.151   1.511   3.725
 3930SOL    HW112689   2.243   1.502   3.763
 3930SOL    HW212690   2.108   1.593   3.763
 3931SOL     OW12691   5.303   0.875   2.008
 3931SOL    HW112692   5.252   0.950   1.967
 3931SOL    HW212693   5.263   0.788   1.980
 3932SOL     OW12694   1.754   1.885   3.808
 3932SOL    HW112695   1.754   1.830   3.891
 3932SOL    HW212696   1.661   1.893   3.773
 3933SOL     OW12697   0.662   0.112   5.228
 3933SOL    HW112698   0.732   0.044   5.206
 3933SOL    HW212699   0.600   0.075   5.298
 3934SOL     OW12700   5.595   0.176   6.619
 3934SOL    HW112701   5.592   0.122   6.703
 3934SOL    HW212702   5.630   0.120   6.544
 3935SOL     OW12703   4.767   0.878   0.399
 3935SOL    HW112704   4.826   0.875   0.480
 3935SOL    HW212705   4.683   0.827   0.417
 3936SOL     OW12706   0.219   4.975   3.094
 3936SOL    HW112707   0.236   4.905   3.024
 3936SOL    HW212708   0.146   4.944   3.155
 3937SOL     OW12709   0.289   1.324   2.514
 3937SOL    HW112710   0.317   1.419   2.504
 3937SOL    HW212711   0.363   1.264   2.485
 3938SOL     OW12712   0.132   2.419   2.160
 3938SOL    HW112713   0.077   2.336   2.152
 3938SOL    HW212714   0.212   2.401   2.217
 3939SOL     OW12715   2.621   1.863   1.726
 3939SOL    HW112716   2.648   1.820   1.640
 3939SOL    HW212717   2.660   1.811   1.803
 3940SOL     OW12718   4.408   3.017   1.362
 3940SOL    HW112719   4.478   3.087   1.378
 3940SOL    HW212720   4.357   3.001   1.447
 3941SOL     OW12721   4.449   4.200   6.551
 3941SOL    HW112722   4.466   4.274   6.486
 3941SOL    HW212723   4.465   4.234   6.644
 3942SOL     OW12724   6.810   6.898   6.668
 3942SOL    HW112725   6.885   6.843   6.707
 3942SOL    HW212726   6.770   6.956   6.739
 3943SOL     OW12727   0.303   3.330   4.434
 3943SOL    HW112728   0.256   3.326   4.522
 3943SOL    HW212729   0.291   3.242   4.387
 3944SOL     OW12730   5.060   2.440   4.785
 3944SOL    HW112731   5.089   2.400   4.698
 3944SOL    HW212732   5.125   2.510   4.813
 3945SOL     OW12733   0.284   0.599   0.422
 3945SOL    HW112734   0.286   0.674   0.356
 3945SOL    HW212735   0.291   0.635   0.515
 3946SOL     OW12736   4.359   4.624   3.200
 3946SOL    HW112737   4.405   4.572   3.127
 3946SOL    HW212738   4.427   4.653   3.267
 3947SOL     OW12739   6.009   5.452   6.801
 3947SOL    HW112740   5.958   5.538   6.798
 3947SOL    HW212741   6.107   5.471   6.791
 3948SOL     OW12742   6.097   4.614   1.006
 3948SOL    HW112743   6.042   4.659   1.076
 3948SOL    HW212744   6.121   4.522   1.035
 3949SOL     OW12745   5.445   6.460   3.277
 3949SOL    HW112746   5.360   6.450   3.329
 3949SOL    HW212747   5.436   6.414   3.189
 3950SOL     OW12748   1.564   6.094   0.328
 3950SOL    HW112749   1.528   6.100   0.421
 3950SOL    HW212750   1.540   6.005   0.289
 3951SOL     OW12751   5.441   6.916   1.891
 3951SOL    HW112752   5.529   6.867   1.894
 3951SOL    HW212753   5.416   6.933   1.796
 3952SOL     OW12754   5.902   2.208   0.051
 3952SOL    HW112755   5.989   2.161   0.035
 3952SOL    HW212756   5.904   2.249   0.142
 3953SOL     OW12757   3.562   4.074   2.753
 3953SOL    HW112758   3.617   4.149   2.790
 3953SOL    HW212759   3.467   4.085   2.782
 3954SOL     OW12760   3.762   4.948   5.772
 3954SOL    HW112761   3.819   4.938   5.853
 3954SOL    HW212762   3.747   5.045   5.753
 3955SOL     OW12763   4.152   0.876   4.635
 3955SOL    HW112764   4.183   0.934   4.560
 3955SOL    HW212765   4.120   0.933   4.710
 3956SOL     OW12766   1.865   1.201   1.234
 3956SOL    HW112767   1.779   1.241   1.264
 3956SOL    HW212768   1.896   1.134   1.302
 3957SOL     OW12769   3.874   0.896   4.776
 3957SOL    HW112770   3.896   0.987   4.742
 3957SOL    HW212771   3.851   0.836   4.699
 3958SOL     OW12772   5.622   0.493   5.661
 3958SOL    HW112773   5.681   0.573   5.669
 3958SOL    HW212774   5.593   0.482   5.566
 3959SOL     OW12775   4.468   5.685   0.613
 3959SOL    HW112776   4.443   5.711   0.520
 3959SOL    HW212777   4.385   5.669   0.666
 3960SOL     OW12778   5.534   2.508   4.486
 3960SOL    HW112779   5.458   2.554   4.438
 3960SOL    HW212780   5.515   2.410   4.492
 3961SOL     OW12781   5.822   6.121   3.573
 3961SOL    HW112782   5.838   6.056   3.499
 3961SOL    HW212783   5.774   6.201   3.537
 3962SOL     OW12784   6.861   5.510   5.139
 3962SOL    HW112785   6.781   5.469   5.096
 3962SOL    HW212786   6.943   5.487   5.087
 3963SOL     OW12787   4.402   6.745   2.099
 3963SOL    HW112788   4.455   6.666   2.070
 3963SOL    HW212789   4.305   6.728   2.082
 3964SOL     OW12790   5.451   3.223   3.244
 3964SOL    HW112791   5.360   3.264   3.253
 3964SOL    HW212792   5.475   3.175   3.328
 3965SOL     OW12793   4.866   3.862   4.441
 3965SOL    HW112794   4.904   3.770   4.451
 3965SOL    HW212795   4.853   3.902   4.532
 3966SOL     OW12796   2.898   6.265   6.610
 3966SOL    HW112797   2.906   6.258   6.511
 3966SOL    HW212798   2.831   6.336   6.633
 3967SOL     OW12799   2.036   4.583   2.794
 3967SOL    HW112800   2.056   4.538   2.881
 3967SOL    HW212801   2.122   4.604   2.747
 3968SOL     OW12802   3.987   6.776   0.594
 3968SOL    HW112803   4.023   6.686   0.568
 3968SOL    HW212804   3.968   6.777   0.693
 3969SOL     OW12805   0.745   5.221   2.615
 3969SOL    HW112806   0.681   5.293   2.640
 3969SOL    HW212807   0.839   5.252   2.631
 3970SOL     OW12808   5.306   6.192   2.686
 3970SOL    HW112809   5.225   6.225   2.637
 3970SOL    HW212810   5.345   6.114   2.637
 3971SOL     OW12811   2.519   5.801   3.865
 3971SOL    HW112812   2.501   5.888   3.819
 3971SOL    HW212813   2.463   5.729   3.824
 3972SOL     OW12814   2.345   3.760   0.148
 3972SOL    HW112815   2.336   3.759   0.248
 3972SOL    HW212816   2.380   3.671   0.117
 3973SOL     OW12817   1.255   5.653   0.436
 3973SOL    HW112818   1.300   5.573   0.476
 3973SOL    HW212819   1.168   5.669   0.482
 3974SOL     OW12820   2.064   0.730   4.843
 3974SOL    HW112821   2.013   0.796   4.788
 3974SOL    HW212822   2.030   0.732   4.938
 3975SOL     OW12823   5.722   2.353   6.347
 3975SOL    HW112824   5.762   2.292   6.415
 3975SOL    HW212825   5.794   2.405   6.302
 3976SOL     OW12826   2.350   5.258   2.200
 3976SOL    HW112827   2.344   5.319   2.121
 3976SOL    HW212828   2.393   5.172   2.173
 3977SOL     OW12829   1.223   3.533   6.657
 3977SOL    HW112830   1.265   3.504   6.570
 3977SOL    HW212831   1.294   3.548   6.725
 3978SOL     OW12832   6.577   4.681   3.915
 3978SOL    HW112833   6.506   4.633   3.864
 3978SOL    HW212834   6.633   4.615   3.966
 3979SOL     OW12835   3.901   0.141   6.669
 3979SOL    HW112836   3.953   0.154   6.585
 3979SOL    HW212837   3.913   0.048   6.702
 3980SOL     OW12838   5.567   6.427   5.428
 3980SOL    HW112839   5.555   6.335   5.390
 3980SOL    HW212840   5.565   6.494   5.353
 3981SOL     OW12841   4.410   6.578   0.525
 3981SOL    HW112842   4.408   6.673   0.494
 3981SOL    HW212843   4.433   6.575   0.622
 3982SOL     OW12844   3.179   6.232   2.724
 3982SOL    HW112845   3.163   6.308   2.660
 3982SOL    HW212846   3.165   6.264   2.818
 3983SOL     OW12847   3.453   5.899   3.913
 3983SOL    HW112848   3.499   5.888   4.001
 3983SOL    HW212849   3.383   5.970   3.920
 3984SOL     OW12850   6.665   2.548   2.827
 3984SOL    HW112851   6.690   2.483   2.898
 3984SOL    HW212852   6.684   2.508   2.737
 3985SOL     OW12853   3.941   5.513   6.875
 3985SOL    HW112854   3.894   5.458   6.806
 3985SOL    HW212855   3.885   5.592   6.898
 3986SOL     OW12856   5.019   0.605   2.278
 3986SOL    HW112857   5.068   0.519   2.292
 3986SOL    HW212858   5.082   0.682   2.291
 3987SOL     OW12859   3.490   5.160   4.507
 3987SOL    HW112860   3.589   5.167   4.501
 3987SOL    HW212861   3.465   5.088   4.573
 3988SOL     OW12862   4.206   5.689   0.709
 3988SOL    HW112863   4.191   5.685   0.808
 3988SOL    HW212864   4.224   5.783   0.682
 3989SOL     OW12865   5.527   2.145   0.477
 3989SOL    HW112866   5.498   2.181   0.389
 3989SOL    HW212867   5.539   2.046   0.470
 3990SOL     OW12868   6.374   2.032   2.431
 3990SOL    HW112869   6.298   2.051   2.493
 3990SOL    HW212870   6.449   2.096   2.449
 3991SOL     OW12871   0.088   0.840   2.907
 3991SOL    HW112872   0.101   0.749   2.867
 3991SOL    HW212873   0.066   0.905   2.835
 3992SOL     OW12874   2.718   1.595   1.059
 3992SOL    HW112875   2.634   1.638   1.026
 3992SOL    HW212876   2.784   1.667   1.083
 3993SOL     OW12877   1.525   2.971   1.381
 3993SOL    HW112878   1.615   3.006   1.410
 3993SOL    HW212879   1.536   2.919   1.297
 3994SOL     OW12880   2.671   6.072   4.759
 3994SOL    HW112881   2.589   6.087   4.703
 3994SOL    HW212882   2.741   6.138   4.733
 3995SOL     OW12883   1.755   2.596   5.064
 3995SOL    HW112884   1.791   2.575   4.974
 3995SOL    HW212885   1.710   2.515   5.102
 3996SOL     OW12886   0.102   6.425   5.099
 3996SOL    HW112887   0.020   6.455   5.050
 3996SOL    HW212888   0.081   6.344   5.154
 3997SOL     OW12889   5.165   0.481   4.472
 3997SOL    HW112890   5.144   0.402   4.414
 3997SOL    HW212891   5.264   0.499   4.469
 3998SOL     OW12892   4.599   2.246   3.605
 3998SOL    HW112893   4.678   2.271   3.550
 3998SOL    HW212894   4.626   2.236   3.700
 3999SOL     OW12895   5.185   2.341   4.563
 3999SOL    HW112896   5.271   2.293   4.581
 3999SOL    HW212897   5.196   2.401   4.484
 4000SOL     OW12898   3.914   6.994   3.867
 4000SOL    HW112899   3.904   0.069   3.855
 4000SOL    HW212900   3.923   6.950   3.778
 4001SOL     OW12901   1.117   2.313   3.883
 4001SOL    HW112902   1.146   2.371   3.807
 4001SOL    HW212903   1.021   2.289   3.872
 4002SOL     OW12904   2.317   3.840   1.821
 4002SOL    HW112905   2.347   3.858   1.727
 4002SOL    HW212906   2.343   3.748   1.847
 4003SOL     OW12907   3.859   1.492   4.936
 4003SOL    HW112908   3.935   1.475   4.873
 4003SOL    HW212909   3.819   1.582   4.917
 4004SOL     OW12910   6.962   1.667   5.678
 4004SOL    HW112911   6.947   1.756   5.721
 4004SOL    HW212912   6.886   1.646   5.617
 4005SOL     OW12913   6.001   5.239   5.514
 4005SOL    HW112914   5.991   5.309   5.585
 4005SOL    HW212915   6.099   5.222   5.499
 4006SOL     OW12916   3.610   6.241   2.554
 4006SOL    HW112917   3.666   6.255   2.636
 4006SOL    HW212918   3.656   6.176   2.494
 4007SOL     OW12919   6.659   1.931   6.647
 4007SOL    HW112920   6.588   1.861   6.639
 4007SOL    HW212921   6.620   2.021   6.626
 4008SOL     OW12922   2.670   2.414   5.071
 4008SOL    HW112923   2.704   2.468   5.148
 4008SOL    HW212924   2.618   2.472   5.009
 4009SOL     OW12925   3.385   3.057   2.679
 4009SOL    HW112926   3.436   3.005   2.611
 4009SOL    HW212927   3.315   3.112   2.633
 4010SOL     OW12928   1.832   2.672   6.352
 4010SOL    HW112929   1.859   2.583   6.388
 4010SOL    HW212930   1.753   2.707   6.404
 4011SOL     OW12931   1.152   2.854   0.942
 4011SOL    HW112932   1.191   2.881   0.854
 4011SOL    HW212933   1.185   2.917   1.013
 4012SOL     OW12934   6.349   2.972   3.954
 4012SOL    HW112935   6.283   3.011   3.889
 4012SOL    HW212936   6.319   2.993   4.047
 4013SOL     OW12937   4.466   2.319   3.258
 4013SOL    HW112938   4.551   2.270   3.278
 4013SOL    HW212939   4.399   2.299   3.328
 4014SOL     OW12940   5.477   6.129   1.797
 4014SOL    HW112941   5.567   6.098   1.827
 4014SOL    HW212942   5.411   6.113   1.870
 4015SOL     OW12943   4.644   3.633   6.481
 4015SOL    HW112944   4.710   3.708   6.485
 4015SOL    HW212945   4.692   3.547   6.496
 4016SOL     OW12946   3.344   6.272   4.678
 4016SOL    HW112947   3.340   6.213   4.758
 4016SOL    HW212948   3.302   6.224   4.600
 4017SOL     OW12949   6.295   6.625   6.935
 4017SOL    HW112950   6.305   6.703   6.996
 4017SOL    HW212951   6.361   6.555   6.960
 4018SOL     OW12952   2.414   6.300   0.305
 4018SOL    HW112953   2.388   6.347   0.221
 4018SOL    HW212954   2.509   6.321   0.327
 4019SOL     OW12955   5.257   5.503   3.151
 4019SOL    HW112956   5.242   5.434   3.222
 4019SOL    HW212957   5.200   5.482   3.072
 4020SOL     OW12958   5.013   2.180   5.235
 4020SOL    HW112959   5.077   2.169   5.311
 4020SOL    HW212960   4.946   2.250   5.257
 4021SOL     OW12961   4.364   4.470   0.159
 4021SOL    HW112962   4.322   4.381   0.178
 4021SOL    HW212963   4.395   4.511   0.245
 4022SOL     OW12964   5.486   0.628   0.678
 4022SOL    HW112965   5.533   0.666   0.599
 4022SOL    HW212966   5.390   0.657   0.677
 4023SOL     OW12967   6.892   0.388   5.826
 4023SOL    HW112968   6.916   0.409   5.731
 4023SOL    HW212969   6.816   0.323   5.828
 4024SOL     OW12970   4.292   4.814   4.359
 4024SOL    HW112971   4.382   4.826   4.401
 4024SOL    HW212972   4.221   4.824   4.429
 4025SOL     OW12973   1.351   4.192   3.221
 4025SOL    HW112974   1.369   4.175   3.318
 4025SOL    HW212975   1.382   4.113   3.167
 4026SOL     OW12976   4.885   0.082   4.834
 4026SOL    HW112977   4.872   0.181   4.844
 4026SOL    HW212978   4.982   0.062   4.823
 4027SOL     OW12979   4.230   5.025   1.959
 4027SOL    HW112980   4.210   5.038   1.862
 4027SOL    HW212981   4.149   5.046   2.014
 4028SOL     OW12982   2.513   6.529   3.615
 4028SOL    HW112983   2.435   6.590   3.633
 4028SOL    HW212984   2.481   6.434   3.618
 4029SOL     OW12985   1.783   3.795   4.052
 4029SOL    HW112986   1.794   3.800   4.151
 4029SOL    HW212987   1.716   3.863   4.022
 4030SOL     OW12988   1.150   1.358   5.977
 4030SOL    HW112989   1.219   1.398   6.036
 4030SOL    HW212990   1.086   1.304   6.031
 4031SOL     OW12991   5.830   5.857   4.242
 4031SOL    HW112992   5.902   5.886   4.178
 4031SOL    HW212993   5.853   5.767   4.278
 4032SOL     OW12994   4.294   0.136   4.996
 4032SOL    HW112995   4.194   0.144   4.990
 4032SOL    HW212996   4.329   0.209   5.055
 4033SOL     OW12997   3.408   3.444   5.800
 4033SOL    HW112998   3.373   3.459   5.708
 4033SOL    HW212999   3.361   3.366   5.841
 4034SOL     OW13000   5.954   2.847   4.848
 4034SOL    HW113001   5.945   2.946   4.844
 4034SOL    HW213002   5.864   2.805   4.839
 4035SOL     OW13003   0.422   5.303   0.943
 4035SOL    HW113004   0.386   5.219   0.984
 4035SOL    HW213005   0.493   5.279   0.877
 4036SOL     OW13006   6.534   6.180   2.246
 4036SOL    HW113007   6.584   6.250   2.194
 4036SOL    HW213008   6.452   6.221   2.285
 4037SOL     OW13009   6.875   4.178   6.253
 4037SOL    HW113010   6.818   4.118   6.308
 4037SOL    HW213011   6.818   4.250   6.212
 4038SOL     OW13012   6.438   5.107   3.586
 4038SOL    HW113013   6.404   5.201   3.580
 4038SOL    HW213014   6.441   5.079   3.682
 4039SOL     OW13015   3.881   6.308   1.118
 4039SOL    HW113016   3.870   6.212   1.143
 4039SOL    HW213017   3.811   6.332   1.051
 4040SOL     OW13018   3.698   6.251   0.582
 4040SOL    HW113019   3.740   6.323   0.527
 4040SOL    HW213020   3.640   6.292   0.652
 4041SOL     OW13021   0.921   0.058   3.141
 4041SOL    HW113022   0.995   0.125   3.139
 4041SOL    HW213023   0.959   6.991   3.159
 4042SOL     OW13024   5.909   5.777   1.883
 4042SOL    HW113025   5.875   5.683   1.876
 4042SOL    HW213026   6.009   5.775   1.888
 4043SOL     OW13027   6.380   3.841   1.800
 4043SOL    HW113028   6.413   3.930   1.770
 4043SOL    HW213029   6.286   3.850   1.834
 4044SOL     OW13030   6.550   5.604   3.386
 4044SOL    HW113031   6.548   5.509   3.355
 4044SOL    HW213032   6.477   5.619   3.452
 4045SOL     OW13033   2.197   4.575   5.927
 4045SOL    HW113034   2.290   4.586   5.890
 4045SOL    HW213035   2.133   4.630   5.873
 4046SOL     OW13036   0.253   3.162   0.573
 4046SOL    HW113037   0.322   3.117   0.629
 4046SOL    HW213038   0.296   3.233   0.517
 4047SOL     OW13039   2.937   3.842   2.399
 4047SOL    HW113040   2.847   3.862   2.437
 4047SOL    HW213041   2.943   3.745   2.376
 4048SOL     OW13042   4.556   2.617   1.210
 4048SOL    HW113043   4.493   2.590   1.137
 4048SOL    HW213044   4.625   2.545   1.222
 4049SOL     OW13045   6.915   0.851   5.715
 4049SOL    HW113046   6.967   0.935   5.704
 4049SOL    HW213047   6.863   0.832   5.632
 4050SOL     OW13048   2.321   0.678   1.817
 4050SOL    HW113049   2.302   0.674   1.718
 4050SOL    HW213050   2.257   0.741   1.860
 4051SOL     OW13051   1.245   4.160   0.961
 4051SOL    HW113052   1.314   4.163   0.888
 4051SOL    HW213053   1.289   4.180   1.049
 4052SOL     OW13054   1.392   6.535   1.252
 4052SOL    HW113055   1.491   6.552   1.255
 4052SOL    HW213056   1.350   6.593   1.183
 4053SOL     OW13057   3.313   5.327   3.100
 4053SOL    HW113058   3.378   5.255   3.125
 4053SOL    HW213059   3.240   5.331   3.168
 4054SOL     OW13060   5.010   1.457   6.901
 4054SOL    HW113061   5.041   1.510   6.822
 4054SOL    HW213062   5.082   1.393   6.929
 4055SOL     OW13063   4.644   2.792   1.015
 4055SOL    HW113064   4.621   2.733   0.938
 4055SOL    HW213065   4.604   2.755   1.099
 4056SOL     OW13066   3.898   2.747   0.983
 4056SOL    HW113067   3.922   2.657   0.945
 4056SOL    HW213068   3.801   2.766   0.966
 4057SOL     OW13069   6.278   2.378   0.310
 4057SOL    HW113070   6.183   2.351   0.295
 4057SOL    HW213071   6.337   2.328   0.247
 4058SOL     OW13072   1.587   2.008   4.417
 4058SOL    HW113073   1.666   2.005   4.479
 4058SOL    HW213074   1.619   2.018   4.323
 4059SOL     OW13075   6.627   2.290   5.339
 4059SOL    HW113076   6.549   2.352   5.335
 4059SOL    HW213077   6.708   2.336   5.302
 4060SOL     OW13078   3.319   5.838   5.440
 4060SOL    HW113079   3.393   5.904   5.451
 4060SOL    HW213080   3.234   5.886   5.421
 4061SOL     OW13081   2.400   2.726   1.466
 4061SOL    HW113082   2.405   2.739   1.367
 4061SOL    HW213083   2.369   2.810   1.510
 4062SOL     OW13084   3.622   6.478   2.110
 4062SOL    HW113085   3.718   6.473   2.139
 4062SOL    HW213086   3.617   6.488   2.011
 4063SOL     OW13087   2.355   4.831   6.492
 4063SOL    HW113088   2.291   4.790   6.558
 4063SOL    HW213089   2.434   4.869   6.541
 4064SOL     OW13090   6.008   6.813   4.240
 4064SOL    HW113091   6.046   6.820   4.148
 4064SOL    HW213092   5.974   6.720   4.255
 4065SOL     OW13093   0.211   4.655   6.573
 4065SOL    HW113094   0.137   4.690   6.515
 4065SOL    HW213095   0.292   4.711   6.561
 4066SOL     OW13096   5.895   5.530   1.554
 4066SOL    HW113097   5.929   5.623   1.537
 4066SOL    HW213098   5.888   5.481   1.467
 4067SOL     OW13099   5.711   1.076   1.929
 4067SOL    HW113100   5.808   1.099   1.944
 4067SOL    HW213101   5.666   1.063   2.017
 4068SOL     OW13102   5.264   1.536   4.696
 4068SOL    HW113103   5.237   1.501   4.606
 4068SOL    HW213104   5.280   1.635   4.689
 4069SOL     OW13105   6.916   6.278   0.586
 4069SOL    HW113106   6.954   6.186   0.575
 4069SOL    HW213107   6.990   6.344   0.591
 4070SOL     OW13108   6.942   3.359   3.175
 4070SOL    HW113109   0.008   3.325   3.202
 4070SOL    HW213110   6.934   3.456   3.196
 4071SOL     OW13111   2.744   0.494   3.750
 4071SOL    HW113112   2.770   0.435   3.674
 4071SOL    HW213113   2.652   0.471   3.781
 4072SOL     OW13114   0.920   0.023   3.810
 4072SOL    HW113115   0.895   6.951   3.794
 4072SOL    HW213116   0.966   0.031   3.898
 4073SOL     OW13117   2.512   5.049   1.846
 4073SOL    HW113118   2.526   5.122   1.780
 4073SOL    HW213119   2.589   4.985   1.843
 4074SOL     OW13120   0.876   2.495   7.001
 4074SOL    HW113121   0.947   2.479   0.046
 4074SOL    HW213122   0.790   2.456   0.010
 4075SOL     OW13123   5.339   0.284   3.593
 4075SOL    HW113124   5.375   0.357   3.534
 4075SOL    HW213125   5.239   0.288   3.594
 4076SOL     OW13126   2.117   2.491   2.913
 4076SOL    HW113127   2.193   2.427   2.919
 4076SOL    HW213128   2.152   2.584   2.915
 4077SOL     OW13129   3.323   0.905   0.884
 4077SOL    HW113130   3.239   0.851   0.875
 4077SOL    HW213131   3.397   0.847   0.919
 4078SOL     OW13132   4.916   3.630   2.859
 4078SOL    HW113133   4.995   3.669   2.811
 4078SOL    HW213134   4.914   3.531   2.844
 4079SOL     OW13135   6.139   0.115   4.313
 4079SOL    HW113136   6.103   0.149   4.226
 4079SOL    HW213137   6.062   0.092   4.373
 4080SOL     OW13138   3.529   2.832   3.306
 4080SOL    HW113139   3.546   2.734   3.320
 4080SOL    HW213140   3.572   2.861   3.221
 4081SOL     OW13141   2.838   2.093   6.543
 4081SOL    HW113142   2.758   2.098   6.603
 4081SOL    HW213143   2.812   2.124   6.451
 4082SOL     OW13144   1.102   2.053   5.601
 4082SOL    HW113145   1.143   2.044   5.511
 4082SOL    HW213146   1.166   2.099   5.663
 4083SOL     OW13147   6.035   5.453   2.755
 4083SOL    HW113148   6.091   5.504   2.690
 4083SOL    HW213149   6.038   5.356   2.734
 4084SOL     OW13150   5.225   0.227   1.880
 4084SOL    HW113151   5.322   0.250   1.888
 4084SOL    HW213152   5.199   0.224   1.783
 4085SOL     OW13153   2.396   4.450   2.732
 4085SOL    HW113154   2.470   4.514   2.749
 4085SOL    HW213155   2.368   4.407   2.818
 4086SOL     OW13156   5.622   4.884   5.375
 4086SOL    HW113157   5.546   4.891   5.440
 4086SOL    HW213158   5.630   4.970   5.324
 4087SOL     OW13159   1.926   0.918   1.678
 4087SOL    HW113160   1.952   0.822   1.686
 4087SOL    HW213161   1.914   0.957   1.769
 4088SOL     OW13162   0.210   1.841   5.830
 4088SOL    HW113163   0.196   1.742   5.834
 4088SOL    HW213164   0.152   1.880   5.759
 4089SOL     OW13165   1.295   0.870   2.447
 4089SOL    HW113166   1.369   0.802   2.441
 4089SOL    HW213167   1.292   0.906   2.541
 4090SOL     OW13168   2.643   2.787   5.599
 4090SOL    HW113169   2.551   2.811   5.568
 4090SOL    HW213170   2.706   2.790   5.521
 4091SOL     OW13171   3.238   6.089   2.279
 4091SOL    HW113172   3.147   6.127   2.300
 4091SOL    HW213173   3.299   6.104   2.357
 4092SOL     OW13174   5.578   2.095   5.928
 4092SOL    HW113175   5.674   2.090   5.957
 4092SOL    HW213176   5.525   2.026   5.978
 4093SOL     OW13177   5.674   4.067   3.396
 4093SOL    HW113178   5.625   3.979   3.400
 4093SOL    HW213179   5.729   4.070   3.312
 4094SOL     OW13180   6.649   6.918   0.371
 4094SOL    HW113181   6.696   7.005   0.382
 4094SOL    HW213182   6.575   6.911   0.438
 4095SOL     OW13183   1.972   5.400   0.618
 4095SOL    HW113184   1.910   5.321   0.623
 4095SOL    HW213185   2.049   5.377   0.558
 4096SOL     OW13186   0.328   0.342   6.915
 4096SOL    HW113187   0.301   0.368   7.008
 4096SOL    HW213188   0.428   0.332   6.911
 4097SOL     OW13189   0.585   3.928   5.203
 4097SOL    HW113190   0.580   3.984   5.285
 4097SOL    HW213191   0.667   3.953   5.151
 4098SOL     OW13192   1.080   5.942   2.206
 4098SOL    HW113193   1.044   5.887   2.281
 4098SOL    HW213194   1.041   6.034   2.210
 4099SOL     OW13195   6.733   3.439   5.472
 4099SOL    HW113196   6.833   3.446   5.477
 4099SOL    HW213197   6.708   3.356   5.423
 4100SOL     OW13198   2.325   0.781   2.931
 4100SOL    HW113199   2.373   0.784   2.843
 4100SOL    HW213200   2.342   0.694   2.976
 4101SOL     OW13201   6.598   5.994   6.508
 4101SOL    HW113202   6.669   6.041   6.456
 4101SOL    HW213203   6.627   5.900   6.526
 4102SOL     OW13204   1.167   6.153   0.364
 4102SOL    HW113205   1.218   6.212   0.302
 4102SOL    HW213206   1.171   6.059   0.332
 4103SOL     OW13207   2.212   5.810   2.790
 4103SOL    HW113208   2.221   5.779   2.885
 4103SOL    HW213209   2.217   5.731   2.729
 4104SOL     OW13210   1.708   6.044   5.263
 4104SOL    HW113211   1.793   6.056   5.210
 4104SOL    HW213212   1.640   5.997   5.207
 4105SOL     OW13213   3.993   6.878   2.119
 4105SOL    HW113214   3.935   6.920   2.189
 4105SOL    HW213215   3.960   6.786   2.098
 4106SOL     OW13216   1.263   6.961   2.190
 4106SOL    HW113217   1.206   6.880   2.177
 4106SOL    HW213218   1.282   6.973   2.288
 4107SOL     OW13219   1.836   0.802   0.806
 4107SOL    HW113220   1.898   0.834   0.878
 4107SOL    HW213221   1.803   0.880   0.754
 4108SOL     OW13222   6.150   6.457   5.807
 4108SOL    HW113223   6.210   6.536   5.816
 4108SOL    HW213224   6.189   6.378   5.854
 4109SOL     OW13225   5.267   6.349   4.743
 4109SOL    HW113226   5.226   6.362   4.833
 4109SOL    HW213227   5.356   6.305   4.753
 4110SOL     OW13228   4.612   3.014   0.397
 4110SOL    HW113229   4.552   3.091   0.420
 4110SOL    HW213230   4.690   3.048   0.345
 4111SOL     OW13231   5.431   4.932   4.226
 4111SOL    HW113232   5.476   4.855   4.272
 4111SOL    HW213233   5.420   5.008   4.291
 4112SOL     OW13234   4.632   5.855   4.328
 4112SOL    HW113235   4.688   5.886   4.405
 4112SOL    HW213236   4.651   5.912   4.248
 4113SOL     OW13237   4.467   4.964   4.831
 4113SOL    HW113238   4.388   5.025   4.831
 4113SOL    HW213239   4.534   4.996   4.764
 4114SOL     OW13240   0.187   1.240   1.952
 4114SOL    HW113241   0.117   1.266   2.018
 4114SOL    HW213242   0.223   1.322   1.907
 4115SOL     OW13243   4.169   5.838   3.775
 4115SOL    HW113244   4.206   5.931   3.771
 4115SOL    HW213245   4.070   5.840   3.757
 4116SOL     OW13246   5.826   3.180   3.439
 4116SOL    HW113247   5.868   3.162   3.350
 4116SOL    HW213248   5.771   3.102   3.467
 4117SOL     OW13249   0.413   1.197   3.250
 4117SOL    HW113250   0.509   1.170   3.244
 4117SOL    HW213251   0.406   1.297   3.247
 4118SOL     OW13252   1.230   0.266   1.345
 4118SOL    HW113253   1.308   0.217   1.386
 4118SOL    HW213254   1.195   0.213   1.268
 4119SOL     OW13255   6.967   0.786   4.670
 4119SOL    HW113256   0.000   0.734   4.607
 4119SOL    HW213257   6.888   0.731   4.697
 4120SOL     OW13258   2.133   0.699   6.084
 4120SOL    HW113259   2.220   0.676   6.128
 4120SOL    HW213260   2.060   0.642   6.121
 4121SOL     OW13261   6.704   0.986   2.354
 4121SOL    HW113262   6.613   0.974   2.315
 4121SOL    HW213263   6.698   0.985   2.454
 4122SOL     OW13264   0.787   4.960   3.385
 4122SOL    HW113265   0.725   4.898   3.337
 4122SOL    HW213266   0.734   5.021   3.444
 4123SOL     OW13267   5.428   4.473   1.410
 4123SOL    HW113268   5.361   4.457   1.482
 4123SOL    HW213269   5.395   4.435   1.324
 4124SOL     OW13270   6.227   6.476   6.724
 4124SOL    HW113271   6.245   6.513   6.815
 4124SOL    HW213272   6.236   6.548   6.656
 4125SOL     OW13273   6.917   2.803   6.962
 4125SOL    HW113274   7.010   2.769   6.949
 4125SOL    HW213275   6.918   2.874   0.008
 4126SOL     OW13276   1.111   3.778   4.253
 4126SOL    HW113277   1.013   3.786   4.276
 4126SOL    HW213278   1.120   3.744   4.160
 4127SOL     OW13279   5.385   2.386   4.174
 4127SOL    HW113280   5.352   2.396   4.080
 4127SOL    HW213281   5.361   2.468   4.227
 4128SOL     OW13282   6.622   2.733   6.471
 4128SOL    HW113283   6.540   2.783   6.499
 4128SOL    HW213284   6.609   2.635   6.490
 4129SOL     OW13285   2.973   1.366   1.027
 4129SOL    HW113286   2.990   1.372   1.125
 4129SOL    HW213287   2.878   1.339   1.011
 4130SOL     OW13288   5.976   2.562   0.516
 4130SOL    HW113289   6.024   2.627   0.574
 4130SOL    HW213290   6.008   2.469   0.535
 4131SOL     OW13291   4.523   6.594   3.419
 4131SOL    HW113292   4.575   6.571   3.501
 4131SOL    HW213293   4.565   6.673   3.374
 4132SOL     OW13294   6.846   4.411   3.219
 4132SOL    HW113295   6.923   4.369   3.170
 4132SOL    HW213296   6.776   4.439   3.153
 4133SOL     OW13297   5.518   6.344   3.034
 4133SOL    HW113298   5.580   6.266   3.034
 4133SOL    HW213299   5.521   6.389   2.944
 4134SOL     OW13300   1.623   3.455   1.478
 4134SOL    HW113301   1.668   3.526   1.533
 4134SOL    HW213302   1.679   3.372   1.478
 4135SOL     OW13303   6.030   1.197   0.998
 4135SOL    HW113304   6.111   1.172   0.945
 4135SOL    HW213305   6.042   1.288   1.036
 4136SOL     OW13306   0.701   4.689   0.382
 4136SOL    HW113307   0.716   4.599   0.424
 4136SOL    HW213308   0.672   4.677   0.287
 4137SOL     OW13309   0.411   3.304   5.996
 4137SOL    HW113310   0.386   3.375   5.931
 4137SOL    HW213311   0.494   3.258   5.965
 4138SOL     OW13312   4.706   6.876   6.456
 4138SOL    HW113313   4.752   6.875   6.544
 4138SOL    HW213314   4.734   6.957   6.404
 4139SOL     OW13315   1.593   4.241   2.485
 4139SOL    HW113316   1.534   4.320   2.496
 4139SOL    HW213317   1.674   4.251   2.544
 4140SOL     OW13318   2.079   6.959   6.795
 4140SOL    HW113319   2.079   7.020   6.716
 4140SOL    HW213320   2.009   6.889   6.783
 4141SOL     OW13321   4.885   1.045   6.188
 4141SOL    HW113322   4.820   1.033   6.113
 4141SOL    HW213323   4.969   1.086   6.153
 4142SOL     OW13324   6.303   5.592   1.240
 4142SOL    HW113325   6.250   5.580   1.156
 4142SOL    HW213326   6.381   5.652   1.222
 4143SOL     OW13327   5.623   3.953   6.478
 4143SOL    HW113328   5.649   4.031   6.421
 4143SOL    HW213329   5.538   3.913   6.444
 4144SOL     OW13330   4.431   0.650   1.528
 4144SOL    HW113331   4.476   0.708   1.460
 4144SOL    HW213332   4.496   0.627   1.601
 4145SOL     OW13333   5.418   0.301   1.098
 4145SOL    HW113334   5.373   0.253   1.174
 4145SOL    HW213335   5.372   0.388   1.082
 4146SOL     OW13336   4.224   6.973   1.737
 4146SOL    HW113337   4.236   6.989   1.835
 4146SOL    HW213338   4.313   6.957   1.694
 4147SOL     OW13339   4.580   5.038   0.062
 4147SOL    HW113340   4.498   5.069   0.014
 4147SOL    HW213341   4.641   5.116   0.077
 4148SOL     OW13342   2.831   1.406   5.751
 4148SOL    HW113343   2.902   1.472   5.728
 4148SOL    HW213344   2.746   1.429   5.704
 4149SOL     OW13345   1.499   3.827   5.934
 4149SOL    HW113346   1.400   3.827   5.925
 4149SOL    HW213347   1.537   3.748   5.886
 4150SOL     OW13348   5.450   1.244   0.219
 4150SOL    HW113349   5.351   1.231   0.215
 4150SOL    HW213350   5.471   1.331   0.262
 4151SOL     OW13351   2.630   5.832   4.820
 4151SOL    HW113352   2.587   5.830   4.910
 4151SOL    HW213353   2.658   5.925   4.798
 4152SOL     OW13354   2.938   3.724   1.169
 4152SOL    HW113355   2.893   3.679   1.246
 4152SOL    HW213356   3.001   3.794   1.204
 4153SOL     OW13357   6.833   5.573   2.138
 4153SOL    HW113358   6.847   5.645   2.070
 4153SOL    HW213359   6.903   5.580   2.209
 4154SOL     OW13360   0.345   6.828   3.606
 4154SOL    HW113361   0.445   6.825   3.617
 4154SOL    HW213362   0.319   6.910   3.555
 4155SOL     OW13363   6.489   0.650   2.177
 4155SOL    HW113364   6.411   0.607   2.222
 4155SOL    HW213365   6.481   0.749   2.182
 4156SOL     OW13366   0.301   4.695   5.413
 4156SOL    HW113367   0.390   4.720   5.376
 4156SOL    HW213368   0.237   4.677   5.338
 4157SOL     OW13369   5.246   6.145   0.803
 4157SOL    HW113370   5.211   6.165   0.894
 4157SOL    HW213371   5.332   6.093   0.810
 4158SOL     OW13372   0.845   2.835   0.820
 4158SOL    HW113373   0.780   2.765   0.790
 4158SOL    HW213374   0.882   2.811   0.909
 4159SOL     OW13375   3.042   0.739   4.049
 4159SOL    HW113376   3.104   0.689   4.110
 4159SOL    HW213377   3.079   0.736   3.956
 4160SOL     OW13378   1.613   6.533   6.068
 4160SOL    HW113379   1.530   6.477   6.070
 4160SOL    HW213380   1.693   6.475   6.081
 4161SOL     OW13381   3.480   3.145   3.211
 4161SOL    HW113382   3.538   3.077   3.166
 4161SOL    HW213383   3.450   3.212   3.144
 4162SOL     OW13384   5.326   5.938   1.055
 4162SOL    HW113385   5.298   5.876   0.981
 4162SOL    HW213386   5.297   5.901   1.143
 4163SOL     OW13387   3.669   5.606   1.572
 4163SOL    HW113388   3.756   5.580   1.530
 4163SOL    HW213389   3.595   5.552   1.532
 4164SOL     OW13390   5.333   1.908   6.435
 4164SOL    HW113391   5.348   1.829   6.376
 4164SOL    HW213392   5.242   1.945   6.418
 4165SOL     OW13393   3.825   1.529   4.294
 4165SOL    HW113394   3.856   1.434   4.288
 4165SOL    HW213395   3.730   1.535   4.263
 4166SOL     OW13396   6.420   2.265   1.539
 4166SOL    HW113397   6.393   2.203   1.613
 4166SOL    HW213398   6.508   2.237   1.502
 4167SOL     OW13399   3.758   5.256   4.495
 4167SOL    HW113400   3.783   5.189   4.425
 4167SOL    HW213401   3.775   5.349   4.460
 4168SOL     OW13402   5.573   4.538   0.423
 4168SOL    HW113403   5.523   4.475   0.363
 4168SOL    HW213404   5.510   4.577   0.490
 4169SOL     OW13405   5.137   3.396   6.615
 4169SOL    HW113406   5.182   3.312   6.643
 4169SOL    HW213407   5.085   3.380   6.531
 4170SOL     OW13408   0.984   2.358   5.449
 4170SOL    HW113409   0.932   2.444   5.456
 4170SOL    HW213410   0.930   2.284   5.489
 4171SOL     OW13411   0.395   1.625   6.059
 4171SOL    HW113412   0.419   1.555   5.992
 4171SOL    HW213413   0.462   1.624   6.133
 4172SOL     OW13414   2.924   2.321   6.334
 4172SOL    HW113415   2.992   2.248   6.318
 4172SOL    HW213416   2.834   2.288   6.306
 4173SOL     OW13417   4.672   1.719   5.728
 4173SOL    HW113418   4.610   1.683   5.659
 4173SOL    HW213419   4.660   1.669   5.814
 4174SOL     OW13420   4.265   6.049   4.041
 4174SOL    HW113421   4.198   6.080   3.973
 4174SOL    HW213422   4.352   6.030   3.996
 4175SOL     OW13423   1.628   4.607   6.296
 4175SOL    HW113424   1.562   4.627   6.368
 4175SOL    HW213425   1.659   4.512   6.306
 4176SOL     OW13426   4.785   6.907   5.557
 4176SOL    HW113427   4.809   6.930   5.651
 4176SOL    HW213428   4.869   6.896   5.503
 4177SOL     OW13429   4.668   4.883   3.006
 4177SOL    HW113430   4.666   4.794   3.051
 4177SOL    HW213431   4.649   4.872   2.908
 4178SOL     OW13432   3.808   6.352   1.382
 4178SOL    HW113433   3.714   6.322   1.399
 4178SOL    HW213434   3.829   6.341   1.285
 4179SOL     OW13435   4.408   2.535   0.177
 4179SOL    HW113436   4.363   2.591   0.107
 4179SOL    HW213437   4.371   2.442   0.175
 4180SOL     OW13438   4.119   3.669   0.238
 4180SOL    HW113439   4.147   3.649   0.144
 4180SOL    HW213440   4.182   3.625   0.302
 4181SOL     OW13441   5.643   6.566   5.832
 4181SOL    HW113442   5.596   6.577   5.919
 4181SOL    HW213443   5.738   6.540   5.848
 4182SOL     OW13444   0.994   6.158   5.689
 4182SOL    HW113445   0.967   6.240   5.741
 4182SOL    HW213446   0.918   6.093   5.688
 4183SOL     OW13447   4.469   1.937   0.577
 4183SOL    HW113448   4.465   2.030   0.540
 4183SOL    HW213449   4.510   1.876   0.509
 4184SOL     OW13450   3.521   5.531   3.119
 4184SOL    HW113451   3.452   5.463   3.096
 4184SOL    HW213452   3.610   5.504   3.081
 4185SOL     OW13453   4.826   3.754   3.322
 4185SOL    HW113454   4.865   3.814   3.251
 4185SOL    HW213455   4.791   3.671   3.279
 4186SOL     OW13456   1.887   5.587   0.045
 4186SOL    HW113457   1.974   5.602   0.091
 4186SOL    HW213458   1.844   5.504   0.081
 4187SOL     OW13459   2.289   3.759   5.956
 4187SOL    HW113460   2.319   3.683   5.900
 4187SOL    HW213461   2.249   3.830   5.898
 4188SOL     OW13462   4.608   0.141   6.983
 4188SOL    HW113463   4.644   0.126   6.891
 4188SOL    HW213464   4.684   0.149   0.024
 4189SOL     OW13465   4.575   4.742   3.363
 4189SOL    HW113466   4.573   4.833   3.323
 4189SOL    HW213467   4.597   4.749   3.460
 4190SOL     OW13468   6.161   6.663   1.462
 4190SOL    HW113469   6.232   6.630   1.400
 4190SOL    HW213470   6.089   6.709   1.408
 4191SOL     OW13471   4.291   3.388   6.707
 4191SOL    HW113472   4.293   3.487   6.724
 4191SOL    HW213473   4.221   3.346   6.764
 4192SOL     OW13474   1.660   3.688   6.554
 4192SOL    HW113475   1.625   3.746   6.481
 4192SOL    HW213476   1.691   3.601   6.516
 4193SOL     OW13477   0.216   0.410   0.125
 4193SOL    HW113478   0.249   0.423   0.218
 4193SOL    HW213479   0.131   0.357   0.127
 4194SOL     OW13480   5.198   1.448   6.130
 4194SOL    HW113481   5.204   1.526   6.068
 4194SOL    HW213482   5.219   1.477   6.223
 4195SOL     OW13483   2.857   6.906   1.060
 4195SOL    HW113484   2.929   6.975   1.070
 4195SOL    HW213485   2.794   6.933   0.988
 4196SOL     OW13486   6.714   2.357   3.033
 4196SOL    HW113487   6.674   2.330   3.121
 4196SOL    HW213488   6.737   2.275   2.981
 4197SOL     OW13489   3.325   1.132   6.990
 4197SOL    HW113490   3.360   1.219   0.001
 4197SOL    HW213491   3.227   1.138   6.977
 4198SOL     OW13492   5.985   2.169   2.176
 4198SOL    HW113493   5.966   2.221   2.092
 4198SOL    HW213494   6.079   2.134   2.172
 4199SOL     OW13495   0.168   3.681   6.543
 4199SOL    HW113496   0.166   3.583   6.564
 4199SOL    HW213497   0.076   3.718   6.551
 4200SOL     OW13498   4.918   1.680   3.745
 4200SOL    HW113499   4.985   1.694   3.672
 4200SOL    HW213500   4.961   1.630   3.820
 4201SOL     OW13501   6.262   6.646   4.858
 4201SOL    HW113502   6.263   6.573   4.927
 4201SOL    HW213503   6.244   6.606   4.768
 4202SOL     OW13504   4.592   4.037   1.671
 4202SOL    HW113505   4.683   4.075   1.652
 4202SOL    HW213506   4.547   4.093   1.741
 4203SOL     OW13507   5.788   4.349   5.605
 4203SOL    HW113508   5.769   4.380   5.698
 4203SOL    HW213509   5.795   4.250   5.604
 4204SOL     OW13510   1.819   4.120   6.544
 4204SOL    HW113511   1.755   4.183   6.587
 4204SOL    HW213512   1.798   4.112   6.446
 4205SOL     OW13513   4.573   6.531   6.560
 4205SOL    HW113514   4.653   6.552   6.503
 4205SOL    HW213515   4.597   6.460   6.627
 4206SOL     OW13516   2.372   1.813   3.921
 4206SOL    HW113517   2.377   1.720   3.959
 4206SOL    HW213518   2.290   1.820   3.864
 4207SOL     OW13519   1.009   2.595   3.038
 4207SOL    HW113520   0.997   2.505   2.998
 4207SOL    HW213521   0.962   2.599   3.126
 4208SOL     OW13522   1.992   1.919   3.670
 4208SOL    HW113523   2.054   1.991   3.700
 4208SOL    HW213524   1.908   1.923   3.725
 4209SOL     OW13525   6.865   5.746   1.933
 4209SOL    HW113526   6.952   5.791   1.912
 4209SOL    HW213527   6.817   5.727   1.848
 4210SOL     OW13528   3.011   4.382   5.313
 4210SOL    HW113529   2.979   4.449   5.245
 4210SOL    HW213530   3.111   4.382   5.316
 4211SOL     OW13531   3.535   2.780   5.317
 4211SOL    HW113532   3.588   2.830   5.385
 4211SOL    HW213533   3.556   2.682   5.323
 4212SOL     OW13534   6.939   2.040   2.637
 4212SOL    HW113535   6.886   1.989   2.568
 4212SOL    HW213536   6.949   1.983   2.719
 4213SOL     OW13537   3.605   0.262   3.898
 4213SOL    HW113538   3.537   0.240   3.828
 4213SOL    HW213539   3.695   0.268   3.855
 4214SOL     OW13540   6.812   5.657   3.344
 4214SOL    HW113541   6.833   5.588   3.275
 4214SOL    HW213542   6.716   5.649   3.370
 4215SOL     OW13543   6.013   7.005   5.688
 4215SOL    HW113544   6.056   0.047   5.626
 4215SOL    HW213545   6.062   6.918   5.684
 4216SOL     OW13546   2.516   5.435   1.895
 4216SOL    HW113547   2.482   5.388   1.814
 4216SOL    HW213548   2.447   5.498   1.928
 4217SOL     OW13549   1.193   0.195   3.116
 4217SOL    HW113550   1.163   0.190   3.211
 4217SOL    HW213551   1.276   0.251   3.111
 4218SOL     OW13552   2.375   1.054   1.754
 4218SOL    HW113553   2.300   1.019   1.810
 4218SOL    HW213554   2.401   0.986   1.686
 4219SOL     OW13555   3.498   4.986   3.087
 4219SOL    HW113556   3.520   5.083   3.095
 4219SOL    HW213557   3.532   4.938   3.168
 4220SOL     OW13558   6.110   1.849   1.328
 4220SOL    HW113559   6.112   1.871   1.230
 4220SOL    HW213560   6.053   1.915   1.377
 4221SOL     OW13561   0.505   6.140   0.673
 4221SOL    HW113562   0.543   6.220   0.625
 4221SOL    HW213563   0.554   6.127   0.759
 4222SOL     OW13564   4.888   3.392   4.306
 4222SOL    HW113565   4.890   3.481   4.261
 4222SOL    HW213566   4.960   3.388   4.376
 4223SOL     OW13567   3.464   3.749   3.161
 4223SOL    HW113568   3.443   3.838   3.120
 4223SOL    HW213569   3.379   3.698   3.176
 4224SOL     OW13570   4.520   4.827   4.529
 4224SOL    HW113571   4.600   4.785   4.485
 4224SOL    HW213572   4.537   4.925   4.541
 4225SOL     OW13573   1.153   1.688   5.710
 4225SOL    HW113574   1.094   1.650   5.781
 4225SOL    HW213575   1.233   1.629   5.699
 4226SOL     OW13576   0.729   5.271   5.226
 4226SOL    HW113577   0.744   5.175   5.199
 4226SOL    HW213578   0.632   5.286   5.244
 4227SOL     OW13579   4.719   5.399   1.802
 4227SOL    HW113580   4.673   5.312   1.818
 4227SOL    HW213581   4.818   5.387   1.811
 4228SOL     OW13582   1.322   4.700   4.307
 4228SOL    HW113583   1.414   4.734   4.287
 4228SOL    HW213584   1.255   4.752   4.254
 4229SOL     OW13585   5.261   5.589   5.445
 4229SOL    HW113586   5.289   5.642   5.526
 4229SOL    HW213587   5.341   5.542   5.407
 4230SOL     OW13588   6.801   1.228   1.553
 4230SOL    HW113589   6.796   1.313   1.606
 4230SOL    HW213590   6.896   1.204   1.538
 4231SOL     OW13591   0.298   1.326   6.068
 4231SOL    HW113592   0.253   1.391   6.006
 4231SOL    HW213593   0.395   1.322   6.046
 4232SOL     OW13594   1.606   4.739   4.308
 4232SOL    HW113595   1.683   4.685   4.342
 4232SOL    HW213596   1.616   4.834   4.338
 4233SOL     OW13597   5.186   5.352   2.434
 4233SOL    HW113598   5.276   5.362   2.392
 4233SOL    HW213599   5.131   5.289   2.379
 4234SOL     OW13600   3.628   5.204   5.778
 4234SOL    HW113601   3.619   5.187   5.680
 4234SOL    HW213602   3.538   5.224   5.817
 4235SOL     OW13603   6.996   5.744   6.322
 4235SOL    HW113604   0.065   5.779   6.313
 4235SOL    HW213605   6.932   5.819   6.336
 4236SOL     OW13606   0.560   5.719   3.063
 4236SOL    HW113607   0.461   5.718   3.074
 4236SOL    HW213608   0.595   5.811   3.082
 4237SOL     OW13609   0.254   4.642   4.191
 4237SOL    HW113610   0.189   4.588   4.137
 4237SOL    HW213611   0.311   4.697   4.129
 4238SOL     OW13612   2.906   6.202   2.009
 4238SOL    HW113613   2.831   6.211   2.074
 4238SOL    HW213614   2.977   6.143   2.047
 4239SOL     OW13615   4.356   1.307   4.012
 4239SOL    HW113616   4.328   1.398   3.982
 4239SOL    HW213617   4.443   1.284   3.969
 4240SOL     OW13618   5.765   6.683   1.558
 4240SOL    HW113619   5.750   6.598   1.508
 4240SOL    HW213620   5.769   6.664   1.656
 4241SOL     OW13621   6.665   3.906   0.227
 4241SOL    HW113622   6.634   3.925   0.320
 4241SOL    HW213623   6.642   3.983   0.168
 4242SOL     OW13624   2.876   2.260   2.982
 4242SOL    HW113625   2.806   2.290   3.047
 4242SOL    HW213626   2.951   2.216   3.031
 4243SOL     OW13627   4.510   1.366   2.761
 4243SOL    HW113628   4.515   1.456   2.804
 4243SOL    HW213629   4.436   1.365   2.695
 4244SOL     OW13630   3.229   3.073   4.708
 4244SOL    HW113631   3.323   3.061   4.741
 4244SOL    HW213632   3.221   3.034   4.616
 4245SOL     OW13633   6.225   0.160   0.046
 4245SOL    HW113634   6.134   0.195   0.025
 4245SOL    HW213635   6.289   0.236   0.053
 4246SOL     OW13636   6.988   3.928   6.881
 4246SOL    HW113637   6.976   3.923   6.980
 4246SOL    HW213638   0.062   3.938   6.859
 4247SOL     OW13639   0.756   5.671   5.206
 4247SOL    HW113640   0.815   5.753   5.201
 4247SOL    HW213641   0.814   5.590   5.218
 4248SOL     OW13642   2.156   3.761   6.179
 4248SOL    HW113643   2.198   3.760   6.270
 4248SOL    HW213644   2.224   3.787   6.111
 4249SOL     OW13645   5.267   4.327   5.389
 4249SOL    HW113646   5.263   4.284   5.299
 4249SOL    HW213647   5.312   4.266   5.454
 4250SOL     OW13648   1.611   4.494   3.211
 4250SOL    HW113649   1.525   4.508   3.261
 4250SOL    HW213650   1.688   4.511   3.272
 4251SOL     OW13651   5.204   4.294   0.405
 4251SOL    HW113652   5.276   4.355   0.374
 4251SOL    HW213653   5.165   4.245   0.326
 4252SOL     OW13654   0.252   5.668   5.403
 4252SOL    HW113655   0.347   5.641   5.384
 4252SOL    HW213656   0.214   5.605   5.471
 4253SOL     OW13657   4.029   6.264   2.598
 4253SOL    HW113658   4.006   6.354   2.561
 4253SOL    HW213659   4.040   6.199   2.522
 4254SOL     OW13660   3.123   4.152   1.575
 4254SOL    HW113661   3.027   4.170   1.556
 4254SOL    HW213662   3.141   4.054   1.566
 4255SOL     OW13663   1.112   2.312   4.430
 4255SOL    HW113664   1.098   2.347   4.523
 4255SOL    HW213665   1.123   2.388   4.367
 4256SOL     OW13666   1.901   1.021   1.934
 4256SOL    HW113667   1.928   1.114   1.960
 4256SOL    HW213668   1.806   1.022   1.904
 4257SOL     OW13669   4.228   2.180   5.083
 4257SOL    HW113670   4.224   2.279   5.071
 4257SOL    HW213671   4.324   2.152   5.095
 4258SOL     OW13672   5.223   6.529   2.804
 4258SOL    HW113673   5.222   6.577   2.891
 4258SOL    HW213674   5.311   6.482   2.792
 4259SOL     OW13675   1.761   2.907   0.527
 4259SOL    HW113676   1.814   2.900   0.611
 4259SOL    HW213677   1.795   2.984   0.473
 4260SOL     OW13678   3.903   5.913   3.699
 4260SOL    HW113679   3.865   5.999   3.734
 4260SOL    HW213680   3.881   5.903   3.602
 4261SOL     OW13681   1.336   1.375   2.962
 4261SOL    HW113682   1.432   1.379   2.987
 4261SOL    HW213683   1.312   1.454   2.905
 4262SOL     OW13684   6.926   6.638   6.383
 4262SOL    HW113685   6.863   6.577   6.431
 4262SOL    HW213686   6.938   6.606   6.289
 4263SOL     OW13687   4.104   5.319   6.582
 4263SOL    HW113688   4.011   5.347   6.606
 4263SOL    HW213689   4.169   5.360   6.647
 4264SOL     OW13690   0.018   0.370   1.181
 4264SOL    HW113691   0.091   0.354   1.247
 4264SOL    HW213692   6.968   0.305   1.196
 4265SOL     OW13693   0.970   2.849   0.219
 4265SOL    HW113694   0.939   2.801   0.136
 4265SOL    HW213695   1.058   2.810   0.249
 4266SOL     OW13696   3.099   4.437   1.363
 4266SOL    HW113697   3.118   4.450   1.460
 4266SOL    HW213698   3.165   4.489   1.308
 4267SOL     OW13699   1.940   4.071   6.108
 4267SOL    HW113700   1.871   4.018   6.059
 4267SOL    HW213701   1.970   4.148   6.052
 4268SOL     OW13702   1.787   0.681   0.456
 4268SOL    HW113703   1.752   0.591   0.431
 4268SOL    HW213704   1.863   0.671   0.521
 4269SOL     OW13705   3.080   3.613   0.950
 4269SOL    HW113706   3.028   3.655   1.025
 4269SOL    HW213707   3.020   3.599   0.871
 4270SOL     OW13708   3.905   2.801   6.074
 4270SOL    HW113709   3.813   2.784   6.108
 4270SOL    HW213710   3.972   2.757   6.134
 4271SOL     OW13711   1.198   0.108   0.469
 4271SOL    HW113712   1.155   0.019   0.481
 4271SOL    HW213713   1.134   0.180   0.496
 4272SOL     OW13714   0.178   4.218   3.654
 4272SOL    HW113715   0.218   4.298   3.698
 4272SOL    HW213716   0.103   4.247   3.594
 4273SOL     OW13717   5.476   6.254   4.512
 4273SOL    HW113718   5.493   6.219   4.604
 4273SOL    HW213719   5.397   6.207   4.473
 4274SOL     OW13720   2.134   0.344   4.049
 4274SOL    HW113721   2.051   0.336   3.993
 4274SOL    HW213722   2.177   0.433   4.032
 4275SOL     OW13723   1.401   0.077   6.497
 4275SOL    HW113724   1.447   0.027   6.423
 4275SOL    HW213725   1.439   0.169   6.503
 4276SOL     OW13726   1.856   4.442   2.395
 4276SOL    HW113727   1.866   4.405   2.488
 4276SOL    HW213728   1.922   4.516   2.382
 4277SOL     OW13729   0.940   5.590   4.915
 4277SOL    HW113730   0.974   5.506   4.957
 4277SOL    HW213731   0.967   5.592   4.818
 4278SOL     OW13732   0.797   6.653   5.725
 4278SOL    HW113733   0.767   6.603   5.643
 4278SOL    HW213734   0.799   6.751   5.706
 4279SOL     OW13735   3.065   5.967   3.956
 4279SOL    HW113736   3.133   5.962   3.882
 4279SOL    HW213737   2.985   5.912   3.931
 4280SOL     OW13738   4.880   3.221   3.918
 4280SOL    HW113739   4.977   3.244   3.931
 4280SOL    HW213740   4.826   3.305   3.923
 4281SOL     OW13741   2.755   4.061   5.263
 4281SOL    HW113742   2.699   4.043   5.344
 4281SOL    HW213743   2.696   4.067   5.182
 4282SOL     OW13744   0.928   3.154   0.921
 4282SOL    HW113745   0.969   3.243   0.944
 4282SOL    HW213746   1.001   3.088   0.901
 4283SOL     OW13747   2.223   0.552   4.249
 4283SOL    HW113748   2.300   0.489   4.243
 4283SOL    HW213749   2.250   0.633   4.301
 4284SOL     OW13750   6.064   1.631   3.221
 4284SOL    HW113751   6.155   1.627   3.181
 4284SOL    HW213752   6.029   1.725   3.217
 4285SOL     OW13753   0.974   6.422   4.741
 4285SOL    HW113754   0.996   6.519   4.728
 4285SOL    HW213755   0.965   6.378   4.652
 4286SOL     OW13756   5.847   5.740   0.137
 4286SOL    HW113757   5.789   5.772   0.062
 4286SOL    HW213758   5.866   5.642   0.124
 4287SOL     OW13759   3.743   6.442   5.341
 4287SOL    HW113760   3.796   6.444   5.256
 4287SOL    HW213761   3.768   6.521   5.397
 4288SOL     OW13762   1.334   6.505   3.119
 4288SOL    HW113763   1.405   6.576   3.127
 4288SOL    HW213764   1.373   6.424   3.077
 4289SOL     OW13765   6.200   3.700   0.396
 4289SOL    HW113766   6.298   3.700   0.378
 4289SOL    HW213767   6.151   3.674   0.313
 4290SOL     OW13768   2.221   1.132   2.767
 4290SOL    HW113769   2.185   1.086   2.849
 4290SOL    HW213770   2.321   1.126   2.767
 4291SOL     OW13771   6.635   4.490   1.223
 4291SOL    HW113772   6.718   4.469   1.172
 4291SOL    HW213773   6.561   4.509   1.159
 4292SOL     OW13774   5.658   5.698   5.963
 4292SOL    HW113775   5.647   5.610   5.916
 4292SOL    HW213776   5.730   5.751   5.918
 4293SOL     OW13777   0.266   2.426   6.272
 4293SOL    HW113778   0.356   2.436   6.229
 4293SOL    HW213779   0.279   2.390   6.365
 4294SOL     OW13780   4.992   2.317   5.955
 4294SOL    HW113781   4.905   2.319   5.905
 4294SOL    HW213782   5.001   2.230   6.003
 4295SOL     OW13783   3.552   6.361   4.953
 4295SOL    HW113784   3.499   6.315   5.024
 4295SOL    HW213785   3.596   6.293   4.895
 4296SOL     OW13786   2.571   0.988   2.023
 4296SOL    HW113787   2.550   1.036   1.937
 4296SOL    HW213788   2.608   1.053   2.089
 4297SOL     OW13789   5.762   0.992   6.965
 4297SOL    HW113790   5.692   1.059   6.990
 4297SOL    HW213791   5.757   0.974   6.866
 4298SOL     OW13792   2.602   5.089   1.439
 4298SOL    HW113793   2.560   5.179   1.452
 4298SOL    HW213794   2.699   5.093   1.464
 4299SOL     OW13795   1.127   4.399   6.025
 4299SOL    HW113796   1.037   4.443   6.016
 4299SOL    HW213797   1.197   4.470   6.032
 4300SOL     OW13798   5.564   0.115   6.127
 4300SOL    HW113799   5.573   0.057   6.208
 4300SOL    HW213800   5.585   0.061   6.045
 4301SOL     OW13801   2.716   1.472   0.520
 4301SOL    HW113802   2.656   1.428   0.453
 4301SOL    HW213803   2.809   1.438   0.509
 4302SOL     OW13804   1.361   6.537   6.986
 4302SOL    HW113805   1.456   6.510   6.967
 4302SOL    HW213806   1.351   6.556   0.060
 4303SOL     OW13807   0.119   3.931   1.627
 4303SOL    HW113808   0.123   3.892   1.719
 4303SOL    HW213809   0.150   4.026   1.629
 4304SOL     OW13810   3.265   2.928   5.013
 4304SOL    HW113811   3.356   2.957   4.984
 4304SOL    HW213812   3.210   2.905   4.932
 4305SOL     OW13813   5.890   0.988   5.255
 4305SOL    HW113814   5.978   0.957   5.219
 4305SOL    HW213815   5.905   1.063   5.319
 4306SOL     OW13816   6.257   5.988   6.682
 4306SOL    HW113817   6.325   5.993   6.610
 4306SOL    HW213818   6.230   6.081   6.709
 4307SOL     OW13819   5.166   3.596   0.236
 4307SOL    HW113820   5.224   3.515   0.224
 4307SOL    HW213821   5.091   3.593   0.170
 4308SOL     OW13822   4.115   6.788   5.152
 4308SOL    HW113823   4.123   6.881   5.186
 4308SOL    HW213824   4.130   6.723   5.226
 4309SOL     OW13825   1.339   1.207   1.052
 4309SOL    HW113826   1.263   1.243   1.106
 4309SOL    HW213827   1.409   1.172   1.114
 4310SOL     OW13828   1.654   0.581   2.603
 4310SOL    HW113829   1.721   0.512   2.632
 4310SOL    HW213830   1.701   0.669   2.590
 4311SOL     OW13831   1.653   5.738   4.203
 4311SOL    HW113832   1.585   5.697   4.265
 4311SOL    HW213833   1.665   5.678   4.124
 4312SOL     OW13834   1.423   5.554   1.521
 4312SOL    HW113835   1.366   5.476   1.497
 4312SOL    HW213836   1.508   5.550   1.469
 4313SOL     OW13837   4.928   0.382   1.860
 4313SOL    HW113838   4.986   0.307   1.889
 4313SOL    HW213839   4.897   0.366   1.766
 4314SOL     OW13840   5.434   3.410   3.012
 4314SOL    HW113841   5.359   3.377   3.070
 4314SOL    HW213842   5.502   3.338   3.002
 4315SOL     OW13843   2.340   1.459   1.917
 4315SOL    HW113844   2.252   1.505   1.915
 4315SOL    HW213845   2.350   1.409   2.003
 4316SOL     OW13846   0.322   0.760   2.182
 4316SOL    HW113847   0.364   0.774   2.092
 4316SOL    HW213848   0.274   0.843   2.210
 4317SOL     OW13849   4.062   0.544   3.732
 4317SOL    HW113850   4.021   0.498   3.812
 4317SOL    HW213851   4.119   0.478   3.682
 4318SOL     OW13852   6.996   3.032   4.471
 4318SOL    HW113853   0.066   3.057   4.447
 4318SOL    HW213854   6.977   3.058   4.566
 4319SOL     OW13855   2.558   3.286   5.706
 4319SOL    HW113856   2.635   3.249   5.758
 4319SOL    HW213857   2.585   3.371   5.661
 4320SOL     OW13858   0.657   5.963   3.106
 4320SOL    HW113859   0.725   5.996   3.171
 4320SOL    HW213860   0.671   6.007   3.018
 4321SOL     OW13861   0.316   0.879   4.742
 4321SOL    HW113862   0.261   0.963   4.746
 4321SOL    HW213863   0.307   0.830   4.829
 4322SOL     OW13864   5.726   1.057   0.716
 4322SOL    HW113865   5.786   0.979   0.696
 4322SOL    HW213866   5.779   1.141   0.721
 4323SOL     OW13867   6.926   2.196   3.459
 4323SOL    HW113868   6.833   2.222   3.482
 4323SOL    HW213869   6.933   2.183   3.360
 4324SOL     OW13870   6.119   3.059   5.879
 4324SOL    HW113871   6.186   3.020   5.816
 4324SOL    HW213872   6.162   3.129   5.935
 4325SOL     OW13873   1.906   1.552   5.416
 4325SOL    HW113874   1.884   1.510   5.504
 4325SOL    HW213875   1.884   1.488   5.343
 4326SOL     OW13876   6.308   2.321   5.584
 4326SOL    HW113877   6.271   2.315   5.492
 4326SOL    HW213878   6.373   2.247   5.599
 4327SOL     OW13879   5.188   0.557   3.090
 4327SOL    HW113880   5.157   0.638   3.140
 4327SOL    HW213881   5.288   0.550   3.097
 4328SOL     OW13882   5.368   5.237   0.614
 4328SOL    HW113883   5.461   5.199   0.617
 4328SOL    HW213884   5.303   5.167   0.644
 4329SOL     OW13885   4.539   1.628   6.291
 4329SOL    HW113886   4.464   1.573   6.328
 4329SOL    HW213887   4.529   1.723   6.320
 4330SOL     OW13888   0.750   0.359   6.573
 4330SOL    HW113889   0.803   0.426   6.625
 4330SOL    HW213890   0.653   0.386   6.572
 4331SOL     OW13891   5.220   2.718   0.607
 4331SOL    HW113892   5.293   2.727   0.538
 4331SOL    HW213893   5.166   2.636   0.587
 4332SOL     OW13894   5.406   3.591   1.623
 4332SOL    HW113895   5.435   3.562   1.714
 4332SOL    HW213896   5.345   3.522   1.584
 4333SOL     OW13897   5.521   1.845   5.395
 4333SOL    HW113898   5.471   1.759   5.410
 4333SOL    HW213899   5.457   1.922   5.402
 4334SOL     OW13900   4.582   0.230   1.819
 4334SOL    HW113901   4.521   0.265   1.890
 4334SOL    HW213902   4.643   0.161   1.859
 4335SOL     OW13903   3.540   4.427   5.640
 4335SOL    HW113904   3.481   4.485   5.695
 4335SOL    HW213905   3.635   4.452   5.654
 4336SOL     OW13906   1.551   6.342   4.581
 4336SOL    HW113907   1.477   6.295   4.630
 4336SOL    HW213908   1.518   6.367   4.490
 4337SOL     OW13909   0.938   4.960   0.174
 4337SOL    HW113910   0.996   5.027   0.129
 4337SOL    HW213911   0.994   4.888   0.213
 4338SOL     OW13912   6.480   6.202   3.772
 4338SOL    HW113913   6.516   6.160   3.689
 4338SOL    HW213914   6.418   6.276   3.749
 4339SOL     OW13915   6.192   0.881   6.393
 4339SOL    HW113916   6.284   0.887   6.430
 4339SOL    HW213917   6.188   0.928   6.304
 4340SOL     OW13918   4.895   3.236   2.126
 4340SOL    HW113919   4.978   3.195   2.088
 4340SOL    HW213920   4.815   3.187   2.093
 4341SOL     OW13921   0.959   3.566   6.876
 4341SOL    HW113922   1.004   3.646   6.836
 4341SOL    HW213923   1.011   3.484   6.851
 4342SOL     OW13924   6.785   2.121   2.898
 4342SOL    HW113925   6.688   2.120   2.872
 4342SOL    HW213926   6.841   2.128   2.815
 4343SOL     OW13927   2.147   1.877   1.412
 4343SOL    HW113928   2.212   1.811   1.449
 4343SOL    HW213929   2.185   1.969   1.419
 4344SOL     OW13930   2.081   3.945   2.969
 4344SOL    HW113931   2.113   3.951   2.875
 4344SOL    HW213932   2.090   3.850   3.001
 4345SOL     OW13933   2.447   1.430   5.893
 4345SOL    HW113934   2.505   1.451   5.972
 4345SOL    HW213935   2.411   1.337   5.902
 4346SOL     OW13936   0.387   3.017   1.284
 4346SOL    HW113937   0.476   3.029   1.326
 4346SOL    HW213938   0.339   2.941   1.329
 4347SOL     OW13939   6.037   5.996   2.647
 4347SOL    HW113940   6.128   6.026   2.617
 4347SOL    HW213941   6.001   5.928   2.583
 4348SOL     OW13942   1.250   4.150   6.954
 4348SOL    HW113943   1.298   4.205   7.022
 4348SOL    HW213944   1.187   4.088   7.000
 4349SOL     OW13945   0.139   0.366   2.463
 4349SOL    HW113946   0.193   0.282   2.462
 4349SOL    HW213947   0.166   0.424   2.386
 4350SOL     OW13948   4.845   1.027   3.532
 4350SOL    HW113949   4.756   1.066   3.510
 4350SOL    HW213950   4.835   0.958   3.604
 4351SOL     OW13951   2.689   6.129   0.733
 4351SOL    HW113952   2.707   6.070   0.655
 4351SOL    HW213953   2.652   6.074   0.808
 4352SOL     OW13954   6.365   1.546   2.662
 4352SOL    HW113955   6.387   1.449   2.671
 4352SOL    HW213956   6.267   1.556   2.642
 4353SOL     OW13957   2.831   5.724   1.206
 4353SOL    HW113958   2.795   5.739   1.114
 4353SOL    HW213959   2.756   5.704   1.269
 4354SOL     OW13960   1.970   0.575   1.106
 4354SOL    HW113961   1.917   0.513   1.048
 4354SOL    HW213962   1.921   0.661   1.115
 4355SOL     OW13963   4.786   1.073   0.855
 4355SOL    HW113964   4.686   1.069   0.856
 4355SOL    HW213965   4.820   1.096   0.947
 4356SOL     OW13966   3.546   4.337   0.195
 4356SOL    HW113967   3.612   4.398   0.152
 4356SOL    HW213968   3.478   4.391   0.245
 4357SOL     OW13969   6.823   0.644   6.468
 4357SOL    HW113970   6.855   0.586   6.543
 4357SOL    HW213971   6.841   0.600   6.380
 4358SOL     OW13972   6.422   1.152   1.409
 4358SOL    HW113973   6.323   1.157   1.416
 4358SOL    HW213974   6.464   1.213   1.477
 4359SOL     OW13975   6.676   2.731   4.418
 4359SOL    HW113976   6.747   2.766   4.356
 4359SOL    HW213977   6.709   2.647   4.461
 4360SOL     OW13978   2.343   3.195   1.442
 4360SOL    HW113979   2.427   3.249   1.442
 4360SOL    HW213980   2.269   3.247   1.399
 4361SOL     OW13981   5.364   1.644   2.168
 4361SOL    HW113982   5.431   1.587   2.215
 4361SOL    HW213983   5.367   1.737   2.205
 4362SOL     OW13984   5.822   4.329   3.514
 4362SOL    HW113985   5.897   4.329   3.448
 4362SOL    HW213986   5.747   4.274   3.478
 4363SOL     OW13987   5.135   1.156   6.083
 4363SOL    HW113988   5.138   1.256   6.083
 4363SOL    HW213989   5.099   1.124   5.995
 4364SOL     OW13990   3.322   3.651   5.172
 4364SOL    HW113991   3.246   3.586   5.179
 4364SOL    HW213992   3.310   3.707   5.090
 4365SOL     OW13993   3.416   1.443   1.132
 4365SOL    HW113994   3.443   1.349   1.150
 4365SOL    HW213995   3.318   1.453   1.147
 4366SOL     OW13996   5.168   5.129   1.226
 4366SOL    HW113997   5.229   5.201   1.259
 4366SOL    HW213998   5.141   5.149   1.132
 4367SOL     OW13999   0.208   6.425   0.575
 4367SOL    HW114000   0.236   6.517   0.602
 4367SOL    HW214001   0.200   6.367   0.656
 4368SOL     OW14002   4.933   4.001   1.814
 4368SOL    HW114003   4.859   4.061   1.782
 4368SOL    HW214004   4.894   3.919   1.855
 4369SOL     OW14005   3.256   5.685   2.069
 4369SOL    HW114006   3.173   5.642   2.034
 4369SOL    HW214007   3.325   5.614   2.089
 4370SOL     OW14008   5.586   4.417   2.735
 4370SOL    HW114009   5.615   4.330   2.696
 4370SOL    HW214010   5.655   4.448   2.801
 4371SOL     OW14011   0.270   2.151   1.923
 4371SOL    HW114012   0.187   2.204   1.905
 4371SOL    HW214013   0.281   2.138   2.021
 4372SOL     OW14014   4.600   0.421   3.767
 4372SOL    HW114015   4.509   0.461   3.776
 4372SOL    HW214016   4.616   0.355   3.840
 4373SOL     OW14017   6.723   1.811   6.126
 4373SOL    HW114018   6.805   1.868   6.128
 4373SOL    HW214019   6.704   1.776   6.218
 4374SOL     OW14020   3.595   1.882   1.251
 4374SOL    HW114021   3.521   1.816   1.257
 4374SOL    HW214022   3.594   1.942   1.332
 4375SOL     OW14023   3.713   6.694   3.737
 4375SOL    HW114024   3.799   6.652   3.768
 4375SOL    HW214025   3.694   6.774   3.794
 4376SOL     OW14026   6.696   2.019   4.242
 4376SOL    HW114027   6.658   2.111   4.229
 4376SOL    HW214028   6.732   1.985   4.155
 4377SOL     OW14029   6.580   5.205   6.283
 4377SOL    HW114030   6.492   5.164   6.259
 4377SOL    HW214031   6.590   5.292   6.235
 4378SOL     OW14032   2.404   1.527   3.836
 4378SOL    HW114033   2.428   1.557   3.743
 4378SOL    HW214034   2.474   1.466   3.871
 4379SOL     OW14035   3.029   1.708   5.331
 4379SOL    HW114036   3.012   1.744   5.239
 4379SOL    HW214037   2.947   1.663   5.365
 4380SOL     OW14038   0.631   2.093   2.123
 4380SOL    HW114039   0.670   2.175   2.080
 4380SOL    HW214040   0.607   2.027   2.053
 4381SOL     OW14041   1.924   6.037   6.672
 4381SOL    HW114042   1.830   6.024   6.703
 4381SOL    HW214043   1.926   6.108   6.602
 4382SOL     OW14044   0.480   4.500   4.541
 4382SOL    HW114045   0.579   4.513   4.531
 4382SOL    HW214046   0.463   4.427   4.607
 4383SOL     OW14047   6.379   3.640   6.767
 4383SOL    HW114048   6.422   3.596   6.688
 4383SOL    HW214049   6.282   3.617   6.770
 4384SOL     OW14050   5.559   6.974   3.930
 4384SOL    HW114051   5.472   6.997   3.885
 4384SOL    HW214052   5.626   0.022   3.912
 4385SOL     OW14053   4.701   1.983   5.730
 4385SOL    HW114054   4.746   2.014   5.647
 4385SOL    HW214055   4.673   1.887   5.720
 4386SOL     OW14056   2.056   3.650   5.047
 4386SOL    HW114057   2.095   3.705   5.120
 4386SOL    HW214058   1.988   3.588   5.084
 4387SOL     OW14059   5.856   2.132   0.753
 4387SOL    HW114060   5.766   2.103   0.725
 4387SOL    HW214061   5.914   2.052   0.770
 4388SOL     OW14062   4.905   3.932   6.941
 4388SOL    HW114063   4.936   3.897   0.006
 4388SOL    HW214064   4.843   4.008   6.955
 4389SOL     OW14065   0.984   2.894   0.579
 4389SOL    HW114066   1.035   2.808   0.579
 4389SOL    HW214067   0.924   2.897   0.659
 4390SOL     OW14068   0.063   1.403   0.521
 4390SOL    HW114069   0.083   1.450   0.606
 4390SOL    HW214070   0.016   1.317   0.541
 4391SOL     OW14071   1.150   5.865   1.032
 4391SOL    HW114072   1.096   5.891   1.112
 4391SOL    HW214073   1.211   5.790   1.056
 4392SOL     OW14074   0.965   3.071   5.531
 4392SOL    HW114075   1.061   3.044   5.519
 4392SOL    HW214076   0.960   3.146   5.597
 4393SOL     OW14077   5.144   0.890   1.692
 4393SOL    HW114078   5.123   0.940   1.776
 4393SOL    HW214079   5.154   0.793   1.714
 4394SOL     OW14080   1.044   0.409   2.762
 4394SOL    HW114081   1.047   0.487   2.700
 4394SOL    HW214082   1.045   0.324   2.710
 4395SOL     OW14083   2.186   4.490   1.714
 4395SOL    HW114084   2.089   4.504   1.730
 4395SOL    HW214085   2.203   4.472   1.617
 4396SOL     OW14086   3.094   1.302   2.851
 4396SOL    HW114087   3.134   1.230   2.794
 4396SOL    HW214088   3.165   1.367   2.878
 4397SOL     OW14089   3.337   1.813   4.733
 4397SOL    HW114090   3.305   1.857   4.816
 4397SOL    HW214091   3.435   1.798   4.738
 4398SOL     OW14092   2.001   2.981   5.447
 4398SOL    HW114093   1.917   2.927   5.449
 4398SOL    HW214094   2.058   2.950   5.371
 4399SOL     OW14095   2.439   6.398   1.928
 4399SOL    HW114096   2.453   6.360   1.837
 4399SOL    HW214097   2.493   6.346   1.994
 4400SOL     OW14098   1.575   5.649   4.736
 4400SOL    HW114099   1.628   5.721   4.691
 4400SOL    HW214100   1.556   5.675   4.831
 4401SOL     OW14101   3.544   6.714   6.725
 4401SOL    HW114102   3.460   6.748   6.683
 4401SOL    HW214103   3.622   6.761   6.684
 4402SOL     OW14104   1.807   0.334   3.087
 4402SOL    HW114105   1.822   0.285   3.001
 4402SOL    HW214106   1.758   0.419   3.068
 4403SOL     OW14107   0.122   4.891   1.845
 4403SOL    HW114108   0.216   4.899   1.879
 4403SOL    HW214109   0.064   4.856   1.918
 4404SOL     OW14110   0.118   6.747   6.119
 4404SOL    HW114111   0.158   6.772   6.207
 4404SOL    HW214112   0.167   6.668   6.081
 4405SOL     OW14113   1.964   5.635   2.163
 4405SOL    HW114114   1.967   5.671   2.256
 4405SOL    HW214115   1.940   5.538   2.165
 4406SOL     OW14116   5.493   4.232   2.287
 4406SOL    HW114117   5.496   4.153   2.349
 4406SOL    HW214118   5.587   4.260   2.265
 4407SOL     OW14119   6.379   6.550   1.297
 4407SOL    HW114120   6.392   6.495   1.379
 4407SOL    HW214121   6.423   6.506   1.219
 4408SOL     OW14122   3.827   0.986   0.061
 4408SOL    HW114123   3.749   0.940   0.019
 4408SOL    HW214124   3.834   0.960   0.157
 4409SOL     OW14125   3.136   0.701   3.335
 4409SOL    HW114126   3.078   0.625   3.304
 4409SOL    HW214127   3.121   0.716   3.433
 4410SOL     OW14128   0.276   6.988   0.923
 4410SOL    HW114129   0.343   0.038   0.926
 4410SOL    HW214130   0.186   0.000   0.896
 4411SOL     OW14131   4.094   4.566   5.281
 4411SOL    HW114132   4.159   4.556   5.205
 4411SOL    HW214133   4.037   4.484   5.287
 4412SOL     OW14134   4.267   6.362   1.934
 4412SOL    HW114135   4.270   6.270   1.974
 4412SOL    HW214136   4.330   6.368   1.857
 4413SOL     OW14137   4.811   5.703   4.087
 4413SOL    HW114138   4.857   5.792   4.089
 4413SOL    HW214139   4.733   5.707   4.026
 4414SOL     OW14140   5.339   4.205   1.846
 4414SOL    HW114141   5.293   4.128   1.800
 4414SOL    HW214142   5.430   4.177   1.875
 4415SOL     OW14143   1.900   3.187   1.911
 4415SOL    HW114144   1.886   3.120   1.984
 4415SOL    HW214145   1.816   3.196   1.857
 4416SOL     OW14146   5.175   2.621   3.336
 4416SOL    HW114147   5.212   2.671   3.258
 4416SOL    HW214148   5.136   2.534   3.305
 4417SOL     OW14149   7.018   3.851   1.890
 4417SOL    HW114150   6.952   3.813   1.825
 4417SOL    HW214151   6.984   3.937   1.928
 4418SOL     OW14152   6.427   6.937   5.530
 4418SOL    HW114153   6.474   6.990   5.459
 4418SOL    HW214154   6.336   6.911   5.498
 4419SOL     OW14155   6.684   5.264   6.922
 4419SOL    HW114156   6.661   5.201   6.996
 4419SOL    HW214157   6.621   5.341   6.922
 4420SOL     OW14158   3.806   1.816   0.975
 4420SOL    HW114159   3.842   1.896   1.024
 4420SOL    HW214160   3.707   1.827   0.961
 4421SOL     OW14161   1.748   2.996   0.128
 4421SOL    HW114162   1.802   2.963   0.051
 4421SOL    HW214163   1.681   2.926   0.154
 4422SOL     OW14164   6.436   3.441   6.108
 4422SOL    HW114165   6.450   3.402   6.198
 4422SOL    HW214166   6.524   3.463   6.066
 4423SOL     OW14167   6.290   4.433   5.331
 4423SOL    HW114168   6.373   4.424   5.387
 4423SOL    HW214169   6.263   4.342   5.298
 4424SOL     OW14170   4.799   5.784   2.802
 4424SOL    HW114171   4.875   5.744   2.751
 4424SOL    HW214172   4.818   5.778   2.900
 4425SOL     OW14173   0.933   5.338   1.220
 4425SOL    HW114174   0.943   5.342   1.319
 4425SOL    HW214175   0.929   5.431   1.183
 4426SOL     OW14176   0.389   0.894   4.470
 4426SOL    HW114177   0.381   0.890   4.570
 4426SOL    HW214178   0.377   0.803   4.432
 4427SOL     OW14179   2.313   5.556   2.010
 4427SOL    HW114180   2.280   5.646   1.979
 4427SOL    HW214181   2.364   5.566   2.095
 4428SOL     OW14182   6.248   5.415   3.266
 4428SOL    HW114183   6.265   5.505   3.225
 4428SOL    HW214184   6.181   5.425   3.340
 4429SOL     OW14185   3.233   6.297   3.453
 4429SOL    HW114186   3.294   6.277   3.376
 4429SOL    HW214187   3.150   6.340   3.419
 4430SOL     OW14188   5.864   3.613   5.404
 4430SOL    HW114189   5.832   3.661   5.486
 4430SOL    HW214190   5.858   3.675   5.325
 4431SOL     OW14191   4.043   6.278   4.672
 4431SOL    HW114192   4.089   6.366   4.678
 4431SOL    HW214193   4.022   6.257   4.576
 4432SOL     OW14194   0.726   3.762   6.016
 4432SOL    HW114195   0.770   3.851   6.020
 4432SOL    HW214196   0.734   3.716   6.105
 4433SOL     OW14197   0.364   1.255   4.579
 4433SOL    HW114198   0.307   1.309   4.640
 4433SOL    HW214199   0.441   1.216   4.630
 4434SOL     OW14200   6.959   0.359   2.288
 4434SOL    HW114201   7.005   0.386   2.204
 4434SOL    HW214202   7.022   0.368   2.365
 4435SOL     OW14203   2.306   3.847   0.775
 4435SOL    HW114204   2.325   3.913   0.848
 4435SOL    HW214205   2.389   3.832   0.722
 4436SOL     OW14206   4.471   2.491   2.045
 4436SOL    HW114207   4.455   2.579   2.089
 4436SOL    HW214208   4.395   2.470   1.983
 4437SOL     OW14209   6.497   4.118   0.086
 4437SOL    HW114210   6.404   4.086   0.068
 4437SOL    HW214211   6.515   4.199   0.030
 4438SOL     OW14212   4.254   1.006   4.879
 4438SOL    HW114213   4.272   0.931   4.943
 4438SOL    HW214214   4.162   1.041   4.895
 4439SOL     OW14215   2.577   6.057   2.902
 4439SOL    HW114216   2.519   6.012   2.833
 4439SOL    HW214217   2.530   6.057   2.990
 4440SOL     OW14218   1.501   4.230   6.170
 4440SOL    HW114219   1.428   4.284   6.211
 4440SOL    HW214220   1.558   4.289   6.112
 4441SOL     OW14221   6.888   2.581   1.144
 4441SOL    HW114222   6.913   2.622   1.231
 4441SOL    HW214223   6.797   2.539   1.152
 4442SOL     OW14224   1.990   5.286   0.073
 4442SOL    HW114225   2.066   5.349   0.083
 4442SOL    HW214226   2.024   5.197   0.042
 4443SOL     OW14227   0.560   5.570   5.807
 4443SOL    HW114228   0.530   5.589   5.900
 4443SOL    HW214229   0.653   5.535   5.808
 4444SOL     OW14230   6.001   5.356   0.664
 4444SOL    HW114231   5.986   5.415   0.585
 4444SOL    HW214232   5.991   5.261   0.637
 4445SOL     OW14233   1.429   4.379   0.357
 4445SOL    HW114234   1.357   4.447   0.373
 4445SOL    HW214235   1.403   4.322   0.278
 4446SOL     OW14236   4.558   1.835   1.444
 4446SOL    HW114237   4.643   1.878   1.415
 4446SOL    HW214238   4.500   1.816   1.365
 4447SOL     OW14239   3.878   5.930   6.161
 4447SOL    HW114240   3.789   5.937   6.117
 4447SOL    HW214241   3.897   6.014   6.212
 4448SOL     OW14242   3.600   6.588   1.833
 4448SOL    HW114243   3.526   6.523   1.846
 4448SOL    HW214244   3.661   6.556   1.761
 4449SOL     OW14245   3.669   1.679   5.889
 4449SOL    HW114246   3.672   1.629   5.803
 4449SOL    HW214247   3.602   1.638   5.950
 4450SOL     OW14248   2.350   6.508   0.112
 4450SOL    HW114249   2.271   6.467   0.067
 4450SOL    HW214250   2.336   6.606   0.124
 4451SOL     OW14251   4.543   5.232   3.612
 4451SOL    HW114252   4.513   5.273   3.526
 4451SOL    HW214253   4.513   5.137   3.616
 4452SOL     OW14254   5.071   5.786   4.340
 4452SOL    HW114255   5.163   5.748   4.343
 4452SOL    HW214256   5.004   5.712   4.341
 4453SOL     OW14257   6.986   4.746   0.607
 4453SOL    HW114258   6.903   4.768   0.556
 4453SOL    HW214259   6.992   4.805   0.687
 4454SOL     OW14260   1.385   2.747   0.391
 4454SOL    HW114261   1.400   2.680   0.464
 4454SOL    HW214262   1.314   2.713   0.329
 4455SOL     OW14263   1.853   0.419   4.451
 4455SOL    HW114264   1.825   0.499   4.397
 4455SOL    HW214265   1.870   0.342   4.390
 4456SOL     OW14266   2.306   6.492   3.902
 4456SOL    HW114267   2.240   6.431   3.859
 4456SOL    HW214268   2.322   6.571   3.842
 4457SOL     OW14269   1.793   1.898   4.724
 4457SOL    HW114270   1.850   1.938   4.795
 4457SOL    HW214271   1.843   1.897   4.637
 4458SOL     OW14272   1.062   3.345   6.195
 4458SOL    HW114273   1.121   3.264   6.186
 4458SOL    HW214274   1.059   3.373   6.291
 4459SOL     OW14275   1.019   3.073   2.818
 4459SOL    HW114276   0.930   3.091   2.859
 4459SOL    HW214277   1.041   3.146   2.753
 4460SOL     OW14278   0.250   2.478   4.462
 4460SOL    HW114279   0.343   2.489   4.428
 4460SOL    HW214280   0.243   2.394   4.515
 4461SOL     OW14281   1.971   0.508   0.559
 4461SOL    HW114282   1.921   0.433   0.602
 4461SOL    HW214283   2.009   0.478   0.472
 4462SOL     OW14284   6.427   4.187   2.711
 4462SOL    HW114285   6.520   4.155   2.730
 4462SOL    HW214286   6.369   4.109   2.688
 4463SOL     OW14287   5.584   1.488   0.275
 4463SOL    HW114288   5.517   1.549   0.316
 4463SOL    HW214289   5.659   1.542   0.236
 4464SOL     OW14290   0.219   4.174   1.626
 4464SOL    HW114291   0.195   4.199   1.720
 4464SOL    HW214292   0.314   4.199   1.607
 4465SOL     OW14293   3.666   5.118   1.788
 4465SOL    HW114294   3.568   5.099   1.784
 4465SOL    HW214295   3.711   5.050   1.845
 4466SOL     OW14296   0.642   2.873   2.293
 4466SOL    HW114297   0.627   2.968   2.266
 4466SOL    HW214298   0.554   2.830   2.315
 4467SOL     OW14299   5.403   4.609   2.861
 4467SOL    HW114300   5.355   4.660   2.789
 4467SOL    HW214301   5.451   4.531   2.820
 4468SOL     OW14302   1.706   3.188   1.446
 4468SOL    HW114303   1.795   3.144   1.459
 4468SOL    HW214304   1.700   3.223   1.353
 4469SOL     OW14305   1.884   5.688   1.227
 4469SOL    HW114306   1.962   5.629   1.245
 4469SOL    HW214307   1.868   5.695   1.128
 4470SOL     OW14308   0.788   0.227   2.692
 4470SOL    HW114309   0.777   0.237   2.593
 4470SOL    HW214310   0.728   0.291   2.739
 4471SOL     OW14311   1.074   0.090   6.223
 4471SOL    HW114312   1.123   0.177   6.215
 4471SOL    HW214313   0.999   0.100   6.288
 4472SOL     OW14314   1.912   2.891   0.756
 4472SOL    HW114315   1.908   2.952   0.835
 4472SOL    HW214316   1.976   2.816   0.775
 4473SOL     OW14317   0.466   3.636   4.946
 4473SOL    HW114318   0.546   3.603   4.995
 4473SOL    HW214319   0.469   3.605   4.852
 4474SOL     OW14320   2.883   6.091   1.204
 4474SOL    HW114321   2.846   6.182   1.185
 4474SOL    HW214322   2.807   6.027   1.216
 4475SOL     OW14323   1.202   3.921   0.606
 4475SOL    HW114324   1.271   3.879   0.665
 4475SOL    HW214325   1.166   3.853   0.543
 4476SOL     OW14326   5.568   1.069   3.580
 4476SOL    HW114327   5.559   1.054   3.482
 4476SOL    HW214328   5.499   1.134   3.610
 4477SOL     OW14329   0.056   0.909   4.944
 4477SOL    HW114330   0.125   0.942   4.879
 4477SOL    HW214331   6.991   0.947   4.919
 4478SOL     OW14332   1.544   0.434   1.744
 4478SOL    HW114333   1.588   0.513   1.701
 4478SOL    HW214334   1.460   0.412   1.694
 4479SOL     OW14335   2.052   2.094   6.917
 4479SOL    HW114336   2.007   2.150   6.986
 4479SOL    HW214337   2.048   1.998   6.945
 4480SOL     OW14338   0.675   0.071   3.260
 4480SOL    HW114339   0.658   7.003   3.297
 4480SOL    HW214340   0.764   0.072   3.214
 4481SOL     OW14341   1.943   3.771   5.511
 4481SOL    HW114342   1.912   3.803   5.601
 4481SOL    HW214343   1.972   3.849   5.456
 4482SOL     OW14344   1.893   0.065   1.533
 4482SOL    HW114345   1.916   0.057   1.436
 4482SOL    HW214346   1.811   0.121   1.543
 4483SOL     OW14347   1.376   3.556   0.670
 4483SOL    HW114348   1.431   3.492   0.724
 4483SOL    HW214349   1.312   3.506   0.613
 4484SOL     OW14350   2.693   1.071   6.679
 4484SOL    HW114351   2.658   1.080   6.773
 4484SOL    HW214352   2.739   1.156   6.653
 4485SOL     OW14353   0.080   2.991   5.005
 4485SOL    HW114354   0.099   2.928   5.080
 4485SOL    HW214355   0.167   3.022   4.965
 4486SOL     OW14356   5.059   4.524   4.224
 4486SOL    HW114357   4.976   4.544   4.171
 4486SOL    HW214358   5.035   4.465   4.302
 4487SOL     OW14359   0.563   2.902   6.738
 4487SOL    HW114360   0.579   2.898   6.837
 4487SOL    HW214361   0.620   2.834   6.692
 4488SOL     OW14362   0.009   3.677   3.456
 4488SOL    HW114363   0.078   3.605   3.447
 4488SOL    HW214364   6.994   3.676   3.548
 4489SOL     OW14365   3.578   6.201   6.305
 4489SOL    HW114366   3.622   6.126   6.354
 4489SOL    HW214367   3.635   6.229   6.228
 4490SOL     OW14368   5.324   1.517   1.944
 4490SOL    HW114369   5.349   1.562   2.029
 4490SOL    HW214370   5.397   1.455   1.916
 4491SOL     OW14371   1.251   3.125   2.969
 4491SOL    HW114372   1.225   3.220   2.988
 4491SOL    HW214373   1.201   3.093   2.888
 4492SOL     OW14374   6.891   1.421   2.318
 4492SOL    HW114375   6.832   1.386   2.392
 4492SOL    HW214376   6.921   1.513   2.341
 4493SOL     OW14377   5.071   1.357   5.667
 4493SOL    HW114378   5.113   1.424   5.606
 4493SOL    HW214379   4.973   1.378   5.678
 4494SOL     OW14380   1.725   0.697   2.283
 4494SOL    HW114381   1.723   0.706   2.184
 4494SOL    HW214382   1.703   0.603   2.310
 4495SOL     OW14383   3.958   6.633   1.051
 4495SOL    HW114384   4.024   6.561   1.071
 4495SOL    HW214385   3.984   6.718   1.096
 4496SOL     OW14386   2.699   6.450   5.397
 4496SOL    HW114387   2.640   6.434   5.476
 4496SOL    HW214388   2.737   6.542   5.403
 4497SOL     OW14389   4.059   0.771   5.961
 4497SOL    HW114390   4.148   0.806   5.930
 4497SOL    HW214391   4.044   0.797   6.056
 4498SOL     OW14392   0.609   4.847   4.756
 4498SOL    HW114393   0.626   4.899   4.839
 4498SOL    HW214394   0.690   4.794   4.731
 4499SOL     OW14395   5.934   0.858   2.516
 4499SOL    HW114396   5.846   0.816   2.541
 4499SOL    HW214397   5.955   0.838   2.421
 4500SOL     OW14398   3.932   6.105   0.615
 4500SOL    HW114399   4.001   6.176   0.602
 4500SOL    HW214400   3.842   6.147   0.622
 4501SOL     OW14401   5.844   0.600   2.344
 4501SOL    HW114402   5.783   0.613   2.422
 4501SOL    HW214403   5.936   0.632   2.368
 4502SOL     OW14404   0.719   3.837   6.636
 4502SOL    HW114405   0.684   3.931   6.634
 4502SOL    HW214406   0.653   3.775   6.593
 4503SOL     OW14407   3.300   1.528   2.530
 4503SOL    HW114408   3.367   1.479   2.586
 4503SOL    HW214409   3.265   1.606   2.581
 4504SOL     OW14410   0.709   2.362   3.240
 4504SOL    HW114411   0.781   2.350   3.172
 4504SOL    HW214412   0.645   2.432   3.209
 4505SOL     OW14413   5.973   3.229   3.801
 4505SOL    HW114414   6.055   3.222   3.744
 4505SOL    HW214415   5.923   3.313   3.778
 4506SOL     OW14416   4.201   3.913   6.742
 4506SOL    HW114417   4.117   3.860   6.737
 4506SOL    HW214418   4.183   4.007   6.713
 4507SOL     OW14419   6.314   2.275   3.599
 4507SOL    HW114420   6.286   2.215   3.524
 4507SOL    HW214421   6.305   2.370   3.571
 4508SOL     OW14422   6.590   4.978   0.482
 4508SOL    HW114423   6.558   4.937   0.567
 4508SOL    HW214424   6.512   5.004   0.426
 4509SOL     OW14425   5.707   2.093   2.140
 4509SOL    HW114426   5.789   2.096   2.198
 4509SOL    HW214427   5.713   2.163   2.070
 4510SOL     OW14428   4.425   1.667   4.347
 4510SOL    HW114429   4.376   1.650   4.433
 4510SOL    HW214430   4.422   1.584   4.291
 4511SOL     OW14431   7.015   4.984   6.569
 4511SOL    HW114432   6.967   4.949   6.649
 4511SOL    HW214433   6.953   4.986   6.491
 4512SOL     OW14434   3.136   2.951   5.514
 4512SOL    HW114435   3.102   2.908   5.430
 4512SOL    HW214436   3.171   3.042   5.494
 4513SOL     OW14437   0.002   0.471   0.387
 4513SOL    HW114438   0.036   0.554   0.431
 4513SOL    HW214439   0.047   0.391   0.427
 4514SOL     OW14440   4.652   4.949   6.648
 4514SOL    HW114441   4.625   5.043   6.669
 4514SOL    HW214442   4.694   4.945   6.557
 4515SOL     OW14443   3.970   0.882   6.210
 4515SOL    HW114444   4.012   0.957   6.261
 4515SOL    HW214445   3.874   0.903   6.192
 4516SOL     OW14446   3.192   2.568   5.857
 4516SOL    HW114447   3.220   2.588   5.763
 4516SOL    HW214448   3.104   2.612   5.875
 4517SOL     OW14449   4.619   0.412   4.287
 4517SOL    HW114450   4.599   0.482   4.219
 4517SOL    HW214451   4.602   0.322   4.248
 4518SOL     OW14452   6.975   6.545   0.772
 4518SOL    HW114453   6.969   6.449   0.800
 4518SOL    HW214454   7.002   6.601   0.851
 4519SOL     OW14455   4.737   6.595   6.944
 4519SOL    HW114456   4.818   6.651   6.965
 4519SOL    HW214457   4.670   6.608   7.017
 4520SOL     OW14458   4.708   5.243   5.363
 4520SOL    HW114459   4.637   5.301   5.404
 4520SOL    HW214460   4.697   5.149   5.394
 4521SOL     OW14461   4.387   2.272   3.916
 4521SOL    HW114462   4.321   2.321   3.973
 4521SOL    HW214463   4.393   2.316   3.827
 4522SOL     OW14464   5.825   3.962   3.606
 4522SOL    HW114465   5.762   3.995   3.536
 4522SOL    HW214466   5.795   3.873   3.640
 4523SOL     OW14467   6.857   3.096   6.080
 4523SOL    HW114468   6.928   3.092   6.009
 4523SOL    HW214469   6.900   3.105   6.170
 4524SOL     OW14470   1.833   3.802   2.122
 4524SOL    HW114471   1.921   3.770   2.087
 4524SOL    HW214472   1.844   3.893   2.161
 4525SOL     OW14473   3.892   2.729   5.525
 4525SOL    HW114474   3.949   2.709   5.606
 4525SOL    HW214475   3.798   2.703   5.544
 4526SOL     OW14476   1.354   0.285   5.469
 4526SOL    HW114477   1.426   0.350   5.445
 4526SOL    HW214478   1.273   0.335   5.498
 4527SOL     OW14479   0.377   1.493   3.238
 4527SOL    HW114480   0.420   1.583   3.245
 4527SOL    HW214481   0.283   1.498   3.273
 4528SOL     OW14482   5.163   0.642   4.690
 4528SOL    HW114483   5.244   0.699   4.702
 4528SOL    HW214484   5.169   0.593   4.603
 4529SOL     OW14485   2.102   1.762   3.860
 4529SOL    HW114486   2.095   1.814   3.946
 4529SOL    HW214487   2.085   1.823   3.783
 4530SOL     OW14488   3.678   5.948   6.397
 4530SOL    HW114489   3.746   5.949   6.470
 4530SOL    HW214490   3.665   5.854   6.365
 4531SOL     OW14491   1.499   6.639   5.251
 4531SOL    HW114492   1.431   6.669   5.318
 4531SOL    HW214493   1.578   6.601   5.298
 4532SOL     OW14494   6.599   1.335   2.364
 4532SOL    HW114495   6.577   1.429   2.338
 4532SOL    HW214496   6.608   1.329   2.463
 4533SOL     OW14497   2.935   6.742   1.496
 4533SOL    HW114498   2.890   6.814   1.550
 4533SOL    HW214499   2.892   6.654   1.517
 4534SOL     OW14500   5.502   1.487   4.318
 4534SOL    HW114501   5.541   1.573   4.350
 4534SOL    HW214502   5.572   1.434   4.270
 4535SOL     OW14503   2.176   0.495   6.790
 4535SOL    HW114504   2.201   0.425   6.857
 4535SOL    HW214505   2.155   0.580   6.838
 4536SOL     OW14506   3.706   0.893   5.724
 4536SOL    HW114507   3.792   0.937   5.752
 4536SOL    HW214508   3.715   0.862   5.629
 4537SOL     OW14509   3.177   3.199   3.299
 4537SOL    HW114510   3.271   3.211   3.268
 4537SOL    HW214511   3.124   3.281   3.279
 4538SOL     OW14512   1.026   2.267   0.598
 4538SOL    HW114513   0.944   2.221   0.563
 4538SOL    HW214514   1.001   2.357   0.634
 4539SOL     OW14515   1.500   5.658   5.007
 4539SOL    HW114516   1.483   5.749   5.044
 4539SOL    HW214517   1.421   5.600   5.024
 4540SOL     OW14518   1.443   1.648   0.068
 4540SOL    HW114519   1.482   1.606   0.150
 4540SOL    HW214520   1.513   1.702   0.021
 4541SOL     OW14521   3.941   3.063   6.921
 4541SOL    HW114522   3.853   3.111   6.922
 4541SOL    HW214523   3.928   2.969   6.889
 4542SOL     OW14524   0.449   1.650   6.686
 4542SOL    HW114525   0.506   1.671   6.606
 4542SOL    HW214526   0.395   1.568   6.667
 4543SOL     OW14527   3.940   1.867   0.656
 4543SOL    HW114528   3.912   1.786   0.708
 4543SOL    HW214529   4.039   1.868   0.646
 4544SOL     OW14530   4.641   6.776   0.913
 4544SOL    HW114531   4.703   6.844   0.872
 4544SOL    HW214532   4.575   6.822   0.972
 4545SOL     OW14533   2.416   2.923   5.434
 4545SOL    HW114534   2.397   3.003   5.491
 4545SOL    HW214535   2.402   2.945   5.338
 4546SOL     OW14536   3.901   0.420   6.162
 4546SOL    HW114537   3.945   0.499   6.204
 4546SOL    HW214538   3.945   0.336   6.193
 4547SOL     OW14539   0.514   0.209   0.204
 4547SOL    HW114540   0.485   0.281   0.268
 4547SOL    HW214541   0.479   0.121   0.236
 4548SOL     OW14542   3.244   1.140   2.036
 4548SOL    HW114543   3.178   1.142   2.111
 4548SOL    HW214544   3.233   1.055   1.984
 4549SOL     OW14545   0.216   3.476   4.202
 4549SOL    HW114546   0.256   3.439   4.285
 4549SOL    HW214547   0.117   3.457   4.201
 4550SOL     OW14548   1.942   5.696   5.169
 4550SOL    HW114549   1.906   5.745   5.089
 4550SOL    HW214550   1.986   5.760   5.231
 4551SOL     OW14551   3.345   2.329   5.908
 4551SOL    HW114552   3.384   2.338   5.999
 4551SOL    HW214553   3.271   2.396   5.897
 4552SOL     OW14554   4.432   1.016   0.003
 4552SOL    HW114555   4.521   1.037   0.043
 4552SOL    HW214556   4.363   1.076   0.043
 4553SOL     OW14557   0.271   6.249   0.364
 4553SOL    HW114558   0.279   6.307   0.445
 4553SOL    HW214559   0.362   6.233   0.325
 4554SOL     OW14560   5.874   0.102   3.063
 4554SOL    HW114561   5.854   0.138   3.154
 4554SOL    HW214562   5.824   0.016   3.049
 4555SOL     OW14563   0.661   0.735   1.567
 4555SOL    HW114564   0.668   0.758   1.470
 4555SOL    HW214565   0.571   0.762   1.601
 4556SOL     OW14566   5.330   4.551   4.034
 4556SOL    HW114567   5.368   4.485   3.970
 4556SOL    HW214568   5.296   4.503   4.115
 4557SOL     OW14569   6.884   4.857   4.194
 4557SOL    HW114570   6.972   4.822   4.227
 4557SOL    HW214571   6.810   4.800   4.230
 4558SOL     OW14572   1.530   4.021   4.967
 4558SOL    HW114573   1.476   4.103   4.982
 4558SOL    HW214574   1.566   4.022   4.873
 4559SOL     OW14575   0.136   3.060   3.953
 4559SOL    HW114576   0.230   3.025   3.953
 4559SOL    HW214577   0.136   3.153   3.916
 4560SOL     OW14578   6.122   4.583   2.975
 4560SOL    HW114579   6.212   4.542   2.987
 4560SOL    HW214580   6.127   4.682   2.993
 4561SOL     OW14581   4.416   2.130   4.194
 4561SOL    HW114582   4.456   2.124   4.103
 4561SOL    HW214583   4.397   2.226   4.215
 4562SOL     OW14584   3.587   1.258   0.501
 4562SOL    HW114585   3.609   1.206   0.584
 4562SOL    HW214586   3.506   1.219   0.458
 4563SOL     OW14587   0.881   4.273   1.544
 4563SOL    HW114588   0.889   4.226   1.456
 4563SOL    HW214589   0.849   4.367   1.529
 4564SOL     OW14590   2.151   4.193   2.585
 4564SOL    HW114591   2.061   4.222   2.618
 4564SOL    HW214592   2.214   4.271   2.590
 4565SOL     OW14593   1.831   6.835   5.690
 4565SOL    HW114594   1.825   6.878   5.781
 4565SOL    HW214595   1.810   6.738   5.698
 4566SOL     OW14596   0.045   4.352   3.086
 4566SOL    HW114597   0.052   4.263   3.040
 4566SOL    HW214598   0.075   4.342   3.181
 4567SOL     OW14599   0.045   7.003   6.786
 4567SOL    HW114600   0.051   0.001   6.688
 4567SOL    HW214601   0.034   6.905   6.797
 4568SOL     OW14602   1.100   5.455   3.938
 4568SOL    HW114603   1.005   5.428   3.954
 4568SOL    HW214604   1.143   5.388   3.877
 4569SOL     OW14605   1.550   1.725   2.987
 4569SOL    HW114606   1.491   1.793   2.943
 4569SOL    HW214607   1.599   1.767   3.063
 4570SOL     OW14608   5.163   5.225   1.603
 4570SOL    HW114609   5.067   5.211   1.578
 4570SOL    HW214610   5.219   5.225   1.520
 4571SOL     OW14611   2.513   3.944   5.956
 4571SOL    HW114612   2.456   3.873   5.998
 4571SOL    HW214613   2.455   4.019   5.926
 4572SOL     OW14614   4.041   3.116   1.930
 4572SOL    HW114615   3.988   3.031   1.928
 4572SOL    HW214616   4.137   3.096   1.907
 4573SOL     OW14617   2.687   4.914   0.403
 4573SOL    HW114618   2.731   4.829   0.432
 4573SOL    HW214619   2.592   4.915   0.435
 4574SOL     OW14620   4.568   0.828   1.915
 4574SOL    HW114621   4.513   0.900   1.873
 4574SOL    HW214622   4.620   0.866   1.992
 4575SOL     OW14623   6.816   0.805   5.473
 4575SOL    HW114624   6.839   0.819   5.376
 4575SOL    HW214625   6.806   0.708   5.491
 4576SOL     OW14626   3.547   3.817   6.805
 4576SOL    HW114627   3.456   3.812   6.764
 4576SOL    HW214628   3.596   3.731   6.787
 4577SOL     OW14629   0.568   1.659   1.730
 4577SOL    HW114630   0.647   1.613   1.690
 4577SOL    HW214631   0.485   1.607   1.711
 4578SOL     OW14632   1.526   0.860   2.807
 4578SOL    HW114633   1.548   0.921   2.731
 4578SOL    HW214634   1.481   0.913   2.880
 4579SOL     OW14635   4.578   0.749   3.583
 4579SOL    HW114636   4.610   0.820   3.646
 4579SOL    HW214637   4.645   0.674   3.581
 4580SOL     OW14638   0.455   1.178   0.537
 4580SOL    HW114639   0.382   1.156   0.601
 4580SOL    HW214640   0.542   1.187   0.586
 4581SOL     OW14641   2.645   0.524   1.113
 4581SOL    HW114642   2.556   0.501   1.152
 4581SOL    HW214643   2.692   0.440   1.086
 4582SOL     OW14644   6.896   0.427   3.502
 4582SOL    HW114645   6.970   0.451   3.564
 4582SOL    HW214646   6.927   0.437   3.407
 4583SOL     OW14647   1.756   6.728   0.203
 4583SOL    HW114648   1.817   6.761   0.275
 4583SOL    HW214649   1.703   6.651   0.237
 4584SOL     OW14650   0.104   1.556   4.504
 4584SOL    HW114651   0.143   1.602   4.425
 4584SOL    HW214652   0.145   1.592   4.588
 4585SOL     OW14653   1.944   2.853   3.073
 4585SOL    HW114654   2.022   2.827   3.016
 4585SOL    HW214655   1.958   2.818   3.166
 4586SOL     OW14656   6.421   4.713   6.253
 4586SOL    HW114657   6.392   4.805   6.279
 4586SOL    HW214658   6.358   4.646   6.291
 4587SOL     OW14659   3.978   4.336   5.581
 4587SOL    HW114660   3.992   4.237   5.582
 4587SOL    HW214661   3.959   4.366   5.487
 4588SOL     OW14662   3.281   4.076   6.504
 4588SOL    HW114663   3.269   4.029   6.591
 4588SOL    HW214664   3.362   4.135   6.509
 4589SOL     OW14665   5.767   6.139   2.308
 4589SOL    HW114666   5.744   6.203   2.381
 4589SOL    HW214667   5.864   6.118   2.310
 4590SOL     OW14668   3.282   5.748   1.225
 4590SOL    HW114669   3.346   5.786   1.291
 4590SOL    HW214670   3.203   5.809   1.216
 4591SOL     OW14671   2.434   0.852   5.166
 4591SOL    HW114672   2.486   0.841   5.081
 4591SOL    HW214673   2.337   0.835   5.147
 4592SOL     OW14674   2.731   1.495   3.525
 4592SOL    HW114675   2.786   1.551   3.462
 4592SOL    HW214676   2.659   1.552   3.565
 4593SOL     OW14677   1.176   6.563   4.495
 4593SOL    HW114678   1.117   6.634   4.534
 4593SOL    HW214679   1.271   6.578   4.525
 4594SOL     OW14680   2.009   6.280   4.019
 4594SOL    HW114681   1.938   6.236   3.964
 4594SOL    HW214682   1.989   6.377   4.027
 4595SOL     OW14683   5.673   1.789   6.191
 4595SOL    HW114684   5.649   1.788   6.288
 4595SOL    HW214685   5.729   1.708   6.171
 4596SOL     OW14686   1.188   1.044   2.248
 4596SOL    HW114687   1.248   0.997   2.312
 4596SOL    HW214688   1.093   1.038   2.280
 4597SOL     OW14689   2.494   5.701   0.484
 4597SOL    HW114690   2.459   5.688   0.577
 4597SOL    HW214691   2.551   5.624   0.459
 4598SOL     OW14692   0.842   4.082   0.185
 4598SOL    HW114693   0.926   4.066   0.237
 4598SOL    HW214694   0.789   3.997   0.180
 4599SOL     OW14695   3.477   6.708   2.194
 4599SOL    HW114696   3.518   6.725   2.283
 4599SOL    HW214697   3.517   6.627   2.153
 4600SOL     OW14698   0.119   6.783   6.416
 4600SOL    HW114699   0.085   6.841   6.490
 4600SOL    HW214700   0.053   6.710   6.398
 4601SOL     OW14701   1.906   0.443   5.565
 4601SOL    HW114702   1.830   0.382   5.588
 4601SOL    HW214703   1.981   0.390   5.527
 4602SOL     OW14704   3.382   1.711   6.369
 4602SOL    HW114705   3.377   1.750   6.461
 4602SOL    HW214706   3.327   1.627   6.366
 4603SOL     OW14707   3.852   0.027   0.973
 4603SOL    HW114708   3.942   0.057   1.002
 4603SOL    HW214709   3.808   0.098   0.917
 4604SOL     OW14710   6.985   6.980   3.692
 4604SOL    HW114711   0.011   0.021   3.749
 4604SOL    HW214712   6.983   7.013   3.597
 4605SOL     OW14713   4.114   0.892   1.406
 4605SOL    HW114714   4.101   0.883   1.307
 4605SOL    HW214715   4.158   0.979   1.426
 4606SOL     OW14716   6.807   6.702   5.272
 4606SOL    HW114717   6.824   6.754   5.356
 4606SOL    HW214718   6.849   6.750   5.195
 4607SOL     OW14719   1.927   1.506   0.653
 4607SOL    HW114720   1.906   1.471   0.745
 4607SOL    HW214721   1.858   1.573   0.626
 4608SOL     OW14722   6.965   3.026   4.748
 4608SOL    HW114723   6.901   2.949   4.745
 4608SOL    HW214724   0.017   3.003   4.809
 4609SOL     OW14725   5.308   5.612   6.616
 4609SOL    HW114726   5.374   5.645   6.549
 4609SOL    HW214727   5.216   5.628   6.583
 4610SOL     OW14728   5.154   5.065   0.664
 4610SOL    HW114729   5.078   5.075   0.728
 4610SOL    HW214730   5.118   5.060   0.570
 4611SOL     OW14731   0.063   1.408   6.293
 4611SOL    HW114732   0.004   1.433   6.216
 4611SOL    HW214733   0.153   1.381   6.259
 4612SOL     OW14734   2.280   1.370   2.604
 4612SOL    HW114735   2.351   1.379   2.535
 4612SOL    HW214736   2.286   1.280   2.647
 4613SOL     OW14737   1.348   5.346   1.820
 4613SOL    HW114738   1.380   5.279   1.753
 4613SOL    HW214739   1.286   5.302   1.884
 4614SOL     OW14740   0.009   4.585   3.663
 4614SOL    HW114741   0.098   4.630   3.655
 4614SOL    HW214742   6.976   4.636   3.728
 4615SOL     OW14743   1.718   4.102   6.279
 4615SOL    HW114744   1.625   4.138   6.269
 4615SOL    HW214745   1.759   4.091   6.189
 4616SOL     OW14746   1.296   3.533   6.360
 4616SOL    HW114747   1.295   3.529   6.261
 4616SOL    HW214748   1.242   3.611   6.391
 4617SOL     OW14749   6.985   3.098   3.553
 4617SOL    HW114750   6.901   3.061   3.514
 4617SOL    HW214751   0.040   3.048   3.517
 4618SOL     OW14752   2.349   3.553   5.751
 4618SOL    HW114753   2.273   3.598   5.703
 4618SOL    HW214754   2.435   3.576   5.707
 4619SOL     OW14755   4.267   6.126   6.355
 4619SOL    HW114756   4.272   6.223   6.330
 4619SOL    HW214757   4.346   6.078   6.316
 4620SOL     OW14758   0.656   4.360   1.205
 4620SOL    HW114759   0.629   4.293   1.274
 4620SOL    HW214760   0.665   4.315   1.116
 4621SOL     OW14761   3.246   0.584   2.645
 4621SOL    HW114762   3.297   0.511   2.692
 4621SOL    HW214763   3.283   0.596   2.553
 4622SOL     OW14764   5.312   6.996   0.459
 4622SOL    HW114765   5.371   0.027   0.399
 4622SOL    HW214766   5.362   6.974   0.543
 4623SOL     OW14767   3.401   5.043   2.424
 4623SOL    HW114768   3.384   5.063   2.327
 4623SOL    HW214769   3.338   5.097   2.480
 4624SOL     OW14770   5.096   1.508   1.566
 4624SOL    HW114771   5.104   1.604   1.539
 4624SOL    HW214772   5.167   1.454   1.520
 4625SOL     OW14773   1.630   5.972   1.803
 4625SOL    HW114774   1.656   6.020   1.886
 4625SOL    HW214775   1.578   5.890   1.826
 4626SOL     OW14776   4.277   3.202   1.729
 4626SOL    HW114777   4.208   3.220   1.659
 4626SOL    HW214778   4.341   3.279   1.734
 4627SOL     OW14779   5.390   6.975   4.748
 4627SOL    HW114780   5.389   6.918   4.665
 4627SOL    HW214781   5.452   0.029   4.734
 4628SOL     OW14782   5.909   4.484   3.097
 4628SOL    HW114783   5.903   4.503   3.195
 4628SOL    HW214784   5.993   4.524   3.060
 4629SOL     OW14785   1.641   5.671   6.996
 4629SOL    HW114786   1.740   5.663   6.996
 4629SOL    HW214787   1.601   5.589   0.013
 4630SOL     OW14788   1.998   3.552   1.503
 4630SOL    HW114789   1.986   3.531   1.600
 4630SOL    HW214790   1.979   3.470   1.448
 4631SOL     OW14791   6.671   0.871   3.033
 4631SOL    HW114792   6.728   0.936   2.982
 4631SOL    HW214793   6.727   0.827   3.104
 4632SOL     OW14794   2.633   4.844   3.066
 4632SOL    HW114795   2.714   4.797   3.100
 4632SOL    HW214796   2.644   4.864   2.969
 4633SOL     OW14797   4.576   2.478   4.486
 4633SOL    HW114798   4.494   2.444   4.532
 4633SOL    HW214799   4.651   2.487   4.552
 4634SOL     OW14800   3.920   2.995   4.443
 4634SOL    HW114801   3.980   2.920   4.413
 4634SOL    HW214802   3.962   3.043   4.520
 4635SOL     OW14803   4.669   5.725   2.449
 4635SOL    HW114804   4.636   5.651   2.509
 4635SOL    HW214805   4.674   5.810   2.502
 4636SOL     OW14806   1.670   5.633   6.584
 4636SOL    HW114807   1.599   5.629   6.655
 4636SOL    HW214808   1.711   5.543   6.573
 4637SOL     OW14809   2.469   2.143   3.335
 4637SOL    HW114810   2.528   2.100   3.267
 4637SOL    HW214811   2.405   2.076   3.371
 4638SOL     OW14812   4.098   4.534   0.463
 4638SOL    HW114813   4.077   4.615   0.409
 4638SOL    HW214814   4.119   4.458   0.401
 4639SOL     OW14815   3.700   2.016   1.844
 4639SOL    HW114816   3.704   2.070   1.760
 4639SOL    HW214817   3.706   2.077   1.923
 4640SOL     OW14818   6.275   3.104   0.365
 4640SOL    HW114819   6.181   3.071   0.371
 4640SOL    HW214820   6.284   3.167   0.287
 4641SOL     OW14821   1.661   5.391   4.679
 4641SOL    HW114822   1.658   5.491   4.690
 4641SOL    HW214823   1.739   5.355   4.731
 4642SOL     OW14824   6.360   1.445   5.555
 4642SOL    HW114825   6.350   1.455   5.654
 4642SOL    HW214826   6.328   1.528   5.509
 4643SOL     OW14827   0.356   1.401   0.033
 4643SOL    HW114828   0.329   1.486   7.010
 4643SOL    HW214829   0.275   1.345   0.050
 4644SOL     OW14830   1.053   0.334   0.172
 4644SOL    HW114831   0.969   0.279   0.177
 4644SOL    HW214832   1.100   0.332   0.260
 4645SOL     OW14833   6.240   1.941   5.065
 4645SOL    HW114834   6.150   1.964   5.101
 4645SOL    HW214835   6.232   1.916   4.969
 4646SOL     OW14836   2.194   4.091   3.176
 4646SOL    HW114837   2.155   4.076   3.085
 4646SOL    HW214838   2.259   4.167   3.172
 4647SOL     OW14839   1.801   6.095   2.039
 4647SOL    HW114840   1.834   6.005   2.067
 4647SOL    HW214841   1.770   6.146   2.120
 4648SOL     OW14842   3.128   1.000   4.405
 4648SOL    HW114843   3.134   0.900   4.409
 4648SOL    HW214844   3.038   1.027   4.370
 4649SOL     OW14845   5.881   1.890   0.552
 4649SOL    HW114846   5.855   1.798   0.521
 4649SOL    HW214847   5.801   1.950   0.547
 4650SOL     OW14848   4.603   5.972   1.292
 4650SOL    HW114849   4.696   5.979   1.257
 4650SOL    HW214850   4.604   5.938   1.386
 4651SOL     OW14851   0.241   3.982   6.170
 4651SOL    HW114852   0.231   3.970   6.071
 4651SOL    HW214853   0.174   4.049   6.203
 4652SOL     OW14854   0.004   7.017   5.794
 4652SOL    HW114855   0.093   6.988   5.829
 4652SOL    HW214856   0.014   0.023   5.699
 4653SOL     OW14857   6.813   5.661   1.043
 4653SOL    HW114858   6.897   5.606   1.036
 4653SOL    HW214859   6.734   5.600   1.047
 4654SOL     OW14860   0.769   0.853   5.660
 4654SOL    HW114861   0.811   0.764   5.673
 4654SOL    HW214862   0.672   0.847   5.683
 4655SOL     OW14863   5.406   3.613   2.800
 4655SOL    HW114864   5.448   3.573   2.719
 4655SOL    HW214865   5.398   3.545   2.872
 4656SOL     OW14866   6.215   1.444   2.310
 4656SOL    HW114867   6.284   1.516   2.303
 4656SOL    HW214868   6.154   1.464   2.387
 4657SOL     OW14869   3.727   1.543   2.840
 4657SOL    HW114870   3.661   1.604   2.885
 4657SOL    HW214871   3.810   1.595   2.817
 4658SOL     OW14872   1.275   1.771   6.633
 4658SOL    HW114873   1.336   1.835   6.586
 4658SOL    HW214874   1.273   1.793   6.731
 4659SOL     OW14875   1.879   4.539   0.417
 4659SOL    HW114876   1.906   4.636   0.413
 4659SOL    HW214877   1.939   4.491   0.481
 4660SOL     OW14878   0.834   5.414   3.983
 4660SOL    HW114879   0.780   5.347   3.931
 4660SOL    HW214880   0.804   5.506   3.958
 4661SOL     OW14881   0.758   1.656   5.402
 4661SOL    HW114882   0.733   1.623   5.311
 4661SOL    HW214883   0.727   1.750   5.414
 4662SOL     OW14884   2.507   6.986   6.092
 4662SOL    HW114885   2.476   6.947   6.005
 4662SOL    HW214886   2.554   0.049   6.075
 4663SOL     OW14887   1.060   6.862   0.568
 4663SOL    HW114888   0.987   6.803   0.603
 4663SOL    HW214889   1.084   6.833   0.475
 4664SOL     OW14890   5.912   0.007   5.952
 4664SOL    HW114891   5.814   0.009   5.931
 4664SOL    HW214892   5.965   0.012   5.867
 4665SOL     OW14893   0.316   0.404   2.893
 4665SOL    HW114894   0.416   0.398   2.887
 4665SOL    HW214895   0.289   0.406   2.989
 4666SOL     OW14896   1.473   2.294   5.983
 4666SOL    HW114897   1.499   2.325   5.891
 4666SOL    HW214898   1.536   2.334   6.050
 4667SOL     OW14899   6.849   3.285   0.747
 4667SOL    HW114900   6.807   3.285   0.838
 4667SOL    HW214901   6.948   3.281   0.755
 4668SOL     OW14902   4.809   2.276   4.614
 4668SOL    HW114903   4.721   2.256   4.571
 4668SOL    HW214904   4.797   2.285   4.713
 4669SOL     OW14905   4.878   6.858   6.686
 4669SOL    HW114906   4.885   6.768   6.729
 4669SOL    HW214907   4.969   6.893   6.665
 4670SOL     OW14908   0.131   3.399   6.589
 4670SOL    HW114909   0.134   3.343   6.672
 4670SOL    HW214910   0.214   3.384   6.535
 4671SOL     OW14911   0.092   2.852   2.163
 4671SOL    HW114912   0.119   2.761   2.132
 4671SOL    HW214913   0.134   2.921   2.104
 4672SOL     OW14914   3.107   3.794   0.091
 4672SOL    HW114915   3.019   3.805   0.139
 4672SOL    HW214916   3.090   3.764   7.021
 4673SOL     OW14917   6.117   0.593   0.448
 4673SOL    HW114918   6.150   0.634   0.532
 4673SOL    HW214919   6.192   0.546   0.401
 4674SOL     OW14920   1.283   2.946   0.651
 4674SOL    HW114921   1.352   2.997   0.599
 4674SOL    HW214922   1.234   2.884   0.589
 4675SOL     OW14923   1.967   5.522   6.803
 4675SOL    HW114924   1.946   5.533   6.900
 4675SOL    HW214925   2.058   5.561   6.784
 4676SOL     OW14926   0.631   6.163   4.362
 4676SOL    HW114927   0.557   6.229   4.350
 4676SOL    HW214928   0.670   6.174   4.453
 4677SOL     OW14929   4.109   6.893   0.134
 4677SOL    HW114930   4.125   6.939   0.221
 4677SOL    HW214931   4.125   6.795   0.144
 4678SOL     OW14932   2.257   4.241   0.157
 4678SOL    HW114933   2.201   4.224   0.076
 4678SOL    HW214934   2.212   4.309   0.215
 4679SOL     OW14935   2.240   6.611   5.749
 4679SOL    HW114936   2.297   6.657   5.818
 4679SOL    HW214937   2.264   6.514   5.746
 4680SOL     OW14938   1.457   4.730   6.877
 4680SOL    HW114939   1.502   4.785   6.947
 4680SOL    HW214940   1.517   4.724   6.797
 4681SOL     OW14941   6.874   5.781   4.440
 4681SOL    HW114942   6.821   5.831   4.507
 4681SOL    HW214943   6.822   5.774   4.355
 4682SOL     OW14944   2.904   6.290   0.728
 4682SOL    HW114945   2.966   6.270   0.804
 4682SOL    HW214946   2.827   6.227   0.730
 4683SOL     OW14947   0.221   4.601   3.091
 4683SOL    HW114948   0.209   4.659   3.171
 4683SOL    HW214949   0.173   4.514   3.105
 4684SOL     OW14950   1.796   1.213   5.010
 4684SOL    HW114951   1.804   1.118   5.040
 4684SOL    HW214952   1.701   1.242   5.017
 4685SOL     OW14953   4.879   4.635   5.226
 4685SOL    HW114954   4.900   4.695   5.149
 4685SOL    HW214955   4.935   4.552   5.220
 4686SOL     OW14956   5.237   6.065   0.457
 4686SOL    HW114957   5.311   6.130   0.435
 4686SOL    HW214958   5.196   6.031   0.372
 4687SOL     OW14959   5.154   6.599   4.283
 4687SOL    HW114960   5.239   6.563   4.247
 4687SOL    HW214961   5.100   6.525   4.323
 4688SOL     OW14962   0.727   1.868   0.580
 4688SOL    HW114963   0.775   1.952   0.553
 4688SOL    HW214964   0.794   1.801   0.614
 4689SOL     OW14965   1.820   4.951   4.907
 4689SOL    HW114966   1.833   4.887   4.983
 4689SOL    HW214967   1.909   4.980   4.871
 4690SOL     OW14968   1.303   1.490   0.771
 4690SOL    HW114969   1.277   1.431   0.695
 4690SOL    HW214970   1.400   1.512   0.766
 4691SOL     OW14971   4.095   4.804   0.328
 4691SOL    HW114972   4.186   4.769   0.349
 4691SOL    HW214973   4.092   4.835   0.233
 4692SOL     OW14974   0.479   6.047   3.307
 4692SOL    HW114975   0.527   6.040   3.394
 4692SOL    HW214976   0.540   6.018   3.233
 4693SOL     OW14977   0.806   0.926   3.616
 4693SOL    HW114978   0.722   0.887   3.577
 4693SOL    HW214979   0.886   0.883   3.574
 4694SOL     OW14980   1.210   1.101   5.617
 4694SOL    HW114981   1.132   1.051   5.656
 4694SOL    HW214982   1.191   1.199   5.621
 4695SOL     OW14983   3.152   2.856   1.925
 4695SOL    HW114984   3.219   2.804   1.978
 4695SOL    HW214985   3.087   2.900   1.987
 4696SOL     OW14986   6.067   3.398   0.149
 4696SOL    HW114987   5.998   3.466   0.123
 4696SOL    HW214988   6.027   3.306   0.138
 4697SOL     OW14989   1.416   5.785   6.552
 4697SOL    HW114990   1.447   5.735   6.633
 4697SOL    HW214991   1.350   5.854   6.580
 4698SOL     OW14992   6.177   3.492   2.438
 4698SOL    HW114993   6.114   3.538   2.502
 4698SOL    HW214994   6.269   3.493   2.476
 4699SOL     OW14995   6.546   6.886   3.210
 4699SOL    HW114996   6.600   6.882   3.294
 4699SOL    HW214997   6.574   6.967   3.157
 4700SOL     OW14998   5.726   6.766   0.063
 4700SOL    HW114999   5.737   6.865   0.051
 4700SOL    HW215000   5.671   6.730   7.011
 4701SOL     OW15001   0.864   0.949   0.042
 4701SOL    HW115002   0.827   1.016   0.107
 4701SOL    HW215003   0.794   0.925   6.999
 4702SOL     OW15004   2.813   3.571   0.271
 4702SOL    HW115005   2.890   3.568   0.335
 4702SOL    HW215006   2.847   3.582   0.178
 4703SOL     OW15007   0.718   0.956   1.737
 4703SOL    HW115008   0.705   1.051   1.707
 4703SOL    HW215009   0.735   0.898   1.657
 4704SOL     OW15010   4.498   6.851   0.215
 4704SOL    HW115011   4.479   6.854   0.314
 4704SOL    HW215012   4.509   6.756   0.186
 4705SOL     OW15013   3.103   4.060   4.228
 4705SOL    HW115014   3.050   4.117   4.292
 4705SOL    HW215015   3.148   3.987   4.278
 4706SOL     OW15016   4.940   5.043   0.840
 4706SOL    HW115017   4.994   5.089   0.911
 4706SOL    HW215018   4.905   4.957   0.877
 4707SOL     OW15019   3.512   5.791   1.414
 4707SOL    HW115020   3.561   5.735   1.481
 4707SOL    HW215021   3.465   5.865   1.462
 4708SOL     OW15022   1.875   3.126   2.734
 4708SOL    HW115023   1.865   3.046   2.674
 4708SOL    HW215024   1.860   3.099   2.829
 4709SOL     OW15025   2.879   3.943   0.594
 4709SOL    HW115026   2.963   3.895   0.620
 4709SOL    HW215027   2.901   4.009   0.522
 4710SOL     OW15028   5.071   3.039   1.386
 4710SOL    HW115029   5.023   2.978   1.449
 4710SOL    HW215030   5.170   3.025   1.394
 4711SOL     OW15031   2.736   6.721   2.987
 4711SOL    HW115032   2.679   6.663   2.929
 4711SOL    HW215033   2.821   6.745   2.939
 4712SOL     OW15034   1.662   4.321   6.656
 4712SOL    HW115035   1.580   4.343   6.708
 4712SOL    HW215036   1.702   4.405   6.619
 4713SOL     OW15037   1.638   5.684   0.963
 4713SOL    HW115038   1.662   5.759   0.902
 4713SOL    HW215039   1.678   5.598   0.930
 4714SOL     OW15040   3.250   2.107   0.711
 4714SOL    HW115041   3.185   2.142   0.644
 4714SOL    HW215042   3.313   2.043   0.667
 4715SOL     OW15043   5.010   4.017   4.903
 4715SOL    HW115044   4.992   4.004   5.000
 4715SOL    HW215045   5.076   3.949   4.872
 4716SOL     OW15046   2.394   5.041   0.209
 4716SOL    HW115047   2.294   5.037   0.201
 4716SOL    HW215048   2.424   5.136   0.199
 4717SOL     OW15049   1.883   5.525   3.751
 4717SOL    HW115050   1.852   5.537   3.845
 4717SOL    HW215051   1.813   5.561   3.689
 4718SOL     OW15052   5.438   0.877   6.615
 4718SOL    HW115053   5.357   0.926   6.648
 4718SOL    HW215054   5.464   0.911   6.525
 4719SOL     OW15055   4.771   3.123   1.668
 4719SOL    HW115056   4.701   3.083   1.727
 4719SOL    HW215057   4.761   3.222   1.667
 4720SOL     OW15058   3.016   1.151   3.873
 4720SOL    HW115059   3.055   1.106   3.953
 4720SOL    HW215060   3.018   1.250   3.886
 4721SOL     OW15061   1.192   1.903   1.108
 4721SOL    HW115062   1.281   1.857   1.115
 4721SOL    HW215063   1.142   1.891   1.194
 4722SOL     OW15064   3.137   0.646   2.322
 4722SOL    HW115065   3.227   0.655   2.366
 4722SOL    HW215066   3.128   0.555   2.283
 4723SOL     OW15067   2.963   0.065   5.716
 4723SOL    HW115068   2.950   0.160   5.688
 4723SOL    HW215069   2.907   0.006   5.658
 4724SOL     OW15070   4.246   4.745   1.644
 4724SOL    HW115071   4.260   4.668   1.582
 4724SOL    HW215072   4.210   4.712   1.731
 4725SOL     OW15073   5.821   5.055   2.997
 4725SOL    HW115074   5.903   5.111   3.012
 4725SOL    HW215075   5.745   5.094   3.048
 4726SOL     OW15076   0.306   6.077   5.249
 4726SOL    HW115077   0.337   6.136   5.174
 4726SOL    HW215078   0.385   6.053   5.306
 4727SOL     OW15079   5.977   6.129   0.767
 4727SOL    HW115080   6.039   6.167   0.835
 4727SOL    HW215081   5.950   6.200   0.702
 4728SOL     OW15082   0.004   0.688   6.926
 4728SOL    HW115083   6.974   0.740   6.860
 4728SOL    HW215084   6.970   0.661   7.003
 4729SOL     OW15085   2.820   0.689   0.421
 4729SOL    HW115086   2.888   0.663   0.489
 4729SOL    HW215087   2.766   0.766   0.457
 4730SOL     OW15088   2.103   0.269   5.443
 4730SOL    HW115089   2.146   0.288   5.531
 4730SOL    HW215090   2.117   0.173   5.420
 4731SOL     OW15091   5.280   2.034   6.886
 4731SOL    HW115092   5.283   2.129   6.917
 4731SOL    HW215093   5.257   1.974   6.963
 4732SOL     OW15094   6.947   1.352   0.075
 4732SOL    HW115095   6.991   1.422   0.131
 4732SOL    HW215096   7.016   1.287   0.042
 4733SOL     OW15097   6.791   3.469   3.935
 4733SOL    HW115098   6.827   3.492   4.025
 4733SOL    HW215099   6.844   3.395   3.895
 4734SOL     OW15100   4.954   4.400   6.038
 4734SOL    HW115101   5.005   4.387   5.953
 4734SOL    HW215102   4.978   4.489   6.077
 4735SOL     OW15103   0.315   4.541   3.542
 4735SOL    HW115104   0.408   4.574   3.522
 4735SOL    HW215105   0.311   4.511   3.638
 4736SOL     OW15106   2.148   6.941   1.185
 4736SOL    HW115107   2.233   6.969   1.139
 4736SOL    HW215108   2.154   6.961   1.282
 4737SOL     OW15109   3.400   5.074   1.678
 4737SOL    HW115110   3.339   5.008   1.722
 4737SOL    HW215111   3.378   5.081   1.581
 4738SOL     OW15112   6.788   6.226   2.744
 4738SOL    HW115113   6.720   6.252   2.675
 4738SOL    HW215114   6.741   6.193   2.826
 4739SOL     OW15115   3.923   6.909   1.442
 4739SOL    HW115116   3.890   6.839   1.504
 4739SOL    HW215117   3.974   6.978   1.493
 4740SOL     OW15118   0.364   2.311   3.811
 4740SOL    HW115119   0.329   2.378   3.746
 4740SOL    HW215120   0.311   2.314   3.895
 4741SOL     OW15121   3.863   3.246   1.364
 4741SOL    HW115122   3.827   3.178   1.300
 4741SOL    HW215123   3.925   3.201   1.429
 4742SOL     OW15124   4.170   1.053   0.612
 4742SOL    HW115125   4.210   1.051   0.704
 4742SOL    HW215126   4.125   0.965   0.594
 4743SOL     OW15127   1.584   6.271   0.685
 4743SOL    HW115128   1.509   6.217   0.647
 4743SOL    HW215129   1.671   6.225   0.666
 4744SOL     OW15130   1.770   5.562   1.620
 4744SOL    HW115131   1.713   5.537   1.698
 4744SOL    HW215132   1.733   5.521   1.537
 4745SOL     OW15133   1.827   3.493   0.065
 4745SOL    HW115134   1.888   3.491   0.144
 4745SOL    HW215135   1.878   3.522   7.008
 4746SOL     OW15136   5.108   5.750   3.844
 4746SOL    HW115137   5.057   5.673   3.804
 4746SOL    HW215138   5.046   5.805   3.900
 4747SOL     OW15139   2.924   0.739   6.470
 4747SOL    HW115140   3.012   0.771   6.435
 4747SOL    HW215141   2.938   0.662   6.532
 4748SOL     OW15142   1.873   6.854   1.712
 4748SOL    HW115143   1.889   6.940   1.664
 4748SOL    HW215144   1.870   6.779   1.646
 4749SOL     OW15145   2.287   1.984   0.657
 4749SOL    HW115146   2.332   1.905   0.699
 4749SOL    HW215147   2.200   1.956   0.618
 4750SOL     OW15148   4.616   3.504   5.814
 4750SOL    HW115149   4.570   3.592   5.820
 4750SOL    HW215150   4.616   3.460   5.903
 4751SOL     OW15151   4.717   1.612   3.075
 4751SOL    HW115152   4.784   1.653   3.012
 4751SOL    HW215153   4.684   1.681   3.139
 4752SOL     OW15154   5.600   1.705   6.460
 4752SOL    HW115155   5.614   1.618   6.412
 4752SOL    HW215156   5.584   1.687   6.557
 4753SOL     OW15157   3.151   6.634   4.804
 4753SOL    HW115158   3.114   6.716   4.760
 4753SOL    HW215159   3.251   6.634   4.795
 4754SOL     OW15160   4.574   4.444   7.022
 4754SOL    HW115161   4.616   4.526   6.985
 4754SOL    HW215162   4.489   4.468   0.046
 4755SOL     OW15163   0.594   1.324   0.895
 4755SOL    HW115164   0.502   1.314   0.859
 4755SOL    HW215165   0.603   1.271   0.980
 4756SOL     OW15166   0.156   4.125   5.659
 4756SOL    HW115167   0.183   4.053   5.595
 4756SOL    HW215168   0.148   4.212   5.609
 4757SOL     OW15169   2.425   3.504   0.129
 4757SOL    HW115170   2.344   3.446   0.122
 4757SOL    HW215171   2.482   3.472   0.204
 4758SOL     OW15172   2.571   5.500   3.294
 4758SOL    HW115173   2.580   5.451   3.207
 4758SOL    HW215174   2.483   5.479   3.336
 4759SOL     OW15175   0.516   6.343   1.986
 4759SOL    HW115176   0.569   6.416   2.030
 4759SOL    HW215177   0.504   6.268   2.051
 4760SOL     OW15178   1.650   5.842   0.737
 4760SOL    HW115179   1.587   5.911   0.772
 4760SOL    HW215180   1.626   5.820   0.643
 4761SOL     OW15181   5.016   6.841   1.830
 4761SOL    HW115182   4.921   6.826   1.861
 4761SOL    HW215183   5.078   6.795   1.893
 4762SOL     OW15184   1.566   0.147   3.070
 4762SOL    HW115185   1.529   0.217   3.130
 4762SOL    HW215186   1.557   0.175   2.974
 4763SOL     OW15187   5.659   5.810   2.110
 4763SOL    HW115188   5.625   5.806   2.016
 4763SOL    HW215189   5.734   5.877   2.116
 4764SOL     OW15190   4.888   3.199   0.159
 4764SOL    HW115191   4.822   3.218   0.086
 4764SOL    HW215192   4.860   3.247   0.242
 4765SOL     OW15193   4.237   2.005   5.972
 4765SOL    HW115194   4.288   2.005   6.058
 4765SOL    HW215195   4.145   1.968   5.988
 4766SOL     OW15196   1.382   1.091   4.455
 4766SOL    HW115197   1.289   1.105   4.421
 4766SOL    HW215198   1.396   0.994   4.473
 4767SOL     OW15199   1.924   4.727   3.626
 4767SOL    HW115200   1.926   4.816   3.581
 4767SOL    HW215201   1.869   4.732   3.709
 4768SOL     OW15202   4.900   2.220   6.300
 4768SOL    HW115203   4.825   2.217   6.235
 4768SOL    HW215204   4.947   2.308   6.294
 4769SOL     OW15205   1.525   3.311   0.700
 4769SOL    HW115206   1.599   3.245   0.688
 4769SOL    HW215207   1.480   3.327   0.612
 4770SOL     OW15208   6.909   1.441   3.529
 4770SOL    HW115209   6.916   1.541   3.526
 4770SOL    HW215210   6.946   1.408   3.616
 4771SOL     OW15211   1.948   0.318   3.863
 4771SOL    HW115212   1.985   0.403   3.826
 4771SOL    HW215213   1.889   0.274   3.794
 4772SOL     OW15214   2.614   5.326   3.068
 4772SOL    HW115215   2.588   5.234   3.097
 4772SOL    HW215216   2.710   5.343   3.091
 4773SOL     OW15217   3.073   5.142   4.774
 4773SOL    HW115218   3.074   5.238   4.746
 4773SOL    HW215219   3.083   5.083   4.694
 4774SOL     OW15220   0.988   4.128   0.917
 4774SOL    HW115221   1.080   4.157   0.943
 4774SOL    HW215222   0.990   4.033   0.888
 4775SOL     OW15223   5.821   5.460   5.074
 4775SOL    HW115224   5.893   5.428   5.012
 4775SOL    HW215225   5.829   5.413   5.162
 4776SOL     OW15226   0.385   1.652   4.994
 4776SOL    HW115227   0.389   1.751   4.982
 4776SOL    HW215228   0.291   1.624   5.012
 4777SOL     OW15229   1.653   6.788   3.532
 4777SOL    HW115230   1.641   6.828   3.441
 4777SOL    HW215231   1.592   6.834   3.597
 4778SOL     OW15232   1.653   0.676   6.709
 4778SOL    HW115233   1.583   0.697   6.641
 4778SOL    HW215234   1.648   0.579   6.734
 4779SOL     OW15235   4.969   0.767   4.839
 4779SOL    HW115236   5.013   0.856   4.843
 4779SOL    HW215237   5.023   0.705   4.782
 4780SOL     OW15238   4.714   2.878   4.492
 4780SOL    HW115239   4.736   2.816   4.567
 4780SOL    HW215240   4.624   2.918   4.507
 4781SOL     OW15241   1.036   4.994   1.702
 4781SOL    HW115242   1.036   5.094   1.702
 4781SOL    HW215243   0.998   4.961   1.788
 4782SOL     OW15244   0.136   6.398   4.158
 4782SOL    HW115245   0.233   6.415   4.171
 4782SOL    HW215246   0.122   6.301   4.135
 4783SOL     OW15247   6.902   3.622   6.187
 4783SOL    HW115248   6.835   3.622   6.261
 4783SOL    HW215249   6.977   3.684   6.210
 4784SOL     OW15250   5.482   3.346   0.110
 4784SOL    HW115251   5.506   3.289   0.031
 4784SOL    HW215252   5.397   3.311   0.150
 4785SOL     OW15253   0.589   0.218   3.812
 4785SOL    HW115254   0.649   0.200   3.734
 4785SOL    HW215255   0.640   0.202   3.897
 4786SOL     OW15256   0.838   5.965   0.106
 4786SOL    HW115257   0.804   5.969   0.200
 4786SOL    HW215258   0.768   5.923   0.048
 4787SOL     OW15259   4.809   1.254   4.871
 4787SOL    HW115260   4.909   1.252   4.877
 4787SOL    HW215261   4.771   1.182   4.928
 4788SOL     OW15262   7.018   6.011   0.601
 4788SOL    HW115263   6.996   5.937   0.665
 4788SOL    HW215264   0.085   5.997   0.563
 4789SOL     OW15265   6.181   0.889   3.026
 4789SOL    HW115266   6.237   0.903   3.108
 4789SOL    HW215267   6.085   0.902   3.049
 4790SOL     OW15268   0.121   2.078   4.417
 4790SOL    HW115269   0.095   2.160   4.367
 4790SOL    HW215270   0.220   2.074   4.428
 4791SOL     OW15271   0.582   0.253   6.978
 4791SOL    HW115272   0.630   0.177   6.934
 4791SOL    HW215273   0.551   0.226   0.044
 4792SOL     OW15274   1.399   3.922   1.991
 4792SOL    HW115275   1.491   3.918   2.031
 4792SOL    HW215276   1.336   3.870   2.047
 4793SOL     OW15277   1.432   4.167   5.379
 4793SOL    HW115278   1.435   4.119   5.467
 4793SOL    HW215279   1.455   4.263   5.392
 4794SOL     OW15280   4.890   2.041   5.527
 4794SOL    HW115281   4.854   1.973   5.462
 4794SOL    HW215282   4.882   2.132   5.487
 4795SOL     OW15283   6.749   1.476   6.241
 4795SOL    HW115284   6.813   1.527   6.299
 4795SOL    HW215285   6.660   1.521   6.242
 4796SOL     OW15286   4.653   1.309   5.326
 4796SOL    HW115287   4.682   1.329   5.420
 4796SOL    HW215288   4.562   1.346   5.311
 4797SOL     OW15289   2.281   4.939   6.267
 4797SOL    HW115290   2.353   4.922   6.199
 4797SOL    HW215291   2.318   4.923   6.359
 4798SOL     OW15292   3.236   6.010   0.526
 4798SOL    HW115293   3.225   5.969   0.435
 4798SOL    HW215294   3.333   6.015   0.549
 4799SOL     OW15295   4.250   2.849   0.458
 4799SOL    HW115296   4.158   2.817   0.483
 4799SOL    HW215297   4.250   2.949   0.452
 4800SOL     OW15298   0.962   4.670   0.238
 4800SOL    HW115299   0.955   4.669   0.338
 4800SOL    HW215300   0.870   4.669   0.199
 4801SOL     OW15301   5.271   1.915   3.326
 4801SOL    HW115302   5.201   1.987   3.328
 4801SOL    HW215303   5.349   1.943   3.382
 4802SOL     OW15304   0.006   0.346   4.607
 4802SOL    HW115305   7.011   0.408   4.530
 4802SOL    HW215306   6.982   0.379   4.688
 4803SOL     OW15307   4.991   4.126   5.722
 4803SOL    HW115308   5.021   4.220   5.739
 4803SOL    HW215309   4.892   4.120   5.740
 4804SOL     OW15310   5.522   2.231   0.892
 4804SOL    HW115311   5.456   2.162   0.864
 4804SOL    HW215312   5.539   2.294   0.816
 4805SOL     OW15313   5.835   1.448   0.130
 4805SOL    HW115314   5.791   1.370   0.175
 4805SOL    HW215315   5.801   1.456   0.036
 4806SOL     OW15316   1.146   1.652   2.804
 4806SOL    HW115317   1.168   1.718   2.732
 4806SOL    HW215318   1.127   1.701   2.889
 4807SOL     OW15319   6.480   4.173   6.233
 4807SOL    HW115320   6.466   4.183   6.332
 4807SOL    HW215321   6.519   4.083   6.214
 4808SOL     OW15322   3.721   5.796   2.490
 4808SOL    HW115323   3.733   5.895   2.491
 4808SOL    HW215324   3.624   5.774   2.503
 4809SOL     OW15325   3.030   3.880   1.593
 4809SOL    HW115326   3.072   3.792   1.573
 4809SOL    HW215327   2.994   3.880   1.687
 4810SOL     OW15328   1.766   5.111   4.228
 4810SOL    HW115329   1.787   5.207   4.247
 4810SOL    HW215330   1.694   5.081   4.290
 4811SOL     OW15331   3.571   3.263   4.287
 4811SOL    HW115332   3.601   3.168   4.294
 4811SOL    HW215333   3.598   3.300   4.198
 4812SOL     OW15334   1.504   6.394   2.802
 4812SOL    HW115335   1.579   6.445   2.843
 4812SOL    HW215336   1.481   6.432   2.712
 4813SOL     OW15337   0.856   2.741   4.964
 4813SOL    HW115338   0.878   2.645   4.950
 4813SOL    HW215339   0.787   2.749   5.036
 4814SOL     OW15340   6.561   3.344   0.866
 4814SOL    HW115341   6.552   3.267   0.802
 4814SOL    HW215342   6.472   3.387   0.878
 4815SOL     OW15343   6.177   4.584   2.261
 4815SOL    HW115344   6.094   4.557   2.309
 4815SOL    HW215345   6.174   4.682   2.241
 4816SOL     OW15346   2.967   0.478   2.600
 4816SOL    HW115347   2.950   0.417   2.523
 4816SOL    HW215348   3.057   0.459   2.639
 4817SOL     OW15349   4.382   2.171   1.348
 4817SOL    HW115350   4.443   2.157   1.269
 4817SOL    HW215351   4.323   2.250   1.330
 4818SOL     OW15352   4.265   6.788   4.273
 4818SOL    HW115353   4.231   6.709   4.220
 4818SOL    HW215354   4.188   6.830   4.321
 4819SOL     OW15355   2.907   0.982   0.479
 4819SOL    HW115356   2.986   0.929   0.447
 4819SOL    HW215357   2.825   0.953   0.429
 4820SOL     OW15358   6.540   4.019   1.548
 4820SOL    HW115359   6.546   3.970   1.461
 4820SOL    HW215360   6.631   4.047   1.578
 4821SOL     OW15361   7.018   5.671   1.651
 4821SOL    HW115362   0.056   5.732   1.700
 4821SOL    HW215363   0.039   5.637   1.569
 4822SOL     OW15364   0.925   3.914   1.634
 4822SOL    HW115365   0.939   3.914   1.534
 4822SOL    HW215366   0.844   3.968   1.656
 4823SOL     OW15367   0.638   1.645   3.564
 4823SOL    HW115368   0.710   1.715   3.565
 4823SOL    HW215369   0.639   1.598   3.476
 4824SOL     OW15370   6.024   2.334   2.418
 4824SOL    HW115371   5.942   2.336   2.475
 4824SOL    HW215372   6.009   2.273   2.340
 4825SOL     OW15373   1.168   3.260   4.100
 4825SOL    HW115374   1.251   3.302   4.137
 4825SOL    HW215375   1.114   3.221   4.175
 4826SOL     OW15376   0.039   6.780   0.099
 4826SOL    HW115377   0.058   6.872   0.065
 4826SOL    HW215378   0.110   6.717   0.068
 4827SOL     OW15379   5.003   1.706   7.005
 4827SOL    HW115380   5.001   1.614   6.966
 4827SOL    HW215381   4.921   1.755   6.976
 4828SOL     OW15382   5.134   3.709   6.618
 4828SOL    HW115383   5.166   3.767   6.693
 4828SOL    HW215384   5.176   3.618   6.627
 4829SOL     OW15385   3.781   0.315   5.180
 4829SOL    HW115386   3.752   0.393   5.235
 4829SOL    HW215387   3.830   0.348   5.099
 4830SOL     OW15388   4.676   5.682   5.026
 4830SOL    HW115389   4.645   5.599   5.072
 4830SOL    HW215390   4.597   5.738   5.002
 4831SOL     OW15391   6.007   2.935   6.665
 4831SOL    HW115392   5.985   2.846   6.707
 4831SOL    HW215393   6.015   3.004   6.737
 4832SOL     OW15394   1.814   2.313   6.010
 4832SOL    HW115395   1.768   2.390   6.055
 4832SOL    HW215396   1.799   2.318   5.911
 4833SOL     OW15397   5.876   1.338   3.606
 4833SOL    HW115398   5.947   1.353   3.538
 4833SOL    HW215399   5.851   1.242   3.608
 4834SOL     OW15400   6.010   0.597   3.108
 4834SOL    HW115401   6.013   0.549   3.021
 4834SOL    HW215402   5.929   0.570   3.159
 4835SOL     OW15403   1.581   1.041   5.802
 4835SOL    HW115404   1.576   1.009   5.707
 4835SOL    HW215405   1.497   1.091   5.824
 4836SOL     OW15406   5.824   2.921   2.329
 4836SOL    HW115407   5.756   2.911   2.256
 4836SOL    HW215408   5.888   2.994   2.305
 4837SOL     OW15409   0.731   4.021   0.627
 4837SOL    HW115410   0.668   4.003   0.702
 4837SOL    HW215411   0.823   4.037   0.663
 4838SOL     OW15412   3.000   5.090   2.450
 4838SOL    HW115413   2.922   5.152   2.444
 4838SOL    HW215414   3.073   5.134   2.501
 4839SOL     OW15415   0.593   0.087   6.568
 4839SOL    HW115416   0.656   0.011   6.554
 4839SOL    HW215417   0.643   0.168   6.599
 4840SOL     OW15418   6.287   6.498   6.124
 4840SOL    HW115419   6.329   6.453   6.202
 4840SOL    HW215420   6.325   6.590   6.115
 4841SOL     OW15421   2.100   5.526   1.591
 4841SOL    HW115422   2.145   5.485   1.671
 4841SOL    HW215423   2.001   5.513   1.599
 4842SOL     OW15424   3.242   6.529   1.248
 4842SOL    HW115425   3.201   6.535   1.339
 4842SOL    HW215426   3.337   6.501   1.256
 4843SOL     OW15427   1.368   2.953   6.734
 4843SOL    HW115428   1.454   2.987   6.698
 4843SOL    HW215429   1.322   2.897   6.664
 4844SOL     OW15430   0.467   1.743   5.396
 4844SOL    HW115431   0.474   1.673   5.325
 4844SOL    HW215432   0.556   1.789   5.406
 4845SOL     OW15433   5.963   5.604   3.990
 4845SOL    HW115434   6.058   5.633   3.987
 4845SOL    HW215435   5.913   5.642   3.912
 4846SOL     OW15436   0.248   4.923   6.722
 4846SOL    HW115437   0.203   4.905   6.810
 4846SOL    HW215438   0.180   4.958   6.657
 4847SOL     OW15439   4.842   2.946   4.873
 4847SOL    HW115440   4.904   2.956   4.951
 4847SOL    HW215441   4.778   2.872   4.891
 4848SOL     OW15442   2.508   2.394   1.504
 4848SOL    HW115443   2.469   2.307   1.473
 4848SOL    HW215444   2.590   2.415   1.452
 4849SOL     OW15445   1.580   6.223   5.701
 4849SOL    HW115446   1.604   6.320   5.709
 4849SOL    HW215447   1.515   6.198   5.772
 4850SOL     OW15448   3.962   6.965   3.457
 4850SOL    HW115449   3.996   0.020   3.509
 4850SOL    HW215450   3.863   6.959   3.467
 4851SOL     OW15451   4.764   1.093   5.171
 4851SOL    HW115452   4.815   1.036   5.236
 4851SOL    HW215453   4.737   1.178   5.216
 4852SOL     OW15454   1.745   1.692   1.857
 4852SOL    HW115455   1.793   1.721   1.940
 4852SOL    HW215456   1.660   1.646   1.882
 4853SOL     OW15457   3.619   1.982   1.546
 4853SOL    HW115458   3.654   2.073   1.568
 4853SOL    HW215459   3.550   1.955   1.613
 4854SOL     OW15460   3.428   0.171   6.862
 4854SOL    HW115461   3.514   0.147   6.907
 4854SOL    HW215462   3.384   0.088   6.828
 4855SOL     OW15463   6.559   3.038   2.528
 4855SOL    HW115464   6.513   2.952   2.552
 4855SOL    HW215465   6.494   3.114   2.534
 4856SOL     OW15466   1.325   4.379   2.773
 4856SOL    HW115467   1.357   4.284   2.772
 4856SOL    HW215468   1.372   4.429   2.847
 4857SOL     OW15469   0.071   1.407   5.746
 4857SOL    HW115470   0.034   1.472   5.680
 4857SOL    HW215471   0.165   1.432   5.769
 4858SOL     OW15472   1.755   0.600   3.962
 4858SOL    HW115473   1.686   0.657   3.918
 4858SOL    HW215474   1.731   0.586   4.058
 4859SOL     OW15475   3.674   5.669   6.355
 4859SOL    HW115476   3.756   5.620   6.325
 4859SOL    HW215477   3.637   5.625   6.438
 4860SOL     OW15478   3.820   4.294   0.884
 4860SOL    HW115479   3.848   4.389   0.869
 4860SOL    HW215480   3.806   4.248   0.796
 4861SOL     OW15481   4.639   4.009   6.514
 4861SOL    HW115482   4.578   4.075   6.558
 4861SOL    HW215483   4.584   3.944   6.461
 4862SOL     OW15484   0.465   6.649   1.095
 4862SOL    HW115485   0.389   6.703   1.131
 4862SOL    HW215486   0.429   6.564   1.056
 4863SOL     OW15487   4.973   4.390   6.730
 4863SOL    HW115488   5.005   4.416   6.821
 4863SOL    HW215489   4.998   4.295   6.712
 4864SOL     OW15490   3.455   1.376   4.220
 4864SOL    HW115491   3.520   1.405   4.149
 4864SOL    HW215492   3.369   1.347   4.176
 4865SOL     OW15493   1.455   0.167   5.219
 4865SOL    HW115494   1.403   0.186   5.302
 4865SOL    HW215495   1.439   0.240   5.152
 4866SOL     OW15496   6.386   4.132   6.522
 4866SOL    HW115497   6.434   4.097   6.602
 4866SOL    HW215498   6.308   4.073   6.501
 4867SOL     OW15499   4.675   0.921   2.929
 4867SOL    HW115500   4.744   0.848   2.925
 4867SOL    HW215501   4.627   0.926   2.841
 4868SOL     OW15502   6.591   4.561   0.360
 4868SOL    HW115503   6.634   4.591   0.445
 4868SOL    HW215504   6.580   4.462   0.361
 4869SOL     OW15505   0.771   1.544   0.878
 4869SOL    HW115506   0.697   1.478   0.890
 4869SOL    HW215507   0.815   1.561   0.967
 4870SOL     OW15508   0.406   6.642   1.464
 4870SOL    HW115509   0.414   6.740   1.483
 4870SOL    HW215510   0.478   6.615   1.400
 4871SOL     OW15511   1.219   1.258   3.528
 4871SOL    HW115512   1.294   1.269   3.593
 4871SOL    HW215513   1.172   1.346   3.517
 4872SOL     OW15514   6.063   6.644   2.480
 4872SOL    HW115515   5.979   6.686   2.446
 4872SOL    HW215516   6.041   6.572   2.546
 4873SOL     OW15517   6.412   5.315   4.939
 4873SOL    HW115518   6.462   5.344   5.021
 4873SOL    HW215519   6.460   5.347   4.857
 4874SOL     OW15520   4.859   2.896   3.294
 4874SOL    HW115521   4.824   2.987   3.314
 4874SOL    HW215522   4.808   2.828   3.348
 4875SOL     OW15523   5.836   6.388   5.198
 4875SOL    HW115524   5.870   6.326   5.269
 4875SOL    HW215525   5.899   6.465   5.189
 4876SOL     OW15526   0.430   1.438   2.070
 4876SOL    HW115527   0.362   1.408   2.137
 4876SOL    HW215528   0.383   1.466   1.986
 4877SOL     OW15529   6.396   1.400   6.356
 4877SOL    HW115530   6.422   1.390   6.452
 4877SOL    HW215531   6.405   1.495   6.328
 4878SOL     OW15532   6.457   3.540   2.467
 4878SOL    HW115533   6.505   3.524   2.553
 4878SOL    HW215534   6.517   3.518   2.390
 4879SOL     OW15535   5.264   0.974   2.916
 4879SOL    HW115536   5.351   1.016   2.892
 4879SOL    HW215537   5.192   1.012   2.858
 4880SOL     OW15538   0.123   2.916   6.589
 4880SOL    HW115539   0.040   2.871   6.555
 4880SOL    HW215540   0.170   2.961   6.513
 4881SOL     OW15541   1.717   2.915   1.613
 4881SOL    HW115542   1.805   2.930   1.659
 4881SOL    HW215543   1.642   2.936   1.676
 4882SOL     OW15544   4.881   2.485   3.922
 4882SOL    HW115545   4.862   2.575   3.959
 4882SOL    HW215546   4.812   2.420   3.955
 4883SOL     OW15547   6.112   4.293   0.739
 4883SOL    HW115548   6.057   4.350   0.679
 4883SOL    HW215549   6.052   4.232   0.792
 4884SOL     OW15550   1.598   1.117   1.513
 4884SOL    HW115551   1.593   1.022   1.482
 4884SOL    HW215552   1.598   1.178   1.434
 4885SOL     OW15553   1.447   4.427   6.809
 4885SOL    HW115554   1.398   4.369   6.874
 4885SOL    HW215555   1.458   4.518   6.848
 4886SOL     OW15556   2.695   0.806   1.831
 4886SOL    HW115557   2.638   0.803   1.748
 4886SOL    HW215558   2.642   0.843   1.907
 4887SOL     OW15559   5.081   6.310   0.296
 4887SOL    HW115560   5.064   6.355   0.209
 4887SOL    HW215561   5.019   6.232   0.306
 4888SOL     OW15562   4.329   0.130   2.891
 4888SOL    HW115563   4.230   0.136   2.890
 4888SOL    HW215564   4.365   0.191   2.962
 4889SOL     OW15565   6.491   3.241   4.180
 4889SOL    HW115566   6.533   3.180   4.112
 4889SOL    HW215567   6.530   3.333   4.170
 4890SOL     OW15568   6.415   1.639   4.803
 4890SOL    HW115569   6.404   1.678   4.894
 4890SOL    HW215570   6.465   1.703   4.745
 4891SOL     OW15571   2.905   5.459   0.168
 4891SOL    HW115572   2.885   5.482   0.073
 4891SOL    HW215573   2.873   5.366   0.187
 4892SOL     OW15574   5.115   5.054   2.710
 4892SOL    HW115575   5.138   4.957   2.706
 4892SOL    HW215576   5.183   5.107   2.659
 4893SOL     OW15577   1.225   3.084   1.061
 4893SOL    HW115578   1.185   3.175   1.051
 4893SOL    HW215579   1.249   3.068   1.156
 4894SOL     OW15580   4.844   6.500   1.788
 4894SOL    HW115581   4.934   6.543   1.796
 4894SOL    HW215582   4.774   6.566   1.815
 4895SOL     OW15583   0.176   4.600   5.925
 4895SOL    HW115584   0.136   4.627   5.837
 4895SOL    HW215585   0.180   4.679   5.986
 4896SOL     OW15586   2.856   5.074   4.957
 4896SOL    HW115587   2.796   5.154   4.965
 4896SOL    HW215588   2.927   5.093   4.888
 4897SOL     OW15589   1.847   0.893   4.706
 4897SOL    HW115590   1.780   0.851   4.767
 4897SOL    HW215591   1.826   0.868   4.611
 4898SOL     OW15592   4.933   1.929   3.898
 4898SOL    HW115593   4.970   1.846   3.856
 4898SOL    HW215594   5.007   1.994   3.915
 4899SOL     OW15595   6.318   6.636   1.823
 4899SOL    HW115596   6.283   6.730   1.822
 4899SOL    HW215597   6.368   6.620   1.908
 4900SOL     OW15598   3.738   6.217   6.077
 4900SOL    HW115599   3.772   6.266   5.997
 4900SOL    HW215600   3.812   6.205   6.143
 4901SOL     OW15601   1.268   0.729   6.800
 4901SOL    HW115602   1.252   0.633   6.778
 4901SOL    HW215603   1.203   0.759   6.870
 4902SOL     OW15604   2.775   6.878   5.613
 4902SOL    HW115605   2.744   6.918   5.527
 4902SOL    HW215606   2.773   6.778   5.606
 4903SOL     OW15607   5.199   3.353   3.220
 4903SOL    HW115608   5.133   3.296   3.172
 4903SOL    HW215609   5.154   3.438   3.250
 4904SOL     OW15610   1.637   0.469   1.266
 4904SOL    HW115611   1.639   0.380   1.219
 4904SOL    HW215612   1.553   0.478   1.318
 4905SOL     OW15613   2.505   0.161   3.004
 4905SOL    HW115614   2.535   0.076   2.961
 4905SOL    HW215615   2.579   0.199   3.059
 4906SOL     OW15616   5.123   3.677   5.027
 4906SOL    HW115617   5.080   3.598   4.985
 4906SOL    HW215618   5.169   3.732   4.957
 4907SOL     OW15619   4.120   2.685   6.875
 4907SOL    HW115620   4.165   2.689   6.786
 4907SOL    HW215621   4.189   2.689   6.948
 4908SOL     OW15622   3.695   6.939   6.654
 4908SOL    HW115623   3.673   6.976   6.744
 4908SOL    HW215624   3.793   6.946   6.638
 4909SOL     OW15625   5.117   5.063   4.221
 4909SOL    HW115626   5.132   4.967   4.245
 4909SOL    HW215627   5.144   5.079   4.126
 4910SOL     OW15628   4.315   2.321   6.522
 4910SOL    HW115629   4.352   2.229   6.513
 4910SOL    HW215630   4.335   2.373   6.439
 4911SOL     OW15631   6.564   3.840   2.712
 4911SOL    HW115632   6.472   3.855   2.678
 4911SOL    HW215633   6.610   3.927   2.726
 4912SOL     OW15634   5.841   2.607   4.297
 4912SOL    HW115635   5.774   2.672   4.331
 4912SOL    HW215636   5.806   2.564   4.213
 4913SOL     OW15637   0.612   4.085   4.698
 4913SOL    HW115638   0.649   3.998   4.729
 4913SOL    HW215639   0.533   4.069   4.639
 4914SOL     OW15640   3.964   0.137   4.261
 4914SOL    HW115641   3.925   0.172   4.346
 4914SOL    HW215642   4.027   0.204   4.223
 4915SOL     OW15643   3.607   5.613   5.757
 4915SOL    HW115644   3.637   5.687   5.697
 4915SOL    HW215645   3.637   5.632   5.851
 4916SOL     OW15646   5.395   2.364   3.599
 4916SOL    HW115647   5.392   2.378   3.698
 4916SOL    HW215648   5.353   2.276   3.576
 4917SOL     OW15649   3.677   6.685   0.182
 4917SOL    HW115650   3.587   6.645   0.201
 4917SOL    HW215651   3.710   6.731   0.264
 4918SOL     OW15652   5.810   5.217   3.638
 4918SOL    HW115653   5.769   5.279   3.704
 4918SOL    HW215654   5.816   5.263   3.549
 4919SOL     OW15655   3.390   3.593   1.728
 4919SOL    HW115656   3.304   3.554   1.760
 4919SOL    HW215657   3.387   3.692   1.737
 4920SOL     OW15658   6.013   1.525   6.254
 4920SOL    HW115659   5.941   1.561   6.195
 4920SOL    HW215660   6.016   1.578   6.339
 4921SOL     OW15661   0.030   6.975   1.667
 4921SOL    HW115662   0.040   6.906   1.596
 4921SOL    HW215663   6.966   7.023   1.655
 4922SOL     OW15664   3.447   1.568   6.058
 4922SOL    HW115665   3.496   1.629   6.119
 4922SOL    HW215666   3.389   1.506   6.111
 4923SOL     OW15667   3.577   1.766   1.814
 4923SOL    HW115668   3.639   1.702   1.860
 4923SOL    HW215669   3.608   1.859   1.831
 4924SOL     OW15670   2.306   0.520   5.172
 4924SOL    HW115671   2.337   0.500   5.079
 4924SOL    HW215672   2.338   0.448   5.234
 4925SOL     OW15673   5.289   5.765   3.387
 4925SOL    HW115674   5.309   5.759   3.289
 4925SOL    HW215675   5.314   5.856   3.420
 4926SOL     OW15676   5.675   3.009   1.826
 4926SOL    HW115677   5.666   3.070   1.748
 4926SOL    HW215678   5.660   2.914   1.796
 4927SOL     OW15679   2.947   1.499   0.281
 4927SOL    HW115680   2.960   1.438   0.360
 4927SOL    HW215681   2.857   1.483   0.241
 4928SOL     OW15682   0.298   2.318   0.179
 4928SOL    HW115683   0.352   2.239   0.153
 4928SOL    HW215684   0.210   2.316   0.131
 4929SOL     OW15685   6.976   6.836   5.121
 4929SOL    HW115686   7.008   6.806   5.032
 4929SOL    HW215687   0.030   6.861   5.178
 4930SOL     OW15688   5.044   5.498   2.612
 4930SOL    HW115689   5.094   5.446   2.544
 4930SOL    HW215690   4.976   5.439   2.656
 4931SOL     OW15691   6.843   0.061   0.990
 4931SOL    HW115692   6.787   0.128   0.941
 4931SOL    HW215693   6.840   0.079   1.088
 4932SOL     OW15694   3.379   3.249   2.296
 4932SOL    HW115695   3.351   3.230   2.390
 4932SOL    HW215696   3.436   3.173   2.263
 4933SOL     OW15697   0.904   0.366   5.667
 4933SOL    HW115698   0.809   0.346   5.693
 4933SOL    HW215699   0.930   0.456   5.700
 4934SOL     OW15700   3.538   6.860   2.428
 4934SOL    HW115701   3.595   6.822   2.501
 4934SOL    HW215702   3.558   6.957   2.416
 4935SOL     OW15703   0.389   1.109   5.181
 4935SOL    HW115704   0.326   1.035   5.155
 4935SOL    HW215705   0.338   1.195   5.188
 4936SOL     OW15706   4.857   2.201   0.817
 4936SOL    HW115707   4.890   2.140   0.745
 4936SOL    HW215708   4.934   2.247   0.860
 4937SOL     OW15709   4.435   2.856   5.338
 4937SOL    HW115710   4.440   2.955   5.354
 4937SOL    HW215711   4.372   2.815   5.404
 4938SOL     OW15712   3.811   4.506   6.688
 4938SOL    HW115713   3.908   4.513   6.666
 4938SOL    HW215714   3.760   4.580   6.643
 4939SOL     OW15715   4.506   4.186   6.194
 4939SOL    HW115716   4.471   4.097   6.223
 4939SOL    HW215717   4.604   4.179   6.173
 4940SOL     OW15718   2.313   6.172   3.778
 4940SOL    HW115719   2.260   6.088   3.766
 4940SOL    HW215720   2.367   6.167   3.861
 4941SOL     OW15721   5.929   0.414   0.846
 4941SOL    HW115722   5.855   0.429   0.912
 4941SOL    HW215723   5.910   0.463   0.762
 4942SOL     OW15724   4.810   2.933   6.118
 4942SOL    HW115725   4.786   2.961   6.025
 4942SOL    HW215726   4.728   2.904   6.167
 4943SOL     OW15727   5.860   3.104   1.468
 4943SOL    HW115728   5.789   3.062   1.524
 4943SOL    HW215729   5.950   3.083   1.507
 4944SOL     OW15730   2.295   4.116   1.927
 4944SOL    HW115731   2.308   4.021   1.900
 4944SOL    HW215732   2.308   4.126   2.026
 4945SOL     OW15733   6.989   6.185   4.499
 4945SOL    HW115734   0.033   6.111   4.503
 4945SOL    HW215735   6.912   6.156   4.443
 4946SOL     OW15736   0.315   4.029   2.084
 4946SOL    HW115737   0.229   4.040   2.034
 4946SOL    HW215738   0.382   3.984   2.024
 4947SOL     OW15739   6.845   0.665   0.895
 4947SOL    HW115740   6.769   0.633   0.951
 4947SOL    HW215741   6.818   0.749   0.848
 4948SOL     OW15742   2.435   0.964   2.508
 4948SOL    HW115743   2.509   0.994   2.448
 4948SOL    HW215744   2.380   0.894   2.461
 4949SOL     OW15745   5.275   2.587   4.861
 4949SOL    HW115746   5.363   2.589   4.815
 4949SOL    HW215747   5.282   2.633   4.950
 4950SOL     OW15748   3.607   4.961   4.960
 4950SOL    HW115749   3.551   5.038   4.989
 4950SOL    HW215750   3.634   4.907   5.040
 4951SOL     OW15751   4.443   1.593   3.913
 4951SOL    HW115752   4.518   1.585   3.847
 4951SOL    HW215753   4.394   1.679   3.897
 4952SOL     OW15754   6.975   4.614   4.519
 4952SOL    HW115755   6.877   4.604   4.500
 4952SOL    HW215756   7.005   4.539   4.578
 4953SOL     OW15757   1.666   4.902   2.297
 4953SOL    HW115758   1.597   4.892   2.225
 4953SOL    HW215759   1.639   4.976   2.359
 4954SOL     OW15760   6.082   6.394   0.197
 4954SOL    HW115761   6.121   6.473   0.243
 4954SOL    HW215762   5.986   6.412   0.175
 4955SOL     OW15763   1.622   1.106   1.062
 4955SOL    HW115764   1.706   1.067   1.099
 4955SOL    HW215765   1.589   1.049   0.987
 4956SOL     OW15766   5.957   6.492   3.932
 4956SOL    HW115767   5.986   6.397   3.916
 4956SOL    HW215768   5.875   6.493   3.988
 4957SOL     OW15769   1.921   6.039   3.604
 4957SOL    HW115770   2.004   6.022   3.658
 4957SOL    HW215771   1.907   6.138   3.596
 4958SOL     OW15772   7.011   6.716   6.768
 4958SOL    HW115773   6.949   6.639   6.777
 4958SOL    HW215774   0.081   6.683   6.762
 4959SOL     OW15775   0.552   1.669   6.931
 4959SOL    HW115776   0.544   1.642   6.835
 4959SOL    HW215777   0.632   1.728   6.942
 4960SOL     OW15778   3.928   6.773   5.468
 4960SOL    HW115779   3.968   6.864   5.456
 4960SOL    HW215780   3.892   6.763   5.561
 4961SOL     OW15781   4.234   1.246   5.530
 4961SOL    HW115782   4.307   1.182   5.506
 4961SOL    HW215783   4.165   1.247   5.458
 4962SOL     OW15784   6.600   2.448   1.968
 4962SOL    HW115785   6.641   2.539   1.964
 4962SOL    HW215786   6.620   2.399   1.883
 4963SOL     OW15787   6.981   4.741   1.160
 4963SOL    HW115788   6.936   4.789   1.236
 4963SOL    HW215789   0.039   4.792   1.132
 4964SOL     OW15790   3.714   6.812   3.165
 4964SOL    HW115791   3.706   6.791   3.068
 4964SOL    HW215792   3.650   6.886   3.189
 4965SOL     OW15793   6.901   6.417   4.916
 4965SOL    HW115794   6.851   6.343   4.962
 4965SOL    HW215795   6.980   6.378   4.868
 4966SOL     OW15796   4.201   5.254   4.646
 4966SOL    HW115797   4.122   5.194   4.664
 4966SOL    HW215798   4.228   5.245   4.550
 4967SOL     OW15799   6.127   2.047   6.329
 4967SOL    HW115800   6.186   1.972   6.358
 4967SOL    HW215801   6.167   2.092   6.249
 4968SOL     OW15802   5.454   4.358   0.254
 4968SOL    HW115803   5.470   4.260   0.244
 4968SOL    HW215804   5.425   4.396   0.167
 4969SOL     OW15805   1.116   1.826   1.378
 4969SOL    HW115806   1.213   1.804   1.391
 4969SOL    HW215807   1.095   1.911   1.427
 4970SOL     OW15808   1.886   2.586   5.789
 4970SOL    HW115809   1.848   2.657   5.848
 4970SOL    HW215810   1.969   2.548   5.831
 4971SOL     OW15811   7.017   5.270   4.318
 4971SOL    HW115812   0.004   5.194   4.382
 4971SOL    HW215813   0.083   5.313   4.303
 4972SOL     OW15814   2.132   2.292   5.210
 4972SOL    HW115815   2.063   2.223   5.230
 4972SOL    HW215816   2.124   2.367   5.275
 4973SOL     OW15817   5.555   5.420   3.049
 4973SOL    HW115818   5.628   5.388   2.988
 4973SOL    HW215819   5.502   5.491   3.003
 4974SOL     OW15820   4.359   6.486   6.934
 4974SOL    HW115821   4.353   6.389   6.909
 4974SOL    HW215822   4.325   6.542   6.858
 4975SOL     OW15823   4.193   5.964   0.199
 4975SOL    HW115824   4.125   6.036   0.181
 4975SOL    HW215825   4.178   5.888   0.136
 4976SOL     OW15826   2.784   0.710   3.977
 4976SOL    HW115827   2.878   0.726   4.009
 4976SOL    HW215828   2.784   0.635   3.910
 4977SOL     OW15829   3.052   2.677   0.341
 4977SOL    HW115830   3.008   2.714   0.259
 4977SOL    HW215831   3.147   2.709   0.344
 4978SOL     OW15832   6.056   4.190   6.615
 4978SOL    HW115833   6.096   4.122   6.553
 4978SOL    HW215834   6.034   4.147   6.702
 4979SOL     OW15835   2.107   1.517   4.127
 4979SOL    HW115836   2.121   1.426   4.086
 4979SOL    HW215837   2.084   1.583   4.056
 4980SOL     OW15838   2.372   4.683   3.060
 4980SOL    HW115839   2.411   4.597   3.092
 4980SOL    HW215840   2.443   4.754   3.060
 4981SOL     OW15841   4.852   6.238   5.477
 4981SOL    HW115842   4.828   6.330   5.507
 4981SOL    HW215843   4.812   6.171   5.539
 4982SOL     OW15844   3.030   2.228   0.049
 4982SOL    HW115845   2.971   2.216   0.128
 4982SOL    HW215846   3.126   2.219   0.077
 4983SOL     OW15847   6.535   3.041   4.824
 4983SOL    HW115848   6.632   3.020   4.837
 4983SOL    HW215849   6.483   2.955   4.821
 4984SOL     OW15850   4.932   3.902   3.136
 4984SOL    HW115851   4.888   3.952   3.061
 4984SOL    HW215852   5.017   3.861   3.104
 4985SOL     OW15853   5.313   4.477   2.134
 4985SOL    HW115854   5.368   4.401   2.100
 4985SOL    HW215855   5.227   4.441   2.170
 4986SOL     OW15856   4.732   4.512   3.332
 4986SOL    HW115857   4.811   4.541   3.387
 4986SOL    HW215858   4.660   4.581   3.338
 4987SOL     OW15859   0.705   3.369   0.694
 4987SOL    HW115860   0.795   3.409   0.679
 4987SOL    HW215861   0.665   3.343   0.606
 4988SOL     OW15862   1.923   2.117   5.256
 4988SOL    HW115863   1.995   2.056   5.288
 4988SOL    HW215864   1.862   2.067   5.195
 4989SOL     OW15865   7.015   1.155   0.578
 4989SOL    HW115866   7.005   1.112   0.488
 4989SOL    HW215867   0.009   1.084   0.646
 4990SOL     OW15868   1.425   2.033   6.113
 4990SOL    HW115869   1.502   2.037   6.177
 4990SOL    HW215870   1.435   2.107   6.045
 4991SOL     OW15871   2.542   1.856   4.988
 4991SOL    HW115872   2.602   1.865   5.068
 4991SOL    HW215873   2.514   1.946   4.956
 4992SOL     OW15874   4.328   0.105   4.509
 4992SOL    HW115875   4.273   0.158   4.573
 4992SOL    HW215876   4.405   0.063   4.558
 4993SOL     OW15877   1.678   6.375   3.986
 4993SOL    HW115878   1.594   6.340   4.030
 4993SOL    HW215879   1.715   6.304   3.927
 4994SOL     OW15880   0.281   6.391   2.218
 4994SOL    HW115881   0.359   6.432   2.265
 4994SOL    HW215882   0.196   6.426   2.259
 4995SOL     OW15883   5.862   2.774   5.587
 4995SOL    HW115884   5.784   2.772   5.650
 4995SOL    HW215885   5.832   2.812   5.499
 4996SOL     OW15886   0.328   1.886   3.818
 4996SOL    HW115887   0.393   1.946   3.771
 4996SOL    HW215888   0.295   1.816   3.755
 4997SOL     OW15889   0.325   2.570   4.085
 4997SOL    HW115890   0.389   2.495   4.069
 4997SOL    HW215891   0.244   2.557   4.028
 4998SOL     OW15892   0.873   5.517   5.556
 4998SOL    HW115893   0.941   5.444   5.568
 4998SOL    HW215894   0.782   5.476   5.545
 4999SOL     OW15895   6.418   4.858   0.970
 4999SOL    HW115896   6.353   4.914   1.021
 4999SOL    HW215897   6.405   4.871   0.872
 5000SOL     OW15898   0.276   5.282   4.238
 5000SOL    HW115899   0.326   5.262   4.322
 5000SOL    HW215900   0.279   5.202   4.178
 5001SOL     OW15901   4.883   4.757   5.488
 5001SOL    HW115902   4.891   4.722   5.395
 5001SOL    HW215903   4.912   4.853   5.490
 5002SOL     OW15904   2.016   2.598   1.636
 5002SOL    HW115905   1.933   2.560   1.675
 5002SOL    HW215906   2.024   2.572   1.540
 5003SOL     OW15907   6.530   4.925   4.193
 5003SOL    HW115908   6.483   4.988   4.255
 5003SOL    HW215909   6.589   4.977   4.131
 5004SOL     OW15910   2.586   4.437   6.071
 5004SOL    HW115911   2.626   4.348   6.090
 5004SOL    HW215912   2.540   4.472   6.153
 5005SOL     OW15913   4.592   1.694   0.407
 5005SOL    HW115914   4.516   1.722   0.349
 5005SOL    HW215915   4.625   1.604   0.378
 5006SOL     OW15916   5.294   4.687   2.416
 5006SOL    HW115917   5.244   4.643   2.342
 5006SOL    HW215918   5.392   4.673   2.402
 5007SOL     OW15919   3.924   1.490   5.707
 5007SOL    HW115920   3.905   1.551   5.630
 5007SOL    HW215921   3.855   1.418   5.710
 5008SOL     OW15922   6.370   0.443   3.427
 5008SOL    HW115923   6.372   0.411   3.522
 5008SOL    HW215924   6.453   0.495   3.407
 5009SOL     OW15925   2.117   5.731   1.954
 5009SOL    HW115926   2.068   5.698   2.034
 5009SOL    HW215927   2.053   5.772   1.890
 5010SOL     OW15928   3.560   3.133   5.741
 5010SOL    HW115929   3.579   3.034   5.738
 5010SOL    HW215930   3.604   3.172   5.822
 5011SOL     OW15931   1.360   2.747   3.892
 5011SOL    HW115932   1.346   2.844   3.908
 5011SOL    HW215933   1.350   2.727   3.795
 5012SOL     OW15934   5.713   2.964   6.864
 5012SOL    HW115935   5.700   2.897   6.791
 5012SOL    HW215936   5.663   3.048   6.842
 5013SOL     OW15937   4.808   2.345   5.571
 5013SOL    HW115938   4.800   2.331   5.670
 5013SOL    HW215939   4.809   2.443   5.551
 5014SOL     OW15940   0.132   5.551   6.910
 5014SOL    HW115941   0.080   5.628   6.872
 5014SOL    HW215942   0.104   5.467   6.864
 5015SOL     OW15943   5.540   2.146   3.927
 5015SOL    HW115944   5.600   2.202   3.870
 5015SOL    HW215945   5.576   2.144   4.021
 5016SOL     OW15946   2.354   6.300   2.384
 5016SOL    HW115947   2.447   6.300   2.421
 5016SOL    HW215948   2.293   6.350   2.445
 5017SOL     OW15949   1.252   2.232   2.049
 5017SOL    HW115950   1.212   2.148   2.012
 5017SOL    HW215951   1.216   2.250   2.140
 5018SOL     OW15952   6.935   4.741   3.866
 5018SOL    HW115953   6.971   4.834   3.860
 5018SOL    HW215954   6.857   4.741   3.929
 5019SOL     OW15955   2.220   5.163   5.478
 5019SOL    HW115956   2.144   5.226   5.494
 5019SOL    HW215957   2.283   5.203   5.411
 5020SOL     OW15958   4.201   5.181   0.153
 5020SOL    HW115959   4.263   5.151   0.080
 5020SOL    HW215960   4.125   5.232   0.113
 5021SOL     OW15961   2.237   4.231   5.727
 5021SOL    HW115962   2.249   4.274   5.816
 5021SOL    HW215963   2.164   4.278   5.677
 5022SOL     OW15964   2.353   3.545   0.773
 5022SOL    HW115965   2.259   3.514   0.783
 5022SOL    HW215966   2.356   3.628   0.716
 5023SOL     OW15967   0.226   2.864   4.425
 5023SOL    HW115968   0.183   2.803   4.492
 5023SOL    HW215969   0.326   2.857   4.433
 5024SOL     OW15970   4.697   3.550   5.557
 5024SOL    HW115971   4.743   3.470   5.517
 5024SOL    HW215972   4.662   3.527   5.647
 5025SOL     OW15973   6.367   0.819   4.110
 5025SOL    HW115974   6.328   0.792   4.022
 5025SOL    HW215975   6.294   0.849   4.171
 5026SOL     OW15976   0.680   6.381   3.216
 5026SOL    HW115977   0.749   6.310   3.230
 5026SOL    HW215978   0.670   6.434   3.299
 5027SOL     OW15979   0.687   6.272   3.865
 5027SOL    HW115980   0.665   6.368   3.878
 5027SOL    HW215981   0.605   6.217   3.880
 5028SOL     OW15982   0.710   6.961   2.751
 5028SOL    HW115983   0.807   6.945   2.767
 5028SOL    HW215984   0.694   0.035   2.737
 5029SOL     OW15985   6.728   0.732   3.637
 5029SOL    HW115986   6.713   0.825   3.673
 5029SOL    HW215987   6.811   0.695   3.678
 5030SOL     OW15988   2.127   5.709   0.099
 5030SOL    HW115989   2.208   5.747   0.144
 5030SOL    HW215990   2.089   5.776   0.036
 5031SOL     OW15991   5.289   0.694   6.457
 5031SOL    HW115992   5.302   0.771   6.519
 5031SOL    HW215993   5.369   0.684   6.399
 5032SOL     OW15994   1.695   5.938   2.380
 5032SOL    HW115995   1.701   5.961   2.283
 5032SOL    HW215996   1.611   5.886   2.397
 5033SOL     OW15997   0.808   4.034   5.081
 5033SOL    HW115998   0.896   4.034   5.128
 5033SOL    HW215999   0.798   4.118   5.028
 5034SOL     OW16000   6.271   3.978   5.975
 5034SOL    HW116001   6.250   4.073   5.995
 5034SOL    HW216002   6.357   3.972   5.925
 5035SOL     OW16003   6.678   4.300   1.534
 5035SOL    HW116004   6.679   4.400   1.525
 5035SOL    HW216005   6.587   4.271   1.564
 5036SOL     OW16006   1.591   0.920   2.340
 5036SOL    HW116007   1.629   0.834   2.305
 5036SOL    HW216008   1.568   0.980   2.263
 5037SOL     OW16009   4.743   2.780   2.847
 5037SOL    HW116010   4.748   2.780   2.747
 5037SOL    HW216011   4.781   2.866   2.882
 5038SOL     OW16012   2.876   5.647   5.402
 5038SOL    HW116013   2.964   5.603   5.421
 5038SOL    HW216014   2.801   5.587   5.432
 5039SOL     OW16015   1.611   2.078   2.847
 5039SOL    HW116016   1.548   2.147   2.884
 5039SOL    HW216017   1.663   2.118   2.772
 5040SOL     OW16018   3.165   3.300   5.918
 5040SOL    HW116019   3.107   3.381   5.925
 5040SOL    HW216020   3.129   3.239   5.848
 5041SOL     OW16021   0.224   5.422   0.734
 5041SOL    HW116022   0.187   5.354   0.670
 5041SOL    HW216023   0.311   5.457   0.697
 5042SOL     OW16024   5.755   1.340   5.906
 5042SOL    HW116025   5.658   1.349   5.884
 5042SOL    HW216026   5.810   1.361   5.825
 5043SOL     OW16027   4.918   6.466   3.931
 5043SOL    HW116028   4.862   6.520   3.993
 5043SOL    HW216029   5.002   6.515   3.909
 5044SOL     OW16030   6.071   4.791   1.979
 5044SOL    HW116031   6.014   4.720   1.937
 5044SOL    HW216032   6.056   4.792   2.078
 5045SOL     OW16033   5.858   3.599   5.079
 5045SOL    HW116034   5.905   3.513   5.060
 5045SOL    HW216035   5.771   3.581   5.126
 5046SOL     OW16036   3.667   3.192   5.986
 5046SOL    HW116037   3.607   3.125   6.028
 5046SOL    HW216038   3.762   3.159   5.990
 5047SOL     OW16039   0.435   1.759   2.153
 5047SOL    HW116040   0.349   1.708   2.154
 5047SOL    HW216041   0.444   1.812   2.238
 5048SOL     OW16042   6.016   3.549   1.548
 5048SOL    HW116043   5.976   3.623   1.602
 5048SOL    HW216044   5.982   3.553   1.455
 5049SOL     OW16045   0.838   1.929   1.513
 5049SOL    HW116046   0.911   1.997   1.513
 5049SOL    HW216047   0.852   1.865   1.590
 5050SOL     OW16048   2.016   4.040   0.372
 5050SOL    HW116049   2.004   3.941   0.366
 5050SOL    HW216050   1.993   4.082   0.284
 5051SOL     OW16051   2.533   3.301   6.498
 5051SOL    HW116052   2.486   3.297   6.410
 5051SOL    HW216053   2.565   3.395   6.515
 5052SOL     OW16054   5.979   3.034   0.443
 5052SOL    HW116055   5.908   3.088   0.488
 5052SOL    HW216056   5.939   2.950   0.406
 5053SOL     OW16057   1.627   4.024   1.102
 5053SOL    HW116058   1.706   4.024   1.164
 5053SOL    HW216059   1.555   4.083   1.140
 5054SOL     OW16060   4.177   6.243   5.454
 5054SOL    HW116061   4.225   6.250   5.366
 5054SOL    HW216062   4.100   6.180   5.444
 5055SOL     OW16063   1.466   1.670   3.884
 5055SOL    HW116064   1.415   1.622   3.956
 5055SOL    HW216065   1.454   1.768   3.895
 5056SOL     OW16066   2.963   2.174   5.514
 5056SOL    HW116067   3.057   2.208   5.510
 5056SOL    HW216068   2.950   2.121   5.598
 5057SOL     OW16069   0.108   3.861   3.259
 5057SOL    HW116070   0.199   3.866   3.299
 5057SOL    HW216071   0.062   3.778   3.292
 5058SOL     OW16072   3.524   1.918   0.303
 5058SOL    HW116073   3.446   1.898   0.363
 5058SOL    HW216074   3.587   1.841   0.302
 5059SOL     OW16075   4.880   2.248   2.931
 5059SOL    HW116076   4.891   2.248   2.831
 5059SOL    HW216077   4.900   2.340   2.966
 5060SOL     OW16078   0.008   3.584   5.517
 5060SOL    HW116079   7.000   3.549   5.605
 5060SOL    HW216080   0.108   3.580   5.513
 5061SOL     OW16081   4.230   2.652   6.216
 5061SOL    HW116082   4.238   2.626   6.120
 5061SOL    HW216083   4.276   2.584   6.273
 5062SOL     OW16084   5.199   1.264   3.250
 5062SOL    HW116085   5.224   1.169   3.269
 5062SOL    HW216086   5.258   1.325   3.302
 5063SOL     OW16087   0.802   1.547   1.612
 5063SOL    HW116088   0.867   1.611   1.654
 5063SOL    HW216089   0.851   1.486   1.549
 5064SOL     OW16090   5.446   4.859   1.326
 5064SOL    HW116091   5.501   4.802   1.266
 5064SOL    HW216092   5.378   4.909   1.272
 5065SOL     OW16093   2.534   1.555   2.161
 5065SOL    HW116094   2.477   1.474   2.150
 5065SOL    HW216095   2.506   1.605   2.243
 5066SOL     OW16096   1.765   5.510   2.481
 5066SOL    HW116097   1.822   5.589   2.505
 5066SOL    HW216098   1.770   5.442   2.554
 5067SOL     OW16099   5.585   3.192   1.599
 5067SOL    HW116100   5.486   3.194   1.581
 5067SOL    HW216101   5.612   3.275   1.648
 5068SOL     OW16102   1.636   6.330   0.967
 5068SOL    HW116103   1.646   6.252   1.028
 5068SOL    HW216104   1.593   6.301   0.882
 5069SOL     OW16105   4.477   5.275   5.736
 5069SOL    HW116106   4.457   5.233   5.647
 5069SOL    HW216107   4.443   5.216   5.809
 5070SOL     OW16108   5.982   3.279   5.744
 5070SOL    HW116109   6.000   3.203   5.807
 5070SOL    HW216110   5.975   3.364   5.796
 5071SOL     OW16111   2.285   6.156   2.784
 5071SOL    HW116112   2.318   6.178   2.876
 5071SOL    HW216113   2.190   6.126   2.789
 5072SOL     OW16114   0.813   1.401   1.934
 5072SOL    HW116115   0.740   1.374   1.871
 5072SOL    HW216116   0.894   1.345   1.917
 5073SOL     OW16117   1.911   0.920   3.342
 5073SOL    HW116118   1.913   0.970   3.429
 5073SOL    HW216119   1.864   0.975   3.273
 5074SOL     OW16120   3.310   2.189   1.717
 5074SOL    HW116121   3.290   2.157   1.624
 5074SOL    HW216122   3.227   2.186   1.772
 5075SOL     OW16123   6.370   2.624   0.432
 5075SOL    HW116124   6.326   2.545   0.388
 5075SOL    HW216125   6.357   2.705   0.374
 5076SOL     OW16126   0.018   1.099   5.742
 5076SOL    HW116127   0.056   1.163   5.676
 5076SOL    HW216128   6.960   1.138   5.785
 5077SOL     OW16129   0.817   4.214   3.530
 5077SOL    HW116130   0.844   4.308   3.552
 5077SOL    HW216131   0.899   4.159   3.514
 5078SOL     OW16132   6.321   2.325   3.871
 5078SOL    HW116133   6.288   2.301   3.780
 5078SOL    HW216134   6.412   2.284   3.886
 5079SOL     OW16135   1.627   4.013   4.713
 5079SOL    HW116136   1.589   3.975   4.628
 5079SOL    HW216137   1.700   3.954   4.747
 5080SOL     OW16138   6.278   5.801   6.903
 5080SOL    HW116139   6.284   5.862   6.824
 5080SOL    HW216140   6.307   5.850   6.985
 5081SOL     OW16141   2.519   4.916   5.188
 5081SOL    HW116142   2.518   4.968   5.103
 5081SOL    HW216143   2.581   4.838   5.179
 5082SOL     OW16144   5.564   6.064   1.471
 5082SOL    HW116145   5.505   5.998   1.516
 5082SOL    HW216146   5.572   6.041   1.374
 5083SOL     OW16147   2.260   0.166   3.866
 5083SOL    HW116148   2.193   0.231   3.902
 5083SOL    HW216149   2.228   0.073   3.881
 5084SOL     OW16150   3.496   4.853   5.762
 5084SOL    HW116151   3.450   4.824   5.678
 5084SOL    HW216152   3.581   4.900   5.738
 5085SOL     OW16153   0.205   4.704   5.673
 5085SOL    HW116154   0.249   4.694   5.583
 5085SOL    HW216155   0.229   4.793   5.712
 5086SOL     OW16156   1.131   4.683   2.772
 5086SOL    HW116157   1.229   4.703   2.771
 5086SOL    HW216158   1.113   4.602   2.718
 5087SOL     OW16159   0.373   4.758   1.954
 5087SOL    HW116160   0.368   4.689   1.882
 5087SOL    HW216161   0.469   4.774   1.977
 5088SOL     OW16162   5.055   5.195   2.227
 5088SOL    HW116163   4.960   5.190   2.194
 5088SOL    HW216164   5.076   5.113   2.280
 5089SOL     OW16165   5.427   6.384   6.091
 5089SOL    HW116166   5.526   6.391   6.098
 5089SOL    HW216167   5.403   6.327   6.012
 5090SOL     OW16168   2.734   6.717   4.656
 5090SOL    HW116169   2.782   6.629   4.661
 5090SOL    HW216170   2.687   6.724   4.568
 5091SOL     OW16171   6.773   6.350   6.149
 5091SOL    HW116172   6.872   6.348   6.167
 5091SOL    HW216173   6.728   6.401   6.223
 5092SOL     OW16174   4.081   3.786   3.753
 5092SOL    HW116175   4.062   3.845   3.674
 5092SOL    HW216176   3.997   3.738   3.780
 5093SOL     OW16177   2.877   2.265   2.698
 5093SOL    HW116178   2.976   2.259   2.690
 5093SOL    HW216179   2.852   2.268   2.795
 5094SOL     OW16180   1.912   6.003   4.701
 5094SOL    HW116181   1.912   6.083   4.761
 5094SOL    HW216182   1.944   6.028   4.610
 5095SOL     OW16183   6.897   0.937   3.394
 5095SOL    HW116184   6.825   0.869   3.407
 5095SOL    HW216185   6.951   0.914   3.313
 5096SOL     OW16186   6.611   3.269   5.786
 5096SOL    HW116187   6.638   3.221   5.702
 5096SOL    HW216188   6.605   3.203   5.861
 5097SOL     OW16189   0.492   0.719   5.500
 5097SOL    HW116190   0.486   0.768   5.413
 5097SOL    HW216191   0.433   0.765   5.567
 5098SOL     OW16192   2.921   2.652   0.055
 5098SOL    HW116193   2.903   2.585   0.127
 5098SOL    HW216194   2.873   2.624   6.995
 5099SOL     OW16195   1.940   6.026   2.476
 5099SOL    HW116196   1.849   5.986   2.463
 5099SOL    HW216197   1.988   6.030   2.388
 5100SOL     OW16198   5.374   3.653   2.291
 5100SOL    HW116199   5.342   3.575   2.344
 5100SOL    HW216200   5.451   3.625   2.234
 5101SOL     OW16201   3.447   0.499   4.603
 5101SOL    HW116202   3.450   0.465   4.697
 5101SOL    HW216203   3.352   0.508   4.573
 5102SOL     OW16204   5.585   5.154   5.339
 5102SOL    HW116205   5.602   5.202   5.426
 5102SOL    HW216206   5.515   5.203   5.288
 5103SOL     OW16207   0.542   0.521   6.241
 5103SOL    HW116208   0.607   0.480   6.177
 5103SOL    HW216209   0.505   0.605   6.201
 5104SOL     OW16210   4.150   3.394   3.035
 5104SOL    HW116211   4.136   3.491   3.019
 5104SOL    HW216212   4.200   3.353   2.958
 5105SOL     OW16213   4.425   3.125   6.870
 5105SOL    HW116214   4.414   3.224   6.884
 5105SOL    HW216215   4.338   3.086   6.840
 5106SOL     OW16216   3.601   1.635   1.550
 5106SOL    HW116217   3.631   1.673   1.638
 5106SOL    HW216218   3.520   1.579   1.565
 5107SOL     OW16219   5.992   5.152   1.040
 5107SOL    HW116220   6.064   5.128   1.105
 5107SOL    HW216221   5.981   5.252   1.039
 5108SOL     OW16222   3.517   4.400   1.140
 5108SOL    HW116223   3.420   4.420   1.129
 5108SOL    HW216224   3.540   4.315   1.092
 5109SOL     OW16225   1.716   2.535   2.913
 5109SOL    HW116226   1.794   2.517   2.853
 5109SOL    HW216227   1.691   2.632   2.908
 5110SOL     OW16228   4.577   6.720   5.248
 5110SOL    HW116229   4.620   6.632   5.268
 5110SOL    HW216230   4.644   6.782   5.208
 5111SOL     OW16231   1.196   5.610   5.833
 5111SOL    HW116232   1.159   5.519   5.848
 5111SOL    HW216233   1.295   5.609   5.846
 5112SOL     OW16234   1.303   6.172   3.531
 5112SOL    HW116235   1.324   6.077   3.553
 5112SOL    HW216236   1.338   6.194   3.440
 5113SOL     OW16237   1.801   3.942   0.715
 5113SOL    HW116238   1.884   3.887   0.703
 5113SOL    HW216239   1.811   4.028   0.665
 5114SOL     OW16240   4.301   4.765   1.255
 5114SOL    HW116241   4.309   4.687   1.317
 5114SOL    HW216242   4.311   4.734   1.161
 5115SOL     OW16243   1.702   3.536   0.559
 5115SOL    HW116244   1.737   3.525   0.652
 5115SOL    HW216245   1.671   3.630   0.546
 5116SOL     OW16246   0.307   6.876   5.217
 5116SOL    HW116247   0.400   6.839   5.210
 5116SOL    HW216248   0.244   6.804   5.246
 5117SOL     OW16249   6.987   2.685   3.079
 5117SOL    HW116250   6.900   2.725   3.107
 5117SOL    HW216251   6.978   2.585   3.075
 5118SOL     OW16252   4.151   5.679   0.021
 5118SOL    HW116253   4.232   5.657   0.076
 5118SOL    HW216254   4.111   5.595   7.008
 5119SOL     OW16255   5.767   1.647   0.458
 5119SOL    HW116256   5.690   1.609   0.510
 5119SOL    HW216257   5.814   1.574   0.409
 5120SOL     OW16258   5.289   6.509   0.021
 5120SOL    HW116259   5.314   6.429   0.076
 5120SOL    HW216260   5.277   6.588   0.081
 5121SOL     OW16261   1.350   3.087   6.425
 5121SOL    HW116262   1.269   3.046   6.382
 5121SOL    HW216263   1.422   3.018   6.432
 5122SOL     OW16264   4.926   4.604   3.491
 5122SOL    HW116265   5.019   4.643   3.492
 5122SOL    HW216266   4.862   4.670   3.531
 5123SOL     OW16267   5.171   2.866   2.203
 5123SOL    HW116268   5.077   2.890   2.227
 5123SOL    HW216269   5.210   2.809   2.276
 5124SOL     OW16270   1.301   5.965   4.695
 5124SOL    HW116271   1.280   5.868   4.687
 5124SOL    HW216272   1.330   6.000   4.606
 5125SOL     OW16273   6.386   2.032   4.149
 5125SOL    HW116274   6.314   2.082   4.198
 5125SOL    HW216275   6.386   1.936   4.178
 5126SOL     OW16276   1.956   0.804   2.109
 5126SOL    HW116277   1.933   0.888   2.061
 5126SOL    HW216278   1.946   0.817   2.208
 5127SOL     OW16279   2.217   6.087   0.061
 5127SOL    HW116280   2.158   6.036   7.022
 5127SOL    HW216281   2.218   6.184   0.034
 5128SOL     OW16282   5.047   6.938   1.568
 5128SOL    HW116283   5.035   6.865   1.501
 5128SOL    HW216284   5.043   6.899   1.660
 5129SOL     OW16285   6.402   6.867   0.532
 5129SOL    HW116286   6.321   6.915   0.567
 5129SOL    HW216287   6.390   6.768   0.545
 5130SOL     OW16288   6.060   5.216   2.646
 5130SOL    HW116289   6.037   5.123   2.673
 5130SOL    HW216290   6.080   5.219   2.548
 5131SOL     OW16291   2.490   2.569   2.435
 5131SOL    HW116292   2.564   2.512   2.470
 5131SOL    HW216293   2.492   2.568   2.335
 5132SOL     OW16294   2.463   5.817   5.050
 5132SOL    HW116295   2.377   5.863   5.026
 5132SOL    HW216296   2.485   5.836   5.145
 5133SOL     OW16297   3.555   6.262   5.304
 5133SOL    HW116298   3.473   6.304   5.263
 5133SOL    HW216299   3.619   6.334   5.330
 5134SOL     OW16300   6.506   3.706   6.378
 5134SOL    HW116301   6.413   3.741   6.368
 5134SOL    HW216302   6.502   3.611   6.411
 5135SOL     OW16303   6.484   1.793   4.503
 5135SOL    HW116304   6.554   1.727   4.475
 5135SOL    HW216305   6.528   1.872   4.546
 5136SOL     OW16306   4.120   2.294   5.942
 5136SOL    HW116307   4.152   2.212   5.894
 5136SOL    HW216308   4.063   2.267   6.020
 5137SOL     OW16309   3.678   3.252   0.162
 5137SOL    HW116310   3.737   3.256   0.241
 5137SOL    HW216311   3.720   3.301   0.085
 5138SOL     OW16312   2.325   3.021   5.996
 5138SOL    HW116313   2.306   2.955   5.923
 5138SOL    HW216314   2.240   3.050   6.038
 5139SOL     OW16315   0.663   0.268   3.438
 5139SOL    HW116316   0.668   0.219   3.351
 5139SOL    HW216317   0.745   0.248   3.492
 5140SOL     OW16318   3.085   2.968   1.513
 5140SOL    HW116319   3.084   3.033   1.436
 5140SOL    HW216320   2.995   2.924   1.520
 5141SOL     OW16321   0.707   4.275   5.968
 5141SOL    HW116322   0.723   4.265   6.067
 5141SOL    HW216323   0.609   4.283   5.952
 5142SOL     OW16324   5.884   2.635   2.859
 5142SOL    HW116325   5.916   2.556   2.807
 5142SOL    HW216326   5.791   2.657   2.832
 5143SOL     OW16327   6.677   5.313   5.039
 5143SOL    HW116328   6.698   5.352   4.950
 5143SOL    HW216329   6.736   5.233   5.055
 5144SOL     OW16330   1.998   1.381   4.882
 5144SOL    HW116331   1.967   1.469   4.847
 5144SOL    HW216332   1.923   1.337   4.933
 5145SOL     OW16333   3.363   5.219   5.901
 5145SOL    HW116334   3.369   5.318   5.888
 5145SOL    HW216335   3.272   5.188   5.875
 5146SOL     OW16336   2.684   5.028   0.162
 5146SOL    HW116337   2.693   4.995   0.256
 5146SOL    HW216338   2.590   5.015   0.131
 5147SOL     OW16339   6.822   5.361   6.705
 5147SOL    HW116340   6.746   5.381   6.767
 5147SOL    HW216341   6.788   5.304   6.629
 5148SOL     OW16342   0.589   0.618   0.384
 5148SOL    HW116343   0.543   0.688   0.440
 5148SOL    HW216344   0.527   0.541   0.370
 5149SOL     OW16345   0.489   0.904   5.735
 5149SOL    HW116346   0.533   0.929   5.822
 5149SOL    HW216347   0.390   0.901   5.747
 5150SOL     OW16348   2.350   5.821   4.414
 5150SOL    HW116349   2.381   5.797   4.322
 5150SOL    HW216350   2.395   5.761   4.480
 5151SOL     OW16351   3.936   0.986   5.847
 5151SOL    HW116352   3.964   1.071   5.890
 5151SOL    HW216353   3.964   0.908   5.904
 5152SOL     OW16354   0.334   4.724   0.166
 5152SOL    HW116355   0.370   4.655   0.229
 5152SOL    HW216356   0.346   4.815   0.206
 5153SOL     OW16357   1.929   2.164   1.145
 5153SOL    HW116358   1.897   2.074   1.114
 5153SOL    HW216359   2.023   2.178   1.114
 5154SOL     OW16360   1.999   4.376   5.734
 5154SOL    HW116361   2.028   4.457   5.683
 5154SOL    HW216362   2.012   4.391   5.832
 5155SOL     OW16363   3.425   0.404   2.807
 5155SOL    HW116364   3.389   0.370   2.893
 5155SOL    HW216365   3.499   0.470   2.825
 5156SOL     OW16366   5.404   2.696   6.284
 5156SOL    HW116367   5.354   2.610   6.289
 5156SOL    HW216368   5.434   2.712   6.190
 5157SOL     OW16369   6.491   2.296   4.538
 5157SOL    HW116370   6.432   2.366   4.497
 5157SOL    HW216371   6.447   2.206   4.529
 5158SOL     OW16372   3.470   0.388   1.277
 5158SOL    HW116373   3.480   0.361   1.373
 5158SOL    HW216374   3.379   0.428   1.263
 5159SOL     OW16375   2.038   3.393   4.837
 5159SOL    HW116376   2.075   3.307   4.870
 5159SOL    HW216377   2.038   3.460   4.912
 5160SOL     OW16378   2.324   2.536   3.870
 5160SOL    HW116379   2.374   2.468   3.923
 5160SOL    HW216380   2.230   2.542   3.903
 5161SOL     OW16381   2.050   3.209   6.441
 5161SOL    HW116382   2.088   3.116   6.448
 5161SOL    HW216383   2.107   3.272   6.493
 5162SOL     OW16384   6.596   4.927   4.597
 5162SOL    HW116385   6.535   4.919   4.675
 5162SOL    HW216386   6.608   4.837   4.554
 5163SOL     OW16387   5.718   4.275   0.860
 5163SOL    HW116388   5.656   4.216   0.910
 5163SOL    HW216389   5.687   4.283   0.765
 5164SOL     OW16390   5.875   5.837   5.852
 5164SOL    HW116391   5.905   5.923   5.893
 5164SOL    HW216392   5.922   5.822   5.766
 5165SOL     OW16393   5.930   3.949   4.573
 5165SOL    HW116394   5.933   3.927   4.670
 5165SOL    HW216395   5.939   4.048   4.560
 5166SOL     OW16396   1.380   6.960   1.950
 5166SOL    HW116397   1.397   0.031   1.921
 5166SOL    HW216398   1.340   6.961   2.042
 5167SOL     OW16399   1.735   0.117   5.780
 5167SOL    HW116400   1.705   0.191   5.720
 5167SOL    HW216401   1.685   0.033   5.756
 5168SOL     OW16402   4.049   2.214   2.750
 5168SOL    HW116403   3.992   2.208   2.668
 5168SOL    HW216404   4.135   2.259   2.729
 5169SOL     OW16405   4.129   4.514   6.471
 5169SOL    HW116406   4.089   4.430   6.433
 5169SOL    HW216407   4.187   4.491   6.548
 5170SOL     OW16408   4.321   5.225   4.406
 5170SOL    HW116409   4.339   5.323   4.398
 5170SOL    HW216410   4.381   5.175   4.343
 5171SOL     OW16411   2.579   4.910   4.778
 5171SOL    HW116412   2.676   4.931   4.781
 5171SOL    HW216413   2.566   4.811   4.790
 5172SOL     OW16414   2.033   4.392   0.244
 5172SOL    HW116415   1.993   4.301   0.231
 5172SOL    HW216416   1.976   4.445   0.307
 5173SOL     OW16417   6.893   2.515   5.899
 5173SOL    HW116418   6.871   2.516   5.997
 5173SOL    HW216419   6.975   2.569   5.883
 5174SOL     OW16420   1.954   4.944   6.138
 5174SOL    HW116421   2.001   5.025   6.175
 5174SOL    HW216422   1.960   4.869   6.204
 5175SOL     OW16423   0.101   5.321   6.070
 5175SOL    HW116424   0.004   5.343   6.079
 5175SOL    HW216425   0.147   5.391   6.015
 5176SOL     OW16426   5.108   4.033   5.989
 5176SOL    HW116427   5.153   4.098   5.928
 5176SOL    HW216428   5.011   4.028   5.967
 5177SOL     OW16429   5.239   5.962   5.975
 5177SOL    HW116430   5.198   6.003   6.056
 5177SOL    HW216431   5.197   6.000   5.892
 5178SOL     OW16432   2.726   2.667   1.172
 5178SOL    HW116433   2.720   2.767   1.177
 5178SOL    HW216434   2.739   2.639   1.078
 5179SOL     OW16435   3.114   6.518   5.275
 5179SOL    HW116436   3.080   6.572   5.197
 5179SOL    HW216437   3.125   6.578   5.354
 5180SOL     OW16438   3.255   1.731   0.104
 5180SOL    HW116439   3.251   1.672   0.185
 5180SOL    HW216440   3.256   1.827   0.133
 5181SOL     OW16441   2.889   5.840   2.591
 5181SOL    HW116442   2.861   5.907   2.660
 5181SOL    HW216443   2.932   5.887   2.514
 5182SOL     OW16444   4.461   3.971   1.434
 5182SOL    HW116445   4.514   3.982   1.517
 5182SOL    HW216446   4.521   3.941   1.360
 5183SOL     OW16447   3.993   1.026   3.616
 5183SOL    HW116448   4.079   1.072   3.639
 5183SOL    HW216449   4.011   0.929   3.602
 5184SOL     OW16450   1.259   2.013   3.024
 5184SOL    HW116451   1.197   1.937   3.043
 5184SOL    HW216452   1.316   2.031   3.104
 5185SOL     OW16453   3.635   6.981   1.167
 5185SOL    HW116454   3.582   0.041   1.175
 5185SOL    HW216455   3.720   7.000   1.119
 5186SOL     OW16456   5.258   4.655   0.409
 5186SOL    HW116457   5.160   4.656   0.390
 5186SOL    HW216458   5.308   4.671   0.324
 5187SOL     OW16459   4.827   2.002   4.630
 5187SOL    HW116460   4.762   1.941   4.586
 5187SOL    HW216461   4.822   2.093   4.589
 5188SOL     OW16462   1.231   2.411   3.625
 5188SOL    HW116463   1.309   2.348   3.623
 5188SOL    HW216464   1.186   2.411   3.536
 5189SOL     OW16465   4.513   6.025   6.823
 5189SOL    HW116466   4.543   6.085   6.749
 5189SOL    HW216467   4.536   5.930   6.799
 5190SOL     OW16468   2.099   2.767   2.098
 5190SOL    HW116469   2.176   2.750   2.037
 5190SOL    HW216470   2.132   2.811   2.182
 5191SOL     OW16471   5.595   0.123   2.224
 5191SOL    HW116472   5.537   0.055   2.269
 5191SOL    HW216473   5.601   0.205   2.280
 5192SOL     OW16474   6.118   4.306   1.814
 5192SOL    HW116475   6.031   4.347   1.787
 5192SOL    HW216476   6.175   4.374   1.860
 5193SOL     OW16477   4.669   4.357   2.268
 5193SOL    HW116478   4.751   4.300   2.259
 5193SOL    HW216479   4.611   4.344   2.187
 5194SOL     OW16480   5.078   1.320   0.356
 5194SOL    HW116481   5.154   1.261   0.386
 5194SOL    HW216482   5.008   1.323   0.428
 5195SOL     OW16483   6.038   6.395   5.541
 5195SOL    HW116484   6.087   6.371   5.624
 5195SOL    HW216485   5.946   6.428   5.565
 5196SOL     OW16486   6.605   3.568   2.691
 5196SOL    HW116487   6.685   3.537   2.742
 5196SOL    HW216488   6.593   3.667   2.704
 5197SOL     OW16489   3.422   5.388   5.487
 5197SOL    HW116490   3.497   5.447   5.457
 5197SOL    HW216491   3.362   5.439   5.547
 5198SOL     OW16492   4.121   1.263   4.523
 5198SOL    HW116493   4.039   1.204   4.523
 5198SOL    HW216494   4.200   1.209   4.495
 5199SOL     OW16495   0.038   5.558   1.395
 5199SOL    HW116496   0.100   5.479   1.394
 5199SOL    HW216497   0.034   5.599   1.304
 5200SOL     OW16498   6.509   0.359   5.049
 5200SOL    HW116499   6.557   0.336   5.134
 5200SOL    HW216500   6.462   0.278   5.015
 5201SOL     OW16501   5.571   4.771   5.714
 5201SOL    HW116502   5.642   4.768   5.643
 5201SOL    HW216503   5.485   4.800   5.673
 5202SOL     OW16504   3.844   2.990   5.732
 5202SOL    HW116505   3.871   3.028   5.820
 5202SOL    HW216506   3.833   2.890   5.740
 5203SOL     OW16507   1.539   0.459   5.777
 5203SOL    HW116508   1.600   0.435   5.853
 5203SOL    HW216509   1.474   0.384   5.762
 5204SOL     OW16510   2.055   0.741   1.459
 5204SOL    HW116511   2.035   0.650   1.497
 5204SOL    HW216512   1.977   0.771   1.404
 5205SOL     OW16513   6.553   0.379   1.840
 5205SOL    HW116514   6.501   0.342   1.763
 5205SOL    HW216515   6.631   0.320   1.859
 5206SOL     OW16516   1.057   4.826   4.131
 5206SOL    HW116517   1.052   4.739   4.081
 5206SOL    HW216518   1.037   4.901   4.068
 5207SOL     OW16519   5.714   6.775   5.042
 5207SOL    HW116520   5.773   6.844   5.085
 5207SOL    HW216521   5.620   6.809   5.039
 5208SOL     OW16522   6.845   2.127   0.403
 5208SOL    HW116523   6.905   2.048   0.393
 5208SOL    HW216524   6.769   2.119   0.338
 5209SOL     OW16525   5.547   6.688   3.620
 5209SOL    HW116526   5.518   6.627   3.546
 5209SOL    HW216527   5.635   6.657   3.656
 5210SOL     OW16528   5.613   4.714   1.175
 5210SOL    HW116529   5.702   4.718   1.220
 5210SOL    HW216530   5.593   4.619   1.148
 5211SOL     OW16531   5.043   2.972   5.059
 5211SOL    HW116532   5.094   2.893   5.024
 5211SOL    HW216533   5.062   2.984   5.156
 5212SOL     OW16534   7.002   4.172   0.188
 5212SOL    HW116535   6.983   4.075   0.173
 5212SOL    HW216536   0.077   4.188   0.180
 5213SOL     OW16537   4.026   3.160   2.792
 5213SOL    HW116538   3.934   3.191   2.816
 5213SOL    HW216539   4.020   3.091   2.719
 5214SOL     OW16540   5.520   3.389   5.794
 5214SOL    HW116541   5.479   3.406   5.704
 5214SOL    HW216542   5.613   3.425   5.796
 5215SOL     OW16543   0.420   5.242   5.239
 5215SOL    HW116544   0.369   5.326   5.219
 5215SOL    HW216545   0.361   5.163   5.223
 5216SOL     OW16546   5.844   4.613   1.848
 5216SOL    HW116547   5.886   4.560   1.921
 5216SOL    HW216548   5.830   4.554   1.768
 5217SOL     OW16549   4.728   6.871   3.136
 5217SOL    HW116550   4.776   6.959   3.134
 5217SOL    HW216551   4.646   6.876   3.079
 5218SOL     OW16552   6.216   7.004   0.645
 5218SOL    HW116553   6.119   6.979   0.647
 5218SOL    HW216554   6.228   0.064   0.593
 5219SOL     OW16555   3.525   1.733   5.166
 5219SOL    HW116556   3.467   1.653   5.152
 5219SOL    HW216557   3.473   1.804   5.215
 5220SOL     OW16558   2.359   4.984   4.579
 5220SOL    HW116559   2.297   4.918   4.535
 5220SOL    HW216560   2.415   4.937   4.647
 5221SOL     OW16561   5.031   6.073   1.364
 5221SOL    HW116562   4.982   6.083   1.451
 5221SOL    HW216563   5.066   6.162   1.335
 5222SOL     OW16564   6.868   3.359   2.269
 5222SOL    HW116565   6.801   3.431   2.290
 5222SOL    HW216566   6.837   3.308   2.188
 5223SOL     OW16567   6.638   2.817   0.646
 5223SOL    HW116568   6.643   2.718   0.659
 5223SOL    HW216569   6.705   2.862   0.705
 5224SOL     OW16570   1.243   1.556   4.771
 5224SOL    HW116571   1.215   1.651   4.761
 5224SOL    HW216572   1.302   1.530   4.694
 5225SOL     OW16573   6.781   2.205   5.575
 5225SOL    HW116574   6.703   2.248   5.529
 5225SOL    HW216575   6.806   2.121   5.527
 5226SOL     OW16576   0.041   6.251   4.769
 5226SOL    HW116577   0.011   6.256   4.674
 5226SOL    HW216578   0.129   6.203   4.773
 5227SOL     OW16579   1.047   3.432   5.908
 5227SOL    HW116580   0.978   3.501   5.883
 5227SOL    HW216581   1.046   3.419   6.007
 5228SOL     OW16582   1.496   2.094   5.128
 5228SOL    HW116583   1.550   2.065   5.207
 5228SOL    HW216584   1.498   2.022   5.059
 5229SOL     OW16585   3.549   2.054   6.144
 5229SOL    HW116586   3.591   2.102   6.221
 5229SOL    HW216587   3.483   2.114   6.099
 5230SOL     OW16588   6.550   0.508   2.499
 5230SOL    HW116589   6.578   0.433   2.439
 5230SOL    HW216590   6.481   0.474   2.563
 5231SOL     OW16591   6.535   3.992   2.170
 5231SOL    HW116592   6.575   3.921   2.228
 5231SOL    HW216593   6.575   3.986   2.078
 5232SOL     OW16594   1.604   2.222   5.646
 5232SOL    HW116595   1.666   2.290   5.684
 5232SOL    HW216596   1.656   2.156   5.592
 5233SOL     OW16597   3.684   7.016   3.523
 5233SOL    HW116598   3.637   7.011   3.611
 5233SOL    HW216599   3.664   0.079   3.479
 5234SOL     OW16600   2.887   2.610   6.223
 5234SOL    HW116601   2.827   2.610   6.143
 5234SOL    HW216602   2.882   2.521   6.269
 5235SOL     OW16603   2.452   2.060   1.630
 5235SOL    HW116604   2.514   2.001   1.681
 5235SOL    HW216605   2.376   2.088   1.690
 5236SOL     OW16606   3.030   4.865   1.986
 5236SOL    HW116607   3.040   4.957   2.025
 5236SOL    HW216608   2.971   4.810   2.044
 5237SOL     OW16609   1.864   1.487   2.037
 5237SOL    HW116610   1.834   1.573   2.077
 5237SOL    HW216611   1.875   1.498   1.938
 5238SOL     OW16612   6.728   0.361   2.754
 5238SOL    HW116613   6.660   0.339   2.683
 5238SOL    HW216614   6.680   0.394   2.836
 5239SOL     OW16615   2.804   4.037   1.051
 5239SOL    HW116616   2.817   3.960   1.112
 5239SOL    HW216617   2.732   4.096   1.086
 5240SOL     OW16618   2.169   4.100   6.228
 5240SOL    HW116619   2.081   4.084   6.183
 5240SOL    HW216620   2.166   4.064   6.320
 5241SOL     OW16621   2.435   6.689   2.558
 5241SOL    HW116622   2.426   6.786   2.583
 5241SOL    HW216623   2.532   6.668   2.545
 5242SOL     OW16624   4.013   6.827   6.093
 5242SOL    HW116625   4.098   6.841   6.143
 5242SOL    HW216626   3.953   6.906   6.106
 5243SOL     OW16627   2.542   5.902   3.244
 5243SOL    HW116628   2.487   5.949   3.313
 5243SOL    HW216629   2.630   5.875   3.284
 5244SOL     OW16630   4.090   1.003   6.753
 5244SOL    HW116631   4.092   0.989   6.852
 5244SOL    HW216632   4.010   1.059   6.729
 5245SOL     OW16633   3.073   4.093   1.900
 5245SOL    HW116634   3.014   4.148   1.842
 5245SOL    HW216635   3.169   4.118   1.885
 5246SOL     OW16636   5.764   3.709   6.363
 5246SOL    HW116637   5.760   3.739   6.458
 5246SOL    HW216638   5.687   3.747   6.313
 5247SOL     OW16639   5.118   1.583   6.690
 5247SOL    HW116640   5.194   1.647   6.676
 5247SOL    HW216641   5.071   1.568   6.603
 5248SOL     OW16642   5.000   1.105   3.896
 5248SOL    HW116643   5.026   1.012   3.870
 5248SOL    HW216644   4.909   1.125   3.860
 5249SOL     OW16645   0.198   4.787   0.998
 5249SOL    HW116646   0.238   4.705   1.039
 5249SOL    HW216647   0.240   4.803   0.909
 5250SOL     OW16648   2.676   5.380   1.085
 5250SOL    HW116649   2.653   5.472   1.055
 5250SOL    HW216650   2.593   5.331   1.111
 5251SOL     OW16651   0.553   4.551   6.709
 5251SOL    HW116652   0.621   4.535   6.637
 5251SOL    HW216653   0.508   4.639   6.692
 5252SOL     OW16654   3.978   5.459   2.807
 5252SOL    HW116655   3.938   5.497   2.724
 5252SOL    HW216656   4.062   5.409   2.784
 5253SOL     OW16657   0.562   6.441   5.129
 5253SOL    HW116658   0.489   6.373   5.141
 5253SOL    HW216659   0.549   6.489   5.042
 5254SOL     OW16660   4.533   5.699   2.745
 5254SOL    HW116661   4.473   5.768   2.786
 5254SOL    HW216662   4.628   5.721   2.766
 5255SOL     OW16663   6.764   1.950   5.463
 5255SOL    HW116664   6.811   1.884   5.406
 5255SOL    HW216665   6.697   1.903   5.521
 5256SOL     OW16666   4.901   1.497   2.768
 5256SOL    HW116667   4.833   1.550   2.717
 5256SOL    HW216668   4.993   1.521   2.736
 5257SOL     OW16669   4.845   2.319   6.888
 5257SOL    HW116670   4.906   2.378   6.836
 5257SOL    HW216671   4.755   2.362   6.894
 5258SOL     OW16672   4.840   1.575   5.222
 5258SOL    HW116673   4.811   1.560   5.128
 5258SOL    HW216674   4.779   1.525   5.284
 5259SOL     OW16675   5.683   5.534   4.040
 5259SOL    HW116676   5.780   5.555   4.033
 5259SOL    HW216677   5.655   5.538   4.136
 5260SOL     OW16678   1.754   5.829   1.457
 5260SOL    HW116679   1.813   5.811   1.378
 5260SOL    HW216680   1.743   5.745   1.509
 5261SOL     OW16681   6.118   4.716   0.004
 5261SOL    HW116682   6.136   4.697   0.100
 5261SOL    HW216683   6.172   4.794   6.998
 5262SOL     OW16684   1.384   1.234   1.660
 5262SOL    HW116685   1.458   1.179   1.622
 5262SOL    HW216686   1.409   1.267   1.751
 5263SOL     OW16687   1.877   6.053   2.969
 5263SOL    HW116688   1.822   6.135   2.955
 5263SOL    HW216689   1.938   6.040   2.892
 5264SOL     OW16690   6.579   2.764   1.781
 5264SOL    HW116691   6.590   2.863   1.777
 5264SOL    HW216692   6.660   2.720   1.744
 5265SOL     OW16693   6.308   5.930   5.407
 5265SOL    HW116694   6.274   5.881   5.487
 5265SOL    HW216695   6.232   5.972   5.358
 5266SOL     OW16696   1.379   6.939   6.008
 5266SOL    HW116697   1.298   6.882   6.017
 5266SOL    HW216698   1.459   6.890   6.044
 5267SOL     OW16699   5.455   1.772   4.181
 5267SOL    HW116700   5.504   1.748   4.265
 5267SOL    HW216701   5.516   1.759   4.102
 5268SOL     OW16702   5.244   6.748   6.109
 5268SOL    HW116703   5.308   6.771   6.035
 5268SOL    HW216704   5.173   6.687   6.074
 5269SOL     OW16705   1.347   0.151   4.221
 5269SOL    HW116706   1.415   0.224   4.231
 5269SOL    HW216707   1.394   0.063   4.209
 5270SOL     OW16708   0.699   1.836   6.119
 5270SOL    HW116709   0.756   1.918   6.115
 5270SOL    HW216710   0.636   1.834   6.041
 5271SOL     OW16711   1.249   5.351   4.406
 5271SOL    HW116712   1.149   5.355   4.412
 5271SOL    HW216713   1.288   5.344   4.497
 5272SOL     OW16714   4.324   0.543   6.363
 5272SOL    HW116715   4.322   0.614   6.433
 5272SOL    HW216716   4.398   0.561   6.298
 5273SOL     OW16717   2.908   1.600   2.782
 5273SOL    HW116718   2.862   1.541   2.849
 5273SOL    HW216719   2.963   1.544   2.721
 5274SOL     OW16720   5.532   5.090   1.439
 5274SOL    HW116721   5.504   5.011   1.385
 5274SOL    HW216722   5.626   5.077   1.471
 5275SOL     OW16723   5.410   1.784   6.072
 5275SOL    HW116724   5.505   1.771   6.100
 5275SOL    HW216725   5.369   1.857   6.125
 5276SOL     OW16726   3.978   6.422   1.816
 5276SOL    HW116727   4.061   6.466   1.850
 5276SOL    HW216728   3.982   6.324   1.832
 5277SOL     OW16729   2.221   2.999   1.791
 5277SOL    HW116730   2.201   3.017   1.887
 5277SOL    HW216731   2.164   3.057   1.733
 5278SOL     OW16732   3.586   3.072   2.227
 5278SOL    HW116733   3.593   3.078   2.128
 5278SOL    HW216734   3.658   3.127   2.269
 5279SOL     OW16735   1.347   6.238   3.003
 5279SOL    HW116736   1.254   6.214   2.973
 5279SOL    HW216737   1.399   6.274   2.925
 5280SOL     OW16738   3.854   1.089   4.401
 5280SOL    HW116739   3.777   1.026   4.390
 5280SOL    HW216740   3.940   1.037   4.403
 5281SOL     OW16741   6.901   2.391   3.924
 5281SOL    HW116742   6.828   2.428   3.866
 5281SOL    HW216743   6.978   2.364   3.867
 5282SOL     OW16744   5.065   2.312   0.954
 5282SOL    HW116745   5.098   2.405   0.942
 5282SOL    HW216746   5.113   2.270   1.032
 5283SOL     OW16747   4.526   4.689   6.262
 5283SOL    HW116748   4.609   4.740   6.237
 5283SOL    HW216749   4.471   4.674   6.180
 5284SOL     OW16750   4.798   2.900   3.893
 5284SOL    HW116751   4.791   2.998   3.916
 5284SOL    HW216752   4.874   2.860   3.945
 5285SOL     OW16753   4.288   6.314   2.690
 5285SOL    HW116754   4.289   6.367   2.774
 5285SOL    HW216755   4.197   6.277   2.675
 5286SOL     OW16756   1.987   4.770   1.548
 5286SOL    HW116757   2.028   4.785   1.638
 5286SOL    HW216758   2.030   4.691   1.505
 5287SOL     OW16759   0.925   1.023   2.297
 5287SOL    HW116760   0.855   1.094   2.299
 5287SOL    HW216761   0.881   0.933   2.299
 5288SOL     OW16762   4.274   0.227   1.254
 5288SOL    HW116763   4.343   0.283   1.207
 5288SOL    HW216764   4.236   0.279   1.330
 5289SOL     OW16765   1.439   6.258   1.192
 5289SOL    HW116766   1.458   6.338   1.248
 5289SOL    HW216767   1.409   6.287   1.101
 5290SOL     OW16768   6.082   5.830   0.237
 5290SOL    HW116769   6.057   5.804   0.330
 5290SOL    HW216770   6.013   5.794   0.173
 5291SOL     OW16771   0.808   5.898   6.747
 5291SOL    HW116772   0.783   5.975   6.689
 5291SOL    HW216773   0.848   5.932   6.832
 5292SOL     OW16774   5.552   1.351   0.856
 5292SOL    HW116775   5.615   1.396   0.920
 5292SOL    HW216776   5.574   1.253   0.851
 5293SOL     OW16777   1.589   1.478   4.186
 5293SOL    HW116778   1.523   1.474   4.112
 5293SOL    HW216779   1.583   1.566   4.232
 5294SOL     OW16780   3.796   2.667   6.297
 5294SOL    HW116781   3.866   2.669   6.368
 5294SOL    HW216782   3.735   2.745   6.308
 5295SOL     OW16783   6.636   1.535   2.855
 5295SOL    HW116784   6.587   1.605   2.803
 5295SOL    HW216785   6.572   1.485   2.913
 5296SOL     OW16786   0.425   3.080   6.581
 5296SOL    HW116787   0.457   3.020   6.654
 5296SOL    HW216788   0.501   3.102   6.520
 5297SOL     OW16789   1.276   2.731   1.955
 5297SOL    HW116790   1.211   2.683   2.013
 5297SOL    HW216791   1.368   2.695   1.970
 5298SOL     OW16792   1.123   4.495   1.611
 5298SOL    HW116793   1.159   4.426   1.549
 5298SOL    HW216794   1.169   4.582   1.595
 5299SOL     OW16795   2.988   0.469   0.294
 5299SOL    HW116796   3.088   0.462   0.297
 5299SOL    HW216797   2.958   0.543   0.354
 5300SOL     OW16798   0.174   5.328   3.984
 5300SOL    HW116799   0.153   5.232   3.965
 5300SOL    HW216800   0.207   5.337   4.078
 5301SOL     OW16801   4.906   0.305   6.714
 5301SOL    HW116802   5.002   0.333   6.723
 5301SOL    HW216803   4.892   0.218   6.761
 5302SOL     OW16804   6.540   3.741   3.494
 5302SOL    HW116805   6.489   3.825   3.476
 5302SOL    HW216806   6.638   3.760   3.492
 5303SOL     OW16807   1.648   4.777   3.491
 5303SOL    HW116808   1.592   4.709   3.538
 5303SOL    HW216809   1.692   4.735   3.412
 5304SOL     OW16810   4.448   2.958   5.727
 5304SOL    HW116811   4.369   2.963   5.665
 5304SOL    HW216812   4.471   3.050   5.759
 5305SOL     OW16813   3.507   1.387   4.495
 5305SOL    HW116814   3.498   1.361   4.399
 5305SOL    HW216815   3.454   1.469   4.512
 5306SOL     OW16816   2.254   6.262   4.415
 5306SOL    HW116817   2.249   6.227   4.322
 5306SOL    HW216818   2.215   6.355   4.418
 5307SOL     OW16819   4.810   0.204   0.118
 5307SOL    HW116820   4.907   0.195   0.138
 5307SOL    HW216821   4.789   0.297   0.088
 5308SOL     OW16822   6.268   1.613   1.996
 5308SOL    HW116823   6.270   1.712   1.988
 5308SOL    HW216824   6.272   1.573   1.904
 5309SOL     OW16825   3.891   3.576   5.138
 5309SOL    HW116826   3.812   3.515   5.145
 5309SOL    HW216827   3.930   3.570   5.047
 5310SOL     OW16828   5.489   2.627   0.607
 5310SOL    HW116829   5.504   2.531   0.628
 5310SOL    HW216830   5.405   2.658   0.651
 5311SOL     OW16831   0.247   6.473   6.979
 5311SOL    HW116832   0.246   6.517   6.890
 5311SOL    HW216833   0.270   6.376   6.968
 5312SOL     OW16834   0.772   3.108   1.598
 5312SOL    HW116835   0.743   3.081   1.506
 5312SOL    HW216836   0.785   3.208   1.600
 5313SOL     OW16837   0.266   6.239   0.755
 5313SOL    HW116838   0.264   6.175   0.832
 5313SOL    HW216839   0.350   6.225   0.703
 5314SOL     OW16840   3.829   5.081   1.399
 5314SOL    HW116841   3.879   5.025   1.465
 5314SOL    HW216842   3.887   5.156   1.368
 5315SOL     OW16843   5.691   2.023   2.518
 5315SOL    HW116844   5.774   1.970   2.536
 5315SOL    HW216845   5.613   1.961   2.516
 5316SOL     OW16846   5.715   5.411   4.330
 5316SOL    HW116847   5.652   5.421   4.407
 5316SOL    HW216848   5.712   5.316   4.298
 5317SOL     OW16849   6.706   5.390   2.353
 5317SOL    HW116850   6.620   5.394   2.301
 5317SOL    HW216851   6.763   5.468   2.327
 5318SOL     OW16852   0.424   2.901   4.049
 5318SOL    HW116853   0.433   2.885   3.950
 5318SOL    HW216854   0.377   2.823   4.091
 5319SOL     OW16855   3.036   6.752   2.886
 5319SOL    HW116856   3.134   6.740   2.906
 5319SOL    HW216857   2.995   6.663   2.870
 5320SOL     OW16858   0.186   2.994   6.323
 5320SOL    HW116859   0.202   2.914   6.266
 5320SOL    HW216860   0.236   3.072   6.285
 5321SOL     OW16861   2.833   4.477   6.420
 5321SOL    HW116862   2.786   4.561   6.391
 5321SOL    HW216863   2.841   4.477   6.520
 5322SOL     OW16864   2.206   5.886   0.894
 5322SOL    HW116865   2.127   5.833   0.925
 5322SOL    HW216866   2.183   5.983   0.896
 5323SOL     OW16867   5.501   3.065   0.192
 5323SOL    HW116868   5.579   3.003   0.202
 5323SOL    HW216869   5.517   3.148   0.245
 5324SOL     OW16870   4.289   2.868   1.153
 5324SOL    HW116871   4.361   2.918   1.201
 5324SOL    HW216872   4.288   2.773   1.183
 5325SOL     OW16873   3.906   6.009   4.922
 5325SOL    HW116874   3.812   5.974   4.915
 5325SOL    HW216875   3.938   6.039   4.833
 5326SOL     OW16876   0.220   0.268   2.066
 5326SOL    HW116877   0.312   0.265   2.028
 5326SOL    HW216878   0.212   0.345   2.130
 5327SOL     OW16879   6.645   0.581   3.897
 5327SOL    HW116880   6.725   0.614   3.946
 5327SOL    HW216881   6.628   0.640   3.818
 5328SOL     OW16882   3.533   5.007   0.076
 5328SOL    HW116883   3.599   5.041   0.143
 5328SOL    HW216884   3.580   4.954   0.006
 5329SOL     OW16885   0.385   5.633   6.412
 5329SOL    HW116886   0.359   5.544   6.373
 5329SOL    HW216887   0.474   5.661   6.376
 5330SOL     OW16888   3.634   4.898   0.459
 5330SOL    HW116889   3.671   4.910   0.552
 5330SOL    HW216890   3.541   4.935   0.456
 5331SOL     OW16891   5.391   1.174   6.768
 5331SOL    HW116892   5.417   1.206   6.677
 5331SOL    HW216893   5.470   1.179   6.828
 5332SOL     OW16894   6.413   2.999   6.809
 5332SOL    HW116895   6.432   2.943   6.890
 5332SOL    HW216896   6.372   3.086   6.838
 5333SOL     OW16897   1.219   0.533   4.022
 5333SOL    HW116898   1.138   0.513   4.077
 5333SOL    HW216899   1.255   0.449   3.983
 5334SOL     OW16900   2.942   6.410   1.257
 5334SOL    HW116901   3.030   6.440   1.221
 5334SOL    HW216902   2.877   6.486   1.254
 5335SOL     OW16903   0.237   4.715   2.205
 5335SOL    HW116904   0.259   4.617   2.202
 5335SOL    HW216905   0.276   4.760   2.125
 5336SOL     OW16906   1.815   3.507   5.087
 5336SOL    HW116907   1.820   3.504   5.187
 5336SOL    HW216908   1.720   3.521   5.059
 5337SOL     OW16909   6.784   3.612   1.060
 5337SOL    HW116910   6.747   3.597   1.151
 5337SOL    HW216911   6.710   3.635   0.997
 5338SOL     OW16912   0.002   3.723   0.798
 5338SOL    HW116913   6.967   3.674   0.733
 5338SOL    HW216914   0.052   3.657   0.854
 5339SOL     OW16915   5.637   2.801   2.878
 5339SOL    HW116916   5.554   2.857   2.872
 5339SOL    HW216917   5.707   2.837   2.817
 5340SOL     OW16918   4.939   3.276   1.307
 5340SOL    HW116919   4.919   3.324   1.392
 5340SOL    HW216920   4.994   3.195   1.326
 5341SOL     OW16921   4.963   4.996   3.462
 5341SOL    HW116922   4.896   5.030   3.529
 5341SOL    HW216923   4.930   5.015   3.370
 5342SOL     OW16924   6.314   5.892   4.563
 5342SOL    HW116925   6.216   5.872   4.557
 5342SOL    HW216926   6.364   5.832   4.501
 5343SOL     OW16927   3.875   3.366   6.701
 5343SOL    HW116928   3.789   3.372   6.751
 5343SOL    HW216929   3.896   3.456   6.662
 5344SOL     OW16930   6.626   2.201   7.017
 5344SOL    HW116931   6.707   2.194   6.958
 5344SOL    HW216932   6.613   2.115   0.042
 5345SOL     OW16933   3.332   1.492   0.483
 5345SOL    HW116934   3.415   1.514   0.534
 5345SOL    HW216935   3.252   1.528   0.531
 5346SOL     OW16936   2.799   6.695   3.256
 5346SOL    HW116937   2.766   6.722   3.166
 5346SOL    HW216938   2.809   6.596   3.260
 5347SOL     OW16939   5.129   1.748   5.134
 5347SOL    HW116940   5.058   1.816   5.113
 5347SOL    HW216941   5.165   1.766   5.226
 5348SOL     OW16942   4.871   2.815   5.545
 5348SOL    HW116943   4.844   2.908   5.569
 5348SOL    HW216944   4.971   2.809   5.540
 5349SOL     OW16945   1.024   4.116   1.268
 5349SOL    HW116946   0.980   4.124   1.179
 5349SOL    HW216947   0.998   4.028   1.310
 5350SOL     OW16948   0.842   6.731   5.980
 5350SOL    HW116949   0.837   6.828   6.001
 5350SOL    HW216950   0.806   6.714   5.888
 5351SOL     OW16951   0.303   5.759   3.400
 5351SOL    HW116952   0.326   5.773   3.304
 5351SOL    HW216953   0.365   5.813   3.457
 5352SOL     OW16954   1.514   2.549   5.855
 5352SOL    HW116955   1.518   2.625   5.920
 5352SOL    HW216956   1.461   2.577   5.775
 5353SOL     OW16957   3.090   6.736   3.619
 5353SOL    HW116958   3.025   6.731   3.695
 5353SOL    HW216959   3.181   6.711   3.651
 5354SOL     OW16960   3.879   5.869   1.990
 5354SOL    HW116961   3.950   5.824   1.936
 5354SOL    HW216962   3.864   5.818   2.075
 5355SOL     OW16963   5.145   5.384   5.309
 5355SOL    HW116964   5.209   5.435   5.367
 5355SOL    HW216965   5.141   5.427   5.219
 5356SOL     OW16966   1.194   6.913   1.336
 5356SOL    HW116967   1.257   6.922   1.413
 5356SOL    HW216968   1.191   6.999   1.285
 5357SOL     OW16969   6.394   3.269   2.558
 5357SOL    HW116970   6.298   3.274   2.527
 5357SOL    HW216971   6.397   3.270   2.658
 5358SOL     OW16972   5.921   0.891   6.512
 5358SOL    HW116973   6.011   0.870   6.474
 5358SOL    HW216974   5.870   0.807   6.524
 5359SOL     OW16975   2.821   2.402   6.600
 5359SOL    HW116976   2.871   2.371   6.520
 5359SOL    HW216977   2.862   2.362   6.682
 5360SOL     OW16978   5.853   5.774   3.796
 5360SOL    HW116979   5.813   5.726   3.718
 5360SOL    HW216980   5.812   5.864   3.804
 5361SOL     OW16981   1.803   3.765   3.452
 5361SOL    HW116982   1.882   3.766   3.514
 5361SOL    HW216983   1.800   3.677   3.404
 5362SOL     OW16984   6.411   1.156   3.913
 5362SOL    HW116985   6.330   1.105   3.882
 5362SOL    HW216986   6.402   1.252   3.886
 5363SOL     OW16987   5.895   5.598   4.340
 5363SOL    HW116988   5.969   5.572   4.278
 5363SOL    HW216989   5.824   5.527   4.337
 5364SOL     OW16990   4.944   2.387   2.098
 5364SOL    HW116991   4.901   2.372   2.187
 5364SOL    HW216992   4.895   2.460   2.050
 5365SOL     OW16993   3.331   3.799   5.439
 5365SOL    HW116994   3.296   3.766   5.351
 5365SOL    HW216995   3.428   3.777   5.447
 5366SOL     OW16996   0.565   4.883   3.237
 5366SOL    HW116997   0.496   4.954   3.228
 5366SOL    HW216998   0.607   4.865   3.148
 5367SOL     OW16999   6.149   6.092   1.352
 5367SOL    HW117000   6.053   6.067   1.338
 5367SOL    HW217001   6.154   6.174   1.409
 5368SOL     OW17002   0.601   5.492   5.057
 5368SOL    HW117003   0.621   5.447   5.144
 5368SOL    HW217004   0.639   5.585   5.058
 5369SOL     OW17005   4.446   6.915   3.051
 5369SOL    HW117006   4.412   6.985   2.988
 5369SOL    HW217007   4.455   6.954   3.142
 5370SOL     OW17008   2.521   2.122   0.638
 5370SOL    HW117009   2.429   2.086   0.656
 5370SOL    HW217010   2.587   2.047   0.638
 5371SOL     OW17011   6.024   5.385   3.444
 5371SOL    HW117012   6.020   5.338   3.533
 5371SOL    HW217013   5.960   5.342   3.381
 5372SOL     OW17014   1.696   0.103   3.861
 5372SOL    HW117015   1.730   0.118   3.769
 5372SOL    HW217016   1.656   0.187   3.896
 5373SOL     OW17017   3.300   0.850   7.003
 5373SOL    HW117018   3.295   0.946   6.976
 5373SOL    HW217019   3.389   0.832   0.023
 5374SOL     OW17020   1.473   3.804   1.328
 5374SOL    HW117021   1.565   3.786   1.296
 5374SOL    HW217022   1.458   3.757   1.415
 5375SOL     OW17023   2.564   4.661   4.844
 5375SOL    HW117024   2.498   4.589   4.866
 5375SOL    HW217025   2.641   4.655   4.907
 5376SOL     OW17026   1.004   1.026   1.217
 5376SOL    HW117027   1.079   1.090   1.232
 5376SOL    HW217028   1.038   0.932   1.227
 5377SOL     OW17029   0.888   2.447   2.216
 5377SOL    HW117030   0.813   2.387   2.188
 5377SOL    HW217031   0.853   2.518   2.277
 5378SOL     OW17032   5.596   6.918   2.796
 5378SOL    HW117033   5.542   6.870   2.726
 5378SOL    HW217034   5.603   7.015   2.772
 5379SOL     OW17035   2.732   1.905   4.076
 5379SOL    HW117036   2.651   1.960   4.094
 5379SOL    HW217037   2.706   1.808   4.072
 5380SOL     OW17038   5.032   6.412   1.339
 5380SOL    HW117039   5.049   6.503   1.301
 5380SOL    HW217040   5.044   6.416   1.438
 5381SOL     OW17041   3.396   2.138   2.825
 5381SOL    HW117042   3.454   2.065   2.791
 5381SOL    HW217043   3.448   2.194   2.891
 5382SOL     OW17044   4.308   0.408   2.699
 5382SOL    HW117045   4.269   0.500   2.697
 5382SOL    HW217046   4.240   0.343   2.734
 5383SOL     OW17047   2.652   3.601   5.362
 5383SOL    HW117048   2.653   3.506   5.328
 5383SOL    HW217049   2.560   3.639   5.351
 5384SOL     OW17050   4.913   6.861   6.057
 5384SOL    HW117051   4.984   6.932   6.050
 5384SOL    HW217052   4.929   6.807   6.139
 5385SOL     OW17053   3.230   3.141   0.225
 5385SOL    HW117054   3.321   3.124   0.185
 5385SOL    HW217055   3.174   3.191   0.159
 5386SOL     OW17056   4.160   4.798   3.324
 5386SOL    HW117057   4.142   4.878   3.267
 5386SOL    HW217058   4.199   4.725   3.267
 5387SOL     OW17059   1.147   2.559   4.311
 5387SOL    HW117060   1.204   2.563   4.229
 5387SOL    HW217061   1.131   2.652   4.345
 5388SOL     OW17062   6.629   6.039   3.606
 5388SOL    HW117063   6.672   5.970   3.663
 5388SOL    HW217064   6.696   6.074   3.540
 5389SOL     OW17065   5.122   1.723   4.405
 5389SOL    HW117066   5.106   1.658   4.331
 5389SOL    HW217067   5.150   1.811   4.367
 5390SOL     OW17068   5.447   3.130   3.568
 5390SOL    HW117069   5.472   3.223   3.595
 5390SOL    HW217070   5.527   3.071   3.574
 5391SOL     OW17071   5.139   2.745   1.484
 5391SOL    HW117072   5.126   2.661   1.430
 5391SOL    HW217073   5.051   2.772   1.524
 5392SOL     OW17074   5.431   0.408   4.479
 5392SOL    HW117075   5.453   0.344   4.405
 5392SOL    HW217076   5.478   0.494   4.464
 5393SOL     OW17077   4.021   1.773   3.570
 5393SOL    HW117078   3.958   1.786   3.647
 5393SOL    HW217079   4.115   1.766   3.605
 5394SOL     OW17080   0.081   2.675   2.468
 5394SOL    HW117081   0.091   2.576   2.468
 5394SOL    HW217082   0.003   2.701   2.524
 5395SOL     OW17083   0.303   1.373   0.833
 5395SOL    HW117084   0.253   1.429   0.767
 5395SOL    HW217085   0.300   1.418   0.923
 5396SOL     OW17086   4.246   2.584   1.198
 5396SOL    HW117087   4.179   2.564   1.127
 5396SOL    HW217088   4.258   2.504   1.256
 5397SOL     OW17089   6.987   0.153   2.030
 5397SOL    HW117090   0.059   0.171   2.053
 5397SOL    HW217091   6.974   0.055   2.016
 5398SOL     OW17092   5.877   2.141   3.763
 5398SOL    HW117093   5.783   2.158   3.734
 5398SOL    HW217094   5.920   2.076   3.699
 5399SOL     OW17095   2.794   3.223   0.477
 5399SOL    HW117096   2.881   3.258   0.440
 5399SOL    HW217097   2.798   3.124   0.484
 5400SOL     OW17098   5.358   3.041   1.339
 5400SOL    HW117099   5.430   3.101   1.305
 5400SOL    HW217100   5.305   3.007   1.261
 5401SOL     OW17101   5.064   3.201   1.630
 5401SOL    HW117102   5.010   3.124   1.596
 5401SOL    HW217103   5.016   3.243   1.707
 5402SOL     OW17104   1.507   5.755   1.914
 5402SOL    HW117105   1.416   5.718   1.933
 5402SOL    HW217106   1.563   5.683   1.872
 5403SOL     OW17107   6.251   2.122   6.089
 5403SOL    HW117108   6.277   2.087   5.999
 5403SOL    HW217109   6.319   2.187   6.121
 5404SOL     OW17110   4.521   6.560   0.779
 5404SOL    HW117111   4.607   6.605   0.756
 5404SOL    HW217112   4.483   6.601   0.862
 5405SOL     OW17113   0.064   5.231   6.378
 5405SOL    HW117114   7.002   5.185   6.400
 5405SOL    HW217115   0.069   5.248   6.280
 5406SOL     OW17116   2.419   0.583   5.559
 5406SOL    HW117117   2.351   0.656   5.550
 5406SOL    HW217118   2.390   0.503   5.506
 5407SOL     OW17119   1.835   0.414   2.691
 5407SOL    HW117120   1.874   0.374   2.775
 5407SOL    HW217121   1.869   0.364   2.612
 5408SOL     OW17122   1.791   2.324   4.395
 5408SOL    HW117123   1.788   2.424   4.390
 5408SOL    HW217124   1.698   2.289   4.397
 5409SOL     OW17125   0.708   3.483   2.646
 5409SOL    HW117126   0.700   3.407   2.582
 5409SOL    HW217127   0.773   3.550   2.609
 5410SOL     OW17128   5.958   2.292   0.358
 5410SOL    HW117129   5.997   2.200   0.354
 5410SOL    HW217130   5.929   2.311   0.452
 5411SOL     OW17131   3.159   5.348   1.435
 5411SOL    HW117132   3.232   5.366   1.368
 5411SOL    HW217133   3.088   5.418   1.426
 5412SOL     OW17134   1.412   2.361   5.536
 5412SOL    HW117135   1.488   2.310   5.575
 5412SOL    HW217136   1.332   2.352   5.595
 5413SOL     OW17137   0.124   5.669   5.889
 5413SOL    HW117138   0.139   5.616   5.805
 5413SOL    HW217139   0.082   5.757   5.866
 5414SOL     OW17140   5.713   5.503   6.280
 5414SOL    HW117141   5.757   5.456   6.203
 5414SOL    HW217142   5.770   5.580   6.308
 5415SOL     OW17143   1.705   1.266   6.487
 5415SOL    HW117144   1.803   1.267   6.507
 5415SOL    HW217145   1.684   1.344   6.428
 5416SOL     OW17146   3.591   5.976   6.755
 5416SOL    HW117147   3.674   5.927   6.730
 5416SOL    HW217148   3.593   6.068   6.714
 5417SOL     OW17149   5.821   7.016   2.100
 5417SOL    HW117150   5.882   0.023   2.027
 5417SOL    HW217151   5.777   0.071   2.142
 5418SOL     OW17152   0.517   4.093   5.413
 5418SOL    HW117153   0.542   4.135   5.501
 5418SOL    HW217154   0.446   4.024   5.429
 5419SOL     OW17155   3.754   1.316   6.224
 5419SOL    HW117156   3.754   1.412   6.196
 5419SOL    HW217157   3.837   1.295   6.275
 5420SOL     OW17158   1.887   2.098   0.832
 5420SOL    HW117159   1.956   2.158   0.871
 5420SOL    HW217160   1.880   2.015   0.887
 5421SOL     OW17161   4.210   5.019   1.638
 5421SOL    HW117162   4.113   5.038   1.627
 5421SOL    HW217163   4.225   4.920   1.634
 5422SOL     OW17164   2.630   6.378   3.243
 5422SOL    HW117165   2.577   6.459   3.220
 5422SOL    HW217166   2.584   6.327   3.315
 5423SOL     OW17167   3.835   6.765   1.662
 5423SOL    HW117168   3.752   6.810   1.629
 5423SOL    HW217169   3.827   6.666   1.647
 5424SOL     OW17170   3.841   3.821   5.249
 5424SOL    HW117171   3.859   3.817   5.348
 5424SOL    HW217172   3.883   3.742   5.204
 5425SOL     OW17173   1.403   5.270   5.390
 5425SOL    HW117174   1.476   5.251   5.455
 5425SOL    HW217175   1.433   5.245   5.298
 5426SOL     OW17176   1.039   4.356   6.896
 5426SOL    HW117177   1.052   4.422   6.822
 5426SOL    HW217178   1.123   4.304   6.909
 5427SOL     OW17179   4.713   2.127   0.400
 5427SOL    HW117180   4.753   2.202   0.347
 5427SOL    HW217181   4.731   2.040   0.353
 5428SOL     OW17182   4.560   5.766   3.102
 5428SOL    HW117183   4.493   5.793   3.033
 5428SOL    HW217184   4.513   5.724   3.180
 5429SOL     OW17185   2.451   6.233   4.031
 5429SOL    HW117186   2.506   6.310   4.065
 5429SOL    HW217187   2.488   6.148   4.068
 5430SOL     OW17188   1.415   4.277   5.055
 5430SOL    HW117189   1.455   4.356   5.101
 5430SOL    HW217190   1.322   4.263   5.088
 5431SOL     OW17191   5.112   4.836   1.473
 5431SOL    HW117192   5.155   4.870   1.556
 5431SOL    HW217193   5.023   4.880   1.461
 5432SOL     OW17194   0.556   5.044   6.152
 5432SOL    HW117195   0.584   5.119   6.092
 5432SOL    HW217196   0.468   5.008   6.122
 5433SOL     OW17197   2.821   0.402   1.373
 5433SOL    HW117198   2.801   0.366   1.282
 5433SOL    HW217199   2.911   0.368   1.403
 5434SOL     OW17200   5.513   6.078   3.983
 5434SOL    HW117201   5.442   6.032   3.930
 5434SOL    HW217202   5.540   6.020   4.060
 5435SOL     OW17203   6.734   3.911   6.378
 5435SOL    HW117204   6.646   3.876   6.409
 5435SOL    HW217205   6.733   3.922   6.279
 5436SOL     OW17206   1.943   4.492   1.870
 5436SOL    HW117207   1.933   4.577   1.922
 5436SOL    HW217208   1.861   4.478   1.814
 5437SOL     OW17209   3.311   6.292   0.041
 5437SOL    HW117210   3.317   6.369   0.105
 5437SOL    HW217211   3.383   6.225   0.063
 5438SOL     OW17212   5.885   7.014   2.578
 5438SOL    HW117213   5.857   0.062   2.642
 5438SOL    HW217214   5.974   0.013   2.539
 5439SOL     OW17215   1.693   3.891   1.666
 5439SOL    HW117216   1.598   3.882   1.697
 5439SOL    HW217217   1.748   3.929   1.740
 5440SOL     OW17218   6.301   6.955   3.898
 5440SOL    HW117219   6.373   7.019   3.872
 5440SOL    HW217220   6.261   6.913   3.816
 5441SOL     OW17221   5.555   1.827   4.770
 5441SOL    HW117222   5.470   1.824   4.718
 5441SOL    HW217223   5.536   1.855   4.864
 5442SOL     OW17224   2.427   0.304   6.706
 5442SOL    HW117225   2.505   0.362   6.681
 5442SOL    HW217226   2.401   0.324   6.801
 5443SOL     OW17227   5.905   0.421   3.306
 5443SOL    HW117228   5.856   0.430   3.393
 5443SOL    HW217229   6.003   0.412   3.323
 5444SOL     OW17230   1.154   1.361   5.664
 5444SOL    HW117231   1.066   1.383   5.705
 5444SOL    HW217232   1.227   1.406   5.716
 5445SOL     OW17233   6.016   6.642   5.233
 5445SOL    HW117234   5.939   6.681   5.284
 5445SOL    HW217235   6.040   6.703   5.157
 5446SOL     OW17236   1.607   5.426   5.735
 5446SOL    HW117237   1.667   5.384   5.803
 5446SOL    HW217238   1.528   5.467   5.781
 5447SOL     OW17239   6.270   2.316   1.325
 5447SOL    HW117240   6.326   2.274   1.254
 5447SOL    HW217241   6.302   2.285   1.415
 5448SOL     OW17242   6.605   4.620   1.693
 5448SOL    HW117243   6.650   4.609   1.604
 5448SOL    HW217244   6.575   4.714   1.704
 5449SOL     OW17245   1.816   6.980   2.079
 5449SOL    HW117246   1.909   6.949   2.093
 5449SOL    HW217247   1.756   6.902   2.060
 5450SOL     OW17248   4.586   5.610   1.653
 5450SOL    HW117249   4.531   5.658   1.721
 5450SOL    HW217250   4.635   5.535   1.696
 5451SOL     OW17251   0.237   6.666   3.802
 5451SOL    HW117252   0.265   6.741   3.743
 5451SOL    HW217253   0.218   6.585   3.747
 5452SOL     OW17254   2.206   4.423   3.143
 5452SOL    HW117255   2.125   4.477   3.121
 5452SOL    HW217256   2.230   4.437   3.239
 5453SOL     OW17257   5.788   4.637   4.296
 5453SOL    HW117258   5.691   4.658   4.302
 5453SOL    HW217259   5.820   4.650   4.202
 5454SOL     OW17260   5.836   4.090   2.527
 5454SOL    HW117261   5.915   4.054   2.577
 5454SOL    HW217262   5.868   4.157   2.459
 5455SOL     OW17263   2.682   2.105   3.152
 5455SOL    HW117264   2.703   2.036   3.084
 5455SOL    HW217265   2.660   2.191   3.107
 5456SOL     OW17266   5.772   2.508   0.685
 5456SOL    HW117267   5.804   2.544   0.773
 5456SOL    HW217268   5.839   2.528   0.614
 5457SOL     OW17269   6.582   1.433   0.336
 5457SOL    HW117270   6.592   1.525   0.297
 5457SOL    HW217271   6.510   1.436   0.406
 5458SOL     OW17272   5.456   4.713   5.942
 5458SOL    HW117273   5.505   4.751   5.863
 5458SOL    HW217274   5.373   4.667   5.911
 5459SOL     OW17275   2.102   3.132   4.982
 5459SOL    HW117276   2.044   3.054   5.005
 5459SOL    HW217277   2.198   3.108   4.998
 5460SOL     OW17278   0.335   0.758   1.395
 5460SOL    HW117279   0.341   0.792   1.489
 5460SOL    HW217280   0.407   0.690   1.380
 5461SOL     OW17281   5.961   1.539   6.762
 5461SOL    HW117282   5.982   1.456   6.711
 5461SOL    HW217283   5.998   1.532   6.855
 5462SOL     OW17284   5.241   5.321   6.237
 5462SOL    HW117285   5.251   5.279   6.327
 5462SOL    HW217286   5.280   5.413   6.238
 5463SOL     OW17287   1.872   5.296   6.234
 5463SOL    HW117288   1.957   5.245   6.223
 5463SOL    HW217289   1.818   5.254   6.307
 5464SOL     OW17290   1.846   5.416   4.306
 5464SOL    HW117291   1.752   5.428   4.336
 5464SOL    HW217292   1.898   5.367   4.377
 5465SOL     OW17293   0.481   0.308   5.188
 5465SOL    HW117294   0.480   0.337   5.283
 5465SOL    HW217295   0.532   0.222   5.179
 5466SOL     OW17296   5.009   2.518   5.128
 5466SOL    HW117297   5.010   2.448   5.057
 5466SOL    HW217298   4.920   2.516   5.175
 5467SOL     OW17299   6.164   3.506   4.367
 5467SOL    HW117300   6.095   3.543   4.305
 5467SOL    HW217301   6.170   3.563   4.449
 5468SOL     OW17302   6.963   2.821   1.583
 5468SOL    HW117303   0.021   2.865   1.547
 5468SOL    HW217304   6.885   2.883   1.575
 5469SOL     OW17305   4.073   2.137   3.705
 5469SOL    HW117306   3.973   2.140   3.704
 5469SOL    HW217307   4.105   2.141   3.800
 5470SOL     OW17308   3.122   5.343   3.324
 5470SOL    HW117309   3.137   5.369   3.420
 5470SOL    HW217310   3.045   5.279   3.319
 5471SOL     OW17311   5.608   0.875   3.062
 5471SOL    HW117312   5.645   0.803   3.121
 5471SOL    HW217313   5.633   0.965   3.099
 5472SOL     OW17314   2.195   3.814   6.771
 5472SOL    HW117315   2.281   3.863   6.761
 5472SOL    HW217316   2.119   3.874   6.747
 5473SOL     OW17317   2.826   4.771   2.208
 5473SOL    HW117318   2.811   4.693   2.147
 5473SOL    HW217319   2.776   4.850   2.173
 5474SOL     OW17320   0.981   4.881   1.953
 5474SOL    HW117321   1.036   4.864   2.034
 5474SOL    HW217322   0.948   4.793   1.917
 5475SOL     OW17323   1.301   1.109   5.166
 5475SOL    HW117324   1.397   1.086   5.180
 5475SOL    HW217325   1.278   1.191   5.218
 5476SOL     OW17326   2.335   0.750   4.703
 5476SOL    HW117327   2.253   0.702   4.735
 5476SOL    HW217328   2.339   0.841   4.745
 5477SOL     OW17329   2.174   3.110   2.933
 5477SOL    HW117330   2.201   3.024   2.889
 5477SOL    HW217331   2.139   3.173   2.864
 5478SOL     OW17332   5.911   4.039   5.938
 5478SOL    HW117333   5.842   3.967   5.941
 5478SOL    HW217334   5.938   4.056   5.843
 5479SOL     OW17335   5.684   3.315   4.600
 5479SOL    HW117336   5.746   3.376   4.550
 5479SOL    HW217337   5.735   3.238   4.637
 5480SOL     OW17338   1.347   3.626   4.484
 5480SOL    HW117339   1.358   3.536   4.526
 5480SOL    HW217340   1.373   3.622   4.387
 5481SOL     OW17341   3.999   1.409   6.700
 5481SOL    HW117342   3.983   1.450   6.611
 5481SOL    HW217343   3.941   1.329   6.711
 5482SOL     OW17344   5.445   3.923   2.324
 5482SOL    HW117345   5.409   3.832   2.305
 5482SOL    HW217346   5.533   3.915   2.371
 5483SOL     OW17347   6.596   2.784   0.176
 5483SOL    HW117348   6.502   2.811   0.198
 5483SOL    HW217349   6.660   2.836   0.232
 5484SOL     OW17350   6.107   0.498   5.461
 5484SOL    HW117351   6.170   0.454   5.398
 5484SOL    HW217352   6.056   0.570   5.412
 5485SOL     OW17353   3.208   0.608   4.213
 5485SOL    HW117354   3.188   0.559   4.298
 5485SOL    HW217355   3.304   0.637   4.213
 5486SOL     OW17356   1.017   0.417   3.555
 5486SOL    HW117357   1.115   0.412   3.573
 5486SOL    HW217358   0.975   0.484   3.617
 5487SOL     OW17359   4.242   5.332   1.794
 5487SOL    HW117360   4.159   5.357   1.745
 5487SOL    HW217361   4.250   5.389   1.876
 5488SOL     OW17362   4.797   1.422   5.625
 5488SOL    HW117363   4.707   1.379   5.629
 5488SOL    HW217364   4.791   1.518   5.653
 5489SOL     OW17365   6.906   4.082   2.013
 5489SOL    HW117366   6.815   4.123   2.001
 5489SOL    HW217367   6.938   4.100   2.106
 5490SOL     OW17368   2.829   2.194   6.021
 5490SOL    HW117369   2.860   2.104   5.989
 5490SOL    HW217370   2.740   2.215   5.981
 5491SOL     OW17371   0.214   5.748   2.418
 5491SOL    HW117372   0.198   5.824   2.481
 5491SOL    HW217373   0.278   5.777   2.346
 5492SOL     OW17374   1.261   1.629   4.444
 5492SOL    HW117375   1.327   1.592   4.509
 5492SOL    HW217376   1.296   1.618   4.351
 5493SOL     OW17377   3.016   1.955   0.847
 5493SOL    HW117378   3.039   2.040   0.799
 5493SOL    HW217379   2.928   1.965   0.893
 5494SOL     OW17380   5.924   3.162   2.506
 5494SOL    HW117381   5.826   3.184   2.500
 5494SOL    HW217382   5.964   3.161   2.414
 5495SOL     OW17383   3.964   3.126   3.997
 5495SOL    HW117384   3.914   3.203   3.958
 5495SOL    HW217385   3.902   3.049   4.010
 5496SOL     OW17386   5.070   5.121   1.907
 5496SOL    HW117387   4.990   5.137   1.964
 5496SOL    HW217388   5.115   5.037   1.936
 5497SOL     OW17389   5.703   0.545   0.910
 5497SOL    HW117390   5.711   0.642   0.935
 5497SOL    HW217391   5.648   0.536   0.827
 5498SOL     OW17392   4.449   1.188   4.903
 5498SOL    HW117393   4.488   1.201   4.812
 5498SOL    HW217394   4.366   1.133   4.896
 5499SOL     OW17395   0.604   1.285   5.263
 5499SOL    HW117396   0.607   1.287   5.363
 5499SOL    HW217397   0.549   1.208   5.232
 5500SOL     OW17398   1.690   6.604   0.965
 5500SOL    HW117399   1.783   6.607   1.003
 5500SOL    HW217400   1.651   6.513   0.981
 5501SOL     OW17401   2.800   0.774   2.543
 5501SOL    HW117402   2.897   0.778   2.522
 5501SOL    HW217403   2.778   0.846   2.610
 5502SOL     OW17404   4.711   3.275   6.993
 5502SOL    HW117405   4.747   3.263   6.901
 5502SOL    HW217406   4.621   3.317   6.989
 5503SOL     OW17407   0.142   6.589   4.584
 5503SOL    HW117408   0.077   6.559   4.514
 5503SOL    HW217409   0.127   6.537   4.668
 5504SOL     OW17410   2.830   1.853   4.374
 5504SOL    HW117411   2.872   1.909   4.303
 5504SOL    HW217412   2.760   1.795   4.334
 5505SOL     OW17413   3.638   4.611   0.078
 5505SOL    HW117414   3.544   4.616   0.112
 5505SOL    HW217415   3.661   4.696   0.031
 5506SOL     OW17416   6.684   6.586   5.882
 5506SOL    HW117417   6.689   6.652   5.957
 5506SOL    HW217418   6.646   6.500   5.915
 5507SOL     OW17419   3.256   5.624   4.955
 5507SOL    HW117420   3.290   5.662   5.041
 5507SOL    HW217421   3.317   5.550   4.925
 5508SOL     OW17422   1.135   0.717   5.448
 5508SOL    HW117423   1.186   0.762   5.521
 5508SOL    HW217424   1.099   0.786   5.385
 5509SOL     OW17425   6.080   0.239   6.410
 5509SOL    HW117426   6.016   0.282   6.345
 5509SOL    HW217427   6.164   0.215   6.362
 5510SOL     OW17428   6.008   0.667   6.075
 5510SOL    HW117429   6.030   0.611   6.154
 5510SOL    HW217430   6.015   0.612   5.991
 5511SOL     OW17431   6.742   2.833   1.331
 5511SOL    HW117432   6.725   2.889   1.412
 5511SOL    HW217433   6.654   2.802   1.293
 5512SOL     OW17434   0.415   0.361   0.405
 5512SOL    HW117435   0.376   0.446   0.440
 5512SOL    HW217436   0.438   0.301   0.482
 5513SOL     OW17437   2.733   6.009   5.042
 5513SOL    HW117438   2.759   5.975   4.951
 5513SOL    HW217439   2.783   5.958   5.112
 5514SOL     OW17440   6.230   5.697   3.902
 5514SOL    HW117441   6.268   5.763   3.838
 5514SOL    HW217442   6.305   5.656   3.956
 5515SOL     OW17443   6.708   3.515   3.299
 5515SOL    HW117444   6.682   3.567   3.219
 5515SOL    HW217445   6.653   3.431   3.304
 5516SOL     OW17446   1.340   2.674   6.315
 5516SOL    HW117447   1.437   2.668   6.336
 5516SOL    HW217448   1.328   2.688   6.217
 5517SOL     OW17449   2.322   0.896   2.157
 5517SOL    HW117450   2.333   0.825   2.226
 5517SOL    HW217451   2.411   0.914   2.114
 5518SOL     OW17452   5.641   4.596   5.211
 5518SOL    HW117453   5.649   4.511   5.263
 5518SOL    HW217454   5.667   4.580   5.116
 5519SOL     OW17455   5.569   3.630   3.213
 5519SOL    HW117456   5.551   3.727   3.196
 5519SOL    HW217457   5.511   3.575   3.153
 5520SOL     OW17458   2.154   2.737   0.785
 5520SOL    HW117459   2.188   2.678   0.712
 5520SOL    HW217460   2.190   2.830   0.773
 5521SOL     OW17461   5.251   5.233   0.295
 5521SOL    HW117462   5.173   5.195   0.344
 5521SOL    HW217463   5.324   5.165   0.289
 5522SOL     OW17464   1.852   2.872   1.994
 5522SOL    HW117465   1.947   2.880   2.022
 5522SOL    HW217466   1.848   2.849   1.896
 5523SOL     OW17467   3.540   0.655   1.507
 5523SOL    HW117468   3.630   0.688   1.481
 5523SOL    HW217469   3.470   0.713   1.468
 5524SOL     OW17470   5.806   6.059   5.568
 5524SOL    HW117471   5.721   6.007   5.568
 5524SOL    HW217472   5.825   6.092   5.660
 5525SOL     OW17473   6.519   5.943   3.981
 5525SOL    HW117474   6.449   5.915   4.046
 5525SOL    HW217475   6.525   6.043   3.979
 5526SOL     OW17476   5.206   3.002   4.737
 5526SOL    HW117477   5.198   3.021   4.835
 5526SOL    HW217478   5.265   3.071   4.695
 5527SOL     OW17479   2.235   3.332   7.009
 5527SOL    HW117480   2.230   3.239   6.975
 5527SOL    HW217481   2.244   3.396   6.933
 5528SOL     OW17482   6.773   3.454   2.895
 5528SOL    HW117483   6.749   3.519   2.967
 5528SOL    HW217484   6.862   3.477   2.857
 5529SOL     OW17485   1.059   1.189   3.911
 5529SOL    HW117486   1.006   1.111   3.944
 5529SOL    HW217487   1.052   1.264   3.978
 5530SOL     OW17488   6.911   3.408   6.719
 5530SOL    HW117489   6.950   3.428   6.809
 5530SOL    HW217490   6.984   3.401   6.652
 5531SOL     OW17491   2.138   2.913   6.725
 5531SOL    HW117492   2.075   2.868   6.788
 5531SOL    HW217493   2.103   2.907   6.632
 5532SOL     OW17494   1.982   2.174   1.423
 5532SOL    HW117495   1.974   2.172   1.324
 5532SOL    HW217496   2.073   2.206   1.449
 5533SOL     OW17497   3.654   0.403   0.426
 5533SOL    HW117498   3.615   0.495   0.429
 5533SOL    HW217499   3.653   0.370   0.332
 5534SOL     OW17500   6.988   4.281   5.113
 5534SOL    HW117501   6.910   4.221   5.131
 5534SOL    HW217502   0.043   4.226   5.086
 5535SOL     OW17503   6.336   3.341   3.979
 5535SOL    HW117504   6.246   3.309   4.008
 5535SOL    HW217505   6.404   3.319   4.049
 5536SOL     OW17506   2.872   0.324   4.045
 5536SOL    HW117507   2.845   0.262   4.118
 5536SOL    HW217508   2.797   0.388   4.026
 5537SOL     OW17509   4.009   1.484   4.697
 5537SOL    HW117510   4.053   1.409   4.647
 5537SOL    HW217511   3.946   1.533   4.635
 5538SOL     OW17512   5.641   2.556   2.472
 5538SOL    HW117513   5.679   2.526   2.384
 5538SOL    HW217514   5.712   2.605   2.523
 5539SOL     OW17515   2.503   6.942   0.079
 5539SOL    HW117516   2.425   6.964   0.020
 5539SOL    HW217517   2.587   6.980   0.040
 5540SOL     OW17518   5.202   0.324   5.571
 5540SOL    HW117519   5.278   0.291   5.516
 5540SOL    HW217520   5.190   0.422   5.557
 5541SOL     OW17521   5.027   3.248   6.944
 5541SOL    HW117522   4.985   3.226   0.008
 5541SOL    HW217523   4.978   3.325   6.902
 5542SOL     OW17524   4.481   4.595   0.563
 5542SOL    HW117525   4.532   4.511   0.548
 5542SOL    HW217526   4.526   4.650   0.633
 5543SOL     OW17527   1.582   0.432   6.802
 5543SOL    HW117528   1.660   0.375   6.824
 5543SOL    HW217529   1.499   0.392   6.841
 5544SOL     OW17530   3.846   5.139   0.713
 5544SOL    HW117531   3.937   5.118   0.677
 5544SOL    HW217532   3.791   5.055   0.716
 5545SOL     OW17533   5.429   0.952   4.017
 5545SOL    HW117534   5.436   1.051   4.016
 5545SOL    HW217535   5.333   0.925   4.002
 5546SOL     OW17536   0.559   4.989   4.508
 5546SOL    HW117537   0.467   5.009   4.475
 5546SOL    HW217538   0.553   4.931   4.590
 5547SOL     OW17539   4.897   2.253   4.914
 5547SOL    HW117540   4.954   2.302   4.849
 5547SOL    HW217541   4.941   2.167   4.939
 5548SOL     OW17542   0.553   4.729   5.239
 5548SOL    HW117543   0.560   4.786   5.158
 5548SOL    HW217544   0.572   4.634   5.214
 5549SOL     OW17545   4.200   3.095   0.550
 5549SOL    HW117546   4.275   3.090   0.616
 5549SOL    HW217547   4.113   3.081   0.597
 5550SOL     OW17548   2.634   4.141   1.682
 5550SOL    HW117549   2.547   4.184   1.703
 5550SOL    HW217550   2.640   4.053   1.730
 5551SOL     OW17551   2.151   5.022   2.551
 5551SOL    HW117552   2.110   4.949   2.497
 5551SOL    HW217553   2.221   4.984   2.611
 5552SOL     OW17554   1.045   6.849   0.050
 5552SOL    HW117555   1.025   6.926   7.013
 5552SOL    HW217556   1.141   6.853   0.078
 5553SOL     OW17557   5.426   0.421   0.146
 5553SOL    HW117558   5.349   0.477   0.113
 5553SOL    HW217559   5.458   0.362   0.073
 5554SOL     OW17560   6.929   2.082   1.367
 5554SOL    HW117561   6.977   2.158   1.324
 5554SOL    HW217562   6.905   2.014   1.297
 5555SOL     OW17563   1.451   4.963   2.635
 5555SOL    HW117564   1.498   4.876   2.619
 5555SOL    HW217565   1.439   4.978   2.733
 5556SOL     OW17566   6.890   1.009   4.361
 5556SOL    HW117567   6.859   1.065   4.284
 5556SOL    HW217568   6.880   1.061   4.446
 5557SOL     OW17569   3.813   5.947   3.397
 5557SOL    HW117570   3.738   5.999   3.355
 5557SOL    HW217571   3.849   5.881   3.331
 5558SOL     OW17572   4.357   4.041   0.134
 5558SOL    HW117573   4.309   4.024   0.220
 5558SOL    HW217574   4.438   4.097   0.152
 5559SOL     OW17575   3.431   1.002   2.621
 5559SOL    HW117576   3.500   1.074   2.623
 5559SOL    HW217577   3.384   1.002   2.533
 5560SOL     OW17578   0.639   5.177   3.884
 5560SOL    HW117579   0.701   5.105   3.853
 5560SOL    HW217580   0.558   5.179   3.824
 5561SOL     OW17581   3.284   6.593   2.865
 5561SOL    HW117582   3.279   6.519   2.932
 5561SOL    HW217583   3.347   6.568   2.792
 5562SOL     OW17584   3.496   3.542   0.982
 5562SOL    HW117585   3.564   3.500   1.041
 5562SOL    HW217586   3.435   3.599   1.037
 5563SOL     OW17587   2.518   4.545   2.334
 5563SOL    HW117588   2.595   4.585   2.383
 5563SOL    HW217589   2.533   4.554   2.236
 5564SOL     OW17590   5.167   0.423   6.084
 5564SOL    HW117591   5.255   0.377   6.079
 5564SOL    HW217592   5.105   0.386   6.015
 5565SOL     OW17593   3.287   1.410   6.212
 5565SOL    HW117594   3.275   1.333   6.149
 5565SOL    HW217595   3.206   1.418   6.269
 5566SOL     OW17596   1.498   4.089   6.507
 5566SOL    HW117597   1.429   4.139   6.559
 5566SOL    HW217598   1.586   4.136   6.514
 5567SOL     OW17599   0.479   4.309   0.146
 5567SOL    HW117600   0.494   4.382   0.080
 5567SOL    HW217601   0.562   4.254   0.156
 5568SOL     OW17602   4.617   4.603   1.263
 5568SOL    HW117603   4.710   4.567   1.269
 5568SOL    HW217604   4.576   4.605   1.354
 5569SOL     OW17605   2.482   2.626   2.813
 5569SOL    HW117606   2.538   2.544   2.803
 5569SOL    HW217607   2.458   2.640   2.909
 5570SOL     OW17608   0.115   3.605   2.020
 5570SOL    HW117609   0.191   3.651   2.066
 5570SOL    HW217610   0.072   3.668   1.955
 5571SOL     OW17611   6.690   4.680   0.875
 5571SOL    HW117612   6.763   4.624   0.913
 5571SOL    HW217613   6.607   4.667   0.930
 5572SOL     OW17614   1.935   4.054   5.009
 5572SOL    HW117615   1.897   4.062   5.102
 5572SOL    HW217616   2.025   4.012   5.013
 5573SOL     OW17617   2.901   5.205   3.377
 5573SOL    HW117618   2.928   5.181   3.471
 5573SOL    HW217619   2.815   5.160   3.355
 5574SOL     OW17620   0.253   2.298   5.345
 5574SOL    HW117621   0.306   2.216   5.365
 5574SOL    HW217622   0.265   2.364   5.420
 5575SOL     OW17623   0.032   0.134   1.425
 5575SOL    HW117624   0.038   0.034   1.427
 5575SOL    HW217625   0.003   0.168   1.514
 5576SOL     OW17626   1.374   5.329   2.562
 5576SOL    HW117627   1.299   5.273   2.527
 5576SOL    HW217628   1.351   5.363   2.653
 5577SOL     OW17629   2.091   2.468   5.898
 5577SOL    HW117630   2.179   2.507   5.872
 5577SOL    HW217631   2.085   2.462   5.998
 5578SOL     OW17632   3.594   4.095   3.295
 5578SOL    HW117633   3.534   4.174   3.308
 5578SOL    HW217634   3.604   4.047   3.382
 5579SOL     OW17635   6.626   2.779   2.182
 5579SOL    HW117636   6.653   2.723   2.103
 5579SOL    HW217637   6.697   2.848   2.199
 5580SOL     OW17638   5.913   1.936   5.653
 5580SOL    HW117639   5.974   2.013   5.633
 5580SOL    HW217640   5.875   1.901   5.567
 5581SOL     OW17641   1.696   2.855   6.842
 5581SOL    HW117642   1.618   2.916   6.854
 5581SOL    HW217643   1.692   2.812   6.752
 5582SOL     OW17644   2.373   2.948   6.290
 5582SOL    HW117645   2.368   3.048   6.288
 5582SOL    HW217646   2.435   2.919   6.363
 5583SOL     OW17647   5.003   0.484   1.118
 5583SOL    HW117648   5.082   0.544   1.130
 5583SOL    HW217649   4.942   0.494   1.197
 5584SOL     OW17650   1.855   3.021   4.068
 5584SOL    HW117651   1.805   2.979   3.992
 5584SOL    HW217652   1.816   3.111   4.089
 5585SOL     OW17653   5.204   4.920   1.703
 5585SOL    HW117654   5.293   4.908   1.748
 5585SOL    HW217655   5.192   5.017   1.680
 5586SOL     OW17656   6.884   4.172   0.441
 5586SOL    HW117657   6.906   4.078   0.466
 5586SOL    HW217658   6.925   4.195   0.353
 5587SOL     OW17659   6.152   0.911   6.004
 5587SOL    HW117660   6.121   0.826   6.045
 5587SOL    HW217661   6.225   0.892   5.938
 5588SOL     OW17662   3.901   6.825   0.841
 5588SOL    HW117663   3.905   6.903   0.904
 5588SOL    HW217664   3.896   6.740   0.893
 5589SOL     OW17665   5.983   4.693   6.224
 5589SOL    HW117666   6.004   4.688   6.126
 5589SOL    HW217667   5.889   4.664   6.240
 5590SOL     OW17668   6.524   5.365   3.229
 5590SOL    HW117669   6.426   5.355   3.213
 5590SOL    HW217670   6.570   5.279   3.209
 5591SOL     OW17671   5.561   0.967   2.125
 5591SOL    HW117672   5.613   0.885   2.145
 5591SOL    HW217673   5.482   0.944   2.068
 5592SOL     OW17674   0.897   4.080   3.216
 5592SOL    HW117675   0.955   4.139   3.273
 5592SOL    HW217676   0.864   4.003   3.270
 5593SOL     OW17677   0.192   3.787   0.508
 5593SOL    HW117678   0.243   3.873   0.500
 5593SOL    HW217679   0.230   3.732   0.582
 5594SOL     OW17680   6.446   2.149   6.416
 5594SOL    HW117681   6.401   2.196   6.492
 5594SOL    HW217682   6.529   2.198   6.391
 5595SOL     OW17683   1.265   2.700   6.032
 5595SOL    HW117684   1.165   2.694   6.026
 5595SOL    HW217685   1.301   2.740   5.948
 5596SOL     OW17686   2.832   6.194   3.256
 5596SOL    HW117687   2.823   6.138   3.339
 5596SOL    HW217688   2.764   6.268   3.259
 5597SOL     OW17689   4.925   3.349   2.846
 5597SOL    HW117690   4.895   3.336   2.941
 5597SOL    HW217691   4.999   3.286   2.826
 5598SOL     OW17692   4.892   1.932   5.089
 5598SOL    HW117693   4.936   2.022   5.089
 5598SOL    HW217694   4.823   1.928   5.016
 5599SOL     OW17695   0.916   0.553   3.322
 5599SOL    HW117696   0.821   0.533   3.299
 5599SOL    HW217697   0.941   0.507   3.407
 5600SOL     OW17698   1.896   2.445   4.831
 5600SOL    HW117699   1.809   2.415   4.792
 5600SOL    HW217700   1.926   2.529   4.785
 5601SOL     OW17701   2.360   0.645   6.222
 5601SOL    HW117702   2.395   0.573   6.281
 5601SOL    HW217703   2.425   0.662   6.148
 5602SOL     OW17704   1.732   0.824   7.024
 5602SOL    HW117705   1.739   0.781   6.934
 5602SOL    HW217706   1.822   0.858   0.027
 5603SOL     OW17707   5.878   4.960   6.332
 5603SOL    HW117708   5.794   5.002   6.295
 5603SOL    HW217709   5.901   4.879   6.278
 5604SOL     OW17710   6.155   1.377   6.046
 5604SOL    HW117711   6.102   1.372   5.961
 5604SOL    HW217712   6.117   1.449   6.105
 5605SOL     OW17713   1.539   2.410   6.272
 5605SOL    HW117714   1.458   2.463   6.295
 5605SOL    HW217715   1.606   2.469   6.227
 5606SOL     OW17716   5.635   0.348   2.963
 5606SOL    HW117717   5.619   0.251   2.984
 5606SOL    HW217718   5.733   0.368   2.968
 5607SOL     OW17719   5.843   0.957   1.409
 5607SOL    HW117720   5.880   1.019   1.340
 5607SOL    HW217721   5.768   0.904   1.370
 5608SOL     OW17722   3.842   6.459   5.100
 5608SOL    HW117723   3.795   6.530   5.049
 5608SOL    HW217724   3.857   6.379   5.041
 5609SOL     OW17725   1.650   5.439   5.065
 5609SOL    HW117726   1.713   5.406   4.995
 5609SOL    HW217727   1.595   5.514   5.028
 5610SOL     OW17728   4.632   0.235   6.400
 5610SOL    HW117729   4.710   0.176   6.379
 5610SOL    HW217730   4.663   0.330   6.403
 5611SOL     OW17731   2.283   4.713   3.845
 5611SOL    HW117732   2.260   4.781   3.915
 5611SOL    HW217733   2.367   4.666   3.870
 5612SOL     OW17734   2.482   6.959   5.193
 5612SOL    HW117735   2.409   0.004   5.188
 5612SOL    HW217736   2.556   6.985   5.131
 5613SOL     OW17737   3.728   5.288   1.591
 5613SOL    HW117738   3.699   5.225   1.663
 5613SOL    HW217739   3.767   5.235   1.514
 5614SOL     OW17740   4.882   2.216   3.543
 5614SOL    HW117741   4.924   2.129   3.570
 5614SOL    HW217742   4.917   2.290   3.600
 5615SOL     OW17743   1.597   1.298   1.303
 5615SOL    HW117744   1.535   1.350   1.361
 5615SOL    HW217745   1.600   1.340   1.212
 5616SOL     OW17746   2.415   0.284   4.729
 5616SOL    HW117747   2.387   0.203   4.781
 5616SOL    HW217748   2.336   0.343   4.714
 5617SOL     OW17749   0.489   0.823   4.938
 5617SOL    HW117750   0.577   0.865   4.960
 5617SOL    HW217751   0.459   0.854   4.848
 5618SOL     OW17752   6.687   4.069   2.742
 5618SOL    HW117753   6.760   4.084   2.809
 5618SOL    HW217754   6.719   4.097   2.652
 5619SOL     OW17755   2.134   3.890   4.785
 5619SOL    HW117756   2.104   3.806   4.829
 5619SOL    HW217757   2.175   3.951   4.853
 5620SOL     OW17758   3.879   1.959   6.606
 5620SOL    HW117759   3.960   1.928   6.656
 5620SOL    HW217760   3.906   2.020   6.532
 5621SOL     OW17761   2.264   1.697   6.251
 5621SOL    HW117762   2.241   1.770   6.316
 5621SOL    HW217763   2.184   1.676   6.195
 5622SOL     OW17764   5.458   1.060   5.163
 5622SOL    HW117765   5.473   1.016   5.074
 5622SOL    HW217766   5.408   1.146   5.149
 5623SOL     OW17767   0.624   5.839   6.997
 5623SOL    HW117768   0.678   5.758   7.021
 5623SOL    HW217769   0.527   5.815   6.997
 5624SOL     OW17770   1.066   4.258   2.380
 5624SOL    HW117771   1.163   4.237   2.364
 5624SOL    HW217772   1.010   4.180   2.351
 5625SOL     OW17773   6.323   2.645   5.802
 5625SOL    HW117774   6.229   2.662   5.772
 5625SOL    HW217775   6.374   2.599   5.729
 5626SOL     OW17776   4.493   6.855   4.382
 5626SOL    HW117777   4.404   6.827   4.348
 5626SOL    HW217778   4.549   6.774   4.400
 5627SOL     OW17779   1.049   6.462   0.969
 5627SOL    HW117780   1.051   6.542   1.029
 5627SOL    HW217781   0.983   6.477   0.895
 5628SOL     OW17782   1.088   1.774   4.725
 5628SOL    HW117783   0.988   1.771   4.726
 5628SOL    HW217784   1.118   1.863   4.690
 5629SOL     OW17785   3.771   3.212   2.916
 5629SOL    HW117786   3.682   3.185   2.878
 5629SOL    HW217787   3.804   3.141   2.978
 5630SOL     OW17788   0.233   4.334   1.360
 5630SOL    HW117789   0.260   4.245   1.322
 5630SOL    HW217790   0.239   4.331   1.459
 5631SOL     OW17791   4.577   0.636   6.593
 5631SOL    HW117792   4.641   0.592   6.530
 5631SOL    HW217793   4.484   0.631   6.555
 5632SOL     OW17794   3.137   3.379   0.064
 5632SOL    HW117795   3.140   3.470   0.022
 5632SOL    HW217796   3.055   3.370   0.120
 5633SOL     OW17797   6.554   2.684   4.844
 5633SOL    HW117798   6.469   2.736   4.833
 5633SOL    HW217799   6.555   2.607   4.781
 5634SOL     OW17800   4.883   5.721   4.672
 5634SOL    HW117801   4.784   5.729   4.659
 5634SOL    HW217802   4.919   5.808   4.706
 5635SOL     OW17803   3.162   2.065   5.240
 5635SOL    HW117804   3.125   2.153   5.213
 5635SOL    HW217805   3.099   1.992   5.211
 5636SOL     OW17806   4.058   5.676   4.272
 5636SOL    HW117807   4.109   5.662   4.356
 5636SOL    HW217808   4.117   5.722   4.205
 5637SOL     OW17809   6.334   0.071   2.960
 5637SOL    HW117810   6.242   0.080   2.922
 5637SOL    HW217811   6.355   0.151   3.015
 5638SOL     OW17812   5.289   3.963   0.035
 5638SOL    HW117813   5.337   3.922   0.112
 5638SOL    HW217814   5.284   4.062   0.048
 5639SOL     OW17815   3.373   0.451   6.864
 5639SOL    HW117816   3.413   0.360   6.851
 5639SOL    HW217817   3.329   0.480   6.779
 5640SOL     OW17818   2.005   6.990   2.948
 5640SOL    HW117819   1.915   6.974   2.988
 5640SOL    HW217820   2.071   6.926   2.988
 5641SOL     OW17821   6.277   6.191   4.918
 5641SOL    HW117822   6.264   6.098   4.953
 5641SOL    HW217823   6.302   6.187   4.821
 5642SOL     OW17824   2.053   1.653   0.436
 5642SOL    HW117825   1.990   1.645   0.358
 5642SOL    HW217826   2.023   1.593   0.510
 5643SOL     OW17827   5.432   2.037   5.126
 5643SOL    HW117828   5.450   1.939   5.119
 5643SOL    HW217829   5.508   2.081   5.174
 5644SOL     OW17830   2.902   6.976   6.299
 5644SOL    HW117831   2.808   6.995   6.273
 5644SOL    HW217832   2.963   0.019   6.254
 5645SOL     OW17833   5.509   3.748   4.959
 5645SOL    HW117834   5.474   3.655   4.972
 5645SOL    HW217835   5.570   3.749   4.879
 5646SOL     OW17836   1.419   4.383   3.055
 5646SOL    HW117837   1.366   4.338   3.126
 5646SOL    HW217838   1.505   4.417   3.094
 5647SOL     OW17839   6.259   6.531   2.342
 5647SOL    HW117840   6.168   6.567   2.361
 5647SOL    HW217841   6.297   6.490   2.425
 5648SOL     OW17842   4.732   6.271   3.485
 5648SOL    HW117843   4.786   6.324   3.420
 5648SOL    HW217844   4.745   6.307   3.577
 5649SOL     OW17845   1.027   6.877   4.279
 5649SOL    HW117846   1.088   6.800   4.299
 5649SOL    HW217847   1.058   6.958   4.329
 5650SOL     OW17848   6.400   4.392   6.549
 5650SOL    HW117849   6.390   4.295   6.527
 5650SOL    HW217850   6.488   4.407   6.594
 5651SOL     OW17851   2.897   0.989   0.742
 5651SOL    HW117852   2.908   0.987   0.643
 5651SOL    HW217853   2.942   1.070   0.779
 5652SOL     OW17854   0.181   6.209   1.932
 5652SOL    HW117855   0.162   6.301   1.965
 5652SOL    HW217856   0.225   6.214   1.842
 5653SOL     OW17857   6.933   0.290   1.624
 5653SOL    HW117858   6.996   0.367   1.633
 5653SOL    HW217859   6.890   0.272   1.713
 5654SOL     OW17860   3.337   5.817   4.257
 5654SOL    HW117861   3.414   5.775   4.305
 5654SOL    HW217862   3.251   5.780   4.294
 5655SOL     OW17863   5.479   2.892   5.332
 5655SOL    HW117864   5.493   2.824   5.404
 5655SOL    HW217865   5.445   2.977   5.372
 5656SOL     OW17866   6.508   3.480   0.281
 5656SOL    HW117867   6.546   3.540   0.210
 5656SOL    HW217868   6.522   3.522   0.371
 5657SOL     OW17869   5.087   5.372   4.761
 5657SOL    HW117870   5.111   5.393   4.666
 5657SOL    HW217871   5.010   5.429   4.790
 5658SOL     OW17872   2.149   2.992   5.674
 5658SOL    HW117873   2.097   2.976   5.590
 5658SOL    HW217874   2.217   3.064   5.657
 5659SOL     OW17875   2.560   3.756   6.584
 5659SOL    HW117876   2.591   3.667   6.616
 5659SOL    HW217877   2.631   3.798   6.527
 5660SOL     OW17878   4.762   0.729   5.789
 5660SOL    HW117879   4.692   0.750   5.858
 5660SOL    HW217880   4.841   0.687   5.834
 5661SOL     OW17881   1.461   5.617   5.905
 5661SOL    HW117882   1.535   5.598   5.970
 5661SOL    HW217883   1.471   5.709   5.868
 5662SOL     OW17884   3.096   6.569   1.007
 5662SOL    HW117885   3.050   6.632   1.070
 5662SOL    HW217886   3.173   6.526   1.054
 5663SOL     OW17887   1.635   3.081   5.959
 5663SOL    HW117888   1.653   3.038   5.871
 5663SOL    HW217889   1.559   3.146   5.949
 5664SOL     OW17890   4.938   4.425   4.711
 5664SOL    HW117891   4.903   4.338   4.747
 5664SOL    HW217892   4.876   4.499   4.736
 5665SOL     OW17893   1.587   1.457   0.748
 5665SOL    HW117894   1.681   1.455   0.781
 5665SOL    HW217895   1.574   1.386   0.678
 5666SOL     OW17896   6.213   2.504   4.824
 5666SOL    HW117897   6.118   2.505   4.794
 5666SOL    HW217898   6.228   2.425   4.884
 5667SOL     OW17899   2.721   4.746   4.129
 5667SOL    HW117900   2.737   4.716   4.222
 5667SOL    HW217901   2.777   4.692   4.066
 5668SOL     OW17902   4.801   3.889   3.629
 5668SOL    HW117903   4.800   3.979   3.587
 5668SOL    HW217904   4.794   3.819   3.558
 5669SOL     OW17905   5.415   4.499   6.275
 5669SOL    HW117906   5.513   4.510   6.291
 5669SOL    HW217907   5.366   4.571   6.324
 5670SOL     OW17908   1.582   2.717   3.410
 5670SOL    HW117909   1.512   2.761   3.354
 5670SOL    HW217910   1.649   2.673   3.352
 5671SOL     OW17911   0.429   5.580   4.199
 5671SOL    HW117912   0.410   5.482   4.198
 5671SOL    HW217913   0.403   5.619   4.287
 5672SOL     OW17914   5.363   3.401   4.493
 5672SOL    HW117915   5.276   3.430   4.454
 5672SOL    HW217916   5.415   3.481   4.522
 5673SOL     OW17917   0.893   1.699   0.706
 5673SOL    HW117918   0.990   1.715   0.727
 5673SOL    HW217919   0.855   1.635   0.773
 5674SOL     OW17920   2.481   5.082   4.974
 5674SOL    HW117921   2.503   5.048   4.882
 5674SOL    HW217922   2.388   5.119   4.974
 5675SOL     OW17923   2.537   1.832   0.975
 5675SOL    HW117924   2.481   1.819   0.894
 5675SOL    HW217925   2.616   1.889   0.953
 5676SOL     OW17926   3.290   1.234   1.787
 5676SOL    HW117927   3.270   1.175   1.709
 5676SOL    HW217928   3.252   1.194   1.870
 5677SOL     OW17929   0.198   1.728   6.472
 5677SOL    HW117930   0.225   1.635   6.497
 5677SOL    HW217931   0.155   1.771   6.551
 5678SOL     OW17932   3.550   2.076   2.183
 5678SOL    HW117933   3.460   2.108   2.212
 5678SOL    HW217934   3.589   2.141   2.118
 5679SOL     OW17935   6.794   3.748   5.268
 5679SOL    HW117936   6.755   3.792   5.188
 5679SOL    HW217937   6.809   3.651   5.248
 5680SOL     OW17938   0.781   6.135   5.174
 5680SOL    HW117939   0.845   6.211   5.165
 5680SOL    HW217940   0.826   6.050   5.149
 5681SOL     OW17941   0.940   3.535   3.702
 5681SOL    HW117942   0.975   3.524   3.795
 5681SOL    HW217943   1.016   3.537   3.638
 5682SOL     OW17944   1.959   4.371   1.141
 5682SOL    HW117945   2.056   4.365   1.164
 5682SOL    HW217946   1.934   4.296   1.080
 5683SOL     OW17947   6.374   0.805   5.865
 5683SOL    HW117948   6.353   0.707   5.856
 5683SOL    HW217949   6.449   0.817   5.931
 5684SOL     OW17950   2.285   2.844   4.759
 5684SOL    HW117951   2.293   2.892   4.671
 5684SOL    HW217952   2.319   2.903   4.832
 5685SOL     OW17953   2.227   1.914   2.093
 5685SOL    HW117954   2.306   1.883   2.040
 5685SOL    HW217955   2.224   2.014   2.092
 5686SOL     OW17956   4.814   5.713   5.536
 5686SOL    HW117957   4.854   5.639   5.590
 5686SOL    HW217958   4.883   5.751   5.475
 5687SOL     OW17959   1.994   6.275   6.472
 5687SOL    HW117960   2.069   6.243   6.413
 5687SOL    HW217961   1.907   6.245   6.433
 5688SOL     OW17962   2.179   2.119   2.767
 5688SOL    HW117963   2.238   2.085   2.840
 5688SOL    HW217964   2.156   2.215   2.784
 5689SOL     OW17965   0.309   2.528   1.319
 5689SOL    HW117966   0.261   2.485   1.396
 5689SOL    HW217967   0.242   2.566   1.255
 5690SOL     OW17968   2.559   4.817   6.720
 5690SOL    HW117969   2.530   4.721   6.724
 5690SOL    HW217970   2.648   4.827   6.765
 5691SOL     OW17971   4.038   1.897   2.926
 5691SOL    HW117972   3.966   1.967   2.917
 5691SOL    HW217973   4.103   1.925   2.997
 5692SOL     OW17974   5.981   4.492   2.034
 5692SOL    HW117975   6.077   4.490   2.063
 5692SOL    HW217976   5.947   4.398   2.028
 5693SOL     OW17977   3.930   0.303   1.728
 5693SOL    HW117978   3.903   0.396   1.755
 5693SOL    HW217979   3.997   0.267   1.793
 5694SOL     OW17980   0.936   0.180   1.517
 5694SOL    HW117981   0.871   0.249   1.550
 5694SOL    HW217982   1.018   0.181   1.575
 5695SOL     OW17983   2.740   1.216   2.128
 5695SOL    HW117984   2.802   1.186   2.056
 5695SOL    HW217985   2.733   1.316   2.128
 5696SOL     OW17986   0.905   0.375   3.859
 5696SOL    HW117987   0.846   0.455   3.844
 5696SOL    HW217988   0.862   0.314   3.925
 5697SOL     OW17989   6.337   2.293   0.029
 5697SOL    HW117990   6.325   2.349   6.971
 5697SOL    HW217991   6.429   2.253   0.029
 5698SOL     OW17992   3.003   1.787   4.591
 5698SOL    HW117993   3.064   1.710   4.568
 5698SOL    HW217994   2.964   1.824   4.507
 5699SOL     OW17995   2.239   2.898   2.305
 5699SOL    HW117996   2.333   2.931   2.298
 5699SOL    HW217997   2.190   2.948   2.376
 5700SOL     OW17998   6.359   0.374   2.638
 5700SOL    HW117999   6.272   0.354   2.592
 5700SOL    HW218000   6.341   0.417   2.726
 5701SOL     OW18001   1.060   0.502   0.646
 5701SOL    HW118002   1.101   0.556   0.719
 5701SOL    HW218003   1.007   0.562   0.585
 5702SOL     OW18004   2.330   0.023   4.813
 5702SOL    HW118005   2.236   0.016   4.844
 5702SOL    HW218006   2.354   6.966   4.760
 5703SOL     OW18007   0.131   3.025   5.956
 5703SOL    HW118008   0.180   3.081   6.022
 5703SOL    HW218009   0.187   3.015   5.873
 5704SOL     OW18010   4.073   5.465   4.058
 5704SOL    HW118011   4.080   5.505   4.149
 5704SOL    HW218012   4.042   5.535   3.993
 5705SOL     OW18013   5.772   0.801   5.550
 5705SOL    HW118014   5.675   0.786   5.570
 5705SOL    HW218015   5.784   0.890   5.506
 5706SOL     OW18016   5.146   2.077   0.529
 5706SOL    HW118017   5.079   2.076   0.603
 5706SOL    HW218018   5.111   2.024   0.451
 5707SOL     OW18019   5.741   5.321   1.408
 5707SOL    HW118020   5.652   5.283   1.434
 5707SOL    HW218021   5.805   5.246   1.394
 5708SOL     OW18022   5.337   6.413   2.237
 5708SOL    HW118023   5.247   6.432   2.200
 5708SOL    HW218024   5.343   6.317   2.265
 5709SOL     OW18025   6.796   2.342   2.604
 5709SOL    HW118026   6.763   2.390   2.523
 5709SOL    HW218027   6.891   2.370   2.622
 5710SOL     OW18028   4.204   1.586   0.452
 5710SOL    HW118029   4.226   1.509   0.393
 5710SOL    HW218030   4.121   1.567   0.504
 5711SOL     OW18031   4.841   1.780   2.897
 5711SOL    HW118032   4.789   1.847   2.844
 5711SOL    HW218033   4.929   1.763   2.852
 5712SOL     OW18034   6.130   6.841   0.362
 5712SOL    HW118035   6.100   6.925   0.406
 5712SOL    HW218036   6.185   6.863   0.282
 5713SOL     OW18037   1.824   1.055   0.665
 5713SOL    HW118038   1.906   1.098   0.704
 5713SOL    HW218039   1.762   1.126   0.632
 5714SOL     OW18040   6.396   0.371   0.072
 5714SOL    HW118041   6.475   0.366   0.012
 5714SOL    HW218042   6.331   0.439   0.037
 5715SOL     OW18043   0.274   6.978   1.758
 5715SOL    HW118044   0.267   6.935   1.848
 5715SOL    HW218045   0.183   7.002   1.726
 5716SOL     OW18046   6.549   4.166   5.321
 5716SOL    HW118047   6.531   4.220   5.403
 5716SOL    HW218048   6.496   4.082   5.324
 5717SOL     OW18049   0.777   5.422   3.681
 5717SOL    HW118050   0.806   5.498   3.739
 5717SOL    HW218051   0.688   5.443   3.640
 5718SOL     OW18052   1.056   3.343   6.755
 5718SOL    HW118053   1.103   3.267   6.800
 5718SOL    HW218054   1.122   3.393   6.697
 5719SOL     OW18055   2.727   3.336   0.718
 5719SOL    HW118056   2.803   3.299   0.771
 5719SOL    HW218057   2.736   3.309   0.622
 5720SOL     OW18058   2.617   4.791   5.746
 5720SOL    HW118059   2.635   4.742   5.661
 5720SOL    HW218060   2.650   4.886   5.737
 5721SOL     OW18061   1.933   2.853   6.973
 5721SOL    HW118062   1.849   2.867   6.921
 5721SOL    HW218063   1.926   2.769   0.002
 5722SOL     OW18064   1.284   0.139   6.844
 5722SOL    HW118065   1.245   0.186   6.765
 5722SOL    HW218066   1.270   0.193   6.926
 5723SOL     OW18067   3.946   3.395   0.518
 5723SOL    HW118068   3.879   3.373   0.589
 5723SOL    HW218069   4.032   3.422   0.560
 5724SOL     OW18070   5.456   2.305   5.836
 5724SOL    HW118071   5.510   2.232   5.876
 5724SOL    HW218072   5.431   2.280   5.742
 5725SOL     OW18073   0.313   4.503   4.969
 5725SOL    HW118074   0.265   4.432   4.916
 5725SOL    HW218075   0.357   4.567   4.906
 5726SOL     OW18076   5.205   3.949   2.505
 5726SOL    HW118077   5.269   3.935   2.430
 5726SOL    HW218078   5.252   3.993   2.582
 5727SOL     OW18079   1.003   2.902   5.124
 5727SOL    HW118080   0.950   2.839   5.068
 5727SOL    HW218081   0.947   2.934   5.201
 5728SOL     OW18082   4.017   0.179   5.018
 5728SOL    HW118083   3.971   0.145   4.936
 5728SOL    HW218084   3.993   0.275   5.033
 5729SOL     OW18085   2.769   2.008   4.850
 5729SOL    HW118086   2.830   1.930   4.866
 5729SOL    HW218087   2.808   2.090   4.892
 5730SOL     OW18088   6.808   4.183   4.598
 5730SOL    HW118089   6.890   4.132   4.626
 5730SOL    HW218090   6.740   4.180   4.671
 5731SOL     OW18091   0.438   6.810   2.665
 5731SOL    HW118092   0.524   6.861   2.663
 5731SOL    HW218093   0.395   6.822   2.754
 5732SOL     OW18094   0.260   0.682   3.315
 5732SOL    HW118095   0.347   0.732   3.313
 5732SOL    HW218096   0.218   0.693   3.405
 5733SOL     OW18097   3.089   0.441   4.928
 5733SOL    HW118098   3.121   0.478   5.015
 5733SOL    HW218099   2.993   0.468   4.914
 5734SOL     OW18100   1.906   6.807   3.624
 5734SOL    HW118101   1.818   6.789   3.579
 5734SOL    HW218102   1.944   6.892   3.588
 5735SOL     OW18103   3.288   0.697   1.385
 5735SOL    HW118104   3.290   0.665   1.291
 5735SOL    HW218105   3.196   0.731   1.407
 5736SOL     OW18106   1.428   5.916   6.931
 5736SOL    HW118107   1.359   5.844   6.930
 5736SOL    HW218108   1.519   5.876   6.919
 5737SOL     OW18109   5.508   4.103   0.172
 5737SOL    HW118110   5.493   4.009   0.203
 5737SOL    HW218111   5.519   4.104   0.073
 5738SOL     OW18112   1.142   4.308   5.098
 5738SOL    HW118113   1.053   4.335   5.135
 5738SOL    HW218114   1.131   4.279   5.003
 5739SOL     OW18115   0.625   2.593   1.585
 5739SOL    HW118116   0.687   2.650   1.638
 5739SOL    HW218117   0.670   2.506   1.565
 5740SOL     OW18118   3.814   5.497   0.187
 5740SOL    HW118119   3.766   5.558   0.125
 5740SOL    HW218120   3.763   5.488   0.273
 5741SOL     OW18121   0.500   4.276   1.591
 5741SOL    HW118122   0.567   4.250   1.660
 5741SOL    HW218123   0.500   4.375   1.579
 5742SOL     OW18124   0.388   5.767   4.769
 5742SOL    HW118125   0.373   5.698   4.840
 5742SOL    HW218126   0.305   5.777   4.714
 5743SOL     OW18127   1.709   5.850   4.616
 5743SOL    HW118128   1.698   5.883   4.522
 5743SOL    HW218129   1.787   5.896   4.658
 5744SOL     OW18130   6.187   0.290   1.215
 5744SOL    HW118131   6.099   0.336   1.228
 5744SOL    HW218132   6.212   0.242   1.299
 5745SOL     OW18133   1.398   2.494   3.242
 5745SOL    HW118134   1.419   2.591   3.253
 5745SOL    HW218135   1.469   2.439   3.288
 5746SOL     OW18136   6.520   4.279   6.866
 5746SOL    HW118137   6.433   4.319   6.837
 5746SOL    HW218138   6.593   4.346   6.851
 5747SOL     OW18139   0.385   6.805   3.235
 5747SOL    HW118140   0.371   6.855   3.321
 5747SOL    HW218141   0.321   6.729   3.231
 5748SOL     OW18142   2.154   6.328   3.609
 5748SOL    HW118143   2.197   6.259   3.667
 5748SOL    HW218144   2.129   6.408   3.664
 5749SOL     OW18145   1.862   1.255   3.007
 5749SOL    HW118146   1.806   1.273   3.088
 5749SOL    HW218147   1.818   1.294   2.926
 5750SOL     OW18148   6.045   6.067   2.270
 5750SOL    HW118149   6.042   5.991   2.335
 5750SOL    HW218150   6.018   6.035   2.180
 5751SOL     OW18151   0.736   3.461   6.319
 5751SOL    HW118152   0.833   3.437   6.321
 5751SOL    HW218153   0.727   3.558   6.296
 5752SOL     OW18154   1.073   1.334   6.432
 5752SOL    HW118155   1.048   1.254   6.377
 5752SOL    HW218156   1.083   1.307   6.528
 5753SOL     OW18157   4.349   1.722   0.208
 5753SOL    HW118158   4.305   1.812   0.204
 5753SOL    HW218159   4.279   1.651   0.218
 5754SOL     OW18160   5.984   5.042   0.600
 5754SOL    HW118161   5.939   5.003   0.680
 5754SOL    HW218162   5.937   5.011   0.517
 5755SOL     OW18163   3.373   3.909   1.507
 5755SOL    HW118164   3.374   3.889   1.605
 5755SOL    HW218165   3.388   4.007   1.492
 5756SOL     OW18166   0.004   6.440   4.416
 5756SOL    HW118167   0.036   6.444   4.321
 5756SOL    HW218168   0.002   6.345   4.447
 5757SOL     OW18169   0.145   6.103   1.631
 5757SOL    HW118170   0.207   6.181   1.629
 5757SOL    HW218171   0.072   6.120   1.697
 5758SOL     OW18172   2.728   1.120   5.370
 5758SOL    HW118173   2.750   1.173   5.452
 5758SOL    HW218174   2.755   1.172   5.289
 5759SOL     OW18175   0.033   1.957   5.260
 5759SOL    HW118176   0.089   1.878   5.288
 5759SOL    HW218177   0.064   2.038   5.309
 5760SOL     OW18178   0.569   5.452   1.480
 5760SOL    HW118179   0.576   5.500   1.567
 5760SOL    HW218180   0.556   5.354   1.497
 5761SOL     OW18181   5.285   0.414   4.794
 5761SOL    HW118182   5.348   0.433   4.718
 5761SOL    HW218183   5.218   0.488   4.802
 5762SOL     OW18184   5.793   6.259   1.250
 5762SOL    HW118185   5.738   6.254   1.167
 5762SOL    HW218186   5.809   6.167   1.285
 5763SOL     OW18187   2.227   1.322   0.931
 5763SOL    HW118188   2.246   1.415   0.962
 5763SOL    HW218189   2.311   1.268   0.935
 5764SOL     OW18190   4.620   3.187   6.472
 5764SOL    HW118191   4.675   3.258   6.516
 5764SOL    HW218192   4.658   3.166   6.382
 5765SOL     OW18193   6.319   5.632   0.278
 5765SOL    HW118194   6.375   5.549   0.271
 5765SOL    HW218195   6.227   5.613   0.241
 5766SOL     OW18196   3.011   1.527   3.088
 5766SOL    HW118197   3.024   1.461   3.162
 5766SOL    HW218198   2.927   1.579   3.105
 5767SOL     OW18199   5.844   0.504   0.596
 5767SOL    HW118200   5.805   0.426   0.547
 5767SOL    HW218201   5.799   0.588   0.568
 5768SOL     OW18202   6.307   0.750   2.512
 5768SOL    HW118203   6.298   0.783   2.606
 5768SOL    HW218204   6.391   0.788   2.471
 5769SOL     OW18205   2.005   5.006   3.202
 5769SOL    HW118206   2.006   5.051   3.113
 5769SOL    HW218207   2.082   4.943   3.208
 5770SOL     OW18208   5.412   2.289   1.597
 5770SOL    HW118209   5.321   2.323   1.622
 5770SOL    HW218210   5.411   2.256   1.503
 5771SOL     OW18211   0.924   0.832   0.737
 5771SOL    HW118212   1.017   0.796   0.737
 5771SOL    HW218213   0.866   0.777   0.677
 5772SOL     OW18214   6.635   4.544   6.384
 5772SOL    HW118215   6.608   4.523   6.478
 5772SOL    HW218216   6.564   4.599   6.340
 5773SOL     OW18217   5.166   5.900   5.058
 5773SOL    HW118218   5.092   5.850   5.104
 5773SOL    HW218219   5.237   5.836   5.031
 5774SOL     OW18220   2.314   4.717   2.437
 5774SOL    HW118221   2.363   4.781   2.497
 5774SOL    HW218222   2.379   4.650   2.400
 5775SOL     OW18223   0.446   0.940   0.040
 5775SOL    HW118224   0.486   0.955   0.131
 5775SOL    HW218225   0.393   0.856   0.040
 5776SOL     OW18226   4.408   1.180   6.444
 5776SOL    HW118227   4.412   1.193   6.543
 5776SOL    HW218228   4.498   1.198   6.405
 5777SOL     OW18229   5.553   0.370   5.418
 5777SOL    HW118230   5.627   0.305   5.432
 5777SOL    HW218231   5.486   0.332   5.354
 5778SOL     OW18232   2.545   6.530   4.472
 5778SOL    HW118233   2.551   6.432   4.490
 5778SOL    HW218234   2.452   6.562   4.492
 5779SOL     OW18235   4.082   0.136   1.058
 5779SOL    HW118236   4.027   0.218   1.048
 5779SOL    HW218237   4.154   0.151   1.126
 5780SOL     OW18238   6.002   3.772   0.555
 5780SOL    HW118239   5.921   3.770   0.497
 5780SOL    HW218240   6.084   3.755   0.499
 5781SOL     OW18241   3.282   4.423   5.375
 5781SOL    HW118242   3.349   4.387   5.309
 5781SOL    HW218243   3.298   4.521   5.388
 5782SOL     OW18244   4.247   1.359   3.180
 5782SOL    HW118245   4.232   1.458   3.187
 5782SOL    HW218246   4.198   1.323   3.101
 5783SOL     OW18247   2.285   6.546   2.228
 5783SOL    HW118248   2.234   6.612   2.283
 5783SOL    HW218249   2.256   6.453   2.251
 5784SOL     OW18250   1.292   6.264   0.117
 5784SOL    HW118251   1.299   6.197   0.042
 5784SOL    HW218252   1.383   6.278   0.157
 5785SOL     OW18253   1.957   1.864   6.541
 5785SOL    HW118254   2.057   1.869   6.538
 5785SOL    HW218255   1.923   1.823   6.457
 5786SOL     OW18256   0.786   2.330   5.804
 5786SOL    HW118257   0.695   2.369   5.819
 5786SOL    HW218258   0.854   2.382   5.856
 5787SOL     OW18259   0.633   2.508   5.114
 5787SOL    HW118260   0.540   2.473   5.119
 5787SOL    HW218261   0.635   2.603   5.142
 5788SOL     OW18262   0.307   1.759   1.419
 5788SOL    HW118263   0.358   1.673   1.409
 5788SOL    HW218264   0.320   1.815   1.337
 5789SOL     OW18265   2.779   5.626   6.892
 5789SOL    HW118266   2.846   5.688   6.851
 5789SOL    HW218267   2.742   5.566   6.821
 5790SOL     OW18268   6.774   6.460   2.415
 5790SOL    HW118269   6.805   6.539   2.362
 5790SOL    HW218270   6.751   6.490   2.508
 5791SOL     OW18271   3.999   0.872   1.137
 5791SOL    HW118272   3.903   0.903   1.137
 5791SOL    HW218273   4.059   0.952   1.144
 5792SOL     OW18274   4.764   2.251   2.424
 5792SOL    HW118275   4.769   2.153   2.405
 5792SOL    HW218276   4.719   2.298   2.348
 5793SOL     OW18277   3.660   1.770   7.011
 5793SOL    HW118278   3.653   1.863   6.974
 5793SOL    HW218279   3.690   1.708   6.939
 5794SOL     OW18280   3.168   5.626   6.960
 5794SOL    HW118281   3.093   5.622   6.894
 5794SOL    HW218282   3.237   5.690   6.927
 5795SOL     OW18283   0.756   0.236   0.924
 5795SOL    HW118284   0.741   0.294   1.005
 5795SOL    HW218285   0.732   0.287   0.842
 5796SOL     OW18286   4.743   0.414   5.904
 5796SOL    HW118287   4.799   0.486   5.863
 5796SOL    HW218288   4.788   0.326   5.891
 5797SOL     OW18289   0.666   2.353   0.040
 5797SOL    HW118290   0.656   2.266   7.017
 5797SOL    HW218291   0.590   2.413   0.017
 5798SOL     OW18292   2.097   2.975   3.967
 5798SOL    HW118293   2.163   2.942   4.035
 5798SOL    HW218294   2.007   2.985   4.010
 5799SOL     OW18295   2.593   0.300   3.336
 5799SOL    HW118296   2.525   0.370   3.314
 5799SOL    HW218297   2.655   0.335   3.406
 5800SOL     OW18298   1.226   6.340   2.319
 5800SOL    HW118299   1.269   6.404   2.382
 5800SOL    HW218300   1.293   6.271   2.291
 5801SOL     OW18301   1.731   1.834   2.738
 5801SOL    HW118302   1.719   1.921   2.785
 5801SOL    HW218303   1.669   1.766   2.777
 5802SOL     OW18304   0.318   0.156   2.431
 5802SOL    HW118305   0.281   0.082   2.374
 5802SOL    HW218306   0.326   0.123   2.525
 5803SOL     OW18307   0.553   6.888   4.033
 5803SOL    HW118308   0.648   6.870   4.058
 5803SOL    HW218309   0.508   6.936   4.108
 5804SOL     OW18310   6.288   1.766   3.400
 5804SOL    HW118311   6.233   1.769   3.483
 5804SOL    HW218312   6.382   1.742   3.423
 5805SOL     OW18313   0.744   2.726   1.388
 5805SOL    HW118314   0.690   2.658   1.438
 5805SOL    HW218315   0.787   2.683   1.309
 5806SOL     OW18316   6.662   3.765   1.915
 5806SOL    HW118317   6.566   3.747   1.894
 5806SOL    HW218318   6.711   3.785   1.831
 5807SOL     OW18319   1.080   1.632   2.068
 5807SOL    HW118320   0.991   1.653   2.029
 5807SOL    HW218321   1.093   1.685   2.152
 5808SOL     OW18322   6.896   0.288   5.537
 5808SOL    HW118323   6.966   0.344   5.493
 5808SOL    HW218324   6.928   0.194   5.545
 5809SOL     OW18325   6.946   3.538   4.173
 5809SOL    HW118326   6.884   3.534   4.252
 5809SOL    HW218327   7.019   3.604   4.191
 5810SOL     OW18328   1.572   6.906   5.503
 5810SOL    HW118329   1.491   6.906   5.563
 5810SOL    HW218330   1.650   6.868   5.553
 5811SOL     OW18331   3.621   5.311   6.921
 5811SOL    HW118332   3.601   5.303   7.019
 5811SOL    HW218333   3.575   5.392   6.884
 5812SOL     OW18334   6.244   3.657   6.040
 5812SOL    HW118335   6.172   3.699   6.094
 5812SOL    HW218336   6.302   3.602   6.100
 5813SOL     OW18337   5.881   4.973   0.849
 5813SOL    HW118338   5.814   4.917   0.897
 5813SOL    HW218339   5.915   5.044   0.910
 5814SOL     OW18340   5.449   1.136   2.535
 5814SOL    HW118341   5.547   1.147   2.548
 5814SOL    HW218342   5.400   1.194   2.600
 5815SOL     OW18343   6.531   3.690   4.622
 5815SOL    HW118344   6.550   3.737   4.708
 5815SOL    HW218345   6.617   3.653   4.585
 5816SOL     OW18346   6.766   4.167   1.027
 5816SOL    HW118347   6.784   4.143   1.122
 5816SOL    HW218348   6.851   4.160   0.974
 5817SOL     OW18349   6.904   2.907   3.842
 5817SOL    HW118350   6.928   2.833   3.778
 5817SOL    HW218351   6.928   2.995   3.800
 5818SOL     OW18352   2.446   0.182   4.477
 5818SOL    HW118353   2.413   0.088   4.484
 5818SOL    HW218354   2.433   0.228   4.565
 5819SOL     OW18355   4.204   4.289   1.110
 5819SOL    HW118356   4.255   4.275   1.025
 5819SOL    HW218357   4.108   4.266   1.095
 5820SOL     OW18358   6.886   6.690   2.293
 5820SOL    HW118359   6.922   6.722   2.380
 5820SOL    HW218360   6.950   6.713   2.220
 5821SOL     OW18361   6.541   6.820   2.011
 5821SOL    HW118362   6.600   6.873   1.949
 5821SOL    HW218363   6.597   6.759   2.067
 5822SOL     OW18364   0.720   3.834   2.797
 5822SOL    HW118365   0.767   3.901   2.855
 5822SOL    HW218366   0.640   3.877   2.754
 5823SOL     OW18367   2.411   6.627   4.955
 5823SOL    HW118368   2.355   6.679   5.020
 5823SOL    HW218369   2.475   6.569   5.006
 5824SOL     OW18370   2.077   5.987   2.261
 5824SOL    HW118371   2.165   5.981   2.307
 5824SOL    HW218372   2.092   6.012   2.165
 5825SOL     OW18373   4.093   1.704   5.233
 5825SOL    HW118374   4.050   1.783   5.188
 5825SOL    HW218375   4.188   1.726   5.255
 5826SOL     OW18376   1.608   6.029   4.317
 5826SOL    HW118377   1.620   5.941   4.271
 5826SOL    HW218378   1.677   6.093   4.283
 5827SOL     OW18379   2.176   3.821   3.255
 5827SOL    HW118380   2.191   3.917   3.231
 5827SOL    HW218381   2.110   3.780   3.192
 5828SOL     OW18382   4.352   6.715   4.990
 5828SOL    HW118383   4.384   6.710   5.085
 5828SOL    HW218384   4.316   6.626   4.962
 5829SOL     OW18385   2.012   0.452   2.426
 5829SOL    HW118386   1.985   0.547   2.409
 5829SOL    HW218387   2.111   0.447   2.438
 5830SOL     OW18388   4.599   5.755   4.662
 5830SOL    HW118389   4.529   5.697   4.621
 5830SOL    HW218390   4.557   5.840   4.694
 5831SOL     OW18391   2.550   1.724   4.414
 5831SOL    HW118392   2.455   1.739   4.388
 5831SOL    HW218393   2.579   1.795   4.478
 5832SOL     OW18394   2.211   5.195   3.689
 5832SOL    HW118395   2.281   5.247   3.738
 5832SOL    HW218396   2.237   5.099   3.685
 5833SOL     OW18397   3.246   4.442   1.099
 5833SOL    HW118398   3.176   4.503   1.064
 5833SOL    HW218399   3.215   4.347   1.091
 5834SOL     OW18400   6.294   2.315   6.623
 5834SOL    HW118401   6.272   2.357   6.711
 5834SOL    HW218402   6.214   2.319   6.564
 5835SOL     OW18403   4.286   1.758   3.628
 5835SOL    HW118404   4.317   1.813   3.705
 5835SOL    HW218405   4.361   1.741   3.565
 5836SOL     OW18406   4.902   5.172   1.581
 5836SOL    HW118407   4.847   5.184   1.664
 5836SOL    HW218408   4.892   5.079   1.548
 5837SOL     OW18409   2.906   4.106   0.278
 5837SOL    HW118410   2.833   4.146   0.223
 5837SOL    HW218411   2.931   4.016   0.241
 5838SOL     OW18412   3.477   3.068   0.111
 5838SOL    HW118413   3.553   3.133   0.114
 5838SOL    HW218414   3.440   3.064   0.017
 5839SOL     OW18415   2.049   1.119   1.011
 5839SOL    HW118416   2.106   1.188   0.968
 5839SOL    HW218417   1.970   1.163   1.054
 5840SOL     OW18418   0.346   3.427   2.464
 5840SOL    HW118419   0.389   3.342   2.496
 5840SOL    HW218420   0.267   3.405   2.407
 5841SOL     OW18421   5.213   1.632   0.488
 5841SOL    HW118422   5.120   1.635   0.450
 5841SOL    HW218423   5.209   1.610   0.585
 5842SOL     OW18424   3.271   2.084   2.252
 5842SOL    HW118425   3.268   1.998   2.302
 5842SOL    HW218426   3.180   2.126   2.253
 5843SOL     OW18427   3.428   3.267   0.866
 5843SOL    HW118428   3.452   3.349   0.918
 5843SOL    HW218429   3.439   3.186   0.925
 5844SOL     OW18430   0.490   5.986   5.424
 5844SOL    HW118431   0.580   5.987   5.467
 5844SOL    HW218432   0.424   5.941   5.485
 5845SOL     OW18433   1.989   6.552   2.734
 5845SOL    HW118434   2.010   6.643   2.697
 5845SOL    HW218435   1.901   6.555   2.782
 5846SOL     OW18436   0.460   4.617   5.914
 5846SOL    HW118437   0.495   4.625   6.007
 5846SOL    HW218438   0.362   4.598   5.916
 5847SOL     OW18439   1.821   3.814   6.287
 5847SOL    HW118440   1.888   3.888   6.297
 5847SOL    HW218441   1.809   3.793   6.190
 5848SOL     OW18442   2.580   6.337   1.455
 5848SOL    HW118443   2.596   6.258   1.396
 5848SOL    HW218444   2.551   6.305   1.545
 5849SOL     OW18445   2.785   5.839   6.439
 5849SOL    HW118446   2.863   5.894   6.466
 5849SOL    HW218447   2.800   5.744   6.466
 5850SOL     OW18448   5.695   1.549   1.626
 5850SOL    HW118449   5.791   1.571   1.643
 5850SOL    HW218450   5.661   1.491   1.701
 5851SOL     OW18451   0.417   3.763   4.440
 5851SOL    HW118452   0.472   3.718   4.511
 5851SOL    HW218453   0.438   3.861   4.439
 5852SOL     OW18454   5.087   4.083   2.809
 5852SOL    HW118455   5.145   4.129   2.742
 5852SOL    HW218456   4.993   4.115   2.799
 5853SOL     OW18457   4.445   5.021   0.551
 5853SOL    HW118458   4.502   5.049   0.627
 5853SOL    HW218459   4.443   5.092   0.481
 5854SOL     OW18460   2.921   4.674   5.426
 5854SOL    HW118461   2.887   4.593   5.473
 5854SOL    HW218462   2.927   4.655   5.328
 5855SOL     OW18463   2.189   2.063   4.502
 5855SOL    HW118464   2.214   2.146   4.550
 5855SOL    HW218465   2.219   1.983   4.554
 5856SOL     OW18466   0.207   6.998   2.246
 5856SOL    HW118467   0.112   6.992   2.276
 5856SOL    HW218468   0.215   0.044   2.174
 5857SOL     OW18469   5.487   5.078   6.889
 5857SOL    HW118470   5.459   5.152   6.951
 5857SOL    HW218471   5.405   5.038   6.848
 5858SOL     OW18472   2.598   1.693   2.623
 5858SOL    HW118473   2.515   1.746   2.605
 5858SOL    HW218474   2.679   1.746   2.597
 5859SOL     OW18475   5.450   5.380   2.400
 5859SOL    HW118476   5.492   5.391   2.490
 5859SOL    HW218477   5.495   5.441   2.334
 5860SOL     OW18478   2.080   3.316   2.762
 5860SOL    HW118479   2.093   3.382   2.688
 5860SOL    HW218480   2.006   3.254   2.739
 5861SOL     OW18481   5.760   0.413   5.090
 5861SOL    HW118482   5.793   0.343   5.153
 5861SOL    HW218483   5.667   0.389   5.060
 5862SOL     OW18484   6.800   5.219   3.354
 5862SOL    HW118485   6.721   5.157   3.356
 5862SOL    HW218486   6.789   5.287   3.426
 5863SOL     OW18487   4.204   0.016   5.941
 5863SOL    HW118488   4.300   7.022   5.917
 5863SOL    HW218489   4.160   6.954   5.969
 5864SOL     OW18490   3.645   2.960   3.091
 5864SOL    HW118491   3.613   2.963   2.996
 5864SOL    HW218492   3.741   2.986   3.095
 5865SOL     OW18493   6.107   0.030   1.393
 5865SOL    HW118494   6.010   0.047   1.406
 5865SOL    HW218495   6.121   6.969   1.343
 5866SOL     OW18496   3.305   3.394   3.543
 5866SOL    HW118497   3.299   3.295   3.560
 5866SOL    HW218498   3.276   3.443   3.625
 5867SOL     OW18499   3.911   1.288   0.976
 5867SOL    HW118500   3.829   1.236   1.000
 5867SOL    HW218501   3.915   1.300   0.876
 5868SOL     OW18502   1.413   0.713   0.620
 5868SOL    HW118503   1.485   0.660   0.663
 5868SOL    HW218504   1.452   0.767   0.545
 5869SOL     OW18505   1.898   5.706   2.689
 5869SOL    HW118506   1.828   5.742   2.750
 5869SOL    HW218507   1.967   5.656   2.742
 5870SOL     OW18508   4.609   0.101   3.946
 5870SOL    HW118509   4.627   0.008   3.979
 5870SOL    HW218510   4.696   0.151   3.940
 5871SOL     OW18511   3.724   3.207   3.865
 5871SOL    HW118512   3.692   3.112   3.868
 5871SOL    HW218513   3.687   3.252   3.784
 5872SOL     OW18514   3.647   6.125   1.321
 5872SOL    HW118515   3.706   6.052   1.285
 5872SOL    HW218516   3.637   6.114   1.420
 5873SOL     OW18517   4.012   6.238   2.123
 5873SOL    HW118518   3.973   6.221   2.032
 5873SOL    HW218519   4.106   6.204   2.125
 5874SOL     OW18520   0.510   4.466   5.141
 5874SOL    HW118521   0.586   4.441   5.081
 5874SOL    HW218522   0.431   4.492   5.085
 5875SOL     OW18523   4.190   2.345   1.339
 5875SOL    HW118524   4.119   2.326   1.272
 5875SOL    HW218525   4.150   2.394   1.417
 5876SOL     OW18526   3.363   2.888   2.202
 5876SOL    HW118527   3.400   2.831   2.129
 5876SOL    HW218528   3.428   2.962   2.222
 5877SOL     OW18529   5.215   4.579   1.768
 5877SOL    HW118530   5.284   4.652   1.771
 5877SOL    HW218531   5.249   4.502   1.715
 5878SOL     OW18532   1.875   3.615   2.737
 5878SOL    HW118533   1.865   3.629   2.638
 5878SOL    HW218534   1.858   3.701   2.784
 5879SOL     OW18535   2.123   3.565   4.145
 5879SOL    HW118536   2.068   3.492   4.186
 5879SOL    HW218537   2.156   3.536   4.055
 5880SOL     OW18538   3.193   5.484   6.624
 5880SOL    HW118539   3.183   5.442   6.714
 5880SOL    HW218540   3.271   5.547   6.625
 5881SOL     OW18541   1.771   6.238   4.339
 5881SOL    HW118542   1.844   6.304   4.324
 5881SOL    HW218543   1.685   6.285   4.356
 5882SOL     OW18544   5.055   0.303   3.130
 5882SOL    HW118545   5.122   0.378   3.133
 5882SOL    HW218546   5.047   0.270   3.036
 5883SOL     OW18547   1.055   3.279   4.801
 5883SOL    HW118548   1.013   3.266   4.891
 5883SOL    HW218549   1.061   3.190   4.755
 5884SOL     OW18550   0.558   0.739   2.801
 5884SOL    HW118551   0.610   0.670   2.851
 5884SOL    HW218552   0.548   0.821   2.857
 5885SOL     OW18553   5.750   6.893   0.587
 5885SOL    HW118554   5.727   6.979   0.633
 5885SOL    HW218555   5.706   6.817   0.636
 5886SOL     OW18556   6.037   1.697   6.477
 5886SOL    HW118557   5.983   1.768   6.431
 5886SOL    HW218558   5.990   1.666   6.559
 5887SOL     OW18559   3.995   5.833   3.050
 5887SOL    HW118560   3.989   5.859   2.953
 5887SOL    HW218561   4.083   5.862   3.087
 5888SOL     OW18562   6.934   6.141   1.772
 5888SOL    HW118563   6.838   6.130   1.745
 5888SOL    HW218564   6.942   6.131   1.871
 5889SOL     OW18565   2.794   6.917   6.610
 5889SOL    HW118566   2.745   6.962   6.535
 5889SOL    HW218567   2.791   6.818   6.596
 5890SOL     OW18568   4.171   5.235   6.342
 5890SOL    HW118569   4.106   5.173   6.299
 5890SOL    HW218570   4.140   5.256   6.435
 5891SOL     OW18571   2.176   3.335   6.031
 5891SOL    HW118572   2.243   3.272   5.991
 5891SOL    HW218573   2.212   3.372   6.116
 5892SOL     OW18574   2.239   6.424   2.641
 5892SOL    HW118575   2.248   6.332   2.680
 5892SOL    HW218576   2.150   6.462   2.666
 5893SOL     OW18577   1.308   2.118   3.281
 5893SOL    HW118578   1.311   2.059   3.362
 5893SOL    HW218579   1.300   2.213   3.310
 5894SOL     OW18580   1.390   4.091   4.146
 5894SOL    HW118581   1.335   4.162   4.102
 5894SOL    HW218582   1.461   4.133   4.202
 5895SOL     OW18583   5.996   3.994   3.371
 5895SOL    HW118584   5.950   4.001   3.460
 5895SOL    HW218585   5.929   3.974   3.300
 5896SOL     OW18586   5.149   3.073   6.314
 5896SOL    HW118587   5.098   2.996   6.277
 5896SOL    HW218588   5.238   3.041   6.347
 5897SOL     OW18589   4.611   5.381   1.082
 5897SOL    HW118590   4.703   5.419   1.089
 5897SOL    HW218591   4.559   5.430   1.012
 5898SOL     OW18592   2.999   0.023   3.229
 5898SOL    HW118593   2.905   0.052   3.213
 5898SOL    HW218594   3.001   6.976   3.300
 5899SOL     OW18595   5.681   0.451   3.973
 5899SOL    HW118596   5.590   0.425   3.941
 5899SOL    HW218597   5.713   0.385   4.041
 5900SOL     OW18598   3.826   4.951   1.965
 5900SOL    HW118599   3.750   4.887   1.968
 5900SOL    HW218600   3.828   5.006   2.048
 5901SOL     OW18601   3.074   6.387   4.636
 5901SOL    HW118602   3.142   6.383   4.562
 5901SOL    HW218603   3.089   6.469   4.691
 5902SOL     OW18604   5.991   2.461   6.991
 5902SOL    HW118605   6.003   2.503   0.057
 5902SOL    HW218606   5.962   2.366   7.002
 5903SOL     OW18607   0.539   2.764   6.203
 5903SOL    HW118608   0.443   2.767   6.232
 5903SOL    HW218609   0.576   2.857   6.204
 5904SOL     OW18610   1.818   2.914   2.518
 5904SOL    HW118611   1.780   2.839   2.465
 5904SOL    HW218612   1.853   2.985   2.456
 5905SOL     OW18613   0.212   4.471   2.817
 5905SOL    HW118614   0.157   4.517   2.746
 5905SOL    HW218615   0.189   4.509   2.906
 5906SOL     OW18616   0.991   0.883   2.534
 5906SOL    HW118617   1.020   0.938   2.613
 5906SOL    HW218618   0.963   0.944   2.460
 5907SOL     OW18619   2.085   6.887   2.696
 5907SOL    HW118620   2.047   6.938   2.773
 5907SOL    HW218621   2.112   6.951   2.624
 5908SOL     OW18622   0.994   2.818   6.056
 5908SOL    HW118623   0.991   2.756   6.134
 5908SOL    HW218624   0.930   2.787   5.985
 5909SOL     OW18625   6.423   4.841   0.126
 5909SOL    HW118626   6.515   4.850   0.162
 5909SOL    HW218627   6.427   4.806   0.032
 5910SOL     OW18628   1.110   1.897   3.370
 5910SOL    HW118629   1.109   1.848   3.283
 5910SOL    HW218630   1.081   1.836   3.443
 5911SOL     OW18631   6.657   5.757   6.642
 5911SOL    HW118632   6.652   5.757   6.742
 5911SOL    HW218633   6.742   5.713   6.614
 5912SOL     OW18634   0.179   0.308   3.409
 5912SOL    HW118635   0.107   0.259   3.459
 5912SOL    HW218636   0.253   0.333   3.471
 5913SOL     OW18637   6.617   2.509   1.145
 5913SOL    HW118638   6.557   2.511   1.225
 5913SOL    HW218639   6.585   2.576   1.078
 5914SOL     OW18640   0.813   6.441   0.813
 5914SOL    HW118641   0.743   6.503   0.847
 5914SOL    HW218642   0.773   6.379   0.745
 5915SOL     OW18643   3.674   0.559   5.746
 5915SOL    HW118644   3.773   0.549   5.733
 5915SOL    HW218645   3.654   0.569   5.844
 5916SOL     OW18646   0.827   0.357   2.255
 5916SOL    HW118647   0.770   0.433   2.285
 5916SOL    HW218648   0.769   0.284   2.218
 5917SOL     OW18649   3.339   2.676   0.329
 5917SOL    HW118650   3.312   2.636   0.242
 5917SOL    HW218651   3.431   2.715   0.321
 5918SOL     OW18652   3.430   6.874   4.359
 5918SOL    HW118653   3.525   6.904   4.347
 5918SOL    HW218654   3.394   6.910   4.445
 5919SOL     OW18655   3.222   3.461   4.658
 5919SOL    HW118656   3.199   3.392   4.727
 5919SOL    HW218657   3.150   3.464   4.589
 5920SOL     OW18658   0.661   0.625   5.858
 5920SOL    HW118659   0.569   0.630   5.899
 5920SOL    HW218660   0.678   0.533   5.825
 5921SOL     OW18661   2.727   4.111   0.063
 5921SOL    HW118662   2.737   4.050   7.008
 5921SOL    HW218663   2.638   4.096   0.105
 5922SOL     OW18664   5.441   2.979   2.838
 5922SOL    HW118665   5.370   3.033   2.882
 5922SOL    HW218666   5.514   3.039   2.805
 5923SOL     OW18667   5.913   0.836   3.123
 5923SOL    HW118668   5.977   0.761   3.108
 5923SOL    HW218669   5.889   0.878   3.036
 5924SOL     OW18670   5.831   6.688   3.517
 5924SOL    HW118671   5.872   6.662   3.430
 5924SOL    HW218672   5.850   6.784   3.535
 5925SOL     OW18673   4.582   1.413   0.831
 5925SOL    HW118674   4.580   1.320   0.794
 5925SOL    HW218675   4.536   1.474   0.767
 5926SOL     OW18676   5.809   3.502   3.220
 5926SOL    HW118677   5.723   3.550   3.203
 5926SOL    HW218678   5.817   3.483   3.318
 5927SOL     OW18679   0.289   5.422   1.812
 5927SOL    HW118680   0.227   5.499   1.799
 5927SOL    HW218681   0.241   5.337   1.792
 5928SOL     OW18682   2.782   7.011   6.888
 5928SOL    HW118683   2.769   0.083   6.912
 5928SOL    HW218684   2.759   6.997   6.791
 5929SOL     OW18685   1.183   0.753   0.739
 5929SOL    HW118686   1.255   0.741   0.670
 5929SOL    HW218687   1.214   0.817   0.809
 5930SOL     OW18688   1.448   3.917   2.477
 5930SOL    HW118689   1.519   3.974   2.434
 5930SOL    HW218690   1.489   3.831   2.508
 5931SOL     OW18691   5.079   6.403   3.075
 5931SOL    HW118692   5.159   6.346   3.057
 5931SOL    HW218693   5.101   6.499   3.054
 5932SOL     OW18694   3.091   6.250   0.477
 5932SOL    HW118695   3.148   6.174   0.446
 5932SOL    HW218696   3.068   6.237   0.574
 5933SOL     OW18697   6.318   5.392   4.499
 5933SOL    HW118698   6.244   5.364   4.439
 5933SOL    HW218699   6.390   5.437   4.445
 5934SOL     OW18700   3.132   3.332   0.768
 5934SOL    HW118701   3.215   3.278   0.769
 5934SOL    HW218702   3.144   3.412   0.708
 5935SOL     OW18703   0.986   0.502   5.087
 5935SOL    HW118704   0.953   0.552   5.166
 5935SOL    HW218705   0.917   0.434   5.059
 5936SOL     OW18706   3.531   2.776   1.986
 5936SOL    HW118707   3.584   2.706   1.939
 5936SOL    HW218708   3.524   2.857   1.928
 5937SOL     OW18709   0.424   2.810   0.616
 5937SOL    HW118710   0.328   2.781   0.611
 5937SOL    HW218711   0.435   2.875   0.692
 5938SOL     OW18712   0.493   3.585   3.946
 5938SOL    HW118713   0.500   3.644   4.026
 5938SOL    HW218714   0.491   3.641   3.863
 5939SOL     OW18715   4.452   1.296   6.119
 5939SOL    HW118716   4.500   1.213   6.146
 5939SOL    HW218717   4.458   1.307   6.019
 5940SOL     OW18718   4.718   5.110   1.777
 5940SOL    HW118719   4.731   5.013   1.798
 5940SOL    HW218720   4.620   5.130   1.772
 5941SOL     OW18721   7.014   1.848   2.819
 5941SOL    HW118722   6.974   1.759   2.798
 5941SOL    HW218723   0.008   1.854   2.918
 5942SOL     OW18724   5.395   2.602   6.757
 5942SOL    HW118725   5.347   2.549   6.686
 5942SOL    HW218726   5.494   2.588   6.747
 5943SOL     OW18727   1.703   4.564   1.153
 5943SOL    HW118728   1.713   4.471   1.189
 5943SOL    HW218729   1.723   4.630   1.225
 5944SOL     OW18730   5.997   3.642   5.689
 5944SOL    HW118731   6.027   3.712   5.623
 5944SOL    HW218732   6.077   3.603   5.735
 5945SOL     OW18733   6.682   6.315   4.616
 5945SOL    HW118734   6.629   6.302   4.532
 5945SOL    HW218735   6.712   6.410   4.622
 5946SOL     OW18736   2.255   3.074   6.912
 5946SOL    HW118737   2.190   3.049   6.840
 5946SOL    HW218738   2.237   3.019   6.994
 5947SOL     OW18739   3.730   3.457   4.467
 5947SOL    HW118740   3.700   3.546   4.434
 5947SOL    HW218741   3.745   3.396   4.389
 5948SOL     OW18742   4.691   3.717   1.482
 5948SOL    HW118743   4.783   3.703   1.445
 5948SOL    HW218744   4.626   3.729   1.407
 5949SOL     OW18745   0.494   3.903   3.051
 5949SOL    HW118746   0.438   3.870   2.975
 5949SOL    HW218747   0.583   3.935   3.016
 5950SOL     OW18748   3.161   6.950   4.585
 5950SOL    HW118749   3.243   6.900   4.612
 5950SOL    HW218750   3.123   6.910   4.501
 5951SOL     OW18751   6.943   3.823   6.551
 5951SOL    HW118752   6.897   3.823   6.640
 5951SOL    HW218753   6.876   3.841   6.479
 5952SOL     OW18754   3.715   4.140   1.815
 5952SOL    HW118755   3.625   4.140   1.860
 5952SOL    HW218756   3.753   4.047   1.817
 5953SOL     OW18757   6.647   3.518   5.911
 5953SOL    HW118758   6.624   3.428   5.874
 5953SOL    HW218759   6.743   3.539   5.892
 5954SOL     OW18760   2.102   5.693   3.692
 5954SOL    HW118761   2.089   5.720   3.597
 5954SOL    HW218762   2.020   5.646   3.725
 5955SOL     OW18763   4.555   3.289   0.456
 5955SOL    HW118764   4.654   3.296   0.442
 5955SOL    HW218765   4.536   3.279   0.554
 5956SOL     OW18766   4.183   2.928   6.026
 5956SOL    HW118767   4.222   3.020   6.035
 5956SOL    HW218768   4.117   2.913   6.100
 5957SOL     OW18769   6.544   1.672   3.407
 5957SOL    HW118770   6.556   1.610   3.485
 5957SOL    HW218771   6.541   1.619   3.323
 5958SOL     OW18772   2.448   6.569   3.158
 5958SOL    HW118773   2.363   6.602   3.199
 5958SOL    HW218774   2.453   6.600   3.063
 5959SOL     OW18775   5.602   3.173   2.981
 5959SOL    HW118776   5.689   3.125   2.987
 5959SOL    HW218777   5.562   3.182   3.072
 5960SOL     OW18778   4.960   0.608   5.900
 5960SOL    HW118779   4.980   0.685   5.960
 5960SOL    HW218780   5.045   0.563   5.873
 5961SOL     OW18781   3.147   2.100   3.592
 5961SOL    HW118782   3.209   2.111   3.670
 5961SOL    HW218783   3.067   2.158   3.605
 5962SOL     OW18784   4.622   4.974   0.800
 5962SOL    HW118785   4.619   4.962   0.899
 5962SOL    HW218786   4.627   5.072   0.778
 5963SOL     OW18787   2.111   3.604   0.568
 5963SOL    HW118788   2.050   3.539   0.613
 5963SOL    HW218789   2.183   3.555   0.519
 5964SOL     OW18790   2.151   0.062   3.252
 5964SOL    HW118791   2.201   0.147   3.235
 5964SOL    HW218792   2.214   7.008   3.244
 5965SOL     OW18793   2.444   0.370   1.165
 5965SOL    HW118794   2.443   0.302   1.091
 5965SOL    HW218795   2.352   0.409   1.174
 5966SOL     OW18796   2.844   1.972   5.284
 5966SOL    HW118797   2.838   2.008   5.377
 5966SOL    HW218798   2.834   2.047   5.218
 5967SOL     OW18799   4.795   2.391   5.283
 5967SOL    HW118800   4.784   2.411   5.380
 5967SOL    HW218801   4.709   2.408   5.235
 5968SOL     OW18802   5.680   1.914   3.054
 5968SOL    HW118803   5.722   1.968   2.982
 5968SOL    HW218804   5.581   1.930   3.054
 5969SOL     OW18805   4.506   0.157   0.920
 5969SOL    HW118806   4.524   0.235   0.980
 5969SOL    HW218807   4.575   0.086   0.936
 5970SOL     OW18808   6.723   3.179   0.536
 5970SOL    HW118809   6.632   3.157   0.574
 5970SOL    HW218810   6.779   3.222   0.607
 5971SOL     OW18811   0.021   5.537   3.823
 5971SOL    HW118812   0.071   5.451   3.835
 5971SOL    HW218813   6.957   5.519   3.779
 5972SOL     OW18814   5.990   5.444   1.088
 5972SOL    HW118815   6.036   5.502   1.021
 5972SOL    HW218816   5.902   5.485   1.113
 5973SOL     OW18817   2.574   0.642   2.391
 5973SOL    HW118818   2.590   0.592   2.306
 5973SOL    HW218819   2.660   0.678   2.427
 5974SOL     OW18820   5.468   1.403   4.799
 5974SOL    HW118821   5.380   1.446   4.778
 5974SOL    HW218822   5.527   1.408   4.718
 5975SOL     OW18823   4.344   5.496   1.569
 5975SOL    HW118824   4.434   5.538   1.580
 5975SOL    HW218825   4.329   5.429   1.642
 5976SOL     OW18826   1.471   4.073   5.640
 5976SOL    HW118827   1.507   3.981   5.627
 5976SOL    HW218828   1.472   4.095   5.738
 5977SOL     OW18829   6.445   5.237   0.733
 5977SOL    HW118830   6.531   5.192   0.757
 5977SOL    HW218831   6.376   5.215   0.802
 5978SOL     OW18832   2.655   3.518   6.663
 5978SOL    HW118833   2.732   3.481   6.610
 5978SOL    HW218834   2.611   3.445   6.715
 5979SOL     OW18835   6.464   6.839   1.255
 5979SOL    HW118836   6.390   6.868   1.194
 5979SOL    HW218837   6.491   6.745   1.234
 5980SOL     OW18838   2.982   2.324   0.991
 5980SOL    HW118839   3.075   2.316   0.953
 5980SOL    HW218840   2.944   2.413   0.966
 5981SOL     OW18841   2.807   2.124   1.163
 5981SOL    HW118842   2.803   2.214   1.119
 5981SOL    HW218843   2.747   2.124   1.243
 5982SOL     OW18844   5.634   3.145   2.064
 5982SOL    HW118845   5.550   3.178   2.023
 5982SOL    HW218846   5.683   3.087   1.999
 5983SOL     OW18847   6.939   0.609   3.767
 5983SOL    HW118848   7.006   0.549   3.723
 5983SOL    HW218849   6.987   0.682   3.816
 5984SOL     OW18850   6.137   6.037   2.942
 5984SOL    HW118851   6.141   5.988   3.030
 5984SOL    HW218852   6.059   6.004   2.889
 5985SOL     OW18853   0.135   3.589   2.555
 5985SOL    HW118854   0.062   3.545   2.503
 5985SOL    HW218855   0.223   3.547   2.531
 5986SOL     OW18856   3.620   3.862   3.868
 5986SOL    HW118857   3.593   3.917   3.789
 5986SOL    HW218858   3.567   3.889   3.947
 5987SOL     OW18859   6.965   6.059   5.044
 5987SOL    HW118860   6.963   5.968   5.003
 5987SOL    HW218861   0.014   6.063   5.113
 5988SOL     OW18862   0.986   3.097   6.627
 5988SOL    HW118863   0.922   3.056   6.692
 5988SOL    HW218864   0.982   3.197   6.635
 5989SOL     OW18865   1.295   6.730   5.433
 5989SOL    HW118866   1.266   6.814   5.479
 5989SOL    HW218867   1.248   6.723   5.345
 5990SOL     OW18868   2.502   4.355   1.489
 5990SOL    HW118869   2.460   4.432   1.442
 5990SOL    HW218870   2.558   4.388   1.565
 5991SOL     OW18871   5.660   1.209   1.153
 5991SOL    HW118872   5.620   1.148   1.085
 5991SOL    HW218873   5.745   1.169   1.188
 5992SOL     OW18874   3.313   5.464   2.854
 5992SOL    HW118875   3.287   5.415   2.937
 5992SOL    HW218876   3.258   5.548   2.846
 5993SOL     OW18877   6.012   2.318   0.633
 5993SOL    HW118878   5.959   2.258   0.693
 5993SOL    HW218879   6.102   2.334   0.674
 5994SOL     OW18880   6.683   3.579   6.846
 5994SOL    HW118881   6.605   3.578   6.908
 5994SOL    HW218882   6.760   3.530   6.888
 5995SOL     OW18883   5.189   3.473   1.228
 5995SOL    HW118884   5.211   3.549   1.167
 5995SOL    HW218885   5.099   3.436   1.204
 5996SOL     OW18886   2.340   6.699   1.354
 5996SOL    HW118887   2.353   6.742   1.265
 5996SOL    HW218888   2.425   6.708   1.407
 5997SOL     OW18889   6.199   0.404   3.971
 5997SOL    HW118890   6.119   0.432   3.918
 5997SOL    HW218891   6.203   0.455   4.056
 5998SOL     OW18892   6.961   6.338   6.534
 5998SOL    HW118893   6.919   6.402   6.599
 5998SOL    HW218894   0.034   6.361   6.524
 5999SOL     OW18895   4.977   3.735   1.354
 5999SOL    HW118896   5.026   3.761   1.437
 5999SOL    HW218897   5.025   3.772   1.274
 6000SOL     OW18898   1.496   4.430   0.742
 6000SOL    HW118899   1.454   4.344   0.772
 6000SOL    HW218900   1.569   4.411   0.677
 6001SOL     OW18901   6.000   5.396   5.739
 6001SOL    HW118902   6.027   5.486   5.774
 6001SOL    HW218903   6.029   5.325   5.803
 6002SOL     OW18904   5.189   4.747   5.322
 6002SOL    HW118905   5.151   4.821   5.266
 6002SOL    HW218906   5.234   4.681   5.263
 6003SOL     OW18907   2.510   2.099   4.803
 6003SOL    HW118908   2.603   2.067   4.817
 6003SOL    HW218909   2.500   2.190   4.845
 6004SOL     OW18910   5.320   3.480   5.407
 6004SOL    HW118911   5.291   3.570   5.375
 6004SOL    HW218912   5.411   3.487   5.448
 6005SOL     OW18913   4.172   3.937   0.374
 6005SOL    HW118914   4.160   3.838   0.379
 6005SOL    HW218915   4.105   3.976   0.311
 6006SOL     OW18916   3.314   6.165   6.819
 6006SOL    HW118917   3.388   6.131   6.877
 6006SOL    HW218918   3.272   6.245   6.862
 6007SOL     OW18919   2.205   6.538   4.812
 6007SOL    HW118920   2.261   6.572   4.887
 6007SOL    HW218921   2.230   6.443   4.792
 6008SOL     OW18922   2.144   4.029   6.491
 6008SOL    HW118923   2.178   3.935   6.489
 6008SOL    HW218924   2.054   4.030   6.534
 6009SOL     OW18925   4.439   5.240   2.814
 6009SOL    HW118926   4.537   5.255   2.800
 6009SOL    HW218927   4.425   5.171   2.886
 6010SOL     OW18928   0.287   4.909   4.919
 6010SOL    HW118929   0.343   4.980   4.962
 6010SOL    HW218930   0.345   4.850   4.863
 6011SOL     OW18931   5.251   1.601   3.263
 6011SOL    HW118932   5.237   1.575   3.168
 6011SOL    HW218933   5.239   1.700   3.273
 6012SOL     OW18934   6.552   0.644   5.708
 6012SOL    HW118935   6.601   0.657   5.794
 6012SOL    HW218936   6.502   0.728   5.685
 6013SOL     OW18937   5.787   1.457   2.528
 6013SOL    HW118938   5.831   1.523   2.467
 6013SOL    HW218939   5.723   1.505   2.589
 6014SOL     OW18940   3.375   3.441   4.368
 6014SOL    HW118941   3.294   3.383   4.374
 6014SOL    HW218942   3.455   3.384   4.349
 6015SOL     OW18943   5.948   6.864   4.643
 6015SOL    HW118944   6.033   6.818   4.618
 6015SOL    HW218945   5.925   6.932   4.573
 6016SOL     OW18946   4.071   2.270   4.572
 6016SOL    HW118947   4.003   2.203   4.602
 6016SOL    HW218948   4.087   2.260   4.474
 6017SOL     OW18949   1.430   1.887   5.700
 6017SOL    HW118950   1.355   1.831   5.665
 6017SOL    HW218951   1.401   1.983   5.704
 6018SOL     OW18952   2.557   1.060   3.726
 6018SOL    HW118953   2.647   1.103   3.717
 6018SOL    HW218954   2.567   0.973   3.774
 6019SOL     OW18955   6.689   4.806   6.643
 6019SOL    HW118956   6.590   4.802   6.661
 6019SOL    HW218957   6.736   4.745   6.707
 6020SOL     OW18958   0.869   4.950   5.832
 6020SOL    HW118959   0.863   4.851   5.826
 6020SOL    HW218960   0.965   4.979   5.834
 6021SOL     OW18961   5.793   0.166   3.316
 6021SOL    HW118962   5.829   0.259   3.314
 6021SOL    HW218963   5.764   0.143   3.409
 6022SOL     OW18964   5.986   2.992   1.673
 6022SOL    HW118965   5.954   2.899   1.654
 6022SOL    HW218966   6.082   2.989   1.701
 6023SOL     OW18967   4.879   6.376   2.201
 6023SOL    HW118968   4.866   6.339   2.109
 6023SOL    HW218969   4.827   6.461   2.210
 6024SOL     OW18970   0.531   6.659   6.407
 6024SOL    HW118971   0.629   6.662   6.391
 6024SOL    HW218972   0.510   6.703   6.494
 6025SOL     OW18973   2.576   0.272   5.633
 6025SOL    HW118974   2.521   0.321   5.700
 6025SOL    HW218975   2.637   0.337   5.586
 6026SOL     OW18976   6.097   5.866   3.422
 6026SOL    HW118977   6.001   5.890   3.407
 6026SOL    HW218978   6.133   5.918   3.500
 6027SOL     OW18979   6.163   5.351   6.245
 6027SOL    HW118980   6.123   5.443   6.239
 6027SOL    HW218981   6.190   5.333   6.340
 6028SOL     OW18982   5.967   6.016   6.259
 6028SOL    HW118983   5.921   5.944   6.209
 6028SOL    HW218984   5.927   6.024   6.351
 6029SOL     OW18985   3.500   1.464   2.712
 6029SOL    HW118986   3.588   1.419   2.727
 6029SOL    HW218987   3.490   1.539   2.777
 6030SOL     OW18988   6.130   3.285   4.638
 6030SOL    HW118989   6.095   3.349   4.570
 6030SOL    HW218990   6.219   3.318   4.672
 6031SOL     OW18991   0.174   6.646   5.267
 6031SOL    HW118992   0.146   6.578   5.335
 6031SOL    HW218993   0.144   6.617   5.176
 6032SOL     OW18994   3.234   6.719   3.233
 6032SOL    HW118995   3.269   6.778   3.160
 6032SOL    HW218996   3.249   6.763   3.321
 6033SOL     OW18997   0.334   1.577   2.457
 6033SOL    HW118998   0.429   1.598   2.479
 6033SOL    HW218999   0.282   1.663   2.451
 6034SOL     OW19000   0.237   0.013   0.468
 6034SOL    HW119001   0.277   6.998   0.385
 6034SOL    HW219002   0.144   7.002   0.479
 6035SOL     OW19003   2.633   0.168   2.411
 6035SOL    HW119004   2.716   0.222   2.418
 6035SOL    HW219005   2.575   0.185   2.490
 6036SOL     OW19006   6.168   3.603   0.738
 6036SOL    HW119007   6.120   3.664   0.675
 6036SOL    HW219008   6.237   3.551   0.688
 6037SOL     OW19009   4.672   1.228   6.394
 6037SOL    HW119010   4.693   1.314   6.348
 6037SOL    HW219011   4.724   1.222   6.479
 6038SOL     OW19012   1.294   1.144   5.864
 6038SOL    HW119013   1.222   1.199   5.906
 6038SOL    HW219014   1.269   1.123   5.769
 6039SOL     OW19015   4.148   3.604   3.523
 6039SOL    HW119016   4.212   3.549   3.578
 6039SOL    HW219017   4.115   3.681   3.577
 6040SOL     OW19018   1.027   1.980   0.282
 6040SOL    HW119019   1.054   1.895   0.238
 6040SOL    HW219020   1.055   1.978   0.378
 6041SOL     OW19021   0.904   3.623   5.229
 6041SOL    HW119022   1.003   3.628   5.237
 6041SOL    HW219023   0.864   3.622   5.321
 6042SOL     OW19024   2.859   6.127   3.571
 6042SOL    HW119025   2.954   6.109   3.594
 6042SOL    HW219026   2.841   6.225   3.580
 6043SOL     OW19027   2.401   6.937   2.675
 6043SOL    HW119028   2.415   6.953   2.577
 6043SOL    HW219029   2.348   7.013   2.713
 6044SOL     OW19030   0.618   3.263   0.447
 6044SOL    HW119031   0.542   3.318   0.414
 6044SOL    HW219032   0.587   3.170   0.465
 6045SOL     OW19033   5.787   1.073   3.764
 6045SOL    HW119034   5.759   1.090   3.858
 6045SOL    HW219035   5.706   1.071   3.705
 6046SOL     OW19036   3.495   3.281   2.850
 6046SOL    HW119037   3.467   3.225   2.772
 6046SOL    HW219038   3.415   3.312   2.900
 6047SOL     OW19039   6.655   1.679   0.259
 6047SOL    HW119040   6.750   1.654   0.241
 6047SOL    HW219041   6.652   1.742   0.337
 6048SOL     OW19042   5.998   6.224   3.149
 6048SOL    HW119043   6.071   6.155   3.147
 6048SOL    HW219044   6.001   6.278   3.065
 6049SOL     OW19045   4.466   5.173   6.583
 6049SOL    HW119046   4.378   5.154   6.625
 6049SOL    HW219047   4.457   5.252   6.521
 6050SOL     OW19048   2.716   5.510   2.351
 6050SOL    HW119049   2.692   5.559   2.435
 6050SOL    HW219050   2.691   5.414   2.361
 6051SOL     OW19051   0.534   1.586   2.943
 6051SOL    HW119052   0.613   1.528   2.925
 6051SOL    HW219053   0.451   1.538   2.917
 6052SOL     OW19054   5.065   5.432   0.226
 6052SOL    HW119055   5.137   5.377   0.269
 6052SOL    HW219056   5.055   5.404   0.130
 6053SOL     OW19057   4.812   2.557   6.649
 6053SOL    HW119058   4.733   2.614   6.626
 6053SOL    HW219059   4.874   2.608   6.709
 6054SOL     OW19060   4.387   3.593   0.883
 6054SOL    HW119061   4.292   3.584   0.912
 6054SOL    HW219062   4.390   3.638   0.793
 6055SOL     OW19063   2.826   3.627   1.425
 6055SOL    HW119064   2.755   3.693   1.401
 6055SOL    HW219065   2.784   3.539   1.446
 6056SOL     OW19066   5.364   6.030   3.390
 6056SOL    HW119067   5.296   6.077   3.334
 6056SOL    HW219068   5.447   6.086   3.394
 6057SOL     OW19069   5.389   0.631   3.694
 6057SOL    HW119070   5.459   0.692   3.732
 6057SOL    HW219071   5.318   0.615   3.763
 6058SOL     OW19072   0.134   2.616   5.903
 6058SOL    HW119073   0.087   2.647   5.985
 6058SOL    HW219074   0.181   2.530   5.922
 6059SOL     OW19075   4.551   2.725   6.968
 6059SOL    HW119076   4.549   2.768   6.878
 6059SOL    HW219077   4.641   2.682   6.982
 6060SOL     OW19078   2.247   2.531   0.305
 6060SOL    HW119079   2.316   2.566   0.243
 6060SOL    HW219080   2.226   2.436   0.282
 6061SOL     OW19081   3.592   4.097   6.918
 6061SOL    HW119082   3.621   4.060   7.006
 6061SOL    HW219083   3.535   4.029   6.870
 6062SOL     OW19084   2.382   1.832   6.027
 6062SOL    HW119085   2.332   1.793   6.104
 6062SOL    HW219086   2.383   1.932   6.035
 6063SOL     OW19087   4.269   4.172   6.912
 6063SOL    HW119088   4.211   4.249   6.937
 6063SOL    HW219089   4.301   4.126   6.995
 6064SOL     OW19090   5.928   5.860   0.734
 6064SOL    HW119091   5.922   5.957   0.760
 6064SOL    HW219092   5.877   5.805   0.799
 6065SOL     OW19093   2.048   6.147   1.183
 6065SOL    HW119094   2.143   6.180   1.179
 6065SOL    HW219095   2.018   6.144   1.278
 6066SOL     OW19096   5.797   5.499   2.571
 6066SOL    HW119097   5.837   5.423   2.622
 6066SOL    HW219098   5.808   5.483   2.473
 6067SOL     OW19099   6.952   6.460   5.832
 6067SOL    HW119100   6.935   6.536   5.896
 6067SOL    HW219101   6.866   6.432   5.789
 6068SOL     OW19102   4.856   2.314   4.319
 6068SOL    HW119103   4.898   2.232   4.279
 6068SOL    HW219104   4.876   2.316   4.417
 6069SOL     OW19105   0.092   4.934   6.245
 6069SOL    HW119106   0.080   4.856   6.183
 6069SOL    HW219107   0.008   4.989   6.246
 6070SOL     OW19108   2.383   1.757   0.768
 6070SOL    HW119109   2.458   1.704   0.728
 6070SOL    HW219110   2.329   1.697   0.828
 6071SOL     OW19111   5.353   1.075   5.862
 6071SOL    HW119112   5.394   1.111   5.945
 6071SOL    HW219113   5.422   1.067   5.791
 6072SOL     OW19114   6.747   3.399   0.062
 6072SOL    HW119115   6.836   3.429   0.095
 6072SOL    HW219116   6.757   3.314   0.011
 6073SOL     OW19117   5.047   3.931   0.565
 6073SOL    HW119118   4.963   3.933   0.620
 6073SOL    HW219119   5.097   4.017   0.578
 6074SOL     OW19120   0.937   6.820   1.846
 6074SOL    HW119121   0.907   6.914   1.860
 6074SOL    HW219122   0.921   6.794   1.750
 6075SOL     OW19123   6.076   0.945   6.735
 6075SOL    HW119124   6.048   1.023   6.792
 6075SOL    HW219125   6.016   0.939   6.656
 6076SOL     OW19126   0.278   5.998   3.063
 6076SOL    HW119127   0.315   6.037   3.147
 6076SOL    HW219128   0.319   6.043   2.984
 6077SOL     OW19129   5.115   5.972   2.798
 6077SOL    HW119130   5.186   6.028   2.755
 6077SOL    HW219131   5.096   5.892   2.742
 6078SOL     OW19132   5.116   4.184   0.643
 6078SOL    HW119133   5.083   4.254   0.706
 6078SOL    HW219134   5.157   4.229   0.563
 6079SOL     OW19135   3.349   1.622   6.898
 6079SOL    HW119136   3.259   1.590   6.868
 6079SOL    HW219137   3.340   1.675   6.982
 6080SOL     OW19138   6.667   3.745   5.767
 6080SOL    HW119139   6.637   3.752   5.672
 6080SOL    HW219140   6.628   3.662   5.808
 6081SOL     OW19141   1.552   3.516   3.694
 6081SOL    HW119142   1.629   3.467   3.654
 6081SOL    HW219143   1.586   3.589   3.753
 6082SOL     OW19144   5.390   1.202   1.736
 6082SOL    HW119145   5.476   1.201   1.788
 6082SOL    HW219146   5.390   1.281   1.674
 6083SOL     OW19147   5.113   6.906   6.532
 6083SOL    HW119148   5.034   6.868   6.484
 6083SOL    HW219149   5.194   6.901   6.473
 6084SOL     OW19150   6.413   5.467   2.951
 6084SOL    HW119151   6.386   5.505   3.039
 6084SOL    HW219152   6.417   5.540   2.883
 6085SOL     OW19153   0.694   6.705   0.388
 6085SOL    HW119154   0.660   6.615   0.415
 6085SOL    HW219155   0.664   6.725   0.295
 6086SOL     OW19156   3.259   3.605   6.952
 6086SOL    HW119157   3.325   3.603   0.003
 6086SOL    HW219158   3.289   3.671   6.882
 6087SOL     OW19159   4.476   0.329   0.467
 6087SOL    HW119160   4.511   0.363   0.554
 6087SOL    HW219161   4.383   0.296   0.479
 6088SOL     OW19162   4.792   5.258   3.033
 6088SOL    HW119163   4.771   5.265   3.130
 6088SOL    HW219164   4.886   5.224   3.022
 6089SOL     OW19165   6.493   3.905   3.084
 6089SOL    HW119166   6.399   3.877   3.102
 6089SOL    HW219167   6.499   3.943   2.991
 6090SOL     OW19168   3.599   5.657   4.398
 6090SOL    HW119169   3.634   5.622   4.311
 6090SOL    HW219170   3.573   5.580   4.456
 6091SOL     OW19171   0.462   1.397   1.616
 6091SOL    HW119172   0.458   1.450   1.531
 6091SOL    HW219173   0.543   1.338   1.614
 6092SOL     OW19174   2.596   6.683   1.490
 6092SOL    HW119175   2.659   6.624   1.540
 6092SOL    HW219176   2.637   6.713   1.405
 6093SOL     OW19177   2.501   2.527   2.150
 6093SOL    HW119178   2.430   2.575   2.098
 6093SOL    HW219179   2.587   2.529   2.099
 6094SOL     OW19180   0.697   6.598   5.477
 6094SOL    HW119181   0.681   6.501   5.459
 6094SOL    HW219182   0.622   6.652   5.438
 6095SOL     OW19183   5.013   4.736   1.782
 6095SOL    HW119184   5.072   4.816   1.767
 6095SOL    HW219185   5.069   4.653   1.782
 6096SOL     OW19186   5.080   5.908   3.074
 6096SOL    HW119187   4.993   5.859   3.078
 6096SOL    HW219188   5.086   5.959   2.988
 6097SOL     OW19189   2.667   5.006   2.149
 6097SOL    HW119190   2.695   5.096   2.115
 6097SOL    HW219191   2.572   4.989   2.123
 6098SOL     OW19192   6.531   0.793   5.176
 6098SOL    HW119193   6.630   0.801   5.188
 6098SOL    HW219194   6.486   0.873   5.215
 6099SOL     OW19195   4.122   0.115   5.685
 6099SOL    HW119196   4.094   0.211   5.683
 6099SOL    HW219197   4.117   0.080   5.779
 6100SOL     OW19198   0.940   5.772   5.444
 6100SOL    HW119199   0.935   5.733   5.352
 6100SOL    HW219200   0.917   5.702   5.512
 6101SOL     OW19201   0.297   2.871   1.817
 6101SOL    HW119202   0.341   2.896   1.731
 6101SOL    HW219203   0.356   2.809   1.868
 6102SOL     OW19204   3.741   0.009   2.865
 6102SOL    HW119205   3.743   6.934   2.877
 6102SOL    HW219206   3.700   0.051   2.946
 6103SOL     OW19207   5.951   1.291   2.684
 6103SOL    HW119208   5.873   1.319   2.629
 6103SOL    HW219209   5.929   1.302   2.781
 6104SOL     OW19210   6.686   1.189   4.982
 6104SOL    HW119211   6.648   1.249   4.912
 6104SOL    HW219212   6.613   1.131   5.019
 6105SOL     OW19213   3.803   4.334   6.068
 6105SOL    HW119214   3.863   4.401   6.112
 6105SOL    HW219215   3.709   4.348   6.098
 6106SOL     OW19216   6.181   4.706   5.371
 6106SOL    HW119217   6.104   4.725   5.310
 6106SOL    HW219218   6.211   4.611   5.358
 6107SOL     OW19219   5.335   5.247   5.623
 6107SOL    HW119220   5.268   5.257   5.550
 6107SOL    HW219221   5.307   5.172   5.684
 6108SOL     OW19222   2.503   1.022   6.446
 6108SOL    HW119223   2.533   1.023   6.350
 6108SOL    HW219224   2.583   1.027   6.506
 6109SOL     OW19225   0.161   6.664   4.068
 6109SOL    HW119226   0.136   6.568   4.080
 6109SOL    HW219227   0.181   6.681   3.972
 6110SOL     OW19228   2.010   1.553   4.386
 6110SOL    HW119229   2.066   1.527   4.464
 6110SOL    HW219230   2.055   1.525   4.301
 6111SOL     OW19231   2.285   3.456   0.423
 6111SOL    HW119232   2.253   3.372   0.380
 6111SOL    HW219233   2.375   3.440   0.464
 6112SOL     OW19234   4.597   6.872   3.533
 6112SOL    HW119235   4.574   6.921   3.617
 6112SOL    HW219236   4.671   6.919   3.487
 6113SOL     OW19237   2.249   5.541   0.651
 6113SOL    HW119238   2.272   5.629   0.692
 6113SOL    HW219239   2.174   5.554   0.586
 6114SOL     OW19240   4.960   2.461   1.375
 6114SOL    HW119241   4.875   2.506   1.345
 6114SOL    HW219242   5.038   2.507   1.334
 6115SOL     OW19243   0.831   1.016   5.217
 6115SOL    HW119244   0.834   1.113   5.242
 6115SOL    HW219245   0.923   0.978   5.220
 6116SOL     OW19246   5.865   3.543   0.046
 6116SOL    HW119247   5.930   3.618   0.040
 6116SOL    HW219248   5.772   3.578   0.039
 6117SOL     OW19249   1.609   1.754   1.280
 6117SOL    HW119250   1.631   1.815   1.356
 6117SOL    HW219251   1.675   1.679   1.278
 6118SOL     OW19252   5.734   1.196   2.520
 6118SOL    HW119253   5.731   1.295   2.510
 6118SOL    HW219254   5.782   1.155   2.442
 6119SOL     OW19255   6.465   1.337   6.630
 6119SOL    HW119256   6.497   1.372   6.718
 6119SOL    HW219257   6.417   1.250   6.644
 6120SOL     OW19258   3.270   0.297   4.282
 6120SOL    HW119259   3.252   0.350   4.199
 6120SOL    HW219260   3.234   0.204   4.270
 6121SOL     OW19261   2.063   1.646   5.186
 6121SOL    HW119262   2.063   1.561   5.239
 6121SOL    HW219263   2.151   1.693   5.201
 6122SOL     OW19264   5.304   4.580   5.112
 6122SOL    HW119265   5.352   4.492   5.110
 6122SOL    HW219266   5.258   4.595   5.024
 6123SOL     OW19267   5.987   1.421   5.743
 6123SOL    HW119268   6.044   1.340   5.758
 6123SOL    HW219269   5.953   1.420   5.649
 6124SOL     OW19270   2.621   6.071   3.834
 6124SOL    HW119271   2.626   6.169   3.851
 6124SOL    HW219272   2.613   6.054   3.735
 6125SOL     OW19273   3.210   1.689   5.972
 6125SOL    HW119274   3.301   1.649   5.984
 6125SOL    HW219275   3.203   1.773   6.027
 6126SOL     OW19276   5.841   3.013   5.835
 6126SOL    HW119277   5.774   2.940   5.850
 6126SOL    HW219278   5.933   2.974   5.836
 6127SOL     OW19279   5.408   1.948   3.049
 6127SOL    HW119280   5.373   2.041   3.056
 6127SOL    HW219281   5.372   1.893   3.125
 6128SOL     OW19282   5.981   5.959   6.738
 6128SOL    HW119283   5.933   6.022   6.799
 6128SOL    HW219284   6.080   5.971   6.749
 6129SOL     OW19285   2.809   5.748   2.209
 6129SOL    HW119286   2.810   5.661   2.259
 6129SOL    HW219287   2.900   5.789   2.212
 6130SOL     OW19288   5.697   2.874   0.219
 6130SOL    HW119289   5.715   2.828   0.305
 6130SOL    HW219290   5.702   2.808   0.144
 6131SOL     OW19291   6.347   2.114   2.956
 6131SOL    HW119292   6.279   2.183   2.934
 6131SOL    HW219293   6.432   2.135   2.908
 6132SOL     OW19294   4.328   0.274   6.305
 6132SOL    HW119295   4.308   0.356   6.359
 6132SOL    HW219296   4.360   0.202   6.366
 6133SOL     OW19297   0.474   2.061   2.754
 6133SOL    HW119298   0.447   2.087   2.847
 6133SOL    HW219299   0.455   1.964   2.740
 6134SOL     OW19300   0.572   6.713   5.254
 6134SOL    HW119301   0.524   6.634   5.215
 6134SOL    HW219302   0.670   6.696   5.250
 6135SOL     OW19303   6.870   0.110   0.355
 6135SOL    HW119304   6.801   0.166   0.400
 6135SOL    HW219305   6.954   0.164   0.342
 6136SOL     OW19306   0.942   2.554   3.318
 6136SOL    HW119307   0.851   2.515   3.330
 6136SOL    HW219308   0.967   2.606   3.400
 6137SOL     OW19309   0.241   4.533   0.792
 6137SOL    HW119310   0.143   4.518   0.784
 6137SOL    HW219311   0.268   4.531   0.888
 6138SOL     OW19312   4.731   0.242   2.377
 6138SOL    HW119313   4.670   0.294   2.318
 6138SOL    HW219314   4.797   0.304   2.420
 6139SOL     OW19315   1.203   0.878   4.989
 6139SOL    HW119316   1.244   0.963   5.022
 6139SOL    HW219317   1.244   0.853   4.902
 6140SOL     OW19318   1.393   6.924   2.834
 6140SOL    HW119319   1.347   6.932   2.923
 6140SOL    HW219320   1.375   7.006   2.780
 6141SOL     OW19321   1.019   0.985   6.096
 6141SOL    HW119322   1.096   0.947   6.146
 6141SOL    HW219323   0.955   0.911   6.073
 6142SOL     OW19324   6.310   0.516   1.414
 6142SOL    HW119325   6.338   0.436   1.467
 6142SOL    HW219326   6.383   0.584   1.416
 6143SOL     OW19327   0.392   3.359   5.009
 6143SOL    HW119328   0.375   3.458   5.015
 6143SOL    HW219329   0.480   3.344   4.965
 6144SOL     OW19330   4.139   5.089   2.568
 6144SOL    HW119331   4.231   5.050   2.562
 6144SOL    HW219332   4.106   5.112   2.477
 6145SOL     OW19333   4.926   3.653   4.168
 6145SOL    HW119334   4.921   3.623   4.073
 6145SOL    HW219335   4.909   3.752   4.172
 6146SOL     OW19336   5.686   0.126   5.417
 6146SOL    HW119337   5.765   0.172   5.377
 6146SOL    HW219338   5.715   0.042   5.462
 6147SOL     OW19339   1.365   2.793   5.105
 6147SOL    HW119340   1.339   2.871   5.049
 6147SOL    HW219341   1.293   2.724   5.102
 6148SOL     OW19342   3.263   4.973   0.099
 6148SOL    HW119343   3.358   5.002   0.087
 6148SOL    HW219344   3.232   4.925   0.017
 6149SOL     OW19345   3.657   1.223   1.757
 6149SOL    HW119346   3.588   1.218   1.829
 6149SOL    HW219347   3.626   1.169   1.678
 6150SOL     OW19348   0.821   4.241   4.858
 6150SOL    HW119349   0.920   4.234   4.874
 6150SOL    HW219350   0.791   4.164   4.801
 6151SOL     OW19351   4.608   5.014   3.269
 6151SOL    HW119352   4.591   5.006   3.170
 6151SOL    HW219353   4.670   5.090   3.285
 6152SOL     OW19354   1.802   4.436   3.931
 6152SOL    HW119355   1.894   4.474   3.922
 6152SOL    HW219356   1.807   4.336   3.922
 6153SOL     OW19357   4.836   5.978   1.158
 6153SOL    HW119358   4.909   6.003   1.222
 6153SOL    HW219359   4.871   5.978   1.065
 6154SOL     OW19360   5.156   3.813   2.207
 6154SOL    HW119361   5.224   3.747   2.239
 6154SOL    HW219362   5.146   3.885   2.275
 6155SOL     OW19363   1.835   1.708   3.493
 6155SOL    HW119364   1.903   1.765   3.540
 6155SOL    HW219365   1.816   1.747   3.403
 6156SOL     OW19366   5.307   4.347   1.623
 6156SOL    HW119367   5.359   4.295   1.690
 6156SOL    HW219368   5.231   4.293   1.589
 6157SOL     OW19369   0.380   2.796   1.454
 6157SOL    HW119370   0.420   2.706   1.437
 6157SOL    HW219371   0.417   2.832   1.540
 6158SOL     OW19372   2.964   2.220   4.768
 6158SOL    HW119373   2.871   2.248   4.746
 6158SOL    HW219374   2.995   2.269   4.850
 6159SOL     OW19375   6.437   2.732   6.978
 6159SOL    HW119376   6.390   2.653   7.017
 6159SOL    HW219377   6.524   2.746   0.001
 6160SOL     OW19378   1.026   0.448   1.415
 6160SOL    HW119379   1.070   0.361   1.392
 6160SOL    HW219380   0.969   0.478   1.339
 6161SOL     OW19381   4.622   3.941   6.885
 6161SOL    HW119382   4.580   4.027   6.854
 6161SOL    HW219383   4.689   3.911   6.817
 6162SOL     OW19384   6.191   5.503   2.266
 6162SOL    HW119385   6.165   5.591   2.226
 6162SOL    HW219386   6.278   5.473   2.227
 6163SOL     OW19387   6.317   6.022   2.518
 6163SOL    HW119388   6.290   6.100   2.462
 6163SOL    HW219389   6.308   5.938   2.465
 6164SOL     OW19390   2.946   3.747   4.810
 6164SOL    HW119391   2.977   3.810   4.739
 6164SOL    HW219392   2.846   3.748   4.814
 6165SOL     OW19393   3.340   1.876   0.485
 6165SOL    HW119394   3.257   1.827   0.460
 6165SOL    HW219395   3.387   1.828   0.558
 6166SOL     OW19396   2.723   2.149   6.279
 6166SOL    HW119397   2.670   2.064   6.286
 6166SOL    HW219398   2.757   2.159   6.186
 6167SOL     OW19399   1.802   3.474   2.989
 6167SOL    HW119400   1.821   3.506   2.896
 6167SOL    HW219401   1.871   3.510   3.052
 6168SOL     OW19402   0.489   3.770   3.739
 6168SOL    HW119403   0.561   3.735   3.679
 6168SOL    HW219404   0.428   3.829   3.686
 6169SOL     OW19405   2.031   0.690   6.508
 6169SOL    HW119406   2.122   0.649   6.506
 6169SOL    HW219407   2.014   0.729   6.599
 6170SOL     OW19408   2.551   3.495   0.973
 6170SOL    HW119409   2.515   3.528   0.886
 6170SOL    HW219410   2.561   3.395   0.969
 6171SOL     OW19411   2.096   3.750   1.989
 6171SOL    HW119412   2.139   3.661   2.003
 6171SOL    HW219413   2.151   3.804   1.924
 6172SOL     OW19414   2.831   5.516   2.059
 6172SOL    HW119415   2.797   5.609   2.050
 6172SOL    HW219416   2.883   5.507   2.144
 6173SOL     OW19417   1.175   6.122   2.564
 6173SOL    HW119418   1.137   6.031   2.582
 6173SOL    HW219419   1.137   6.157   2.478
 6174SOL     OW19420   5.980   4.881   2.225
 6174SOL    HW119421   6.037   4.942   2.279
 6174SOL    HW219422   5.922   4.826   2.285
 6175SOL     OW19423   4.939   0.432   3.331
 6175SOL    HW119424   4.976   0.409   3.240
 6175SOL    HW219425   4.840   0.438   3.326
 6176SOL     OW19426   5.413   3.336   6.464
 6176SOL    HW119427   5.346   3.273   6.503
 6176SOL    HW219428   5.504   3.316   6.500
 6177SOL     OW19429   6.691   2.963   1.570
 6177SOL    HW119430   6.592   2.971   1.559
 6177SOL    HW219431   6.726   3.045   1.616
 6178SOL     OW19432   6.076   3.549   1.983
 6178SOL    HW119433   6.021   3.584   1.907
 6178SOL    HW219434   6.162   3.600   1.988
 6179SOL     OW19435   0.344   2.483   5.542
 6179SOL    HW119436   0.422   2.500   5.483
 6179SOL    HW219437   0.311   2.569   5.580
 6180SOL     OW19438   3.116   6.913   5.850
 6180SOL    HW119439   3.163   6.996   5.878
 6180SOL    HW219440   3.042   6.936   5.786
 6181SOL     OW19441   4.750   5.700   0.405
 6181SOL    HW119442   4.681   5.628   0.412
 6181SOL    HW219443   4.841   5.660   0.415
 6182SOL     OW19444   4.688   6.395   6.774
 6182SOL    HW119445   4.699   6.476   6.832
 6182SOL    HW219446   4.754   6.325   6.803
 6183SOL     OW19447   3.182   0.931   2.990
 6183SOL    HW119448   3.170   0.977   2.902
 6183SOL    HW219449   3.203   0.999   3.061
 6184SOL     OW19450   5.987   0.577   6.360
 6184SOL    HW119451   6.070   0.594   6.414
 6184SOL    HW219452   5.914   0.638   6.391
 6185SOL     OW19453   0.847   3.606   5.810
 6185SOL    HW119454   0.861   3.663   5.729
 6185SOL    HW219455   0.822   3.665   5.887
 6186SOL     OW19456   5.485   0.277   4.960
 6186SOL    HW119457   5.547   0.253   4.886
 6186SOL    HW219458   5.410   0.333   4.924
 6187SOL     OW19459   3.168   4.963   4.460
 6187SOL    HW119460   3.152   4.930   4.553
 6187SOL    HW219461   3.262   4.941   4.433
 6188SOL     OW19462   2.711   0.284   1.688
 6188SOL    HW119463   2.662   0.354   1.741
 6188SOL    HW219464   2.681   0.287   1.593
 6189SOL     OW19465   5.390   4.850   3.682
 6189SOL    HW119466   5.465   4.911   3.655
 6189SOL    HW219467   5.398   4.829   3.780
 6190SOL     OW19468   5.207   2.646   6.075
 6190SOL    HW119469   5.144   2.621   6.001
 6190SOL    HW219470   5.285   2.584   6.075
 6191SOL     OW19471   0.019   2.337   6.630
 6191SOL    HW119472   0.108   2.293   6.639
 6191SOL    HW219473   7.016   2.376   6.719
 6192SOL     OW19474   2.867   2.451   0.240
 6192SOL    HW119475   2.863   2.355   0.270
 6192SOL    HW219476   2.902   2.507   0.315
 6193SOL     OW19477   5.950   0.709   0.888
 6193SOL    HW119478   5.917   0.615   0.876
 6193SOL    HW219479   5.892   0.756   0.955
 6194SOL     OW19480   2.122   0.700   0.697
 6194SOL    HW119481   2.050   0.633   0.679
 6194SOL    HW219482   2.093   0.761   0.770
 6195SOL     OW19483   2.413   6.075   6.229
 6195SOL    HW119484   2.413   5.997   6.291
 6195SOL    HW219485   2.342   6.062   6.159
 6196SOL     OW19486   0.610   1.192   6.212
 6196SOL    HW119487   0.515   1.223   6.216
 6196SOL    HW219488   0.671   1.266   6.240
 6197SOL     OW19489   2.486   2.704   0.237
 6197SOL    HW119490   2.468   2.777   0.302
 6197SOL    HW219491   2.524   2.743   0.153
 6198SOL     OW19492   4.317   4.661   2.277
 6198SOL    HW119493   4.252   4.727   2.239
 6198SOL    HW219494   4.356   4.697   2.362
 6199SOL     OW19495   1.167   0.703   6.463
 6199SOL    HW119496   1.210   0.619   6.497
 6199SOL    HW219497   1.078   0.682   6.423
 6200SOL     OW19498   3.292   0.420   6.015
 6200SOL    HW119499   3.339   0.448   6.099
 6200SOL    HW219500   3.358   0.410   5.941
 6201SOL     OW19501   2.448   4.398   3.760
 6201SOL    HW119502   2.436   4.485   3.809
 6201SOL    HW219503   2.532   4.402   3.705
 6202SOL     OW19504   3.148   2.296   1.409
 6202SOL    HW119505   3.060   2.266   1.446
 6202SOL    HW219506   3.175   2.382   1.454
 6203SOL     OW19507   5.282   2.181   5.383
 6203SOL    HW119508   5.308   2.256   5.321
 6203SOL    HW219509   5.352   2.171   5.454
 6204SOL     OW19510   1.629   6.528   5.773
 6204SOL    HW119511   1.544   6.559   5.729
 6204SOL    HW219512   1.623   6.542   5.872
 6205SOL     OW19513   5.540   5.578   0.355
 6205SOL    HW119514   5.535   5.543   0.261
 6205SOL    HW219515   5.555   5.502   0.418
 6206SOL     OW19516   5.091   6.921   3.045
 6206SOL    HW119517   5.173   6.964   3.006
 6206SOL    HW219518   5.015   6.930   2.980
 6207SOL     OW19519   2.236   3.978   4.218
 6207SOL    HW119520   2.165   3.945   4.156
 6207SOL    HW219521   2.248   3.913   4.293
 6208SOL     OW19522   5.236   6.101   6.354
 6208SOL    HW119523   5.324   6.102   6.401
 6208SOL    HW219524   5.234   6.171   6.284
 6209SOL     OW19525   3.133   5.661   0.975
 6209SOL    HW119526   3.194   5.660   1.055
 6209SOL    HW219527   3.154   5.582   0.917
 6210SOL     OW19528   6.541   5.092   3.322
 6210SOL    HW119529   6.515   5.094   3.418
 6210SOL    HW219530   6.530   4.999   3.287
 6211SOL     OW19531   2.404   0.544   4.917
 6211SOL    HW119532   2.471   0.613   4.891
 6211SOL    HW219533   2.338   0.531   4.843
 6212SOL     OW19534   6.796   6.531   3.858
 6212SOL    HW119535   6.854   6.450   3.853
 6212SOL    HW219536   6.844   6.609   3.818
 6213SOL     OW19537   6.785   6.871   6.266
 6213SOL    HW119538   6.766   6.940   6.337
 6213SOL    HW219539   6.854   6.807   6.300
 6214SOL     OW19540   6.192   5.031   2.296
 6214SOL    HW119541   6.265   5.061   2.234
 6214SOL    HW219542   6.149   5.110   2.337
 6215SOL     OW19543   2.738   4.672   1.304
 6215SOL    HW119544   2.788   4.697   1.387
 6215SOL    HW219545   2.745   4.574   1.288
 6216SOL     OW19546   6.326   1.607   3.100
 6216SOL    HW119547   6.399   1.554   3.144
 6216SOL    HW219548   6.355   1.702   3.091
 6217SOL     OW19549   5.533   3.026   2.285
 6217SOL    HW119550   5.469   2.967   2.236
 6217SOL    HW219551   5.584   3.082   2.219
 6218SOL     OW19552   3.755   4.912   4.512
 6218SOL    HW119553   3.679   4.910   4.448
 6218SOL    HW219554   3.832   4.962   4.472
 6219SOL     OW19555   1.118   1.748   4.027
 6219SOL    HW119556   1.099   1.739   4.125
 6219SOL    HW219557   1.091   1.840   3.997
 6220SOL     OW19558   1.560   3.977   5.229
 6220SOL    HW119559   1.496   4.047   5.259
 6220SOL    HW219560   1.555   3.967   5.129
 6221SOL     OW19561   4.546   5.086   4.588
 6221SOL    HW119562   4.619   5.145   4.623
 6221SOL    HW219563   4.472   5.142   4.552
 6222SOL     OW19564   0.268   1.729   0.882
 6222SOL    HW119565   0.196   1.734   0.951
 6222SOL    HW219566   0.260   1.807   0.820
 6223SOL     OW19567   5.234   3.853   4.851
 6223SOL    HW119568   5.229   3.917   4.775
 6223SOL    HW219569   5.314   3.793   4.839
 6224SOL     OW19570   2.832   0.565   4.913
 6224SOL    HW119571   2.832   0.664   4.901
 6224SOL    HW219572   2.740   0.529   4.896
 6225SOL     OW19573   4.408   2.515   6.727
 6225SOL    HW119574   4.502   2.495   6.756
 6225SOL    HW219575   4.382   2.452   6.653
 6226SOL     OW19576   6.661   6.878   4.461
 6226SOL    HW119577   6.638   6.854   4.367
 6226SOL    HW219578   6.731   6.814   4.495
 6227SOL     OW19579   2.861   4.048   6.837
 6227SOL    HW119580   2.923   3.970   6.827
 6227SOL    HW219581   2.913   4.133   6.835
 6228SOL     OW19582   0.091   0.707   2.434
 6228SOL    HW119583   0.116   0.624   2.484
 6228SOL    HW219584   0.165   0.773   2.442
 6229SOL     OW19585   1.560   2.667   1.977
 6229SOL    HW119586   1.566   2.763   1.948
 6229SOL    HW219587   1.638   2.645   2.035
 6230SOL     OW19588   2.109   2.469   3.275
 6230SOL    HW119589   2.061   2.496   3.358
 6230SOL    HW219590   2.052   2.404   3.224
 6231SOL     OW19591   6.803   5.157   1.415
 6231SOL    HW119592   6.843   5.070   1.441
 6231SOL    HW219593   6.855   5.232   1.456
 6232SOL     OW19594   0.834   1.427   6.693
 6232SOL    HW119595   0.927   1.460   6.675
 6232SOL    HW219596   0.831   1.328   6.681
 6233SOL     OW19597   4.546   2.207   0.064
 6233SOL    HW119598   4.462   2.217   0.116
 6233SOL    HW219599   4.622   2.246   0.116
 6234SOL     OW19600   2.373   2.409   3.239
 6234SOL    HW119601   2.389   2.325   3.291
 6234SOL    HW219602   2.280   2.441   3.255
 6235SOL     OW19603   2.409   6.234   3.337
 6235SOL    HW119604   2.401   6.140   3.305
 6235SOL    HW219605   2.402   6.236   3.437
 6236SOL     OW19606   6.927   3.916   0.115
 6236SOL    HW119607   6.834   3.913   0.151
 6236SOL    HW219608   6.975   3.832   0.140
 6237SOL     OW19609   4.286   6.479   0.304
 6237SOL    HW119610   4.286   6.379   0.302
 6237SOL    HW219611   4.335   6.510   0.385
 6238SOL     OW19612   4.643   3.928   1.225
 6238SOL    HW119613   4.604   3.979   1.149
 6238SOL    HW219614   4.700   3.988   1.281
 6239SOL     OW19615   2.304   1.129   3.612
 6239SOL    HW119616   2.382   1.105   3.670
 6239SOL    HW219617   2.231   1.061   3.624
 6240SOL     OW19618   2.501   3.384   0.586
 6240SOL    HW119619   2.428   3.424   0.640
 6240SOL    HW219620   2.579   3.363   0.646
 6241SOL     OW19621   4.457   0.029   2.210
 6241SOL    HW119622   4.473   7.023   2.304
 6241SOL    HW219623   4.482   6.980   2.147
 6242SOL     OW19624   3.524   2.128   3.769
 6242SOL    HW119625   3.507   2.045   3.715
 6242SOL    HW219626   3.437   2.172   3.790
 6243SOL     OW19627   5.529   5.417   3.599
 6243SOL    HW119628   5.502   5.328   3.563
 6243SOL    HW219629   5.588   5.405   3.679
 6244SOL     OW19630   1.847   2.416   2.335
 6244SOL    HW119631   1.834   2.501   2.286
 6244SOL    HW219632   1.931   2.421   2.389
 6245SOL     OW19633   1.994   3.781   0.344
 6245SOL    HW119634   2.017   3.697   0.393
 6245SOL    HW219635   2.018   3.771   0.248
 6246SOL     OW19636   3.527   1.416   6.368
 6246SOL    HW119637   3.444   1.415   6.312
 6246SOL    HW219638   3.601   1.370   6.319
 6247SOL     OW19639   6.627   6.184   3.230
 6247SOL    HW119640   6.703   6.126   3.261
 6247SOL    HW219641   6.621   6.179   3.131
 6248SOL     OW19642   1.056   4.856   0.976
 6248SOL    HW119643   0.974   4.806   0.948
 6248SOL    HW219644   1.036   4.911   1.057
 6249SOL     OW19645   5.209   4.063   6.536
 6249SOL    HW119646   5.117   4.050   6.574
 6249SOL    HW219647   5.204   4.129   6.460
 6250SOL     OW19648   5.868   5.422   6.038
 6250SOL    HW119649   5.897   5.328   6.022
 6250SOL    HW219650   5.935   5.484   5.997
 6251SOL     OW19651   4.742   2.030   1.024
 6251SOL    HW119652   4.783   1.950   1.067
 6251SOL    HW219653   4.802   2.065   0.952
 6252SOL     OW19654   1.757   6.206   5.028
 6252SOL    HW119655   1.810   6.236   4.949
 6252SOL    HW219656   1.774   6.268   5.104
 6253SOL     OW19657   1.837   3.620   1.002
 6253SOL    HW119658   1.875   3.711   0.986
 6253SOL    HW219659   1.769   3.625   1.075
 6254SOL     OW19660   5.054   0.561   0.451
 6254SOL    HW119661   5.018   0.613   0.373
 6254SOL    HW219662   5.117   0.491   0.417
 6255SOL     OW19663   7.016   1.910   2.191
 6255SOL    HW119664   7.000   1.860   2.106
 6255SOL    HW219665   0.090   1.904   2.215
 6256SOL     OW19666   3.058   4.929   3.277
 6256SOL    HW119667   3.137   4.909   3.219
 6256SOL    HW219668   3.032   5.025   3.266
 6257SOL     OW19669   4.297   2.742   0.027
 6257SOL    HW119670   4.307   2.825   0.082
 6257SOL    HW219671   4.386   2.715   7.014
 6258SOL     OW19672   5.225   2.437   2.939
 6258SOL    HW119673   5.168   2.440   2.857
 6258SOL    HW219674   5.290   2.513   2.936
 6259SOL     OW19675   3.064   2.204   1.814
 6259SOL    HW119676   3.023   2.286   1.852
 6259SOL    HW219677   3.000   2.162   1.749
 6260SOL     OW19678   3.475   3.543   0.548
 6260SOL    HW119679   3.570   3.574   0.547
 6260SOL    HW219680   3.426   3.589   0.622
 6261SOL     OW19681   4.418   0.808   6.807
 6261SOL    HW119682   4.417   0.847   6.899
 6261SOL    HW219683   4.504   0.760   6.792
 6262SOL     OW19684   0.331   5.902   5.655
 6262SOL    HW119685   0.422   5.912   5.695
 6262SOL    HW219686   0.291   5.816   5.686
 6263SOL     OW19687   6.348   1.008   0.894
 6263SOL    HW119688   6.350   1.094   0.945
 6263SOL    HW219689   6.340   1.028   0.796
 6264SOL     OW19690   2.091   1.032   6.861
 6264SOL    HW119691   2.007   1.035   6.806
 6264SOL    HW219692   2.069   1.050   6.957
 6265SOL     OW19693   4.608   3.223   1.378
 6265SOL    HW119694   4.651   3.250   1.464
 6265SOL    HW219695   4.648   3.276   1.303
 6266SOL     OW19696   2.342   6.874   2.108
 6266SOL    HW119697   2.400   6.794   2.092
 6266SOL    HW219698   2.389   6.957   2.078
 6267SOL     OW19699   2.290   6.772   0.159
 6267SOL    HW119700   2.206   6.790   0.108
 6267SOL    HW219701   2.346   6.854   0.162
 6268SOL     OW19702   3.272   4.856   2.584
 6268SOL    HW119703   3.205   4.784   2.566
 6268SOL    HW219704   3.300   4.898   2.498
 6269SOL     OW19705   6.058   4.775   0.772
 6269SOL    HW119706   5.998   4.847   0.807
 6269SOL    HW219707   6.089   4.718   0.847
 6270SOL     OW19708   0.725   1.503   4.412
 6270SOL    HW119709   0.821   1.519   4.436
 6270SOL    HW219710   0.669   1.505   4.495
 6271SOL     OW19711   6.214   1.600   0.718
 6271SOL    HW119712   6.240   1.523   0.776
 6271SOL    HW219713   6.115   1.604   0.710
 6272SOL     OW19714   1.715   2.483   3.659
 6272SOL    HW119715   1.786   2.546   3.692
 6272SOL    HW219716   1.729   2.466   3.562
 6273SOL     OW19717   3.987   0.152   2.038
 6273SOL    HW119718   4.038   0.081   2.086
 6273SOL    HW219719   3.983   0.131   1.940
 6274SOL     OW19720   3.345   6.253   6.144
 6274SOL    HW119721   3.271   6.281   6.206
 6274SOL    HW219722   3.423   6.221   6.198
 6275SOL     OW19723   2.477   0.414   4.316
 6275SOL    HW119724   2.484   0.344   4.387
 6275SOL    HW219725   2.558   0.471   4.318
 6276SOL     OW19726   1.477   4.901   4.122
 6276SOL    HW119727   1.412   4.855   4.062
 6276SOL    HW219728   1.561   4.848   4.126
 6277SOL     OW19729   5.468   3.144   3.962
 6277SOL    HW119730   5.399   3.087   3.918
 6277SOL    HW219731   5.485   3.111   4.054
 6278SOL     OW19732   5.419   0.846   4.269
 6278SOL    HW119733   5.440   0.876   4.176
 6278SOL    HW219734   5.320   0.853   4.284
 6279SOL     OW19735   4.754   1.955   6.920
 6279SOL    HW119736   4.685   1.900   6.968
 6279SOL    HW219737   4.709   2.012   6.851
 6280SOL     OW19738   0.725   5.241   5.994
 6280SOL    HW119739   0.763   5.149   5.979
 6280SOL    HW219740   0.646   5.255   5.934
 6281SOL     OW19741   2.770   6.717   5.026
 6281SOL    HW119742   2.702   6.649   5.001
 6281SOL    HW219743   2.750   6.803   4.979
 6282SOL     OW19744   2.009   0.042   3.502
 6282SOL    HW119745   2.031   0.054   3.405
 6282SOL    HW219746   1.991   0.131   3.543
 6283SOL     OW19747   0.315   3.101   4.905
 6283SOL    HW119748   0.357   3.081   4.817
 6283SOL    HW219749   0.332   3.197   4.929
 6284SOL     OW19750   2.110   4.500   6.402
 6284SOL    HW119751   2.041   4.453   6.347
 6284SOL    HW219752   2.165   4.558   6.342
 6285SOL     OW19753   1.777   4.876   2.616
 6285SOL    HW119754   1.703   4.810   2.604
 6285SOL    HW219755   1.845   4.863   2.544
 6286SOL     OW19756   5.723   0.165   4.799
 6286SOL    HW119757   5.798   0.186   4.736
 6286SOL    HW219758   5.759   0.122   4.881
 6287SOL     OW19759   4.372   4.547   2.016
 6287SOL    HW119760   4.352   4.591   2.104
 6287SOL    HW219761   4.420   4.461   2.031
 6288SOL     OW19762   5.233   3.982   1.279
 6288SOL    HW119763   5.149   4.008   1.327
 6288SOL    HW219764   5.289   3.925   1.340
 6289SOL     OW19765   1.413   0.636   2.516
 6289SOL    HW119766   1.374   0.562   2.461
 6289SOL    HW219767   1.502   0.606   2.552
 6290SOL     OW19768   5.922   3.055   3.186
 6290SOL    HW119769   5.856   2.984   3.211
 6290SOL    HW219770   6.014   3.015   3.181
 6291SOL     OW19771   4.098   3.677   3.017
 6291SOL    HW119772   4.104   3.694   3.115
 6291SOL    HW219773   4.181   3.709   2.973
 6292SOL     OW19774   6.942   1.786   1.863
 6292SOL    HW119775   6.981   1.703   1.902
 6292SOL    HW219776   7.015   1.842   1.825
 6293SOL     OW19777   4.966   5.496   0.508
 6293SOL    HW119778   4.967   5.508   0.408
 6293SOL    HW219779   5.050   5.449   0.536
 6294SOL     OW19780   3.977   5.308   2.410
 6294SOL    HW119781   3.938   5.359   2.333
 6294SOL    HW219782   3.905   5.288   2.476
 6295SOL     OW19783   6.278   6.262   5.978
 6295SOL    HW119784   6.268   6.183   6.038
 6295SOL    HW219785   6.276   6.346   6.032
 6296SOL     OW19786   6.590   0.929   2.600
 6296SOL    HW119787   6.503   0.952   2.646
 6296SOL    HW219788   6.618   0.837   2.626
 6297SOL     OW19789   5.429   0.557   5.880
 6297SOL    HW119790   5.474   0.571   5.792
 6297SOL    HW219791   5.478   0.489   5.933
 6298SOL     OW19792   0.417   2.178   4.213
 6298SOL    HW119793   0.509   2.175   4.176
 6298SOL    HW219794   0.353   2.209   4.143
 6299SOL     OW19795   6.292   3.444   0.543
 6299SOL    HW119796   6.374   3.501   0.538
 6299SOL    HW219797   6.224   3.477   0.477
 6300SOL     OW19798   5.153   1.555   3.950
 6300SOL    HW119799   5.146   1.650   3.922
 6300SOL    HW219800   5.095   1.539   4.030
 6301SOL     OW19801   3.208   0.295   0.599
 6301SOL    HW119802   3.250   0.259   0.682
 6301SOL    HW219803   3.256   0.259   0.519
 6302SOL     OW19804   0.319   1.009   3.084
 6302SOL    HW119805   0.240   0.958   3.117
 6302SOL    HW219806   0.344   1.078   3.152
 6303SOL     OW19807   2.078   6.184   5.084
 6303SOL    HW119808   2.119   6.275   5.090
 6303SOL    HW219809   2.038   6.160   5.173
 6304SOL     OW19810   3.495   1.089   5.761
 6304SOL    HW119811   3.513   1.170   5.705
 6304SOL    HW219812   3.551   1.013   5.728
 6305SOL     OW19813   5.879   1.128   2.304
 6305SOL    HW119814   5.933   1.045   2.298
 6305SOL    HW219815   5.863   1.164   2.212
 6306SOL     OW19816   5.902   2.868   4.559
 6306SOL    HW119817   5.909   2.839   4.655
 6306SOL    HW219818   5.815   2.839   4.521
 6307SOL     OW19819   2.489   4.127   0.614
 6307SOL    HW119820   2.555   4.077   0.558
 6307SOL    HW219821   2.516   4.121   0.710
 6308SOL     OW19822   3.251   2.197   5.529
 6308SOL    HW119823   3.248   2.151   5.440
 6308SOL    HW219824   3.236   2.130   5.602
 6309SOL     OW19825   5.561   2.145   4.793
 6309SOL    HW119826   5.552   2.045   4.795
 6309SOL    HW219827   5.472   2.187   4.810
 6310SOL     OW19828   1.043   4.908   4.758
 6310SOL    HW119829   1.073   4.815   4.736
 6310SOL    HW219830   1.057   4.967   4.679
 6311SOL     OW19831   6.235   6.227   4.266
 6311SOL    HW119832   6.199   6.206   4.175
 6311SOL    HW219833   6.191   6.169   4.334
 6312SOL     OW19834   5.033   4.707   6.035
 6312SOL    HW119835   5.043   4.706   5.936
 6312SOL    HW219836   5.104   4.765   6.076
 6313SOL     OW19837   2.467   5.183   3.508
 6313SOL    HW119838   2.435   5.277   3.507
 6313SOL    HW219839   2.394   5.123   3.474
 6314SOL     OW19840   2.547   6.905   3.871
 6314SOL    HW119841   2.450   6.907   3.893
 6314SOL    HW219842   2.561   6.859   3.784
 6315SOL     OW19843   2.502   3.736   0.581
 6315SOL    HW119844   2.551   3.667   0.527
 6315SOL    HW219845   2.568   3.788   0.635
 6316SOL     OW19846   4.831   1.394   5.983
 6316SOL    HW119847   4.873   1.398   6.074
 6316SOL    HW219848   4.857   1.474   5.930
 6317SOL     OW19849   6.250   5.880   4.200
 6317SOL    HW119850   6.214   5.930   4.279
 6317SOL    HW219851   6.184   5.882   4.125
 6318SOL     OW19852   2.145   1.666   4.678
 6318SOL    HW119853   2.201   1.748   4.669
 6318SOL    HW219854   2.203   1.589   4.704
 6319SOL     OW19855   0.450   1.786   2.734
 6319SOL    HW119856   0.510   1.724   2.683
 6319SOL    HW219857   0.426   1.744   2.821
 6320SOL     OW19858   6.893   1.837   3.310
 6320SOL    HW119859   6.853   1.813   3.221
 6320SOL    HW219860   6.992   1.830   3.305
 6321SOL     OW19861   2.544   3.587   6.317
 6321SOL    HW119862   2.510   3.569   6.224
 6321SOL    HW219863   2.590   3.676   6.318
 6322SOL     OW19864   1.347   0.854   0.174
 6322SOL    HW119865   1.273   0.788   0.159
 6322SOL    HW219866   1.433   0.805   0.191
 6323SOL     OW19867   4.290   1.319   1.197
 6323SOL    HW119868   4.357   1.353   1.130
 6323SOL    HW219869   4.254   1.396   1.250
 6324SOL     OW19870   4.458   2.059   6.850
 6324SOL    HW119871   4.362   2.066   6.878
 6324SOL    HW219872   4.517   2.068   6.930
 6325SOL     OW19873   1.160   2.481   2.476
 6325SOL    HW119874   1.159   2.579   2.497
 6325SOL    HW219875   1.251   2.443   2.494
 6326SOL     OW19876   4.735   6.385   1.570
 6326SOL    HW119877   4.784   6.452   1.513
 6326SOL    HW219878   4.775   6.383   1.661
 6327SOL     OW19879   3.396   5.501   5.874
 6327SOL    HW119880   3.337   5.581   5.874
 6327SOL    HW219881   3.486   5.525   5.838
 6328SOL     OW19882   3.189   4.047   6.755
 6328SOL    HW119883   3.113   4.113   6.747
 6328SOL    HW219884   3.218   4.041   6.850
 6329SOL     OW19885   1.585   1.464   2.587
 6329SOL    HW119886   1.620   1.457   2.494
 6329SOL    HW219887   1.532   1.549   2.597
 6330SOL     OW19888   3.603   0.835   0.279
 6330SOL    HW119889   3.581   0.740   0.256
 6330SOL    HW219890   3.592   0.893   0.198
 6331SOL     OW19891   5.768   2.787   2.573
 6331SOL    HW119892   5.755   2.867   2.632
 6331SOL    HW219893   5.816   2.814   2.490
 6332SOL     OW19894   4.982   6.250   2.433
 6332SOL    HW119895   5.010   6.299   2.516
 6332SOL    HW219896   4.965   6.315   2.359
 6333SOL     OW19897   2.311   5.440   2.680
 6333SOL    HW119898   2.325   5.373   2.607
 6333SOL    HW219899   2.382   5.429   2.749
 6334SOL     OW19900   2.710   1.835   2.320
 6334SOL    HW119901   2.611   1.835   2.309
 6334SOL    HW219902   2.751   1.894   2.251
 6335SOL     OW19903   0.209   1.588   6.845
 6335SOL    HW119904   0.135   1.644   6.880
 6335SOL    HW219905   0.287   1.646   6.820
 6336SOL     OW19906   0.661   2.792   5.162
 6336SOL    HW119907   0.668   2.832   5.253
 6336SOL    HW219908   0.598   2.846   5.106
 6337SOL     OW19909   6.913   4.704   5.106
 6337SOL    HW119910   6.856   4.696   5.187
 6337SOL    HW219911   6.856   4.692   5.024
 6338SOL     OW19912   3.682   1.026   4.097
 6338SOL    HW119913   3.599   1.057   4.142
 6338SOL    HW219914   3.699   0.930   4.121
 6339SOL     OW19915   0.459   2.862   4.984
 6339SOL    HW119916   0.374   2.810   4.987
 6339SOL    HW219917   0.441   2.957   5.007
 6340SOL     OW19918   2.387   5.304   4.105
 6340SOL    HW119919   2.458   5.285   4.173
 6340SOL    HW219920   2.312   5.354   4.149
 6341SOL     OW19921   6.458   4.951   2.480
 6341SOL    HW119922   6.364   4.923   2.460
 6341SOL    HW219923   6.520   4.913   2.411
 6342SOL     OW19924   1.531   3.615   1.072
 6342SOL    HW119925   1.551   3.673   0.993
 6342SOL    HW219926   1.582   3.648   1.152
 6343SOL     OW19927   4.234   0.843   0.283
 6343SOL    HW119928   4.289   0.778   0.231
 6343SOL    HW219929   4.248   0.935   0.246
 6344SOL     OW19930   0.301   5.031   4.472
 6344SOL    HW119931   0.252   5.066   4.552
 6344SOL    HW219932   0.246   4.960   4.427
 6345SOL     OW19933   2.684   2.307   2.242
 6345SOL    HW119934   2.598   2.302   2.190
 6345SOL    HW219935   2.760   2.324   2.179
 6346SOL     OW19936   0.591   5.237   4.192
 6346SOL    HW119937   0.660   5.165   4.197
 6346SOL    HW219938   0.592   5.279   4.101
 6347SOL     OW19939   2.802   0.285   1.143
 6347SOL    HW119940   2.723   0.227   1.124
 6347SOL    HW219941   2.882   0.249   1.094
 6348SOL     OW19942   1.071   2.330   5.023
 6348SOL    HW119943   1.165   2.312   4.995
 6348SOL    HW219944   1.050   2.277   5.106
 6349SOL     OW19945   2.158   0.811   0.415
 6349SOL    HW119946   2.155   0.786   0.512
 6349SOL    HW219947   2.076   0.778   0.370
 6350SOL     OW19948   0.882   5.908   2.885
 6350SOL    HW119949   0.847   5.830   2.835
 6350SOL    HW219950   0.833   5.990   2.859
 6351SOL     OW19951   6.850   1.231   3.335
 6351SOL    HW119952   6.844   1.310   3.397
 6351SOL    HW219953   6.873   1.149   3.387
 6352SOL     OW19954   0.015   6.160   2.408
 6352SOL    HW119955   7.005   6.189   2.319
 6352SOL    HW219956   6.964   6.116   2.459
 6353SOL     OW19957   0.139   6.686   1.976
 6353SOL    HW119958   0.208   6.752   2.007
 6353SOL    HW219959   0.184   6.599   1.954
 6354SOL     OW19960   0.288   6.782   4.303
 6354SOL    HW119961   0.239   6.734   4.230
 6354SOL    HW219962   0.333   6.715   4.363
 6355SOL     OW19963   1.051   2.577   2.045
 6355SOL    HW119964   0.984   2.524   2.098
 6355SOL    HW219965   1.079   2.526   1.964
 6356SOL     OW19966   3.207   2.593   0.754
 6356SOL    HW119967   3.189   2.655   0.830
 6356SOL    HW219968   3.282   2.630   0.699
 6357SOL     OW19969   4.890   2.023   0.618
 6357SOL    HW119970   4.854   2.090   0.554
 6357SOL    HW219971   4.853   1.932   0.597
 6358SOL     OW19972   0.879   3.187   3.858
 6358SOL    HW119973   0.882   3.286   3.874
 6358SOL    HW219974   0.927   3.166   3.773
 6359SOL     OW19975   0.113   1.348   6.746
 6359SOL    HW119976   0.165   1.427   6.780
 6359SOL    HW219977   0.165   1.264   6.763
 6360SOL     OW19978   3.215   5.581   3.845
 6360SOL    HW119979   3.162   5.582   3.930
 6360SOL    HW219980   3.186   5.657   3.787
 6361SOL     OW19981   3.539   6.390   5.950
 6361SOL    HW119982   3.518   6.483   5.980
 6361SOL    HW219983   3.478   6.326   5.998
 6362SOL     OW19984   6.610   5.452   6.143
 6362SOL    HW119985   6.530   5.432   6.086
 6362SOL    HW219986   6.598   5.540   6.188
 6363SOL     OW19987   0.974   5.740   4.281
 6363SOL    HW119988   1.043   5.688   4.230
 6363SOL    HW219989   0.883   5.706   4.257
 6364SOL     OW19990   2.001   2.749   6.174
 6364SOL    HW119991   2.055   2.673   6.139
 6364SOL    HW219992   1.950   2.719   6.255
 6365SOL     OW19993   5.138   5.394   2.911
 6365SOL    HW119994   5.111   5.307   2.951
 6365SOL    HW219995   5.183   5.377   2.823
 6366SOL     OW19996   0.001   4.439   5.313
 6366SOL    HW119997   0.078   4.405   5.367
 6366SOL    HW219998   7.020   4.390   5.227
 6367SOL     OW19999   6.018   5.799   2.445
 6367SOL    HW120000   6.050   5.740   2.519
 6367SOL    HW220001   6.047   5.761   2.357
 6368SOL     OW20002   3.591   0.535   3.241
 6368SOL    HW120003   3.503   0.572   3.210
 6368SOL    HW220004   3.625   0.591   3.316
 6369SOL     OW20005   1.996   4.906   5.673
 6369SOL    HW120006   2.089   4.941   5.666
 6369SOL    HW220007   1.993   4.811   5.644
 6370SOL     OW20008   5.771   2.509   2.239
 6370SOL    HW120009   5.813   2.593   2.203
 6370SOL    HW220010   5.745   2.450   2.163
 6371SOL     OW20011   4.654   1.640   3.738
 6371SOL    HW120012   4.743   1.608   3.705
 6371SOL    HW220013   4.663   1.732   3.774
 6372SOL     OW20014   3.015   6.277   2.290
 6372SOL    HW120015   2.949   6.321   2.229
 6372SOL    HW220016   3.090   6.341   2.309
 6373SOL     OW20017   3.809   4.743   0.337
 6373SOL    HW120018   3.739   4.801   0.379
 6373SOL    HW220019   3.891   4.797   0.319
 6374SOL     OW20020   2.911   3.351   2.562
 6374SOL    HW120021   2.899   3.264   2.515
 6374SOL    HW220022   2.934   3.335   2.658
 6375SOL     OW20023   1.448   6.146   2.646
 6375SOL    HW120024   1.361   6.119   2.604
 6375SOL    HW220025   1.441   6.240   2.678
 6376SOL     OW20026   0.590   2.568   5.445
 6376SOL    HW120027   0.645   2.559   5.362
 6376SOL    HW220028   0.648   2.606   5.518
 6377SOL     OW20029   0.643   1.794   4.099
 6377SOL    HW120030   0.626   1.746   4.185
 6377SOL    HW220031   0.699   1.737   4.039
 6378SOL     OW20032   4.700   4.706   3.601
 6378SOL    HW120033   4.641   4.633   3.636
 6378SOL    HW220034   4.761   4.737   3.674
 6379SOL     OW20035   2.409   5.011   2.116
 6379SOL    HW120036   2.352   4.935   2.146
 6379SOL    HW220037   2.410   5.015   2.016
 6380SOL     OW20038   1.013   0.963   5.716
 6380SOL    HW120039   0.927   0.922   5.687
 6380SOL    HW220040   1.063   0.899   5.774
 6381SOL     OW20041   2.898   3.287   2.033
 6381SOL    HW120042   2.949   3.223   1.975
 6381SOL    HW220043   2.814   3.242   2.066
 6382SOL     OW20044   1.527   4.521   5.149
 6382SOL    HW120045   1.622   4.490   5.155
 6382SOL    HW220046   1.487   4.525   5.240
 6383SOL     OW20047   4.158   1.501   3.953
 6383SOL    HW120048   4.218   1.571   3.915
 6383SOL    HW220049   4.078   1.490   3.895
 6384SOL     OW20050   6.730   4.284   2.549
 6384SOL    HW120051   6.694   4.268   2.457
 6384SOL    HW220052   6.669   4.345   2.599
 6385SOL     OW20053   0.358   6.175   4.607
 6385SOL    HW120054   0.433   6.147   4.666
 6385SOL    HW220055   0.393   6.232   4.533
 6386SOL     OW20056   2.617   5.860   1.479
 6386SOL    HW120057   2.691   5.864   1.546
 6386SOL    HW220058   2.625   5.775   1.425
 6387SOL     OW20059   6.893   1.729   5.375
 6387SOL    HW120060   6.990   1.710   5.391
 6387SOL    HW220061   6.838   1.655   5.413
 6388SOL     OW20062   2.260   4.765   2.810
 6388SOL    HW120063   2.341   4.752   2.753
 6388SOL    HW220064   2.281   4.737   2.904
 6389SOL     OW20065   0.835   4.897   1.553
 6389SOL    HW120066   0.911   4.903   1.618
 6389SOL    HW220067   0.855   4.828   1.484
 6390SOL     OW20068   0.599   3.363   4.282
 6390SOL    HW120069   0.523   3.413   4.241
 6390SOL    HW220070   0.596   3.268   4.251
 6391SOL     OW20071   3.486   1.047   6.803
 6391SOL    HW120072   3.441   1.040   6.714
 6391SOL    HW220073   3.423   1.086   6.869
 6392SOL     OW20074   1.437   6.291   4.084
 6392SOL    HW120075   1.451   6.193   4.069
 6392SOL    HW220076   1.339   6.309   4.097
 6393SOL     OW20077   5.300   1.022   0.878
 6393SOL    HW120078   5.282   1.032   0.780
 6393SOL    HW220079   5.275   1.107   0.925
 6394SOL     OW20080   3.236   4.888   1.792
 6394SOL    HW120081   3.259   4.795   1.764
 6394SOL    HW220082   3.180   4.885   1.875
 6395SOL     OW20083   5.942   1.581   0.696
 6395SOL    HW120084   5.845   1.604   0.707
 6395SOL    HW220085   5.962   1.567   0.599
 6396SOL     OW20086   6.114   3.484   5.389
 6396SOL    HW120087   6.026   3.531   5.388
 6396SOL    HW220088   6.150   3.482   5.483
 6397SOL     OW20089   6.895   0.937   7.022
 6397SOL    HW120090   6.839   1.007   0.043
 6397SOL    HW220091   6.935   0.975   6.938
 6398SOL     OW20092   4.176   0.679   1.582
 6398SOL    HW120093   4.147   0.756   1.525
 6398SOL    HW220094   4.275   0.667   1.573
 6399SOL     OW20095   2.663   6.078   6.570
 6399SOL    HW120096   2.734   6.138   6.606
 6399SOL    HW220097   2.693   6.041   6.482
 6400SOL     OW20098   3.012   5.189   4.159
 6400SOL    HW120099   3.006   5.212   4.256
 6400SOL    HW220100   2.953   5.250   4.107
 6401SOL     OW20101   1.387   4.305   4.776
 6401SOL    HW120102   1.419   4.328   4.868
 6401SOL    HW220103   1.295   4.267   4.780
 6402SOL     OW20104   1.903   2.498   2.733
 6402SOL    HW120105   1.938   2.556   2.659
 6402SOL    HW220106   1.975   2.483   2.801
 6403SOL     OW20107   0.881   6.179   1.455
 6403SOL    HW120108   0.970   6.209   1.420
 6403SOL    HW220109   0.866   6.220   1.545
 6404SOL     OW20110   4.876   0.907   3.288
 6404SOL    HW120111   4.839   0.973   3.222
 6404SOL    HW220112   4.870   0.945   3.380
 6405SOL     OW20113   2.951   1.283   1.314
 6405SOL    HW120114   2.955   1.312   1.409
 6405SOL    HW220115   2.859   1.296   1.279
 6406SOL     OW20116   2.860   2.060   3.374
 6406SOL    HW120117   2.888   2.120   3.448
 6406SOL    HW220118   2.800   2.109   3.311
 6407SOL     OW20119   4.542   5.698   6.233
 6407SOL    HW120120   4.512   5.794   6.229
 6407SOL    HW220121   4.566   5.675   6.327
 6408SOL     OW20122   6.094   2.021   0.407
 6408SOL    HW120123   6.089   1.992   0.311
 6408SOL    HW220124   6.021   1.977   0.459
 6409SOL     OW20125   1.257   4.660   2.040
 6409SOL    HW120126   1.184   4.592   2.040
 6409SOL    HW220127   1.234   4.735   2.101
 6410SOL     OW20128   1.169   1.004   1.964
 6410SOL    HW120129   1.260   0.998   1.924
 6410SOL    HW220130   1.177   1.030   2.060
 6411SOL     OW20131   1.658   0.888   3.574
 6411SOL    HW120132   1.637   0.986   3.578
 6411SOL    HW220133   1.589   0.841   3.519
 6412SOL     OW20134   6.671   2.486   4.643
 6412SOL    HW120135   6.621   2.404   4.619
 6412SOL    HW220136   6.750   2.497   4.582
 6413SOL     OW20137   0.438   4.822   0.468
 6413SOL    HW120138   0.488   4.752   0.416
 6413SOL    HW220139   0.410   4.896   0.406
 6414SOL     OW20140   6.341   6.786   2.515
 6414SOL    HW120141   6.338   6.790   2.415
 6414SOL    HW220142   6.266   6.731   2.549
 6415SOL     OW20143   1.408   1.627   2.201
 6415SOL    HW120144   1.446   1.720   2.193
 6415SOL    HW220145   1.371   1.599   2.113
 6416SOL     OW20146   2.252   6.336   6.203
 6416SOL    HW120147   2.252   6.397   6.283
 6416SOL    HW220148   2.322   6.266   6.215
 6417SOL     OW20149   0.182   6.602   3.130
 6417SOL    HW120150   0.159   6.572   3.223
 6417SOL    HW220151   0.246   6.537   3.089
 6418SOL     OW20152   6.736   5.767   2.572
 6418SOL    HW120153   6.704   5.763   2.477
 6418SOL    HW220154   6.699   5.690   2.624
 6419SOL     OW20155   2.579   3.540   1.249
 6419SOL    HW120156   2.579   3.515   1.153
 6419SOL    HW220157   2.594   3.639   1.258
 6420SOL     OW20158   0.825   3.282   6.984
 6420SOL    HW120159   0.904   3.337   6.958
 6420SOL    HW220160   0.828   3.194   6.936
 6421SOL     OW20161   6.225   2.348   0.802
 6421SOL    HW120162   6.277   2.426   0.767
 6421SOL    HW220163   6.160   2.379   0.872
 6422SOL     OW20164   6.329   1.975   3.682
 6422SOL    HW120165   6.281   2.056   3.648
 6422SOL    HW220166   6.265   1.900   3.693
 6423SOL     OW20167   4.566   4.070   0.995
 6423SOL    HW120168   4.548   4.043   0.901
 6423SOL    HW220169   4.542   4.167   1.008
 6424SOL     OW20170   6.354   4.505   5.064
 6424SOL    HW120171   6.313   4.494   5.155
 6424SOL    HW220172   6.427   4.573   5.069
 6425SOL     OW20173   0.656   5.243   1.251
 6425SOL    HW120174   0.616   5.294   1.175
 6425SOL    HW220175   0.756   5.254   1.250
 6426SOL     OW20176   6.829   2.715   3.501
 6426SOL    HW120177   6.926   2.723   3.526
 6426SOL    HW220178   6.801   2.620   3.512
 6427SOL     OW20179   1.154   3.011   5.851
 6427SOL    HW120180   1.075   2.950   5.857
 6427SOL    HW220181   1.135   3.085   5.787
 6428SOL     OW20182   6.945   3.175   4.113
 6428SOL    HW120183   6.938   3.275   4.118
 6428SOL    HW220184   0.002   3.149   4.061
 6429SOL     OW20185   0.518   1.526   4.709
 6429SOL    HW120186   0.493   1.438   4.669
 6429SOL    HW220187   0.612   1.522   4.742
 6430SOL     OW20188   6.189   3.420   6.839
 6430SOL    HW120189   6.188   3.458   6.932
 6430SOL    HW220190   6.284   3.409   6.810
 6431SOL     OW20191   5.475   1.023   3.319
 6431SOL    HW120192   5.391   0.997   3.270
 6431SOL    HW220193   5.536   1.071   3.255
 6432SOL     OW20194   5.795   3.245   0.506
 6432SOL    HW120195   5.846   3.329   0.488
 6432SOL    HW220196   5.701   3.256   0.472
 6433SOL     OW20197   2.552   3.647   1.656
 6433SOL    HW120198   2.469   3.694   1.625
 6433SOL    HW220199   2.618   3.714   1.689
 6434SOL     OW20200   2.206   5.435   0.128
 6434SOL    HW120201   2.269   5.386   0.068
 6434SOL    HW220202   2.184   5.524   0.088
 6435SOL     OW20203   4.566   3.929   0.737
 6435SOL    HW120204   4.661   3.902   0.752
 6435SOL    HW220205   4.511   3.847   0.718
 6436SOL     OW20206   1.562   2.397   2.478
 6436SOL    HW120207   1.521   2.471   2.425
 6436SOL    HW220208   1.660   2.396   2.464
 6437SOL     OW20209   0.357   0.689   6.816
 6437SOL    HW120210   0.439   0.694   6.759
 6437SOL    HW220211   0.292   0.624   6.777
 6438SOL     OW20212   0.934   4.060   3.897
 6438SOL    HW120213   0.891   4.000   3.964
 6438SOL    HW220214   0.935   4.015   3.807
 6439SOL     OW20215   0.345   6.269   1.679
 6439SOL    HW120216   0.390   6.356   1.700
 6439SOL    HW220217   0.406   6.213   1.623
 6440SOL     OW20218   0.426   0.808   1.923
 6440SOL    HW120219   0.399   0.783   1.830
 6440SOL    HW220220   0.422   0.907   1.934
 6441SOL     OW20221   4.171   1.943   3.370
 6441SOL    HW120222   4.136   1.884   3.443
 6441SOL    HW220223   4.135   2.035   3.382
 6442SOL     OW20224   3.652   0.095   3.098
 6442SOL    HW120225   3.736   0.124   3.143
 6442SOL    HW220226   3.596   0.042   3.162
 6443SOL     OW20227   2.471   0.718   0.170
 6443SOL    HW120228   2.406   0.735   0.096
 6443SOL    HW220229   2.422   0.714   0.257
 6444SOL     OW20230   0.492   0.898   3.332
 6444SOL    HW120231   0.461   0.993   3.341
 6444SOL    HW220232   0.545   0.888   3.247
 6445SOL     OW20233   3.609   3.640   5.567
 6445SOL    HW120234   3.591   3.637   5.468
 6445SOL    HW220235   3.678   3.572   5.591
 6446SOL     OW20236   6.716   2.011   0.925
 6446SOL    HW120237   6.639   1.948   0.915
 6446SOL    HW220238   6.698   2.094   0.872
 6447SOL     OW20239   1.721   6.958   2.957
 6447SOL    HW120240   1.641   6.914   2.916
 6447SOL    HW220241   1.698   0.027   2.984
 6448SOL     OW20242   6.759   2.281   2.153
 6448SOL    HW120243   6.756   2.354   2.085
 6448SOL    HW220244   6.709   2.310   2.235
 6449SOL     OW20245   3.585   2.619   1.136
 6449SOL    HW120246   3.566   2.525   1.108
 6449SOL    HW220247   3.656   2.620   1.207
 6450SOL     OW20248   6.951   2.964   6.307
 6450SOL    HW120249   0.013   3.001   6.343
 6450SOL    HW220250   6.903   2.915   6.379
 6451SOL     OW20251   2.482   6.537   4.108
 6451SOL    HW120252   2.409   6.507   4.045
 6451SOL    HW220253   2.444   6.600   4.175
 6452SOL     OW20254   4.042   6.144   3.369
 6452SOL    HW120255   3.963   6.084   3.366
 6452SOL    HW220256   4.055   6.187   3.279
 6453SOL     OW20257   2.365   4.226   6.397
 6453SOL    HW120258   2.322   4.274   6.320
 6453SOL    HW220259   2.308   4.150   6.426
 6454SOL     OW20260   3.624   1.159   4.810
 6454SOL    HW120261   3.634   1.211   4.895
 6454SOL    HW220262   3.655   1.215   4.733
 6455SOL     OW20263   6.050   2.744   5.769
 6455SOL    HW120264   5.991   2.749   5.688
 6455SOL    HW220265   6.123   2.812   5.761
 6456SOL     OW20266   6.775   0.918   4.935
 6456SOL    HW120267   6.762   1.011   4.969
 6456SOL    HW220268   6.686   0.876   4.915
 6457SOL     OW20269   6.293   2.763   2.719
 6457SOL    HW120270   6.370   2.732   2.663
 6457SOL    HW220271   6.280   2.862   2.706
 6458SOL     OW20272   1.281   6.535   3.382
 6458SOL    HW120273   1.255   6.443   3.411
 6458SOL    HW220274   1.297   6.536   3.284
 6459SOL     OW20275   5.362   4.998   0.990
 6459SOL    HW120276   5.424   5.022   0.914
 6459SOL    HW220277   5.334   4.902   0.980
 6460SOL     OW20278   2.838   4.614   0.755
 6460SOL    HW120279   2.917   4.564   0.719
 6460SOL    HW220280   2.852   4.712   0.743
 6461SOL     OW20281   3.338   5.681   5.209
 6461SOL    HW120282   3.435   5.679   5.187
 6461SOL    HW220283   3.324   5.730   5.295
 6462SOL     OW20284   2.222   3.052   3.477
 6462SOL    HW120285   2.247   3.089   3.387
 6462SOL    HW220286   2.130   3.013   3.472
 6463SOL     OW20287   1.261   4.417   5.593
 6463SOL    HW120288   1.250   4.411   5.494
 6463SOL    HW220289   1.187   4.368   5.638
 6464SOL     OW20290   0.992   5.376   2.609
 6464SOL    HW120291   1.060   5.318   2.653
 6464SOL    HW220292   0.969   5.453   2.668
 6465SOL     OW20293   6.461   1.040   3.087
 6465SOL    HW120294   6.383   1.009   3.141
 6465SOL    HW220295   6.535   0.972   3.093
 6466SOL     OW20296   0.431   3.027   5.255
 6466SOL    HW120297   0.494   3.061   5.185
 6466SOL    HW220298   0.381   3.104   5.295
 6467SOL     OW20299   2.877   0.830   6.035
 6467SOL    HW120300   2.834   0.778   6.109
 6467SOL    HW220301   2.956   0.779   6.001
 6468SOL     OW20302   4.905   4.581   1.299
 6468SOL    HW120303   4.970   4.633   1.244
 6468SOL    HW220304   4.947   4.558   1.387
 6469SOL     OW20305   6.620   1.037   6.160
 6469SOL    HW120306   6.616   0.984   6.075
 6469SOL    HW220307   6.533   1.085   6.173
 6470SOL     OW20308   6.475   6.087   5.166
 6470SOL    HW120309   6.382   6.065   5.196
 6470SOL    HW220310   6.540   6.029   5.214
 6471SOL     OW20311   5.341   5.745   5.663
 6471SOL    HW120312   5.332   5.666   5.723
 6471SOL    HW220313   5.290   5.822   5.701
 6472SOL     OW20314   1.260   6.041   1.242
 6472SOL    HW120315   1.316   5.968   1.281
 6472SOL    HW220316   1.318   6.120   1.221
 6473SOL     OW20317   2.718   0.886   5.235
 6473SOL    HW120318   2.622   0.858   5.232
 6473SOL    HW220319   2.728   0.963   5.298
 6474SOL     OW20320   2.684   3.520   5.624
 6474SOL    HW120321   2.676   3.541   5.526
 6474SOL    HW220322   2.743   3.587   5.668
 6475SOL     OW20323   4.677   5.982   4.091
 6475SOL    HW120324   4.738   5.947   4.019
 6475SOL    HW220325   4.588   6.004   4.051
 6476SOL     OW20326   5.303   4.788   2.689
 6476SOL    HW120327   5.316   4.750   2.597
 6476SOL    HW220328   5.359   4.870   2.700
 6477SOL     OW20329   6.775   6.661   0.355
 6477SOL    HW120330   6.844   6.650   0.426
 6477SOL    HW220331   6.743   6.756   0.354
 6478SOL     OW20332   5.378   6.225   1.115
 6478SOL    HW120333   5.289   6.264   1.091
 6478SOL    HW220334   5.378   6.127   1.098
 6479SOL     OW20335   4.203   6.018   2.799
 6479SOL    HW120336   4.185   5.949   2.729
 6479SOL    HW220337   4.131   6.088   2.795
 6480SOL     OW20338   2.444   1.173   0.806
 6480SOL    HW120339   2.450   1.151   0.708
 6480SOL    HW220340   2.519   1.129   0.855
 6481SOL     OW20341   4.699   0.785   1.160
 6481SOL    HW120342   4.789   0.828   1.154
 6481SOL    HW220343   4.660   0.802   1.251
 6482SOL     OW20344   0.148   0.497   6.758
 6482SOL    HW120345   0.117   0.564   6.827
 6482SOL    HW220346   0.211   0.432   6.801
 6483SOL     OW20347   2.201   5.383   1.800
 6483SOL    HW120348   2.166   5.299   1.844
 6483SOL    HW220349   2.229   5.448   1.871
 6484SOL     OW20350   5.465   6.266   3.570
 6484SOL    HW120351   5.545   6.284   3.512
 6484SOL    HW220352   5.465   6.170   3.597
 6485SOL     OW20353   1.113   2.833   3.125
 6485SOL    HW120354   1.115   2.752   3.067
 6485SOL    HW220355   1.046   2.898   3.090
 6486SOL     OW20356   1.621   3.281   3.233
 6486SOL    HW120357   1.579   3.307   3.147
 6486SOL    HW220358   1.714   3.248   3.217
 6487SOL     OW20359   5.798   5.591   3.538
 6487SOL    HW120360   5.740   5.544   3.471
 6487SOL    HW220361   5.891   5.599   3.503
 6488SOL     OW20362   3.242   4.896   5.290
 6488SOL    HW120363   3.267   4.991   5.310
 6488SOL    HW220364   3.171   4.895   5.219
 6489SOL     OW20365   2.504   1.777   5.359
 6489SOL    HW120366   2.527   1.807   5.452
 6489SOL    HW220367   2.470   1.855   5.307
 6490SOL     OW20368   4.947   1.541   0.643
 6490SOL    HW120369   4.921   1.445   0.651
 6490SOL    HW220370   4.948   1.583   0.733
 6491SOL     OW20371   4.200   1.001   6.482
 6491SOL    HW120372   4.153   1.021   6.568
 6491SOL    HW220373   4.270   1.070   6.465
 6492SOL     OW20374   5.851   5.979   6.504
 6492SOL    HW120375   5.762   6.003   6.543
 6492SOL    HW220376   5.920   5.976   6.577
 6493SOL     OW20377   0.910   6.351   5.368
 6493SOL    HW120378   0.975   6.291   5.322
 6493SOL    HW220379   0.961   6.418   5.423
 6494SOL     OW20380   1.340   0.106   3.540
 6494SOL    HW120381   1.320   0.196   3.579
 6494SOL    HW220382   1.434   0.104   3.507
 6495SOL     OW20383   5.567   5.139   2.300
 6495SOL    HW120384   5.533   5.227   2.332
 6495SOL    HW220385   5.497   5.069   2.313
 6496SOL     OW20386   0.778   6.663   2.795
 6496SOL    HW120387   0.830   6.736   2.838
 6496SOL    HW220388   0.707   6.631   2.858
 6497SOL     OW20389   0.485   5.630   0.171
 6497SOL    HW120390   0.419   5.587   0.233
 6497SOL    HW220391   0.455   5.618   0.076
 6498SOL     OW20392   1.358   4.544   3.962
 6498SOL    HW120393   1.435   4.509   3.908
 6498SOL    HW220394   1.320   4.470   4.018
 6499SOL     OW20395   5.796   0.845   4.104
 6499SOL    HW120396   5.735   0.910   4.060
 6499SOL    HW220397   5.825   0.880   4.193
 6500SOL     OW20398   5.525   5.198   3.435
 6500SOL    HW120399   5.505   5.175   3.340
 6500SOL    HW220400   5.518   5.116   3.492
 6501SOL     OW20401   0.178   3.523   0.887
 6501SOL    HW120402   0.136   3.433   0.875
 6501SOL    HW220403   0.195   3.539   0.984
 6502SOL     OW20404   1.107   4.855   2.187
 6502SOL    HW120405   1.061   4.812   2.265
 6502SOL    HW220406   1.162   4.932   2.219
 6503SOL     OW20407   4.469   0.149   4.247
 6503SOL    HW120408   4.532   0.072   4.238
 6503SOL    HW220409   4.431   0.151   4.339
 6504SOL     OW20410   1.828   0.946   0.415
 6504SOL    HW120411   1.818   0.850   0.390
 6504SOL    HW220412   1.807   0.957   0.512
 6505SOL     OW20413   5.173   5.422   0.667
 6505SOL    HW120414   5.232   5.344   0.647
 6505SOL    HW220415   5.197   5.459   0.757
 6506SOL     OW20416   1.762   1.722   0.554
 6506SOL    HW120417   1.663   1.705   0.550
 6506SOL    HW220418   1.779   1.819   0.537
 6507SOL     OW20419   3.069   0.672   1.929
 6507SOL    HW120420   2.999   0.699   1.995
 6507SOL    HW220421   3.072   0.572   1.921
 6508SOL     OW20422   2.736   1.399   1.776
 6508SOL    HW120423   2.717   1.490   1.811
 6508SOL    HW220424   2.650   1.347   1.770
 6509SOL     OW20425   0.743   2.703   3.914
 6509SOL    HW120426   0.768   2.748   4.000
 6509SOL    HW220427   0.821   2.706   3.851
 6510SOL     OW20428   5.459   5.339   6.469
 6510SOL    HW120429   5.488   5.396   6.393
 6510SOL    HW220430   5.485   5.383   6.555
 6511SOL     OW20431   6.247   5.840   5.650
 6511SOL    HW120432   6.333   5.841   5.700
 6511SOL    HW220433   6.220   5.746   5.632
 6512SOL     OW20434   5.176   6.234   3.551
 6512SOL    HW120435   5.274   6.249   3.542
 6512SOL    HW220436   5.139   6.198   3.466
 6513SOL     OW20437   2.298   6.769   2.941
 6513SOL    HW120438   2.319   6.840   3.008
 6513SOL    HW220439   2.269   6.811   2.855
 6514SOL     OW20440   3.322   0.114   3.870
 6514SOL    HW120441   3.293   0.062   3.950
 6514SOL    HW220442   3.318   0.212   3.891
 6515SOL     OW20443   0.728   0.906   3.985
 6515SOL    HW120444   0.781   0.827   3.954
 6515SOL    HW220445   0.738   0.916   4.084
 6516SOL     OW20446   1.600   1.704   5.821
 6516SOL    HW120447   1.555   1.782   5.779
 6516SOL    HW220448   1.538   1.626   5.821
 6517SOL     OW20449   1.397   1.900   0.203
 6517SOL    HW120450   1.379   1.802   0.197
 6517SOL    HW220451   1.347   1.948   0.132
 6518SOL     OW20452   5.695   6.068   0.549
 6518SOL    HW120453   5.712   5.992   0.486
 6518SOL    HW220454   5.770   6.133   0.544
 6519SOL     OW20455   1.555   2.013   3.465
 6519SOL    HW120456   1.550   1.919   3.431
 6519SOL    HW220457   1.575   2.075   3.389
 6520SOL     OW20458   6.032   5.406   1.810
 6520SOL    HW120459   5.994   5.430   1.720
 6520SOL    HW220460   5.963   5.357   1.863
 6521SOL     OW20461   1.601   2.340   5.110
 6521SOL    HW120462   1.542   2.260   5.115
 6521SOL    HW220463   1.654   2.348   5.195
 6522SOL     OW20464   2.827   5.691   4.605
 6522SOL    HW120465   2.777   5.708   4.689
 6522SOL    HW220466   2.834   5.592   4.589
 6523SOL     OW20467   1.916   2.428   6.836
 6523SOL    HW120468   1.932   2.405   6.932
 6523SOL    HW220469   1.988   2.390   6.780
 6524SOL     OW20470   3.735   3.869   4.653
 6524SOL    HW120471   3.820   3.818   4.663
 6524SOL    HW220472   3.674   3.821   4.589
 6525SOL     OW20473   0.512   2.578   4.330
 6525SOL    HW120474   0.610   2.598   4.328
 6525SOL    HW220475   0.481   2.553   4.239
 6526SOL     OW20476   1.591   5.416   4.395
 6526SOL    HW120477   1.573   5.362   4.477
 6526SOL    HW220478   1.573   5.360   4.314
 6527SOL     OW20479   2.573   0.852   3.873
 6527SOL    HW120480   2.658   0.820   3.915
 6527SOL    HW220481   2.502   0.859   3.943
 6528SOL     OW20482   6.983   6.748   3.127
 6528SOL    HW120483   6.939   6.702   3.204
 6528SOL    HW220484   0.048   6.705   3.108
 6529SOL     OW20485   6.320   2.803   1.772
 6529SOL    HW120486   6.305   2.902   1.775
 6529SOL    HW220487   6.412   2.782   1.805
 6530SOL     OW20488   0.259   1.828   0.305
 6530SOL    HW120489   0.319   1.790   0.375
 6530SOL    HW220490   0.297   1.808   0.214
 6531SOL     OW20491   5.054   2.773   4.673
 6531SOL    HW120492   5.119   2.847   4.688
 6531SOL    HW220493   5.004   2.755   4.758
 6532SOL     OW20494   1.351   2.436   0.041
 6532SOL    HW120495   1.402   2.388   0.112
 6532SOL    HW220496   1.257   2.451   0.072
 6533SOL     OW20497   4.295   0.858   1.191
 6533SOL    HW120498   4.279   0.761   1.205
 6533SOL    HW220499   4.371   0.870   1.126
 6534SOL     OW20500   1.640   3.299   0.066
 6534SOL    HW120501   1.678   3.209   0.091
 6534SOL    HW220502   1.715   3.364   0.055
 6535SOL     OW20503   2.226   3.686   5.517
 6535SOL    HW120504   2.279   3.732   5.446
 6535SOL    HW220505   2.137   3.730   5.527
 6536SOL     OW20506   6.830   2.388   6.821
 6536SOL    HW120507   6.844   2.441   6.904
 6536SOL    HW220508   6.732   2.387   6.799
 6537SOL     OW20509   0.807   0.164   0.201
 6537SOL    HW120510   0.715   0.203   0.208
 6537SOL    HW220511   0.832   0.123   0.289
 6538SOL     OW20512   1.616   2.961   6.293
 6538SOL    HW120513   1.591   2.888   6.229
 6538SOL    HW220514   1.640   3.043   6.242
 6539SOL     OW20515   2.578   1.632   6.116
 6539SOL    HW120516   2.514   1.699   6.079
 6539SOL    HW220517   2.553   1.611   6.211
 6540SOL     OW20518   3.285   2.189   3.920
 6540SOL    HW120519   3.296   2.160   4.016
 6540SOL    HW220520   3.188   2.203   3.901
 6541SOL     OW20521   2.760   2.565   5.273
 6541SOL    HW120522   2.819   2.494   5.311
 6541SOL    HW220523   2.783   2.653   5.315
 6542SOL     OW20524   6.444   4.520   3.699
 6542SOL    HW120525   6.347   4.538   3.714
 6542SOL    HW220526   6.457   4.471   3.613
 6543SOL     OW20527   0.754   5.344   6.311
 6543SOL    HW120528   0.727   5.278   6.241
 6543SOL    HW220529   0.696   5.332   6.392
 6544SOL     OW20530   6.521   6.464   2.898
 6544SOL    HW120531   6.566   6.504   2.978
 6544SOL    HW220532   6.436   6.421   2.926
 6545SOL     OW20533   5.577   3.000   6.158
 6545SOL    HW120534   5.565   2.909   6.116
 6545SOL    HW220535   5.541   2.998   6.251
 6546SOL     OW20536   3.414   4.967   6.000
 6546SOL    HW120537   3.443   4.927   5.913
 6546SOL    HW220538   3.424   5.066   5.997
 6547SOL     OW20539   5.180   0.903   0.003
 6547SOL    HW120540   5.144   0.969   6.960
 6547SOL    HW220541   5.202   0.817   6.981
 6548SOL     OW20542   6.120   4.212   5.274
 6548SOL    HW120543   6.091   4.131   5.324
 6548SOL    HW220544   6.058   4.288   5.294
 6549SOL     OW20545   2.665   1.071   2.352
 6549SOL    HW120546   2.678   1.134   2.276
 6549SOL    HW220547   2.754   1.044   2.389
 6550SOL     OW20548   0.709   5.174   3.506
 6550SOL    HW120549   0.624   5.172   3.558
 6550SOL    HW220550   0.770   5.243   3.545
 6551SOL     OW20551   2.712   4.831   1.866
 6551SOL    HW120552   2.781   4.902   1.854
 6551SOL    HW220553   2.755   4.748   1.901
 6552SOL     OW20554   4.748   5.315   6.587
 6552SOL    HW120555   4.797   5.329   6.501
 6552SOL    HW220556   4.678   5.244   6.575
 6553SOL     OW20557   6.743   3.189   2.962
 6553SOL    HW120558   6.751   3.288   2.956
 6553SOL    HW220559   6.660   3.165   3.013
 6554SOL     OW20560   0.253   3.776   4.794
 6554SOL    HW120561   0.202   3.736   4.718
 6554SOL    HW220562   0.306   3.704   4.839
 6555SOL     OW20563   0.603   1.075   2.174
 6555SOL    HW120564   0.672   1.128   2.223
 6555SOL    HW220565   0.648   1.012   2.111
 6556SOL     OW20566   3.297   0.498   3.840
 6556SOL    HW120567   3.251   0.449   3.914
 6556SOL    HW220568   3.243   0.578   3.814
 6557SOL     OW20569   5.690   6.604   0.783
 6557SOL    HW120570   5.786   6.585   0.802
 6557SOL    HW220571   5.646   6.522   0.746
 6558SOL     OW20572   6.856   6.095   6.492
 6558SOL    HW120573   6.907   6.180   6.479
 6558SOL    HW220574   6.875   6.058   6.583
 6559SOL     OW20575   3.631   2.890   1.037
 6559SOL    HW120576   3.552   2.951   1.036
 6559SOL    HW220577   3.604   2.799   1.069
 6560SOL     OW20578   3.477   1.749   0.691
 6560SOL    HW120579   3.465   1.762   0.789
 6560SOL    HW220580   3.531   1.667   0.674
 6561SOL     OW20581   3.516   4.087   4.072
 6561SOL    HW120582   3.594   4.083   4.134
 6561SOL    HW220583   3.443   4.142   4.113
 6562SOL     OW20584   6.324   3.707   5.397
 6562SOL    HW120585   6.414   3.683   5.433
 6562SOL    HW220586   6.253   3.656   5.445
 6563SOL     OW20587   0.870   5.074   2.973
 6563SOL    HW120588   0.913   5.007   3.033
 6563SOL    HW220589   0.780   5.040   2.945
 6564SOL     OW20590   1.064   6.183   3.260
 6564SOL    HW120591   1.011   6.264   3.285
 6564SOL    HW220592   1.156   6.210   3.231
 6565SOL     OW20593   6.548   3.521   5.252
 6565SOL    HW120594   6.574   3.450   5.186
 6565SOL    HW220595   6.578   3.493   5.344
 6566SOL     OW20596   3.525   6.911   0.613
 6566SOL    HW120597   3.513   6.907   0.713
 6566SOL    HW220598   3.518   7.006   0.583
 6567SOL     OW20599   6.131   3.182   1.469
 6567SOL    HW120600   6.189   3.241   1.526
 6567SOL    HW220601   6.103   3.232   1.387
 6568SOL     OW20602   4.224   3.729   1.306
 6568SOL    HW120603   4.244   3.754   1.401
 6568SOL    HW220604   4.230   3.810   1.248
 6569SOL     OW20605   0.880   4.783   6.524
 6569SOL    HW120606   0.840   4.851   6.464
 6569SOL    HW220607   0.808   4.735   6.573
 6570SOL     OW20608   6.235   3.386   1.628
 6570SOL    HW120609   6.165   3.441   1.582
 6570SOL    HW220610   6.309   3.446   1.660
 6571SOL     OW20611   2.784   6.396   3.635
 6571SOL    HW120612   2.753   6.353   3.720
 6571SOL    HW220613   2.751   6.490   3.632
 6572SOL     OW20614   1.290   4.373   6.295
 6572SOL    HW120615   1.311   4.353   6.391
 6572SOL    HW220616   1.192   4.391   6.285
 6573SOL     OW20617   1.568   1.844   2.122
 6573SOL    HW120618   1.596   1.908   2.194
 6573SOL    HW220619   1.543   1.894   2.040
 6574SOL     OW20620   1.794   4.717   3.886
 6574SOL    HW120621   1.782   4.619   3.876
 6574SOL    HW220622   1.777   4.743   3.981
 6575SOL     OW20623   2.198   1.107   2.270
 6575SOL    HW120624   2.115   1.054   2.289
 6575SOL    HW220625   2.264   1.049   2.222
 6576SOL     OW20626   1.163   6.345   4.090
 6576SOL    HW120627   1.119   6.256   4.080
 6576SOL    HW220628   1.130   6.407   4.019
 6577SOL     OW20629   6.617   3.298   5.046
 6577SOL    HW120630   6.520   3.311   5.025
 6577SOL    HW220631   6.665   3.266   4.964
 6578SOL     OW20632   6.817   5.434   3.507
 6578SOL    HW120633   6.806   5.449   3.606
 6578SOL    HW220634   6.826   5.522   3.461
 6579SOL     OW20635   1.109   3.954   2.934
 6579SOL    HW120636   1.121   3.957   2.834
 6579SOL    HW220637   1.083   4.044   2.967
 6580SOL     OW20638   5.758   2.458   1.393
 6580SOL    HW120639   5.781   2.436   1.488
 6580SOL    HW220640   5.760   2.374   1.338
 6581SOL     OW20641   2.299   2.683   5.514
 6581SOL    HW120642   2.286   2.781   5.504
 6581SOL    HW220643   2.353   2.649   5.436
 6582SOL     OW20644   6.965   0.562   2.074
 6582SOL    HW120645   6.877   0.564   2.026
 6582SOL    HW220646   6.964   0.629   2.148
 6583SOL     OW20647   5.466   2.147   5.590
 6583SOL    HW120648   5.546   2.192   5.551
 6583SOL    HW220649   5.494   2.062   5.635
 6584SOL     OW20650   5.613   2.189   6.986
 6584SOL    HW120651   5.710   2.209   7.003
 6584SOL    HW220652   5.565   2.274   6.966
 6585SOL     OW20653   2.446   0.961   1.492
 6585SOL    HW120654   2.404   1.046   1.460
 6585SOL    HW220655   2.539   0.979   1.523
 6586SOL     OW20656   6.901   1.486   6.679
 6586SOL    HW120657   6.954   1.407   6.707
 6586SOL    HW220658   6.854   1.525   6.758
 6587SOL     OW20659   1.781   6.833   2.664
 6587SOL    HW120660   1.820   6.817   2.755
 6587SOL    HW220661   1.684   6.809   2.665
 6588SOL     OW20662   2.231   2.581   0.001
 6588SOL    HW120663   2.322   2.616   7.005
 6588SOL    HW220664   2.203   2.518   6.952
 6589SOL     OW20665   5.481   1.610   5.590
 6589SOL    HW120666   5.383   1.602   5.576
 6589SOL    HW220667   5.512   1.537   5.653
 6590SOL     OW20668   6.382   1.055   5.791
 6590SOL    HW120669   6.467   1.090   5.750
 6590SOL    HW220670   6.393   0.958   5.811
 6591SOL     OW20671   5.263   0.741   2.711
 6591SOL    HW120672   5.289   0.790   2.794
 6591SOL    HW220673   5.306   0.784   2.632
 6592SOL     OW20674   5.477   5.842   4.706
 6592SOL    HW120675   5.552   5.812   4.647
 6592SOL    HW220676   5.482   5.941   4.720
 6593SOL     OW20677   4.363   0.872   2.228
 6593SOL    HW120678   4.451   0.919   2.234
 6593SOL    HW220679   4.371   0.794   2.166
 6594SOL     OW20680   5.507   1.286   6.524
 6594SOL    HW120681   5.484   1.216   6.457
 6594SOL    HW220682   5.577   1.347   6.486
 6595SOL     OW20683   1.607   3.686   0.043
 6595SOL    HW120684   1.674   3.612   0.056
 6595SOL    HW220685   1.555   3.698   0.128
 6596SOL     OW20686   3.420   6.428   5.531
 6596SOL    HW120687   3.501   6.474   5.565
 6596SOL    HW220688   3.428   6.415   5.432
 6597SOL     OW20689   6.682   4.421   6.637
 6597SOL    HW120690   6.744   4.417   6.559
 6597SOL    HW220691   6.733   4.446   6.719
 6598SOL     OW20692   2.449   5.427   4.719
 6598SOL    HW120693   2.515   5.360   4.686
 6598SOL    HW220694   2.487   5.473   4.800
 6599SOL     OW20695   4.487   3.233   5.780
 6599SOL    HW120696   4.552   3.250   5.706
 6599SOL    HW220697   4.526   3.265   5.867
 6600SOL     OW20698   4.378   5.482   4.348
 6600SOL    HW120699   4.460   5.538   4.351
 6600SOL    HW220700   4.299   5.535   4.379
 6601SOL     OW20701   0.849   0.104   1.251
 6601SOL    HW120702   0.801   0.017   1.239
 6601SOL    HW220703   0.859   0.123   1.348
 6602SOL     OW20704   6.479   1.075   1.979
 6602SOL    HW120705   6.540   1.137   2.029
 6602SOL    HW220706   6.526   1.040   1.898
 6603SOL     OW20707   2.548   2.081   2.333
 6603SOL    HW120708   2.459   2.113   2.301
 6603SOL    HW220709   2.619   2.145   2.303
 6604SOL     OW20710   4.126   5.791   3.377
 6604SOL    HW120711   4.166   5.845   3.304
 6604SOL    HW220712   4.107   5.849   3.456
 6605SOL     OW20713   5.864   6.505   0.088
 6605SOL    HW120714   5.791   6.567   0.115
 6605SOL    HW220715   5.915   6.544   0.012
 6606SOL     OW20716   6.403   1.272   3.242
 6606SOL    HW120717   6.334   1.293   3.173
 6606SOL    HW220718   6.453   1.189   3.215
 6607SOL     OW20719   1.055   1.829   3.080
 6607SOL    HW120720   1.009   1.882   3.009
 6607SOL    HW220721   1.029   1.733   3.071
 6608SOL     OW20722   5.485   4.821   5.157
 6608SOL    HW120723   5.445   4.730   5.169
 6608SOL    HW220724   5.534   4.847   5.241
 6609SOL     OW20725   5.720   1.435   6.909
 6609SOL    HW120726   5.756   1.382   6.832
 6609SOL    HW220727   5.694   1.526   6.878
 6610SOL     OW20728   3.109   0.753   0.491
 6610SOL    HW120729   3.168   0.717   0.563
 6610SOL    HW220730   3.166   0.785   0.415
 6611SOL     OW20731   5.221   2.985   3.492
 6611SOL    HW120732   5.203   3.004   3.395
 6611SOL    HW220733   5.311   3.020   3.517
 6612SOL     OW20734   1.191   5.959   6.578
 6612SOL    HW120735   1.164   5.884   6.517
 6612SOL    HW220736   1.165   6.046   6.536
 6613SOL     OW20737   5.025   4.906   1.200
 6613SOL    HW120738   4.954   4.905   1.270
 6613SOL    HW220739   5.090   4.980   1.219
 6614SOL     OW20740   5.281   5.501   5.788
 6614SOL    HW120741   5.302   5.417   5.738
 6614SOL    HW220742   5.182   5.514   5.791
 6615SOL     OW20743   0.645   4.380   5.439
 6615SOL    HW120744   0.573   4.311   5.434
 6615SOL    HW220745   0.604   4.471   5.453
 6616SOL     OW20746   5.113   1.128   4.593
 6616SOL    HW120747   5.106   1.034   4.626
 6616SOL    HW220748   5.209   1.152   4.582
 6617SOL     OW20749   4.378   0.057   5.260
 6617SOL    HW120750   4.279   0.052   5.269
 6617SOL    HW220751   4.405   0.037   5.166
 6618SOL     OW20752   0.587   4.960   1.211
 6618SOL    HW120753   0.652   5.025   1.251
 6618SOL    HW220754   0.631   4.871   1.202
 6619SOL     OW20755   0.022   6.208   1.392
 6619SOL    HW120756   0.042   6.159   1.477
 6619SOL    HW220757   0.091   6.278   1.376
 6620SOL     OW20758   3.975   3.367   5.845
 6620SOL    HW120759   4.066   3.354   5.806
 6620SOL    HW220760   3.942   3.280   5.882
 6621SOL     OW20761   2.846   3.828   0.179
 6621SOL    HW120762   2.788   3.868   0.108
 6621SOL    HW220763   2.799   3.750   0.221
 6622SOL     OW20764   6.346   6.607   0.627
 6622SOL    HW120765   6.250   6.611   0.654
 6622SOL    HW220766   6.387   6.523   0.662
 6623SOL     OW20767   3.562   3.734   2.545
 6623SOL    HW120768   3.630   3.769   2.480
 6623SOL    HW220769   3.601   3.733   2.637
 6624SOL     OW20770   4.378   5.383   3.968
 6624SOL    HW120771   4.295   5.398   4.022
 6624SOL    HW220772   4.458   5.382   4.029
 6625SOL     OW20773   5.598   0.016   6.840
 6625SOL    HW120774   5.645   0.015   6.928
 6625SOL    HW220775   5.562   6.949   6.820
 6626SOL     OW20776   2.866   5.405   3.136
 6626SOL    HW120777   2.939   5.338   3.150
 6626SOL    HW220778   2.840   5.443   3.225
 6627SOL     OW20779   1.957   5.819   1.768
 6627SOL    HW120780   1.887   5.888   1.786
 6627SOL    HW220781   1.914   5.737   1.729
 6628SOL     OW20782   3.621   6.179   3.488
 6628SOL    HW120783   3.718   6.155   3.493
 6628SOL    HW220784   3.612   6.279   3.496
 6629SOL     OW20785   3.497   3.723   0.332
 6629SOL    HW120786   3.507   3.647   0.397
 6629SOL    HW220787   3.560   3.796   0.358
 6630SOL     OW20788   2.933   1.944   5.979
 6630SOL    HW120789   3.007   1.947   6.047
 6630SOL    HW220790   2.880   1.861   5.990
 6631SOL     OW20791   4.380   0.641   2.034
 6631SOL    HW120792   4.444   0.690   1.974
 6631SOL    HW220793   4.296   0.623   1.984
 6632SOL     OW20794   6.671   2.774   2.639
 6632SOL    HW120795   6.689   2.750   2.734
 6632SOL    HW220796   6.725   2.853   2.614
 6633SOL     OW20797   0.359   0.348   1.616
 6633SOL    HW120798   0.403   0.268   1.657
 6633SOL    HW220799   0.387   0.430   1.666
 6634SOL     OW20800   6.958   2.849   5.606
 6634SOL    HW120801   6.968   2.938   5.649
 6634SOL    HW220802   6.976   2.777   5.673
 6635SOL     OW20803   4.464   4.484   2.982
 6635SOL    HW120804   4.521   4.403   2.970
 6635SOL    HW220805   4.399   4.491   2.906
 6636SOL     OW20806   1.864   3.083   3.648
 6636SOL    HW120807   1.918   3.005   3.678
 6636SOL    HW220808   1.877   3.159   3.712
 6637SOL     OW20809   6.370   1.759   1.558
 6637SOL    HW120810   6.462   1.762   1.597
 6637SOL    HW220811   6.365   1.820   1.479
 6638SOL     OW20812   2.437   6.241   6.641
 6638SOL    HW120813   2.530   6.214   6.613
 6638SOL    HW220814   2.374   6.165   6.626
 6639SOL     OW20815   5.242   5.839   6.331
 6639SOL    HW120816   5.211   5.933   6.345
 6639SOL    HW220817   5.163   5.777   6.335
 6640SOL     OW20818   6.008   2.832   4.017
 6640SOL    HW120819   6.003   2.746   3.966
 6640SOL    HW220820   6.022   2.812   4.114
 6641SOL     OW20821   2.139   4.623   6.816
 6641SOL    HW120822   2.082   4.545   6.841
 6641SOL    HW220823   2.096   4.673   6.740
 6642SOL     OW20824   6.167   6.569   0.362
 6642SOL    HW120825   6.147   6.666   0.373
 6642SOL    HW220826   6.240   6.543   0.425
 6643SOL     OW20827   3.901   5.668   0.489
 6643SOL    HW120828   3.945   5.599   0.432
 6643SOL    HW220829   3.946   5.757   0.476
 6644SOL     OW20830   2.380   4.430   2.022
 6644SOL    HW120831   2.383   4.396   1.927
 6644SOL    HW220832   2.441   4.509   2.030
 6645SOL     OW20833   6.529   4.704   5.112
 6645SOL    HW120834   6.595   4.740   5.046
 6645SOL    HW220835   6.502   4.778   5.174
 6646SOL     OW20836   1.464   6.150   3.775
 6646SOL    HW120837   1.395   6.175   3.707
 6646SOL    HW220838   1.555   6.156   3.733
 6647SOL     OW20839   4.066   1.877   2.499
 6647SOL    HW120840   3.989   1.877   2.563
 6647SOL    HW220841   4.046   1.815   2.423
 6648SOL     OW20842   4.392   5.736   1.850
 6648SOL    HW120843   4.311   5.795   1.842
 6648SOL    HW220844   4.421   5.733   1.946
 6649SOL     OW20845   4.415   2.017   6.469
 6649SOL    HW120846   4.511   2.021   6.494
 6649SOL    HW220847   4.378   1.927   6.493
 6650SOL     OW20848   2.880   1.680   3.383
 6650SOL    HW120849   2.926   1.693   3.470
 6650SOL    HW220850   2.929   1.729   3.311
 6651SOL     OW20851   1.412   2.267   0.241
 6651SOL    HW120852   1.335   2.208   0.218
 6651SOL    HW220853   1.497   2.215   0.237
 6652SOL     OW20854   0.895   5.968   3.582
 6652SOL    HW120855   0.837   5.890   3.607
 6652SOL    HW220856   0.991   5.945   3.600
 6653SOL     OW20857   3.001   3.554   3.732
 6653SOL    HW120858   3.098   3.576   3.734
 6653SOL    HW220859   2.988   3.457   3.752
 6654SOL     OW20860   2.036   3.441   1.799
 6654SOL    HW120861   1.952   3.455   1.851
 6654SOL    HW220862   2.114   3.442   1.861
 6655SOL     OW20863   2.160   0.141   0.704
 6655SOL    HW120864   2.089   0.199   0.744
 6655SOL    HW220865   2.125   0.048   0.693
 6656SOL     OW20866   6.772   2.572   1.438
 6656SOL    HW120867   6.681   2.533   1.422
 6656SOL    HW220868   6.771   2.669   1.416
 6657SOL     OW20869   2.750   4.839   5.999
 6657SOL    HW120870   2.829   4.898   5.980
 6657SOL    HW220871   2.726   4.788   5.917
 6658SOL     OW20872   5.286   0.121   5.783
 6658SOL    HW120873   5.236   0.207   5.785
 6658SOL    HW220874   5.338   0.115   5.698
 6659SOL     OW20875   1.603   2.976   6.552
 6659SOL    HW120876   1.624   2.970   6.454
 6659SOL    HW220877   1.667   3.038   6.596
 6660SOL     OW20878   0.582   6.890   2.289
 6660SOL    HW120879   0.505   6.842   2.332
 6660SOL    HW220880   0.665   6.876   2.343
 6661SOL     OW20881   0.163   5.597   3.545
 6661SOL    HW120882   0.239   5.644   3.500
 6661SOL    HW220883   0.177   5.599   3.644
 6662SOL     OW20884   1.152   3.671   5.638
 6662SOL    HW120885   1.207   3.695   5.558
 6662SOL    HW220886   1.057   3.698   5.623
 6663SOL     OW20887   0.406   5.142   2.279
 6663SOL    HW120888   0.427   5.127   2.183
 6663SOL    HW220889   0.480   5.106   2.336
 6664SOL     OW20890   0.841   1.876   3.688
 6664SOL    HW120891   0.772   1.892   3.759
 6664SOL    HW220892   0.845   1.956   3.628
 6665SOL     OW20893   2.780   6.421   2.630
 6665SOL    HW120894   2.879   6.432   2.628
 6665SOL    HW220895   2.739   6.497   2.681
 6666SOL     OW20896   6.301   0.449   0.334
 6666SOL    HW120897   6.327   0.431   0.239
 6666SOL    HW220898   6.371   0.506   0.377
 6667SOL     OW20899   6.664   4.647   4.592
 6667SOL    HW120900   6.686   4.651   4.689
 6667SOL    HW220901   6.713   4.571   4.550
 6668SOL     OW20902   0.238   6.375   1.383
 6668SOL    HW120903   0.315   6.428   1.418
 6668SOL    HW220904   0.263   6.332   1.296
 6669SOL     OW20905   1.336   5.406   2.825
 6669SOL    HW120906   1.337   5.389   2.923
 6669SOL    HW220907   1.413   5.465   2.800
 6670SOL     OW20908   3.254   4.739   0.906
 6670SOL    HW120909   3.160   4.743   0.938
 6670SOL    HW220910   3.316   4.768   0.979
 6671SOL     OW20911   0.584   2.878   5.459
 6671SOL    HW120912   0.546   2.788   5.478
 6671SOL    HW220913   0.524   2.927   5.396
 6672SOL     OW20914   0.544   0.929   5.302
 6672SOL    HW120915   0.484   0.988   5.248
 6672SOL    HW220916   0.637   0.966   5.299
 6673SOL     OW20917   5.232   5.507   1.737
 6673SOL    HW120918   5.139   5.541   1.750
 6673SOL    HW220919   5.231   5.407   1.735
 6674SOL     OW20920   0.737   6.997   4.709
 6674SOL    HW120921   0.694   0.059   4.736
 6674SOL    HW220922   0.690   6.960   4.629
 6675SOL     OW20923   0.198   5.989   0.355
 6675SOL    HW120924   0.176   6.086   0.348
 6675SOL    HW220925   0.221   5.954   0.265
 6676SOL     OW20926   1.328   1.996   0.459
 6676SOL    HW120927   1.334   2.096   0.467
 6676SOL    HW220928   1.359   1.968   0.369
 6677SOL     OW20929   6.434   3.843   6.929
 6677SOL    HW120930   6.448   3.774   6.858
 6677SOL    HW220931   6.484   3.926   6.905
 6678SOL     OW20932   1.103   2.815   4.359
 6678SOL    HW120933   1.027   2.879   4.368
 6678SOL    HW220934   1.190   2.863   4.372
 6679SOL     OW20935   1.614   0.982   4.101
 6679SOL    HW120936   1.610   1.070   4.150
 6679SOL    HW220937   1.526   0.936   4.108
 6680SOL     OW20938   2.214   6.949   6.188
 6680SOL    HW120939   2.299   7.001   6.198
 6680SOL    HW220940   2.226   6.857   6.224
 6681SOL     OW20941   5.759   5.256   0.308
 6681SOL    HW120942   5.721   5.310   0.383
 6681SOL    HW220943   5.799   5.172   0.344
 6682SOL     OW20944   0.274   5.504   2.529
 6682SOL    HW120945   0.240   5.594   2.501
 6682SOL    HW220946   0.312   5.457   2.449
 6683SOL     OW20947   5.216   1.940   4.164
 6683SOL    HW120948   5.206   1.942   4.064
 6683SOL    HW220949   5.288   1.875   4.188
 6684SOL     OW20950   2.106   0.608   2.209
 6684SOL    HW120951   2.067   0.529   2.161
 6684SOL    HW220952   2.066   0.692   2.173
 6685SOL     OW20953   5.337   3.527   6.288
 6685SOL    HW120954   5.360   3.452   6.350
 6685SOL    HW220955   5.252   3.507   6.240
 6686SOL     OW20956   5.534   3.665   3.977
 6686SOL    HW120957   5.608   3.725   4.006
 6686SOL    HW220958   5.447   3.712   3.986
 6687SOL     OW20959   1.010   1.356   0.128
 6687SOL    HW120960   1.088   1.379   0.070
 6687SOL    HW220961   0.925   1.387   0.086
 6688SOL     OW20962   0.670   4.857   3.005
 6688SOL    HW120963   0.757   4.808   2.999
 6688SOL    HW220964   0.595   4.796   2.978
 6689SOL     OW20965   4.215   4.642   0.715
 6689SOL    HW120966   4.192   4.605   0.625
 6689SOL    HW220967   4.239   4.739   0.706
 6690SOL     OW20968   1.201   1.795   0.558
 6690SOL    HW120969   1.195   1.785   0.657
 6690SOL    HW220970   1.257   1.875   0.535
 6691SOL     OW20971   1.661   5.225   0.804
 6691SOL    HW120972   1.699   5.180   0.884
 6691SOL    HW220973   1.676   5.324   0.810
 6692SOL     OW20974   3.390   4.363   5.979
 6692SOL    HW120975   3.454   4.428   5.937
 6692SOL    HW220976   3.435   4.317   6.055
 6693SOL     OW20977   4.152   3.656   4.823
 6693SOL    HW120978   4.246   3.625   4.812
 6693SOL    HW220979   4.092   3.577   4.837
 6694SOL     OW20980   2.818   6.178   0.202
 6694SOL    HW120981   2.789   6.196   0.296
 6694SOL    HW220982   2.801   6.082   0.180
 6695SOL     OW20983   1.428   1.581   6.494
 6695SOL    HW120984   1.483   1.542   6.567
 6695SOL    HW220985   1.350   1.630   6.532
 6696SOL     OW20986   2.048   3.192   1.679
 6696SOL    HW120987   2.108   3.272   1.667
 6696SOL    HW220988   1.995   3.202   1.763
 6697SOL     OW20989   5.250   2.423   3.961
 6697SOL    HW120990   5.257   2.480   3.880
 6697SOL    HW220991   5.189   2.466   4.027
 6698SOL     OW20992   3.336   4.258   0.497
 6698SOL    HW120993   3.254   4.217   0.538
 6698SOL    HW220994   3.341   4.355   0.523
 6699SOL     OW20995   1.514   3.300   6.559
 6699SOL    HW120996   1.513   3.290   6.658
 6699SOL    HW220997   1.438   3.247   6.520
 6700SOL     OW20998   6.668   6.812   6.019
 6700SOL    HW120999   6.646   6.888   5.958
 6700SOL    HW221000   6.702   6.848   6.106
 6701SOL     OW21001   0.665   2.540   0.917
 6701SOL    HW121002   0.705   2.456   0.956
 6701SOL    HW221003   0.606   2.583   0.985
 6702SOL     OW21004   1.602   3.366   0.979
 6702SOL    HW121005   1.584   3.460   1.007
 6702SOL    HW221006   1.559   3.349   0.891
 6703SOL     OW21007   0.444   2.333   6.796
 6703SOL    HW121008   0.444   2.389   6.879
 6703SOL    HW221009   0.535   2.296   6.780
 6704SOL     OW21010   5.100   2.114   3.247
 6704SOL    HW121011   5.087   2.205   3.288
 6704SOL    HW221012   5.012   2.080   3.214
 6705SOL     OW21013   6.315   1.029   0.616
 6705SOL    HW121014   6.263   1.111   0.592
 6705SOL    HW221015   6.394   1.020   0.556
 6706SOL     OW21016   0.832   5.657   0.013
 6706SOL    HW121017   0.903   5.727   0.017
 6706SOL    HW221018   0.873   5.566   0.013
 6707SOL     OW21019   0.933   5.483   2.344
 6707SOL    HW121020   1.022   5.465   2.303
 6707SOL    HW221021   0.922   5.428   2.427
 6708SOL     OW21022   2.228   6.195   1.618
 6708SOL    HW121023   2.274   6.107   1.607
 6708SOL    HW221024   2.151   6.186   1.681
 6709SOL     OW21025   5.235   1.591   2.996
 6709SOL    HW121026   5.195   1.510   2.953
 6709SOL    HW221027   5.335   1.586   2.992
 6710SOL     OW21028   2.056   1.923   0.496
 6710SOL    HW121029   1.958   1.940   0.495
 6710SOL    HW221030   2.075   1.830   0.466
 6711SOL     OW21031   4.720   3.515   0.196
 6711SOL    HW121032   4.703   3.611   0.218
 6711SOL    HW221033   4.676   3.493   0.109
 6712SOL     OW21034   3.381   6.188   1.313
 6712SOL    HW121035   3.384   6.285   1.333
 6712SOL    HW221036   3.469   6.157   1.279
 6713SOL     OW21037   1.741   1.330   2.778
 6713SOL    HW121038   1.674   1.364   2.713
 6713SOL    HW221039   1.812   1.278   2.729
 6714SOL     OW21040   6.736   0.334   4.296
 6714SOL    HW121041   6.810   0.391   4.332
 6714SOL    HW221042   6.725   0.253   4.354
 6715SOL     OW21043   0.243   1.985   0.772
 6715SOL    HW121044   0.278   2.038   0.694
 6715SOL    HW221045   0.151   2.017   0.795
 6716SOL     OW21046   2.938   5.607   0.374
 6716SOL    HW121047   2.926   5.552   0.291
 6716SOL    HW221048   2.944   5.703   0.350
 6717SOL     OW21049   4.119   1.739   6.328
 6717SOL    HW121050   4.085   1.829   6.300
 6717SOL    HW221051   4.160   1.746   6.419
 6718SOL     OW21052   3.267   6.776   0.182
 6718SOL    HW121053   3.327   6.787   0.103
 6718SOL    HW221054   3.172   6.771   0.151
 6719SOL     OW21055   0.713   0.530   5.465
 6719SOL    HW121056   0.793   0.544   5.524
 6719SOL    HW221057   0.648   0.605   5.478
 6720SOL     OW21058   1.846   4.458   1.523
 6720SOL    HW121059   1.784   4.449   1.601
 6720SOL    HW221060   1.819   4.538   1.469
 6721SOL     OW21061   6.348   6.179   3.296
 6721SOL    HW121062   6.446   6.163   3.289
 6721SOL    HW221063   6.327   6.273   3.269
 6722SOL     OW21064   5.067   4.572   0.074
 6722SOL    HW121065   4.999   4.636   0.038
 6722SOL    HW221066   5.155   4.618   0.080
 6723SOL     OW21067   4.558   0.550   2.723
 6723SOL    HW121068   4.519   0.641   2.709
 6723SOL    HW221069   4.484   0.483   2.726
 6724SOL     OW21070   3.300   4.675   5.416
 6724SOL    HW121071   3.272   4.753   5.360
 6724SOL    HW221072   3.275   4.692   5.511
 6725SOL     OW21073   6.958   5.035   1.706
 6725SOL    HW121074   0.016   4.984   1.732
 6725SOL    HW221075   6.929   5.008   1.614
 6726SOL     OW21076   2.339   2.661   1.962
 6726SOL    HW121077   2.329   2.578   1.907
 6726SOL    HW221078   2.370   2.736   1.904
 6727SOL     OW21079   3.659   3.998   0.134
 6727SOL    HW121080   3.625   4.020   0.226
 6727SOL    HW221081   3.732   3.930   0.141
 6728SOL     OW21082   4.658   1.474   4.798
 6728SOL    HW121083   4.712   1.391   4.815
 6728SOL    HW221084   4.573   1.448   4.751
 6729SOL     OW21085   5.643   6.158   3.301
 6729SOL    HW121086   5.683   6.171   3.210
 6729SOL    HW221087   5.653   6.243   3.353
 6730SOL     OW21088   1.323   0.442   2.350
 6730SOL    HW121089   1.408   0.402   2.318
 6730SOL    HW221090   1.257   0.446   2.274
 6731SOL     OW21091   2.398   4.311   1.761
 6731SOL    HW121092   2.339   4.383   1.724
 6731SOL    HW221093   2.342   4.239   1.801
 6732SOL     OW21094   2.263   4.713   1.123
 6732SOL    HW121095   2.306   4.802   1.133
 6732SOL    HW221096   2.165   4.725   1.105
 6733SOL     OW21097   5.868   6.093   5.047
 6733SOL    HW121098   5.957   6.109   5.004
 6733SOL    HW221099   5.850   6.164   5.114
 6734SOL     OW21100   2.905   3.740   5.410
 6734SOL    HW121101   2.815   3.697   5.409
 6734SOL    HW221102   2.898   3.833   5.374
 6735SOL     OW21103   0.223   5.805   6.574
 6735SOL    HW121104   0.276   5.889   6.588
 6735SOL    HW221105   0.270   5.747   6.507
 6736SOL     OW21106   2.154   4.051   2.362
 6736SOL    HW121107   2.157   4.102   2.449
 6736SOL    HW221108   2.221   4.090   2.299
 6737SOL     OW21109   1.854   0.193   1.118
 6737SOL    HW121110   1.821   0.103   1.149
 6737SOL    HW221111   1.868   0.252   1.197
 6738SOL     OW21112   4.143   1.320   1.805
 6738SOL    HW121113   4.163   1.236   1.755
 6738SOL    HW221114   4.206   1.392   1.777
 6739SOL     OW21115   4.666   0.394   4.579
 6739SOL    HW121116   4.655   0.393   4.479
 6739SOL    HW221117   4.602   0.330   4.620
 6740SOL     OW21118   6.011   3.178   5.494
 6740SOL    HW121119   5.956   3.235   5.433
 6740SOL    HW221120   6.016   3.220   5.585
 6741SOL     OW21121   0.237   6.903   5.893
 6741SOL    HW121122   0.332   6.879   5.873
 6741SOL    HW221123   0.210   6.862   5.980
 6742SOL     OW21124   6.249   5.942   4.990
 6742SOL    HW121125   6.297   5.855   4.978
 6742SOL    HW221126   6.154   5.925   5.014
 6743SOL     OW21127   5.420   2.489   1.254
 6743SOL    HW121128   5.439   2.577   1.298
 6743SOL    HW221129   5.498   2.463   1.197
 6744SOL     OW21130   5.012   5.093   4.800
 6744SOL    HW121131   5.091   5.031   4.799
 6744SOL    HW221132   5.043   5.188   4.799
 6745SOL     OW21133   0.716   3.594   2.912
 6745SOL    HW121134   0.733   3.525   2.842
 6745SOL    HW221135   0.722   3.686   2.871
 6746SOL     OW21136   6.953   0.962   0.985
 6746SOL    HW121137   6.964   0.892   1.055
 6746SOL    HW221138   6.894   1.035   1.019
 6747SOL     OW21139   4.885   6.332   0.074
 6747SOL    HW121140   4.795   6.329   0.117
 6747SOL    HW221141   4.877   6.367   7.004
 6748SOL     OW21142   0.469   6.580   1.711
 6748SOL    HW121143   0.447   6.598   1.615
 6748SOL    HW221144   0.565   6.553   1.719
 6749SOL     OW21145   3.483   5.708   0.874
 6749SOL    HW121146   3.391   5.745   0.888
 6749SOL    HW221147   3.488   5.666   0.783
 6750SOL     OW21148   2.173   2.895   5.241
 6750SOL    HW121149   2.138   2.812   5.197
 6750SOL    HW221150   2.266   2.913   5.208
 6751SOL     OW21151   3.224   1.907   6.157
 6751SOL    HW121152   3.275   1.959   6.088
 6751SOL    HW221153   3.286   1.848   6.207
 6752SOL     OW21154   6.358   2.051   0.391
 6752SOL    HW121155   6.361   2.019   0.296
 6752SOL    HW221156   6.266   2.036   0.428
 6753SOL     OW21157   5.903   1.327   6.542
 6753SOL    HW121158   5.862   1.361   6.457
 6753SOL    HW221159   5.993   1.287   6.522
 6754SOL     OW21160   4.784   1.311   6.906
 6754SOL    HW121161   4.869   1.362   6.895
 6754SOL    HW221162   4.715   1.348   6.845
 6755SOL     OW21163   5.154   2.108   3.902
 6755SOL    HW121164   5.206   2.052   3.838
 6755SOL    HW221165   5.198   2.198   3.912
 6756SOL     OW21166   4.858   4.101   3.277
 6756SOL    HW121167   4.882   4.016   3.230
 6756SOL    HW221168   4.851   4.084   3.375
 6757SOL     OW21169   5.957   5.043   1.828
 6757SOL    HW121170   5.977   4.981   1.904
 6757SOL    HW221171   6.005   5.012   1.746
 6758SOL     OW21172   5.678   1.478   3.357
 6758SOL    HW121173   5.711   1.385   3.371
 6758SOL    HW221174   5.704   1.509   3.266
 6759SOL     OW21175   1.091   4.695   3.354
 6759SOL    HW121176   1.092   4.688   3.454
 6759SOL    HW221177   1.180   4.666   3.318
 6760SOL     OW21178   0.343   4.439   5.680
 6760SOL    HW121179   0.347   4.382   5.762
 6760SOL    HW221180   0.360   4.535   5.705
 6761SOL     OW21181   6.246   3.277   5.978
 6761SOL    HW121182   6.172   3.343   5.995
 6761SOL    HW221183   6.334   3.323   5.989
 6762SOL     OW21184   6.664   4.020   3.259
 6762SOL    HW121185   6.694   3.936   3.304
 6762SOL    HW221186   6.582   4.002   3.206
 6763SOL     OW21187   6.551   6.563   5.464
 6763SOL    HW121188   6.511   6.624   5.395
 6763SOL    HW221189   6.536   6.468   5.436
 6764SOL     OW21190   1.774   3.375   6.760
 6764SOL    HW121191   1.740   3.299   6.703
 6764SOL    HW221192   1.706   3.448   6.761
 6765SOL     OW21193   5.277   5.291   2.673
 6765SOL    HW121194   5.352   5.353   2.695
 6765SOL    HW221195   5.238   5.317   2.584
 6766SOL     OW21196   1.843   1.630   5.706
 6766SOL    HW121197   1.757   1.663   5.746
 6766SOL    HW221198   1.905   1.601   5.778
 6767SOL     OW21199   0.532   2.498   6.155
 6767SOL    HW121200   0.542   2.597   6.161
 6767SOL    HW221201   0.623   2.455   6.149
 6768SOL     OW21202   6.362   1.388   5.824
 6768SOL    HW121203   6.281   1.375   5.882
 6768SOL    HW221204   6.445   1.377   5.879
 6769SOL     OW21205   1.159   2.442   6.627
 6769SOL    HW121206   1.211   2.481   6.703
 6769SOL    HW221207   1.222   2.412   6.555
 6770SOL     OW21208   6.603   1.415   4.814
 6770SOL    HW121209   6.514   1.429   4.772
 6770SOL    HW221210   6.619   1.487   4.882
 6771SOL     OW21211   5.725   1.592   2.200
 6771SOL    HW121212   5.766   1.577   2.110
 6771SOL    HW221213   5.687   1.684   2.205
 6772SOL     OW21214   1.407   0.681   1.943
 6772SOL    HW121215   1.492   0.658   1.990
 6772SOL    HW221216   1.345   0.602   1.946
 6773SOL     OW21217   1.744   0.421   2.295
 6773SOL    HW121218   1.798   0.360   2.354
 6773SOL    HW221219   1.653   0.381   2.282
 6774SOL     OW21220   3.605   1.285   5.585
 6774SOL    HW121221   3.577   1.369   5.540
 6774SOL    HW221222   3.677   1.305   5.651
 6775SOL     OW21223   1.074   2.729   4.700
 6775SOL    HW121224   1.072   2.709   4.798
 6775SOL    HW221225   1.168   2.739   4.670
 6776SOL     OW21226   2.997   3.875   3.797
 6776SOL    HW121227   3.041   3.835   3.718
 6776SOL    HW221228   2.969   3.803   3.860
 6777SOL     OW21229   0.469   6.651   6.047
 6777SOL    HW121230   0.421   6.706   6.115
 6777SOL    HW221231   0.485   6.705   5.965
 6778SOL     OW21232   6.822   6.031   2.556
 6778SOL    HW121233   6.807   5.933   2.568
 6778SOL    HW221234   6.838   6.074   2.645
 6779SOL     OW21235   4.539   4.799   0.213
 6779SOL    HW121236   4.443   4.810   0.240
 6779SOL    HW221237   4.562   4.866   0.143
 6780SOL     OW21238   4.433   0.250   3.131
 6780SOL    HW121239   4.510   0.313   3.123
 6780SOL    HW221240   4.465   0.163   3.170
 6781SOL     OW21241   6.496   3.123   3.122
 6781SOL    HW121242   6.489   3.028   3.152
 6781SOL    HW221243   6.563   3.171   3.178
 6782SOL     OW21244   0.609   1.321   3.969
 6782SOL    HW121245   0.605   1.419   3.949
 6782SOL    HW221246   0.635   1.308   4.065
 6783SOL     OW21247   0.404   6.312   6.222
 6783SOL    HW121248   0.492   6.354   6.201
 6783SOL    HW221249   0.402   6.284   6.318
 6784SOL     OW21250   1.568   4.651   0.437
 6784SOL    HW121251   1.548   4.555   0.451
 6784SOL    HW221252   1.622   4.686   0.514
 6785SOL     OW21253   5.150   4.868   2.050
 6785SOL    HW121254   5.231   4.810   2.046
 6785SOL    HW221255   5.103   4.856   2.137
 6786SOL     OW21256   6.156   1.615   5.445
 6786SOL    HW121257   6.179   1.673   5.367
 6786SOL    HW221258   6.113   1.670   5.516
 6787SOL     OW21259   3.110   1.638   1.049
 6787SOL    HW121260   3.133   1.562   1.110
 6787SOL    HW221261   3.061   1.604   0.969
 6788SOL     OW21262   1.171   4.344   1.390
 6788SOL    HW121263   1.237   4.356   1.316
 6788SOL    HW221264   1.098   4.282   1.361
 6789SOL     OW21265   5.612   3.873   2.800
 6789SOL    HW121266   5.700   3.845   2.838
 6789SOL    HW221267   5.538   3.832   2.854
 6790SOL     OW21268   0.653   5.767   0.683
 6790SOL    HW121269   0.612   5.835   0.744
 6790SOL    HW221270   0.743   5.741   0.718
 6791SOL     OW21271   2.701   6.337   3.909
 6791SOL    HW121272   2.777   6.291   3.955
 6791SOL    HW221273   2.696   6.432   3.941
 6792SOL     OW21274   3.582   6.230   6.615
 6792SOL    HW121275   3.508   6.286   6.651
 6792SOL    HW221276   3.598   6.252   6.519
 6793SOL     OW21277   3.005   4.009   6.462
 6793SOL    HW121278   3.104   3.999   6.473
 6793SOL    HW221279   2.959   3.959   6.535
 6794SOL     OW21280   5.050   2.651   4.427
 6794SOL    HW121281   5.058   2.731   4.368
 6794SOL    HW221282   5.053   2.679   4.522
 6795SOL     OW21283   0.878   0.689   1.725
 6795SOL    HW121284   0.864   0.614   1.790
 6795SOL    HW221285   0.792   0.708   1.677
 6796SOL     OW21286   6.831   2.562   2.447
 6796SOL    HW121287   6.831   2.582   2.349
 6796SOL    HW221288   6.792   2.639   2.497
 6797SOL     OW21289   2.119   3.335   1.323
 6797SOL    HW121290   2.183   3.411   1.328
 6797SOL    HW221291   2.083   3.327   1.230
 6798SOL     OW21292   4.772   0.685   1.774
 6798SOL    HW121293   4.829   0.640   1.843
 6798SOL    HW221294   4.700   0.738   1.819
 6799SOL     OW21295   5.697   6.658   2.773
 6799SOL    HW121296   5.753   6.667   2.690
 6799SOL    HW221297   5.660   6.747   2.798
 6800SOL     OW21298   6.856   2.970   2.196
 6800SOL    HW121299   6.943   2.922   2.198
 6800SOL    HW221300   6.854   3.039   2.268
 6801SOL     OW21301   1.581   4.985   5.155
 6801SOL    HW121302   1.632   4.908   5.115
 6801SOL    HW221303   1.535   5.035   5.082
 6802SOL     OW21304   2.679   4.428   1.716
 6802SOL    HW121305   2.662   4.331   1.736
 6802SOL    HW221306   2.753   4.462   1.775
 6803SOL     OW21307   5.519   5.419   6.721
 6803SOL    HW121308   5.423   5.408   6.747
 6803SOL    HW221309   5.577   5.383   6.793
 6804SOL     OW21310   3.058   5.309   1.957
 6804SOL    HW121311   3.146   5.278   1.923
 6804SOL    HW221312   3.038   5.400   1.921
 6805SOL     OW21313   0.555   4.817   3.603
 6805SOL    HW121314   0.539   4.748   3.532
 6805SOL    HW221315   0.595   4.773   3.684
 6806SOL     OW21316   5.968   3.685   2.536
 6806SOL    HW121317   5.897   3.632   2.582
 6806SOL    HW221318   5.977   3.774   2.579
 6807SOL     OW21319   2.909   3.545   2.384
 6807SOL    HW121320   2.810   3.544   2.373
 6807SOL    HW221321   2.936   3.484   2.458
 6808SOL     OW21322   3.470   6.981   3.242
 6808SOL    HW121323   3.395   6.956   3.181
 6808SOL    HW221324   3.442   6.968   3.337
 6809SOL     OW21325   5.849   2.630   0.903
 6809SOL    HW121326   5.934   2.595   0.942
 6809SOL    HW221327   5.788   2.661   0.976
 6810SOL     OW21328   2.749   0.197   4.279
 6810SOL    HW121329   2.765   0.107   4.239
 6810SOL    HW221330   2.660   0.198   4.325
 6811SOL     OW21331   6.528   1.514   0.846
 6811SOL    HW121332   6.565   1.546   0.759
 6811SOL    HW221333   6.595   1.452   0.889
 6812SOL     OW21334   3.174   4.351   5.633
 6812SOL    HW121335   3.211   4.346   5.540
 6812SOL    HW221336   3.111   4.428   5.639
 6813SOL     OW21337   0.518   3.904   1.943
 6813SOL    HW121338   0.579   3.849   1.999
 6813SOL    HW221339   0.465   3.844   1.882
 6814SOL     OW21340   4.928   1.717   1.843
 6814SOL    HW121341   4.903   1.814   1.838
 6814SOL    HW221342   4.871   1.665   1.779
 6815SOL     OW21343   0.323   6.210   6.948
 6815SOL    HW121344   0.359   6.148   6.878
 6815SOL    HW221345   0.327   6.166   0.014
 6816SOL     OW21346   6.916   0.083   4.185
 6816SOL    HW121347   6.943   7.011   4.171
 6816SOL    HW221348   6.816   0.090   4.186
 6817SOL     OW21349   5.191   1.084   1.891
 6817SOL    HW121350   5.237   1.133   1.817
 6817SOL    HW221351   5.189   1.140   1.973
 6818SOL     OW21352   0.127   0.697   5.341
 6818SOL    HW121353   0.110   0.707   5.439
 6818SOL    HW221354   0.065   0.629   5.303
 6819SOL     OW21355   5.571   4.087   0.969
 6819SOL    HW121356   5.597   3.992   0.989
 6819SOL    HW221357   5.479   4.103   1.006
 6820SOL     OW21358   2.597   4.302   1.239
 6820SOL    HW121359   2.691   4.330   1.222
 6820SOL    HW221360   2.580   4.300   1.338
 6821SOL     OW21361   3.025   2.770   5.898
 6821SOL    HW121362   2.934   2.779   5.858
 6821SOL    HW221363   3.080   2.850   5.873
 6822SOL     OW21364   6.337   3.975   5.323
 6822SOL    HW121365   6.295   4.007   5.238
 6822SOL    HW221366   6.344   3.876   5.322
 6823SOL     OW21367   6.561   3.131   5.538
 6823SOL    HW121368   6.471   3.174   5.539
 6823SOL    HW221369   6.602   3.141   5.448
 6824SOL     OW21370   1.017   0.997   4.110
 6824SOL    HW121371   1.013   0.925   4.041
 6824SOL    HW221372   0.936   0.991   4.169
 6825SOL     OW21373   4.349   4.567   1.441
 6825SOL    HW121374   4.254   4.539   1.425
 6825SOL    HW221375   4.401   4.489   1.476
 6826SOL     OW21376   5.495   0.725   3.454
 6826SOL    HW121377   5.481   0.711   3.552
 6826SOL    HW221378   5.494   0.823   3.434
 6827SOL     OW21379   4.931   5.852   5.808
 6827SOL    HW121380   4.870   5.875   5.732
 6827SOL    HW221381   4.878   5.838   5.891
 6828SOL     OW21382   2.677   2.383   2.511
 6828SOL    HW121383   2.750   2.345   2.569
 6828SOL    HW221384   2.682   2.341   2.420
 6829SOL     OW21385   5.527   6.504   4.430
 6829SOL    HW121386   5.523   6.406   4.447
 6829SOL    HW221387   5.475   6.525   4.346
 6830SOL     OW21388   4.017   6.106   2.347
 6830SOL    HW121389   4.086   6.039   2.320
 6830SOL    HW221390   4.005   6.173   2.274
 6831SOL     OW21391   1.599   0.997   6.846
 6831SOL    HW121392   1.502   1.022   6.847
 6831SOL    HW221393   1.614   0.922   6.910
 6832SOL     OW21394   2.874   3.183   0.146
 6832SOL    HW121395   2.922   3.228   0.222
 6832SOL    HW221396   2.855   3.088   0.171
 6833SOL     OW21397   4.747   4.884   6.905
 6833SOL    HW121398   4.680   4.934   6.959
 6833SOL    HW221399   4.727   4.897   6.808
 6834SOL     OW21400   5.697   5.721   5.322
 6834SOL    HW121401   5.659   5.805   5.285
 6834SOL    HW221402   5.778   5.695   5.270
 6835SOL     OW21403   3.795   0.428   3.114
 6835SOL    HW121404   3.825   0.351   3.171
 6835SOL    HW221405   3.713   0.468   3.155
 6836SOL     OW21406   0.790   4.205   6.877
 6836SOL    HW121407   0.787   4.135   6.948
 6836SOL    HW221408   0.868   4.265   6.892
 6837SOL     OW21409   6.333   1.489   1.480
 6837SOL    HW121410   6.322   1.577   1.526
 6837SOL    HW221411   6.421   1.449   1.503
 6838SOL     OW21412   2.881   3.982   5.702
 6838SOL    HW121413   2.951   4.013   5.638
 6838SOL    HW221414   2.917   3.988   5.796
 6839SOL     OW21415   5.890   2.516   5.802
 6839SOL    HW121416   5.941   2.602   5.803
 6839SOL    HW221417   5.949   2.443   5.838
 6840SOL     OW21418   3.610   6.520   4.505
 6840SOL    HW121419   3.570   6.534   4.414
 6840SOL    HW221420   3.702   6.557   4.506
 6841SOL     OW21421   4.448   6.843   0.492
 6841SOL    HW121422   4.524   6.901   0.523
 6841SOL    HW221423   4.361   6.885   0.517
 6842SOL     OW21424   0.815   3.329   3.332
 6842SOL    HW121425   0.770   3.343   3.244
 6842SOL    HW221426   0.914   3.337   3.321
 6843SOL     OW21427   4.897   2.954   2.230
 6843SOL    HW121428   4.831   2.981   2.159
 6843SOL    HW221429   4.868   2.993   2.318
 6844SOL     OW21430   3.936   0.079   4.788
 6844SOL    HW121431   3.903   7.010   4.803
 6844SOL    HW221432   3.916   0.107   4.694
 6845SOL     OW21433   4.008   4.062   0.189
 6845SOL    HW121434   4.012   4.062   0.089
 6845SOL    HW221435   3.930   4.118   0.218
 6846SOL     OW21436   4.098   3.716   3.279
 6846SOL    HW121437   4.053   3.806   3.287
 6846SOL    HW221438   4.110   3.677   3.370
 6847SOL     OW21439   6.040   2.728   2.599
 6847SOL    HW121440   5.972   2.755   2.667
 6847SOL    HW221441   6.130   2.719   2.642
 6848SOL     OW21442   0.570   5.971   4.717
 6848SOL    HW121443   0.493   5.908   4.710
 6848SOL    HW221444   0.655   5.920   4.708
 6849SOL     OW21445   3.412   0.302   5.196
 6849SOL    HW121446   3.454   0.336   5.280
 6849SOL    HW221447   3.325   0.259   5.218
 6850SOL     OW21448   6.277   3.806   1.336
 6850SOL    HW121449   6.365   3.764   1.361
 6850SOL    HW221450   6.259   3.883   1.398
 6851SOL     OW21451   1.294   5.994   6.276
 6851SOL    HW121452   1.391   5.972   6.265
 6851SOL    HW221453   1.285   6.079   6.328
 6852SOL     OW21454   6.487   5.410   2.173
 6852SOL    HW121455   6.505   5.440   2.079
 6852SOL    HW221456   6.451   5.317   2.171
 6853SOL     OW21457   6.193   4.425   4.554
 6853SOL    HW121458   6.259   4.500   4.555
 6853SOL    HW221459   6.105   4.457   4.519
 6854SOL     OW21460   6.531   1.677   6.629
 6854SOL    HW121461   6.531   1.641   6.722
 6854SOL    HW221462   6.517   1.602   6.564
 6855SOL     OW21463   3.049   6.435   2.577
 6855SOL    HW121464   3.073   6.468   2.669
 6855SOL    HW221465   3.098   6.489   2.509
 6856SOL     OW21466   0.614   5.453   5.554
 6856SOL    HW121467   0.579   5.360   5.546
 6856SOL    HW221468   0.566   5.500   5.628
 6857SOL     OW21469   4.524   1.315   6.821
 6857SOL    HW121470   4.430   1.348   6.816
 6857SOL    HW221471   4.533   1.229   6.771
 6858SOL     OW21472   3.619   3.312   6.814
 6858SOL    HW121473   3.669   3.355   6.889
 6858SOL    HW221474   3.539   3.265   6.852
 6859SOL     OW21475   3.474   0.901   0.617
 6859SOL    HW121476   3.434   0.947   0.696
 6859SOL    HW221477   3.452   0.953   0.534
 6860SOL     OW21478   4.611   3.800   0.147
 6860SOL    HW121479   4.578   3.853   0.069
 6860SOL    HW221480   4.540   3.797   0.218
 6861SOL     OW21481   5.887   3.859   0.777
 6861SOL    HW121482   5.925   3.804   0.702
 6861SOL    HW221483   5.794   3.885   0.755
 6862SOL     OW21484   3.058   5.562   4.080
 6862SOL    HW121485   3.020   5.651   4.103
 6862SOL    HW221486   2.983   5.497   4.065
 6863SOL     OW21487   1.189   3.029   3.491
 6863SOL    HW121488   1.186   3.041   3.392
 6863SOL    HW221489   1.270   3.075   3.528
 6864SOL     OW21490   3.841   5.855   6.675
 6864SOL    HW121491   3.927   5.846   6.725
 6864SOL    HW221492   3.857   5.839   6.578
 6865SOL     OW21493   0.195   3.606   4.553
 6865SOL    HW121494   0.101   3.604   4.519
 6865SOL    HW221495   0.250   3.664   4.493
 6866SOL     OW21496   1.022   3.418   2.361
 6866SOL    HW121497   1.102   3.441   2.415
 6866SOL    HW221498   0.983   3.331   2.393
 6867SOL     OW21499   2.376   5.058   2.811
 6867SOL    HW121500   2.426   5.080   2.895
 6867SOL    HW221501   2.347   4.963   2.814
 6868SOL     OW21502   2.186   5.433   4.666
 6868SOL    HW121503   2.162   5.530   4.659
 6868SOL    HW221504   2.279   5.426   4.703
 6869SOL     OW21505   0.120   3.644   5.078
 6869SOL    HW121506   0.039   3.657   5.135
 6869SOL    HW221507   0.180   3.724   5.086
 6870SOL     OW21508   5.768   3.545   2.737
 6870SOL    HW121509   5.804   3.453   2.748
 6870SOL    HW221510   5.676   3.542   2.698
 6871SOL     OW21511   4.938   6.014   1.877
 6871SOL    HW121512   4.892   5.994   1.964
 6871SOL    HW221513   5.025   5.965   1.874
 6872SOL     OW21514   3.663   3.891   0.447
 6872SOL    HW121515   3.644   3.989   0.441
 6872SOL    HW221516   3.660   3.863   0.543
 6873SOL     OW21517   5.680   4.601   4.933
 6873SOL    HW121518   5.748   4.612   4.861
 6873SOL    HW221519   5.639   4.510   4.925
 6874SOL     OW21520   0.972   2.057   5.919
 6874SOL    HW121521   1.001   2.141   5.873
 6874SOL    HW221522   0.983   1.979   5.858
 6875SOL     OW21523   4.198   1.421   4.231
 6875SOL    HW121524   4.130   1.351   4.251
 6875SOL    HW221525   4.192   1.447   4.134
 6876SOL     OW21526   3.665   5.864   4.556
 6876SOL    HW121527   3.764   5.873   4.548
 6876SOL    HW221528   3.634   5.792   4.495
 6877SOL     OW21529   2.016   3.479   5.850
 6877SOL    HW121530   2.007   3.571   5.888
 6877SOL    HW221531   2.075   3.424   5.910
 6878SOL     OW21532   1.587   2.041   4.154
 6878SOL    HW121533   1.520   1.982   4.109
 6878SOL    HW221534   1.585   2.132   4.111
 6879SOL     OW21535   0.005   1.097   5.361
 6879SOL    HW121536   0.091   1.124   5.404
 6879SOL    HW221537   0.024   1.038   5.282
 6880SOL     OW21538   2.161   3.604   4.429
 6880SOL    HW121539   2.175   3.699   4.458
 6880SOL    HW221540   2.154   3.600   4.330
 6881SOL     OW21541   5.882   6.019   1.365
 6881SOL    HW121542   5.803   5.959   1.355
 6881SOL    HW221543   5.918   6.013   1.458
 6882SOL     OW21544   2.318   6.250   5.462
 6882SOL    HW121545   2.241   6.312   5.480
 6882SOL    HW221546   2.358   6.271   5.373
 6883SOL     OW21547   3.104   6.029   1.690
 6883SOL    HW121548   3.060   5.950   1.733
 6883SOL    HW221549   3.041   6.071   1.625
 6884SOL     OW21550   2.316   5.237   2.500
 6884SOL    HW121551   2.341   5.249   2.404
 6884SOL    HW221552   2.239   5.174   2.507
 6885SOL     OW21553   4.095   5.484   4.814
 6885SOL    HW121554   4.182   5.535   4.815
 6885SOL    HW221555   4.093   5.424   4.735
 6886SOL     OW21556   5.497   1.439   2.307
 6886SOL    HW121557   5.587   1.482   2.310
 6886SOL    HW221558   5.503   1.349   2.264
 6887SOL     OW21559   5.451   0.593   5.285
 6887SOL    HW121560   5.516   0.525   5.319
 6887SOL    HW221561   5.364   0.584   5.334
 6888SOL     OW21562   6.366   6.901   4.512
 6888SOL    HW121563   6.461   6.877   4.529
 6888SOL    HW221564   6.351   6.911   4.413
 6889SOL     OW21565   1.649   4.875   5.819
 6889SOL    HW121566   1.633   4.798   5.881
 6889SOL    HW221567   1.681   4.841   5.731
 6890SOL     OW21568   1.968   0.248   0.865
 6890SOL    HW121569   1.894   0.288   0.812
 6890SOL    HW221570   1.931   0.211   0.951
 6891SOL     OW21571   3.248   5.251   5.317
 6891SOL    HW121572   3.191   5.313   5.262
 6891SOL    HW221573   3.316   5.304   5.367
 6892SOL     OW21574   3.177   1.327   4.813
 6892SOL    HW121575   3.219   1.405   4.859
 6892SOL    HW221576   3.091   1.356   4.771
 6893SOL     OW21577   5.537   0.667   1.738
 6893SOL    HW121578   5.502   0.638   1.649
 6893SOL    HW221579   5.550   0.767   1.737
 6894SOL     OW21580   5.990   4.884   6.688
 6894SOL    HW121581   5.959   4.959   6.630
 6894SOL    HW221582   6.012   4.805   6.630
 6895SOL     OW21583   3.953   5.823   6.428
 6895SOL    HW121584   3.914   5.871   6.349
 6895SOL    HW221585   4.028   5.765   6.399
 6896SOL     OW21586   4.669   0.781   2.447
 6896SOL    HW121587   4.734   0.710   2.421
 6896SOL    HW221588   4.587   0.738   2.485
 6897SOL     OW21589   3.771   0.911   0.856
 6897SOL    HW121590   3.832   0.834   0.875
 6897SOL    HW221591   3.765   0.969   0.938
 6898SOL     OW21592   3.662   1.209   2.649
 6898SOL    HW121593   3.621   1.238   2.562
 6898SOL    HW221594   3.760   1.196   2.636
 6899SOL     OW21595   5.980   6.292   6.570
 6899SOL    HW121596   6.044   6.273   6.645
 6899SOL    HW221597   6.023   6.269   6.483
 6900SOL     OW21598   4.294   1.785   6.545
 6900SOL    HW121599   4.304   1.690   6.516
 6900SOL    HW221600   4.258   1.788   6.638
 6901SOL     OW21601   1.608   1.120   0.347
 6901SOL    HW121602   1.660   1.039   0.374
 6901SOL    HW221603   1.519   1.093   0.311
 6902SOL     OW21604   6.198   5.774   2.172
 6902SOL    HW121605   6.265   5.757   2.244
 6902SOL    HW221606   6.240   5.826   2.098
 6903SOL     OW21607   4.631   4.385   0.499
 6903SOL    HW121608   4.703   4.355   0.562
 6903SOL    HW221609   4.623   4.319   0.425
 6904SOL     OW21610   0.759   1.476   2.802
 6904SOL    HW121611   0.840   1.488   2.745
 6904SOL    HW221612   0.737   1.379   2.808
 6905SOL     OW21613   3.876   5.629   1.409
 6905SOL    HW121614   3.871   5.641   1.310
 6905SOL    HW221615   3.880   5.719   1.453
 6906SOL     OW21616   6.148   6.514   2.999
 6906SOL    HW121617   6.119   6.466   2.917
 6906SOL    HW221618   6.092   6.595   3.012
 6907SOL     OW21619   3.476   0.895   1.218
 6907SOL    HW121620   3.379   0.880   1.235
 6907SOL    HW221621   3.527   0.812   1.237
 6908SOL     OW21622   5.927   6.901   6.743
 6908SOL    HW121623   5.852   6.868   6.686
 6908SOL    HW221624   5.995   6.946   6.685
 6909SOL     OW21625   2.620   2.567   6.601
 6909SOL    HW121626   2.696   2.502   6.599
 6909SOL    HW221627   2.594   2.586   6.695
 6910SOL     OW21628   5.602   0.947   1.724
 6910SOL    HW121629   5.629   0.992   1.809
 6910SOL    HW221630   5.629   1.004   1.646
 6911SOL     OW21631   4.230   0.601   5.286
 6911SOL    HW121632   4.227   0.698   5.260
 6911SOL    HW221633   4.163   0.584   5.358
 6912SOL     OW21634   4.143   4.608   1.862
 6912SOL    HW121635   4.225   4.576   1.909
 6912SOL    HW221636   4.112   4.538   1.798
 6913SOL     OW21637   4.556   5.745   5.583
 6913SOL    HW121638   4.655   5.738   5.577
 6913SOL    HW221639   4.525   5.703   5.669
 6914SOL     OW21640   5.933   5.209   6.852
 6914SOL    HW121641   6.015   5.153   6.866
 6914SOL    HW221642   5.960   5.302   6.826
 6915SOL     OW21643   0.941   5.570   0.979
 6915SOL    HW121644   0.960   5.616   1.067
 6915SOL    HW221645   0.912   5.638   0.912
 6916SOL     OW21646   6.134   0.333   5.700
 6916SOL    HW121647   6.144   0.397   5.624
 6916SOL    HW221648   6.058   0.362   5.758
 6917SOL     OW21649   4.365   0.390   6.841
 6917SOL    HW121650   4.376   0.306   6.895
 6917SOL    HW221651   4.400   0.375   6.749
 6918SOL     OW21652   2.342   2.843   3.701
 6918SOL    HW121653   2.298   2.919   3.653
 6918SOL    HW221654   2.317   2.846   3.798
 6919SOL     OW21655   0.621   6.693   3.677
 6919SOL    HW121656   0.647   6.789   3.688
 6919SOL    HW221657   0.588   6.657   3.765
 6920SOL     OW21658   5.239   5.976   4.660
 6920SOL    HW121659   5.307   5.903   4.670
 6920SOL    HW221660   5.248   6.018   4.570
 6921SOL     OW21661   1.020   5.900   3.943
 6921SOL    HW121662   1.052   5.983   3.897
 6921SOL    HW221663   0.935   5.920   3.992
 6922SOL     OW21664   1.856   6.492   0.669
 6922SOL    HW121665   1.896   6.432   0.738
 6922SOL    HW221666   1.811   6.437   0.598
 6923SOL     OW21667   4.981   5.934   4.053
 6923SOL    HW121668   5.023   5.977   4.133
 6923SOL    HW221669   4.943   6.005   3.993
 6924SOL     OW21670   6.875   5.791   1.357
 6924SOL    HW121671   6.936   5.862   1.324
 6924SOL    HW221672   6.928   5.709   1.380
 6925SOL     OW21673   5.792   5.705   2.762
 6925SOL    HW121674   5.797   5.637   2.689
 6925SOL    HW221675   5.714   5.685   2.822
 6926SOL     OW21676   2.790   4.431   5.463
 6926SOL    HW121677   2.858   4.380   5.409
 6926SOL    HW221678   2.794   4.401   5.558
 6927SOL     OW21679   4.196   3.325   0.901
 6927SOL    HW121680   4.111   3.302   0.949
 6927SOL    HW221681   4.271   3.330   0.967
 6928SOL     OW21682   6.803   0.474   6.230
 6928SOL    HW121683   6.735   0.496   6.160
 6928SOL    HW221684   6.762   0.411   6.297
 6929SOL     OW21685   2.936   4.785   1.468
 6929SOL    HW121686   2.965   4.758   1.560
 6929SOL    HW221687   2.947   4.883   1.456
 6930SOL     OW21688   0.999   0.698   2.919
 6930SOL    HW121689   1.082   0.671   2.871
 6930SOL    HW221690   0.972   0.790   2.890
 6931SOL     OW21691   2.094   0.161   0.277
 6931SOL    HW121692   2.120   0.070   0.309
 6931SOL    HW221693   2.115   0.229   0.347
 6932SOL     OW21694   2.525   2.434   6.929
 6932SOL    HW121695   2.550   2.449   0.000
 6932SOL    HW221696   2.484   2.343   6.920
 6933SOL     OW21697   2.407   5.900   5.772
 6933SOL    HW121698   2.465   5.982   5.781
 6933SOL    HW221699   2.366   5.900   5.681
 6934SOL     OW21700   5.674   5.054   6.089
 6934SOL    HW121701   5.692   4.972   6.035
 6934SOL    HW221702   5.593   5.101   6.052
 6935SOL     OW21703   4.424   5.947   3.490
 6935SOL    HW121704   4.444   5.855   3.523
 6935SOL    HW221705   4.511   5.994   3.471
 6936SOL     OW21706   0.931   4.729   0.513
 6936SOL    HW121707   0.835   4.720   0.488
 6936SOL    HW221708   0.955   4.826   0.519
 6937SOL     OW21709   4.435   6.431   5.561
 6937SOL    HW121710   4.385   6.451   5.645
 6937SOL    HW221711   4.484   6.345   5.570
 6938SOL     OW21712   5.633   2.465   5.251
 6938SOL    HW121713   5.720   2.463   5.301
 6938SOL    HW221714   5.632   2.544   5.190
 6939SOL     OW21715   6.971   4.496   1.976
 6939SOL    HW121716   6.876   4.468   1.991
 6939SOL    HW221717   0.005   4.452   2.044
 6940SOL     OW21718   4.323   0.655   4.721
 6940SOL    HW121719   4.271   0.740   4.721
 6940SOL    HW221720   4.420   0.676   4.733
 6941SOL     OW21721   4.057   3.577   4.433
 6941SOL    HW121722   4.063   3.487   4.477
 6941SOL    HW221723   4.149   3.611   4.415
 6942SOL     OW21724   6.500   1.512   6.868
 6942SOL    HW121725   6.594   1.534   6.894
 6942SOL    HW221726   6.438   1.545   6.939
 6943SOL     OW21727   6.420   6.194   0.152
 6943SOL    HW121728   6.451   6.210   0.246
 6943SOL    HW221729   6.391   6.281   0.111
 6944SOL     OW21730   1.533   6.224   6.735
 6944SOL    HW121731   1.524   6.155   6.663
 6944SOL    HW221732   1.448   6.229   6.787
 6945SOL     OW21733   4.430   2.095   5.793
 6945SOL    HW121734   4.369   2.089   5.872
 6945SOL    HW221735   4.519   2.054   5.816
 6946SOL     OW21736   5.864   3.434   3.483
 6946SOL    HW121737   5.853   3.335   3.474
 6946SOL    HW221738   5.854   3.460   3.579
 6947SOL     OW21739   3.302   6.957   1.688
 6947SOL    HW121740   3.363   7.010   1.748
 6947SOL    HW221741   3.336   6.864   1.682
 6948SOL     OW21742   3.803   2.250   5.318
 6948SOL    HW121743   3.860   2.221   5.241
 6948SOL    HW221744   3.852   2.321   5.370
 6949SOL     OW21745   4.615   0.981   2.248
 6949SOL    HW121746   4.647   0.930   2.329
 6949SOL    HW221747   4.650   1.074   2.252
 6950SOL     OW21748   2.978   1.861   3.626
 6950SOL    HW121749   2.882   1.882   3.649
 6950SOL    HW221750   3.026   1.946   3.607
 6951SOL     OW21751   4.631   4.974   5.343
 6951SOL    HW121752   4.572   5.027   5.283
 6951SOL    HW221753   4.632   4.878   5.313
 6952SOL     OW21754   0.252   5.020   5.201
 6952SOL    HW121755   0.175   5.032   5.263
 6952SOL    HW221756   0.256   4.925   5.170
 6953SOL     OW21757   5.196   2.797   5.477
 6953SOL    HW121758   5.219   2.739   5.554
 6953SOL    HW221759   5.207   2.745   5.392
 6954SOL     OW21760   0.664   4.572   2.307
 6954SOL    HW121761   0.586   4.510   2.318
 6954SOL    HW221762   0.727   4.561   2.383
 6955SOL     OW21763   6.719   0.031   2.811
 6955SOL    HW121764   6.695   6.985   2.743
 6955SOL    HW221765   6.697   0.121   2.774
 6956SOL     OW21766   2.401   4.280   1.055
 6956SOL    HW121767   2.413   4.371   1.015
 6956SOL    HW221768   2.477   4.259   1.116
 6957SOL     OW21769   1.175   3.769   6.783
 6957SOL    HW121770   1.193   3.693   6.720
 6957SOL    HW221771   1.243   3.841   6.769
 6958SOL     OW21772   2.247   3.454   6.271
 6958SOL    HW121773   2.185   3.438   6.347
 6958SOL    HW221774   2.237   3.548   6.238
 6959SOL     OW21775   3.609   1.271   3.818
 6959SOL    HW121776   3.540   1.202   3.840
 6959SOL    HW221777   3.670   1.235   3.747
 6960SOL     OW21778   0.670   4.692   0.102
 6960SOL    HW121779   0.695   4.769   0.044
 6960SOL    HW221780   0.641   4.615   0.045
 6961SOL     OW21781   6.793   1.392   3.113
 6961SOL    HW121782   6.794   1.358   3.019
 6961SOL    HW221783   6.802   1.314   3.176
 6962SOL     OW21784   3.740   3.403   0.730
 6962SOL    HW121785   3.652   3.451   0.726
 6962SOL    HW221786   3.726   3.310   0.762
 6963SOL     OW21787   6.316   6.324   1.993
 6963SOL    HW121788   6.249   6.324   1.918
 6963SOL    HW221789   6.354   6.233   2.004
 6964SOL     OW21790   3.745   5.816   5.293
 6964SOL    HW121791   3.705   5.762   5.219
 6964SOL    HW221792   3.749   5.912   5.267
 6965SOL     OW21793   6.056   1.668   5.695
 6965SOL    HW121794   5.985   1.721   5.741
 6965SOL    HW221795   6.050   1.573   5.723
 6966SOL     OW21796   5.183   2.867   4.297
 6966SOL    HW121797   5.137   2.955   4.307
 6966SOL    HW221798   5.232   2.865   4.210
 6967SOL     OW21799   2.380   2.147   6.036
 6967SOL    HW121800   2.455   2.185   5.983
 6967SOL    HW221801   2.296   2.148   5.981
 6968SOL     OW21802   4.234   6.980   3.699
 6968SOL    HW121803   4.135   6.988   3.711
 6968SOL    HW221804   4.281   0.007   3.771
 6969SOL     OW21805   3.002   2.533   1.181
 6969SOL    HW121806   3.035   2.445   1.147
 6969SOL    HW221807   2.940   2.573   1.113
 6970SOL     OW21808   4.470   4.207   0.660
 6970SOL    HW121809   4.476   4.108   0.668
 6970SOL    HW221810   4.547   4.241   0.606
 6971SOL     OW21811   5.964   1.173   2.001
 6971SOL    HW121812   5.968   1.273   2.011
 6971SOL    HW221813   6.056   1.135   2.007
 6972SOL     OW21814   5.741   4.940   4.773
 6972SOL    HW121815   5.774   4.946   4.679
 6972SOL    HW221816   5.656   4.887   4.776
 6973SOL     OW21817   1.896   3.987   3.307
 6973SOL    HW121818   1.946   4.066   3.341
 6973SOL    HW221819   1.904   3.912   3.374
 6974SOL     OW21820   3.421   3.911   4.689
 6974SOL    HW121821   3.411   3.898   4.788
 6974SOL    HW221822   3.420   3.821   4.644
 6975SOL     OW21823   2.905   0.616   5.778
 6975SOL    HW121824   2.939   0.633   5.686
 6975SOL    HW221825   2.974   0.644   5.845
 6976SOL     OW21826   1.046   6.405   0.619
 6976SOL    HW121827   0.988   6.452   0.686
 6976SOL    HW221828   1.004   6.318   0.594
 6977SOL     OW21829   4.791   2.701   2.574
 6977SOL    HW121830   4.751   2.617   2.610
 6977SOL    HW221831   4.865   2.679   2.512
 6978SOL     OW21832   4.667   1.334   3.020
 6978SOL    HW121833   4.709   1.418   3.054
 6978SOL    HW221834   4.593   1.356   2.957
 6979SOL     OW21835   0.247   4.938   3.843
 6979SOL    HW121836   0.281   4.890   3.762
 6979SOL    HW221837   0.151   4.962   3.830
 6980SOL     OW21838   4.417   0.766   4.356
 6980SOL    HW121839   4.392   0.857   4.390
 6980SOL    HW221840   4.516   0.754   4.365
 6981SOL     OW21841   3.255   3.998   7.013
 6981SOL    HW121842   3.208   3.924   0.038
 6981SOL    HW221843   3.274   4.073   0.053
 6982SOL     OW21844   0.835   0.294   4.637
 6982SOL    HW121845   0.747   0.269   4.678
 6982SOL    HW221846   0.823   0.309   4.539
 6983SOL     OW21847   6.895   0.372   3.018
 6983SOL    HW121848   6.992   0.357   2.999
 6983SOL    HW221849   6.846   0.384   2.932
 6984SOL     OW21850   2.294   0.800   5.472
 6984SOL    HW121851   2.218   0.757   5.521
 6984SOL    HW221852   2.286   0.778   5.374
 6985SOL     OW21853   5.368   6.919   3.717
 6985SOL    HW121854   5.432   6.843   3.715
 6985SOL    HW221855   5.319   6.923   3.630
 6986SOL     OW21856   1.685   6.939   4.919
 6986SOL    HW121857   1.647   6.936   5.011
 6986SOL    HW221858   1.647   7.017   4.869
 6987SOL     OW21859   6.507   3.420   6.419
 6987SOL    HW121860   6.569   3.471   6.478
 6987SOL    HW221861   6.422   3.401   6.469
 6988SOL     OW21862   5.503   1.405   5.780
 6988SOL    HW121863   5.429   1.465   5.808
 6988SOL    HW221864   5.468   1.335   5.719
 6989SOL     OW21865   1.954   3.364   3.482
 6989SOL    HW121866   2.010   3.333   3.559
 6989SOL    HW221867   1.984   3.456   3.454
 6990SOL     OW21868   3.933   3.503   0.892
 6990SOL    HW121869   3.871   3.476   0.818
 6990SOL    HW221870   3.950   3.424   0.951
 6991SOL     OW21871   4.475   4.732   5.353
 6991SOL    HW121872   4.419   4.810   5.380
 6991SOL    HW221873   4.467   4.660   5.421
 6992SOL     OW21874   6.356   6.904   4.788
 6992SOL    HW121875   6.321   6.813   4.809
 6992SOL    HW221876   6.365   6.914   4.688
 6993SOL     OW21877   0.137   6.435   3.656
 6993SOL    HW121878   0.107   6.343   3.681
 6993SOL    HW221879   0.131   6.447   3.557
 6994SOL     OW21880   1.109   3.216   0.330
 6994SOL    HW121881   1.095   3.157   0.251
 6994SOL    HW221882   1.057   3.180   0.408
 6995SOL     OW21883   1.275   5.269   3.813
 6995SOL    HW121884   1.271   5.212   3.731
 6995SOL    HW221885   1.356   5.246   3.866
 6996SOL     OW21886   1.942   6.746   6.477
 6996SOL    HW121887   1.932   6.812   6.402
 6996SOL    HW221888   1.864   6.684   6.478
 6997SOL     OW21889   4.973   6.437   4.446
 6997SOL    HW121890   4.958   6.465   4.541
 6997SOL    HW221891   4.885   6.439   4.397
 6998SOL     OW21892   2.343   2.001   2.930
 6998SOL    HW121893   2.356   1.930   2.999
 6998SOL    HW221894   2.432   2.038   2.903
 6999SOL     OW21895   5.181   2.260   0.034
 6999SOL    HW121896   5.167   2.263   0.133
 6999SOL    HW221897   5.102   2.301   7.012
 7000SOL     OW21898   6.674   0.405   1.473
 7000SOL    HW121899   6.694   0.469   1.399
 7000SOL    HW221900   6.755   0.394   1.531
 7001SOL     OW21901   2.601   1.447   5.612
 7001SOL    HW121902   2.568   1.352   5.610
 7001SOL    HW221903   2.523   1.509   5.622
 7002SOL     OW21904   2.136   4.550   2.098
 7002SOL    HW121905   2.053   4.545   2.043
 7002SOL    HW221906   2.204   4.486   2.061
 7003SOL     OW21907   1.848   6.035   5.967
 7003SOL    HW121908   1.879   6.043   5.872
 7003SOL    HW221909   1.758   5.991   5.970
 7004SOL     OW21910   1.758   3.901   6.966
 7004SOL    HW121911   1.772   3.865   6.873
 7004SOL    HW221912   1.733   3.825   0.003
 7005SOL     OW21913   6.209   6.914   6.013
 7005SOL    HW121914   6.176   7.004   5.985
 7005SOL    HW221915   6.238   6.862   5.933
 7006SOL     OW21916   4.554   5.163   4.192
 7006SOL    HW121917   4.622   5.092   4.210
 7006SOL    HW221918   4.468   5.120   4.164
 7007SOL     OW21919   4.845   5.103   2.602
 7007SOL    HW121920   4.932   5.110   2.651
 7007SOL    HW221921   4.830   5.008   2.575
 7008SOL     OW21922   1.234   4.552   4.929
 7008SOL    HW121923   1.237   4.505   5.017
 7008SOL    HW221924   1.325   4.588   4.908
 7009SOL     OW21925   0.541   4.343   2.624
 7009SOL    HW121926   0.493   4.409   2.567
 7009SOL    HW221927   0.479   4.309   2.695
 7010SOL     OW21928   4.465   4.772   6.726
 7010SOL    HW121929   4.516   4.852   6.693
 7010SOL    HW221930   4.503   4.689   6.686
 7011SOL     OW21931   1.245   1.253   5.379
 7011SOL    HW121932   1.201   1.343   5.385
 7011SOL    HW221933   1.249   1.212   5.470
 7012SOL     OW21934   1.514   1.625   1.635
 7012SOL    HW121935   1.612   1.611   1.622
 7012SOL    HW221936   1.492   1.622   1.733
 7013SOL     OW21937   6.992   1.624   1.253
 7013SOL    HW121938   7.019   1.528   1.250
 7013SOL    HW221939   6.923   1.637   1.325
 7014SOL     OW21940   2.088   5.012   0.592
 7014SOL    HW121941   2.118   4.927   0.550
 7014SOL    HW221942   2.014   4.994   0.656
 7015SOL     OW21943   5.066   1.961   2.691
 7015SOL    HW121944   5.108   1.957   2.600
 7015SOL    HW221945   5.129   1.923   2.758
 7016SOL     OW21946   3.996   4.476   1.657
 7016SOL    HW121947   3.968   4.382   1.636
 7016SOL    HW221948   3.937   4.540   1.608
 7017SOL     OW21949   4.381   2.140   4.750
 7017SOL    HW121950   4.395   2.113   4.845
 7017SOL    HW221951   4.449   2.209   4.724
 7018SOL     OW21952   0.444   3.369   3.258
 7018SOL    HW121953   0.401   3.343   3.171
 7018SOL    HW221954   0.480   3.288   3.303
 7019SOL     OW21955   1.210   5.476   1.155
 7019SOL    HW121956   1.201   5.545   1.226
 7019SOL    HW221957   1.122   5.429   1.143
 7020SOL     OW21958   0.162   6.167   6.122
 7020SOL    HW121959   0.247   6.217   6.141
 7020SOL    HW221960   0.177   6.069   6.135
 7021SOL     OW21961   3.839   0.011   5.858
 7021SOL    HW121962   3.845   6.946   5.814
 7021SOL    HW221963   3.839   7.023   5.957
 7022SOL     OW21964   4.504   5.389   6.353
 7022SOL    HW121965   4.443   5.361   6.279
 7022SOL    HW221966   4.546   5.477   6.330
 7023SOL     OW21967   5.652   3.886   2.514
 7023SOL    HW121968   5.710   3.968   2.518
 7023SOL    HW221969   5.631   3.856   2.607
 7024SOL     OW21970   6.806   6.283   1.235
 7024SOL    HW121971   6.900   6.257   1.214
 7024SOL    HW221972   6.805   6.338   1.318
 7025SOL     OW21973   2.409   0.261   6.979
 7025SOL    HW121974   2.371   0.169   6.982
 7025SOL    HW221975   2.407   0.300   0.047
 7026SOL     OW21976   3.783   1.250   1.223
 7026SOL    HW121977   3.850   1.297   1.166
 7026SOL    HW221978   3.760   1.308   1.302
 7027SOL     OW21979   4.859   6.196   4.200
 7027SOL    HW121980   4.772   6.185   4.152
 7027SOL    HW221981   4.933   6.209   4.133
 7028SOL     OW21982   3.289   0.227   4.538
 7028SOL    HW121983   3.259   0.131   4.536
 7028SOL    HW221984   3.276   0.267   4.447
 7029SOL     OW21985   4.319   1.396   5.038
 7029SOL    HW121986   4.351   1.482   4.999
 7029SOL    HW221987   4.377   1.321   5.004
 7030SOL     OW21988   2.182   3.196   3.728
 7030SOL    HW121989   2.223   3.164   3.643
 7030SOL    HW221990   2.211   3.137   3.804
 7031SOL     OW21991   1.247   0.851   4.692
 7031SOL    HW121992   1.176   0.781   4.693
 7031SOL    HW221993   1.319   0.824   4.628
 7032SOL     OW21994   5.864   2.006   4.007
 7032SOL    HW121995   5.862   2.054   3.919
 7032SOL    HW221996   5.901   2.067   4.077
 7033SOL     OW21997   0.373   0.176   4.475
 7033SOL    HW121998   0.333   0.137   4.558
 7033SOL    HW221999   0.378   0.275   4.485
 7034SOL     OW22000   0.143   5.204   2.969
 7034SOL    HW122001   0.184   5.118   3.000
 7034SOL    HW222002   0.198   5.281   3.002
 7035SOL     OW22003   6.647   4.907   2.292
 7035SOL    HW122004   6.690   4.980   2.345
 7035SOL    HW222005   6.622   4.943   2.201
 7036SOL     OW22006   6.463   4.893   0.690
 7036SOL    HW122007   6.401   4.815   0.687
 7036SOL    HW222008   6.413   4.977   0.669
 7037SOL     OW22009   0.998   0.843   6.632
 7037SOL    HW122010   1.082   0.807   6.594
 7037SOL    HW222011   1.011   0.861   6.730
 7038SOL     OW22012   2.184   3.229   4.103
 7038SOL    HW122013   2.247   3.206   4.177
 7038SOL    HW222014   2.142   3.145   4.068
 7039SOL     OW22015   3.569   2.510   6.422
 7039SOL    HW122016   3.583   2.481   6.517
 7039SOL    HW222017   3.623   2.593   6.405
 7040SOL     OW22018   5.151   2.763   0.197
 7040SOL    HW122019   5.218   2.789   0.266
 7040SOL    HW222020   5.198   2.719   0.120
 7041SOL     OW22021   2.277   1.314   3.307
 7041SOL    HW122022   2.226   1.246   3.255
 7041SOL    HW222023   2.235   1.327   3.397
 7042SOL     OW22024   1.327   0.581   6.102
 7042SOL    HW122025   1.398   0.531   6.153
 7042SOL    HW222026   1.368   0.663   6.062
 7043SOL     OW22027   1.447   2.526   2.703
 7043SOL    HW122028   1.519   2.473   2.657
 7043SOL    HW222029   1.489   2.586   2.771
 7044SOL     OW22030   5.085   6.304   1.643
 7044SOL    HW122031   5.030   6.225   1.618
 7044SOL    HW222032   5.182   6.282   1.631
 7045SOL     OW22033   6.382   5.061   0.282
 7045SOL    HW122034   6.407   4.988   0.218
 7045SOL    HW222035   6.285   5.052   0.306
 7046SOL     OW22036   2.611   1.355   3.889
 7046SOL    HW122037   2.609   1.296   3.808
 7046SOL    HW222038   2.628   1.300   3.970
 7047SOL     OW22039   1.367   0.946   3.006
 7047SOL    HW122040   1.285   0.893   2.985
 7047SOL    HW222041   1.343   1.024   3.063
 7048SOL     OW22042   6.907   5.674   0.478
 7048SOL    HW122043   6.854   5.592   0.453
 7048SOL    HW222044   7.004   5.650   0.484
 7049SOL     OW22045   1.914   0.766   6.747
 7049SOL    HW122046   1.922   0.863   6.722
 7049SOL    HW222047   1.826   0.730   6.716
 7050SOL     OW22048   3.985   3.850   4.341
 7050SOL    HW122049   3.985   3.768   4.397
 7050SOL    HW222050   3.975   3.931   4.399
 7051SOL     OW22051   6.306   6.458   3.222
 7051SOL    HW122052   6.258   6.468   3.134
 7051SOL    HW222053   6.369   6.535   3.235
 7052SOL     OW22054   0.098   0.795   4.235
 7052SOL    HW122055   0.113   0.884   4.278
 7052SOL    HW222056   0.003   0.786   4.208
 7053SOL     OW22057   6.304   4.245   6.050
 7053SOL    HW122058   6.356   4.262   5.966
 7053SOL    HW222059   6.367   4.233   6.126
 7054SOL     OW22060   6.268   1.550   1.161
 7054SOL    HW122061   6.227   1.641   1.152
 7054SOL    HW222062   6.314   1.544   1.250
 7055SOL     OW22063   4.409   1.279   4.409
 7055SOL    HW122064   4.497   1.300   4.367
 7055SOL    HW222065   4.335   1.306   4.348
 7056SOL     OW22066   4.089   5.155   3.757
 7056SOL    HW122067   4.036   5.130   3.675
 7056SOL    HW222068   4.151   5.230   3.736
 7057SOL     OW22069   6.993   6.034   3.028
 7057SOL    HW122070   6.903   6.059   2.992
 7057SOL    HW222071   0.025   5.999   2.953
 7058SOL     OW22072   0.482   4.319   4.743
 7058SOL    HW122073   0.531   4.250   4.690
 7058SOL    HW222074   0.543   4.357   4.813
 7059SOL     OW22075   1.948   0.405   2.084
 7059SOL    HW122076   2.019   0.342   2.115
 7059SOL    HW222077   1.873   0.406   2.150
 7060SOL     OW22078   2.664   6.964   0.827
 7060SOL    HW122079   2.578   6.913   0.838
 7060SOL    HW222080   2.693   6.960   0.732
 7061SOL     OW22081   0.056   0.869   3.162
 7061SOL    HW122082   0.034   0.861   3.065
 7061SOL    HW222083   0.114   0.793   3.190
 7062SOL     OW22084   0.216   1.518   5.341
 7062SOL    HW122085   0.313   1.527   5.360
 7062SOL    HW222086   0.163   1.556   5.417
 7063SOL     OW22087   2.079   6.875   2.033
 7063SOL    HW122088   2.173   6.866   2.068
 7063SOL    HW222089   2.070   6.823   1.948
 7064SOL     OW22090   4.079   2.516   0.921
 7064SOL    HW122091   4.077   2.526   0.821
 7064SOL    HW222092   4.003   2.457   0.950
 7065SOL     OW22093   3.824   3.537   2.243
 7065SOL    HW122094   3.831   3.618   2.302
 7065SOL    HW222095   3.913   3.519   2.201
 7066SOL     OW22096   2.606   5.625   1.316
 7066SOL    HW122097   2.577   5.529   1.319
 7066SOL    HW222098   2.550   5.675   1.251
 7067SOL     OW22099   0.473   4.131   4.135
 7067SOL    HW122100   0.405   4.200   4.111
 7067SOL    HW222101   0.498   4.079   4.054
 7068SOL     OW22102   1.330   0.422   3.003
 7068SOL    HW122103   1.239   0.403   2.967
 7068SOL    HW222104   1.328   0.505   3.059
 7069SOL     OW22105   1.593   4.409   5.414
 7069SOL    HW122106   1.676   4.382   5.462
 7069SOL    HW222107   1.550   4.485   5.463
 7070SOL     OW22108   5.182   5.521   4.024
 7070SOL    HW122109   5.178   5.594   3.955
 7070SOL    HW222110   5.091   5.506   4.062
 7071SOL     OW22111   1.471   0.421   5.075
 7071SOL    HW122112   1.472   0.511   5.118
 7071SOL    HW222113   1.385   0.409   5.025
 7072SOL     OW22114   0.120   0.024   0.052
 7072SOL    HW122115   0.181   0.024   6.996
 7072SOL    HW222116   0.084   0.116   0.066
 7073SOL     OW22117   1.500   1.718   6.255
 7073SOL    HW122118   1.465   1.707   6.348
 7073SOL    HW222119   1.435   1.770   6.201
 7074SOL     OW22120   2.786   1.119   0.129
 7074SOL    HW122121   2.816   1.032   0.089
 7074SOL    HW222122   2.696   1.109   0.169
 7075SOL     OW22123   0.974   5.549   2.813
 7075SOL    HW122124   1.034   5.604   2.870
 7075SOL    HW222125   0.893   5.603   2.787
 7076SOL     OW22126   3.636   1.849   6.528
 7076SOL    HW122127   3.651   1.794   6.446
 7076SOL    HW222128   3.720   1.897   6.552
 7077SOL     OW22129   1.947   4.986   6.495
 7077SOL    HW122130   1.863   5.034   6.469
 7077SOL    HW222131   1.990   5.033   6.572
 7078SOL     OW22132   6.490   0.689   2.910
 7078SOL    HW122133   6.530   0.713   2.998
 7078SOL    HW222134   6.556   0.707   2.837
 7079SOL     OW22135   5.159   5.946   5.716
 7079SOL    HW122136   5.156   5.997   5.630
 7079SOL    HW222137   5.072   5.899   5.729
 7080SOL     OW22138   5.882   0.002   4.373
 7080SOL    HW122139   5.789   7.002   4.400
 7080SOL    HW222140   5.915   6.960   4.305
 7081SOL     OW22141   4.234   1.238   5.801
 7081SOL    HW122142   4.280   1.322   5.832
 7081SOL    HW222143   4.215   1.245   5.704
 7082SOL     OW22144   5.005   1.270   6.365
 7082SOL    HW122145   4.998   1.196   6.299
 7082SOL    HW222146   5.070   1.243   6.438
 7083SOL     OW22147   3.206   0.166   5.936
 7083SOL    HW122148   3.243   0.246   5.982
 7083SOL    HW222149   3.210   0.179   5.837
 7084SOL     OW22150   6.531   6.273   0.410
 7084SOL    HW122151   6.525   6.358   0.357
 7084SOL    HW222152   6.593   6.286   0.487
 7085SOL     OW22153   3.379   1.527   0.857
 7085SOL    HW122154   3.395   1.500   0.952
 7085SOL    HW222155   3.429   1.467   0.795
 7086SOL     OW22156   0.619   1.458   5.927
 7086SOL    HW122157   0.664   1.411   6.003
 7086SOL    HW222158   0.651   1.419   5.840
 7087SOL     OW22159   2.445   2.633   4.662
 7087SOL    HW122160   2.508   2.616   4.587
 7087SOL    HW222161   2.427   2.731   4.670
 7088SOL     OW22162   0.694   1.966   5.435
 7088SOL    HW122163   0.745   2.031   5.491
 7088SOL    HW222164   0.663   2.011   5.351
 7089SOL     OW22165   2.735   1.629   1.551
 7089SOL    HW122166   2.776   1.699   1.492
 7089SOL    HW222167   2.807   1.571   1.589
 7090SOL     OW22168   2.599   2.503   4.446
 7090SOL    HW122169   2.551   2.420   4.471
 7090SOL    HW222170   2.588   2.520   4.348
 7091SOL     OW22171   6.607   6.373   1.082
 7091SOL    HW122172   6.692   6.362   1.133
 7091SOL    HW222173   6.574   6.284   1.050
 7092SOL     OW22174   2.845   2.900   0.165
 7092SOL    HW122175   2.908   2.835   0.123
 7092SOL    HW222176   2.757   2.898   0.117
 7093SOL     OW22177   4.212   3.228   6.019
 7093SOL    HW122178   4.168   3.245   5.931
 7093SOL    HW222179   4.158   3.269   6.092
 7094SOL     OW22180   6.887   0.911   6.185
 7094SOL    HW122181   6.917   0.899   6.280
 7094SOL    HW222182   6.809   0.974   6.183
 7095SOL     OW22183   0.672   4.165   6.643
 7095SOL    HW122184   0.710   4.164   6.735
 7095SOL    HW222185   0.574   4.181   6.648
 7096SOL     OW22186   4.821   0.459   2.735
 7096SOL    HW122187   4.863   0.500   2.816
 7096SOL    HW222188   4.742   0.514   2.707
 7097SOL     OW22189   1.650   1.000   1.786
 7097SOL    HW122190   1.554   0.986   1.809
 7097SOL    HW222191   1.658   1.044   1.697
 7098SOL     OW22192   1.356   0.190   6.002
 7098SOL    HW122193   1.345   0.091   6.008
 7098SOL    HW222194   1.368   0.216   5.906
 7099SOL     OW22195   0.348   1.450   5.770
 7099SOL    HW122196   0.388   1.540   5.753
 7099SOL    HW222197   0.400   1.381   5.721
 7100SOL     OW22198   5.587   2.097   1.177
 7100SOL    HW122199   5.615   2.150   1.098
 7100SOL    HW222200   5.662   2.095   1.244
 7101SOL     OW22201   1.352   0.943   4.175
 7101SOL    HW122202   1.290   0.868   4.202
 7101SOL    HW222203   1.313   1.030   4.204
 7102SOL     OW22204   5.464   3.409   1.078
 7102SOL    HW122205   5.464   3.414   1.178
 7102SOL    HW222206   5.386   3.354   1.048
 7103SOL     OW22207   2.534   6.687   6.199
 7103SOL    HW122208   2.599   6.637   6.141
 7103SOL    HW222209   2.538   6.785   6.178
 7104SOL     OW22210   0.555   2.214   1.433
 7104SOL    HW122211   0.491   2.201   1.509
 7104SOL    HW222212   0.572   2.127   1.387
 7105SOL     OW22213   2.324   4.229   5.263
 7105SOL    HW122214   2.405   4.261   5.312
 7105SOL    HW222215   2.345   4.147   5.211
 7106SOL     OW22216   3.051   2.624   5.368
 7106SOL    HW122217   3.119   2.631   5.295
 7106SOL    HW222218   3.011   2.532   5.368
 7107SOL     OW22219   2.287   0.757   6.964
 7107SOL    HW122220   2.317   0.823   6.894
 7107SOL    HW222221   2.188   0.747   6.960
 7108SOL     OW22222   4.499   6.511   2.019
 7108SOL    HW122223   4.566   6.444   1.986
 7108SOL    HW222224   4.457   6.477   2.104
 7109SOL     OW22225   3.770   6.528   6.486
 7109SOL    HW122226   3.815   6.446   6.521
 7109SOL    HW222227   3.724   6.576   6.561
 7110SOL     OW22228   3.251   4.874   3.061
 7110SOL    HW122229   3.267   4.778   3.038
 7110SOL    HW222230   3.337   4.916   3.090
 7111SOL     OW22231   1.587   2.582   3.881
 7111SOL    HW122232   1.514   2.650   3.886
 7111SOL    HW222233   1.610   2.565   3.785
 7112SOL     OW22234   1.560   6.281   2.391
 7112SOL    HW122235   1.632   6.309   2.328
 7112SOL    HW222236   1.596   6.279   2.484
 7113SOL     OW22237   3.742   3.924   4.937
 7113SOL    HW122238   3.700   3.934   4.847
 7113SOL    HW222239   3.830   3.877   4.927
 7114SOL     OW22240   4.220   6.928   0.608
 7114SOL    HW122241   4.223   6.999   0.679
 7114SOL    HW222242   4.153   6.859   0.634
 7115SOL     OW22243   4.742   1.452   1.703
 7115SOL    HW122244   4.788   1.385   1.761
 7115SOL    HW222245   4.786   1.454   1.614
 7116SOL     OW22246   6.388   3.417   2.795
 7116SOL    HW122247   6.475   3.462   2.774
 7116SOL    HW222248   6.365   3.433   2.891
 7117SOL     OW22249   6.412   6.845   2.242
 7117SOL    HW122250   6.425   6.795   2.156
 7117SOL    HW222251   6.499   6.881   2.274
 7118SOL     OW22252   6.432   2.687   2.502
 7118SOL    HW122253   6.423   2.704   2.404
 7118SOL    HW222254   6.527   2.701   2.530
 7119SOL     OW22255   0.905   2.181   2.764
 7119SOL    HW122256   0.980   2.221   2.712
 7119SOL    HW222257   0.818   2.219   2.732
 7120SOL     OW22258   4.880   6.360   3.249
 7120SOL    HW122259   4.959   6.350   3.187
 7120SOL    HW222260   4.825   6.438   3.220
 7121SOL     OW22261   3.097   6.700   1.851
 7121SOL    HW122262   3.008   6.706   1.896
 7121SOL    HW222263   3.163   6.756   1.900
 7122SOL     OW22264   6.698   6.751   0.057
 7122SOL    HW122265   6.797   6.747   0.062
 7122SOL    HW222266   6.660   6.775   0.147
 7123SOL     OW22267   2.109   5.093   0.257
 7123SOL    HW122268   2.052   5.044   0.323
 7123SOL    HW222269   2.100   5.191   0.272
 7124SOL     OW22270   0.458   5.793   1.240
 7124SOL    HW122271   0.518   5.724   1.280
 7124SOL    HW222272   0.460   5.876   1.296
 7125SOL     OW22273   0.005   6.373   2.756
 7125SOL    HW122274   7.000   6.465   2.781
 7125SOL    HW222275   6.949   6.313   2.749
 7126SOL     OW22276   1.671   4.746   0.687
 7126SOL    HW122277   1.731   4.820   0.656
 7126SOL    HW222278   1.576   4.778   0.683
 7127SOL     OW22279   2.997   0.328   4.641
 7127SOL    HW122280   3.014   0.355   4.736
 7127SOL    HW222281   2.936   0.248   4.640
 7128SOL     OW22282   3.526   4.393   1.446
 7128SOL    HW122283   3.513   4.386   1.545
 7128SOL    HW222284   3.542   4.488   1.421
 7129SOL     OW22285   2.356   1.724   1.531
 7129SOL    HW122286   2.392   1.637   1.566
 7129SOL    HW222287   2.423   1.765   1.469
 7130SOL     OW22288   2.654   6.873   2.147
 7130SOL    HW122289   2.630   6.782   2.112
 7130SOL    HW222290   2.658   6.937   2.070
 7131SOL     OW22291   2.806   1.163   3.694
 7131SOL    HW122292   2.834   1.113   3.612
 7131SOL    HW222293   2.875   1.150   3.766
 7132SOL     OW22294   3.715   3.828   2.770
 7132SOL    HW122295   3.689   3.922   2.748
 7132SOL    HW222296   3.778   3.829   2.848
 7133SOL     OW22297   5.721   4.585   2.142
 7133SOL    HW122298   5.795   4.599   2.076
 7133SOL    HW222299   5.683   4.673   2.169
 7134SOL     OW22300   5.726   4.714   3.248
 7134SOL    HW122301   5.763   4.655   3.176
 7134SOL    HW222302   5.717   4.661   3.332
 7135SOL     OW22303   1.185   2.384   5.705
 7135SOL    HW122304   1.187   2.364   5.803
 7135SOL    HW222305   1.150   2.476   5.690
 7136SOL     OW22306   2.409   1.818   6.701
 7136SOL    HW122307   2.368   1.727   6.705
 7136SOL    HW222308   2.496   1.813   6.650
 7137SOL     OW22309   4.049   1.338   5.056
 7137SOL    HW122310   3.985   1.407   5.021
 7137SOL    HW222311   4.143   1.366   5.037
 7138SOL     OW22312   2.254   3.770   6.442
 7138SOL    HW122313   2.185   3.699   6.459
 7138SOL    HW222314   2.342   3.740   6.479
 7139SOL     OW22315   3.209   2.051   6.896
 7139SOL    HW122316   3.194   2.091   6.805
 7139SOL    HW222317   3.172   1.959   6.898
 7140SOL     OW22318   6.784   4.109   5.188
 7140SOL    HW122319   6.700   4.142   5.230
 7140SOL    HW222320   6.764   4.032   5.129
 7141SOL     OW22321   1.616   6.785   1.857
 7141SOL    HW122322   1.693   6.835   1.817
 7141SOL    HW222323   1.547   6.851   1.886
 7142SOL     OW22324   3.963   6.555   3.759
 7142SOL    HW122325   4.042   6.504   3.792
 7142SOL    HW222326   3.981   6.590   3.667
 7143SOL     OW22327   2.442   2.144   3.835
 7143SOL    HW122328   2.473   2.063   3.884
 7143SOL    HW222329   2.468   2.137   3.739
 7144SOL     OW22330   1.024   3.211   3.607
 7144SOL    HW122331   1.044   3.137   3.542
 7144SOL    HW222332   1.030   3.298   3.559
 7145SOL     OW22333   4.389   6.624   6.385
 7145SOL    HW122334   4.419   6.595   6.476
 7145SOL    HW222335   4.467   6.624   6.322
 7146SOL     OW22336   2.842   5.049   1.797
 7146SOL    HW122337   2.905   5.102   1.854
 7146SOL    HW222338   2.811   5.106   1.720
 7147SOL     OW22339   0.758   1.173   3.523
 7147SOL    HW122340   0.771   1.230   3.604
 7147SOL    HW222341   0.801   1.084   3.538
 7148SOL     OW22342   0.256   1.284   0.311
 7148SOL    HW122343   0.193   1.325   0.377
 7148SOL    HW222344   0.332   1.242   0.361
 7149SOL     OW22345   6.833   0.676   4.112
 7149SOL    HW122346   6.797   0.703   4.201
 7149SOL    HW222347   6.903   0.606   4.124
 7150SOL     OW22348   5.891   4.089   6.840
 7150SOL    HW122349   5.968   4.039   6.878
 7150SOL    HW222350   5.870   4.168   6.898
 7151SOL     OW22351   1.780   6.361   1.340
 7151SOL    HW122352   1.746   6.289   1.279
 7151SOL    HW222353   1.833   6.321   1.414
 7152SOL     OW22354   1.337   2.712   3.635
 7152SOL    HW122355   1.270   2.650   3.594
 7152SOL    HW222356   1.360   2.784   3.569
 7153SOL     OW22357   3.272   1.854   3.080
 7153SOL    HW122358   3.324   1.916   3.139
 7153SOL    HW222359   3.300   1.760   3.098
 7154SOL     OW22360   4.386   5.935   4.426
 7154SOL    HW122361   4.378   6.028   4.463
 7154SOL    HW222362   4.472   5.927   4.376
 7155SOL     OW22363   2.068   0.657   2.791
 7155SOL    HW122364   1.990   0.616   2.744
 7155SOL    HW222365   2.108   0.728   2.733
 7156SOL     OW22366   1.110   5.846   4.949
 7156SOL    HW122367   1.137   5.837   4.853
 7156SOL    HW222368   1.142   5.767   5.001
 7157SOL     OW22369   5.028   4.252   1.114
 7157SOL    HW122370   5.101   4.317   1.133
 7157SOL    HW222371   4.960   4.294   1.054
 7158SOL     OW22372   4.686   7.007   4.258
 7158SOL    HW122373   4.615   6.954   4.305
 7158SOL    HW222374   4.741   0.031   4.327
 7159SOL     OW22375   1.240   5.502   0.144
 7159SOL    HW122376   1.231   5.407   0.174
 7159SOL    HW222377   1.185   5.560   0.204
 7160SOL     OW22378   6.683   1.253   2.092
 7160SOL    HW122379   6.760   1.192   2.073
 7160SOL    HW222380   6.651   1.237   2.186
 7161SOL     OW22381   3.577   4.156   3.812
 7161SOL    HW122382   3.543   4.140   3.904
 7161SOL    HW222383   3.674   4.180   3.816
 7162SOL     OW22384   3.312   4.970   3.526
 7162SOL    HW122385   3.277   4.988   3.434
 7162SOL    HW222386   3.389   5.031   3.545
 7163SOL     OW22387   2.228   6.508   2.955
 7163SOL    HW122388   2.140   6.494   2.911
 7163SOL    HW222389   2.252   6.605   2.954
 7164SOL     OW22390   2.887   1.453   4.146
 7164SOL    HW122391   2.975   1.500   4.140
 7164SOL    HW222392   2.814   1.514   4.116
 7165SOL     OW22393   4.963   6.676   2.395
 7165SOL    HW122394   4.917   6.733   2.462
 7165SOL    HW222395   5.020   6.608   2.442
 7166SOL     OW22396   5.027   5.676   2.389
 7166SOL    HW122397   5.026   5.612   2.466
 7166SOL    HW222398   4.957   5.649   2.323
 7167SOL     OW22399   4.928   3.091   5.573
 7167SOL    HW122400   4.978   3.142   5.503
 7167SOL    HW222401   4.964   3.115   5.663
 7168SOL     OW22402   0.953   1.952   4.275
 7168SOL    HW122403   0.923   2.046   4.290
 7168SOL    HW222404   1.034   1.933   4.331
 7169SOL     OW22405   1.856   2.458   6.508
 7169SOL    HW122406   1.792   2.461   6.585
 7169SOL    HW222407   1.852   2.367   6.466
 7170SOL     OW22408   5.885   4.620   4.021
 7170SOL    HW122409   5.834   4.622   3.935
 7170SOL    HW222410   5.974   4.577   4.005
 7171SOL     OW22411   4.491   2.836   6.054
 7171SOL    HW122412   4.477   2.779   6.136
 7171SOL    HW222413   4.415   2.822   5.991
 7172SOL     OW22414   0.739   0.332   1.176
 7172SOL    HW122415   0.651   0.300   1.210
 7172SOL    HW222416   0.806   0.258   1.182
 7173SOL     OW22417   6.158   6.084   5.775
 7173SOL    HW122418   6.247   6.105   5.815
 7173SOL    HW222419   6.164   5.999   5.723
 7174SOL     OW22420   0.716   5.608   6.382
 7174SOL    HW122421   0.733   5.608   6.481
 7174SOL    HW222422   0.692   5.515   6.352
 7175SOL     OW22423   6.457   2.748   5.509
 7175SOL    HW122424   6.469   2.653   5.538
 7175SOL    HW222425   6.501   2.809   5.576
 7176SOL     OW22426   0.018   3.501   1.568
 7176SOL    HW122427   6.971   3.468   1.630
 7176SOL    HW222428   0.006   3.457   1.479
 7177SOL     OW22429   0.653   5.504   2.391
 7177SOL    HW122430   0.648   5.475   2.487
 7177SOL    HW222431   0.748   5.507   2.362
 7178SOL     OW22432   0.185   2.076   6.329
 7178SOL    HW122433   0.193   2.063   6.230
 7178SOL    HW222434   0.102   2.031   6.361
 7179SOL     OW22435   1.936   4.568   6.076
 7179SOL    HW122436   1.918   4.612   5.988
 7179SOL    HW222437   1.995   4.628   6.131
 7180SOL     OW22438   0.614   6.821   2.973
 7180SOL    HW122439   0.518   6.812   3.000
 7180SOL    HW222440   0.621   6.882   2.894
 7181SOL     OW22441   6.025   6.359   2.568
 7181SOL    HW122442   6.095   6.341   2.499
 7181SOL    HW222443   5.935   6.346   2.528
 7182SOL     OW22444   3.664   3.447   5.894
 7182SOL    HW122445   3.675   3.357   5.936
 7182SOL    HW222446   3.573   3.454   5.853
 7183SOL     OW22447   1.722   4.112   3.525
 7183SOL    HW122448   1.777   4.030   3.509
 7183SOL    HW222449   1.726   4.171   3.445
 7184SOL     OW22450   2.684   5.651   2.599
 7184SOL    HW122451   2.685   5.599   2.684
 7184SOL    HW222452   2.768   5.704   2.591
 7185SOL     OW22453   4.686   3.065   6.743
 7185SOL    HW122454   4.642   3.053   6.832
 7185SOL    HW222455   4.617   3.059   6.671
 7186SOL     OW22456   0.372   0.164   3.979
 7186SOL    HW122457   0.435   0.196   3.908
 7186SOL    HW222458   0.397   0.071   4.006
 7187SOL     OW22459   1.934   5.313   1.355
 7187SOL    HW122460   1.847   5.265   1.370
 7187SOL    HW222461   2.007   5.265   1.403
 7188SOL     OW22462   5.137   0.203   1.634
 7188SOL    HW122463   5.125   0.105   1.618
 7188SOL    HW222464   5.137   0.252   1.546
 7189SOL     OW22465   6.990   0.575   5.126
 7189SOL    HW122466   6.947   0.485   5.122
 7189SOL    HW222467   0.029   0.585   5.048
 7190SOL     OW22468   4.746   4.585   3.005
 7190SOL    HW122469   4.765   4.557   2.911
 7190SOL    HW222470   4.693   4.513   3.051
 7191SOL     OW22471   0.741   3.663   1.497
 7191SOL    HW122472   0.681   3.604   1.443
 7191SOL    HW222473   0.794   3.608   1.561
 7192SOL     OW22474   3.817   5.380   6.648
 7192SOL    HW122475   3.741   5.388   6.583
 7192SOL    HW222476   3.816   5.288   6.688
 7193SOL     OW22477   5.213   1.782   3.800
 7193SOL    HW122478   5.301   1.828   3.813
 7193SOL    HW222479   5.222   1.711   3.730
 7194SOL     OW22480   3.477   1.317   1.453
 7194SOL    HW122481   3.564   1.358   1.423
 7194SOL    HW222482   3.435   1.375   1.522
 7195SOL     OW22483   0.317   5.676   1.566
 7195SOL    HW122484   0.332   5.593   1.513
 7195SOL    HW222485   0.289   5.750   1.504
 7196SOL     OW22486   3.671   2.622   1.788
 7196SOL    HW122487   3.699   2.528   1.805
 7196SOL    HW222488   3.729   2.662   1.717
 7197SOL     OW22489   0.915   1.690   4.213
 7197SOL    HW122490   0.896   1.678   4.115
 7197SOL    HW222491   0.923   1.788   4.232
 7198SOL     OW22492   0.209   6.412   6.535
 7198SOL    HW122493   0.177   6.474   6.462
 7198SOL    HW222494   0.296   6.372   6.507
 7199SOL     OW22495   5.726   6.890   3.025
 7199SOL    HW122496   5.693   6.901   2.931
 7199SOL    HW222497   5.658   6.840   3.079
 7200SOL     OW22498   1.956   1.946   2.121
 7200SOL    HW122499   2.055   1.952   2.113
 7200SOL    HW222500   1.918   2.038   2.135
 7201SOL     OW22501   2.186   4.805   3.270
 7201SOL    HW122502   2.188   4.752   3.355
 7201SOL    HW222503   2.233   4.753   3.198
 7202SOL     OW22504   3.584   0.054   5.602
 7202SOL    HW122505   3.673   0.061   5.555
 7202SOL    HW222506   3.593   0.089   5.695
 7203SOL     OW22507   5.996   0.210   6.915
 7203SOL    HW122508   6.054   0.227   6.836
 7203SOL    HW222509   5.925   0.143   6.892
 7204SOL     OW22510   5.721   1.637   3.112
 7204SOL    HW122511   5.695   1.729   3.085
 7204SOL    HW222512   5.807   1.611   3.068
 7205SOL     OW22513   1.667   4.437   1.702
 7205SOL    HW122514   1.599   4.507   1.724
 7205SOL    HW222515   1.620   4.353   1.675
 7206SOL     OW22516   5.534   1.682   1.457
 7206SOL    HW122517   5.587   1.612   1.505
 7206SOL    HW222518   5.481   1.735   1.523
 7207SOL     OW22519   4.132   6.592   2.285
 7207SOL    HW122520   4.156   6.599   2.188
 7207SOL    HW222521   4.157   6.676   2.332
 7208SOL     OW22522   3.188   0.071   5.014
 7208SOL    HW122523   3.152   0.137   5.080
 7208SOL    HW222524   3.156   7.003   5.037
 7209SOL     OW22525   3.195   3.006   4.417
 7209SOL    HW122526   3.131   2.942   4.374
 7209SOL    HW222527   3.288   2.971   4.409
 7210SOL     OW22528   4.957   0.315   4.146
 7210SOL    HW122529   4.985   0.249   4.215
 7210SOL    HW222530   4.932   0.401   4.190
 7211SOL     OW22531   1.513   5.452   2.362
 7211SOL    HW122532   1.606   5.479   2.387
 7211SOL    HW222533   1.466   5.414   2.442
 7212SOL     OW22534   4.765   0.186   3.646
 7212SOL    HW122535   4.671   0.203   3.615
 7212SOL    HW222536   4.783   0.240   3.727
 7213SOL     OW22537   5.011   6.837   5.406
 7213SOL    HW122538   5.039   6.922   5.452
 7213SOL    HW222539   5.053   6.832   5.316
 7214SOL     OW22540   0.367   5.035   5.617
 7214SOL    HW122541   0.447   5.072   5.571
 7214SOL    HW222542   0.395   4.964   5.682
 7215SOL     OW22543   0.749   3.257   2.435
 7215SOL    HW122544   0.753   3.236   2.337
 7215SOL    HW222545   0.783   3.179   2.487
 7216SOL     OW22546   2.494   1.312   1.765
 7216SOL    HW122547   2.438   1.370   1.824
 7216SOL    HW222548   2.458   1.219   1.766
 7217SOL     OW22549   1.087   2.719   2.314
 7217SOL    HW122550   1.133   2.633   2.289
 7217SOL    HW222551   0.990   2.702   2.331
 7218SOL     OW22552   6.619   2.599   5.863
 7218SOL    HW122553   6.581   2.567   5.777
 7218SOL    HW222554   6.719   2.604   5.856
 7219SOL     OW22555   3.232   0.603   1.131
 7219SOL    HW122556   3.257   0.520   1.081
 7219SOL    HW222557   3.134   0.600   1.153
 7220SOL     OW22558   6.968   1.135   3.119
 7220SOL    HW122559   6.922   1.165   3.203
 7220SOL    HW222560   0.006   1.060   3.140
 7221SOL     OW22561   5.999   4.713   5.687
 7221SOL    HW122562   5.928   4.735   5.620
 7221SOL    HW222563   6.000   4.614   5.703
 7222SOL     OW22564   5.963   6.586   3.306
 7222SOL    HW122565   6.042   6.598   3.247
 7222SOL    HW222566   5.898   6.524   3.262
 7223SOL     OW22567   4.451   1.068   5.451
 7223SOL    HW122568   4.497   0.993   5.499
 7223SOL    HW222569   4.450   1.049   5.353
 7224SOL     OW22570   5.688   1.275   4.290
 7224SOL    HW122571   5.742   1.232   4.218
 7224SOL    HW222572   5.641   1.205   4.343
 7225SOL     OW22573   2.302   0.727   1.550
 7225SOL    HW122574   2.204   0.733   1.527
 7225SOL    HW222575   2.351   0.799   1.502
 7226SOL     OW22576   5.565   6.657   6.069
 7226SOL    HW122577   5.655   6.694   6.045
 7226SOL    HW222578   5.573   6.599   6.150
 7227SOL     OW22579   6.932   2.125   6.053
 7227SOL    HW122580   6.987   2.204   6.080
 7227SOL    HW222581   6.957   2.047   6.110
 7228SOL     OW22582   2.275   0.512   2.941
 7228SOL    HW122583   2.214   0.566   2.883
 7228SOL    HW222584   2.221   0.457   3.005
 7229SOL     OW22585   6.687   7.003   3.656
 7229SOL    HW122586   6.778   6.994   3.695
 7229SOL    HW222587   6.681   6.953   3.570
 7230SOL     OW22588   6.214   5.413   1.433
 7230SOL    HW122589   6.127   5.438   1.476
 7230SOL    HW222590   6.235   5.479   1.361
 7231SOL     OW22591   5.692   0.941   6.713
 7231SOL    HW122592   5.609   0.915   6.663
 7231SOL    HW222593   5.772   0.918   6.659
 7232SOL     OW22594   3.518   3.713   0.789
 7232SOL    HW122595   3.517   3.650   0.867
 7232SOL    HW222596   3.610   3.717   0.751
 7233SOL     OW22597   0.451   2.130   5.698
 7233SOL    HW122598   0.548   2.145   5.717
 7233SOL    HW222599   0.408   2.085   5.777
 7234SOL     OW22600   4.522   1.615   2.905
 7234SOL    HW122601   4.446   1.677   2.927
 7234SOL    HW222602   4.576   1.599   2.988
 7235SOL     OW22603   6.153   3.008   4.658
 7235SOL    HW122604   6.077   2.967   4.610
 7235SOL    HW222605   6.153   3.107   4.643
 7236SOL     OW22606   2.096   1.157   3.145
 7236SOL    HW122607   2.119   1.074   3.094
 7236SOL    HW222608   2.032   1.212   3.091
 7237SOL     OW22609   5.758   4.921   5.072
 7237SOL    HW122610   5.732   4.945   4.978
 7237SOL    HW222611   5.675   4.900   5.124
 7238SOL     OW22612   1.538   0.863   1.428
 7238SOL    HW122613   1.495   0.823   1.347
 7238SOL    HW222614   1.490   0.834   1.510
 7239SOL     OW22615   4.313   1.496   1.699
 7239SOL    HW122616   4.354   1.416   1.654
 7239SOL    HW222617   4.375   1.574   1.690
 7240SOL     OW22618   3.043   3.133   1.862
 7240SOL    HW122619   3.070   3.036   1.861
 7240SOL    HW222620   3.114   3.187   1.817
 7241SOL     OW22621   5.064   0.035   4.595
 7241SOL    HW122622   5.057   6.961   4.613
 7241SOL    HW222623   5.128   0.077   4.660
 7242SOL     OW22624   5.661   4.866   0.949
 7242SOL    HW122625   5.617   4.805   1.014
 7242SOL    HW222626   5.644   4.833   0.856
 7243SOL     OW22627   0.702   5.728   0.368
 7243SOL    HW122628   0.646   5.722   0.286
 7243SOL    HW222629   0.644   5.752   0.446
 7244SOL     OW22630   5.708   1.736   0.828
 7244SOL    HW122631   5.790   1.740   0.886
 7244SOL    HW222632   5.681   1.829   0.802
 7245SOL     OW22633   6.376   2.052   4.593
 7245SOL    HW122634   6.427   2.022   4.674
 7245SOL    HW222635   6.297   2.106   4.621
 7246SOL     OW22636   1.419   5.730   5.399
 7246SOL    HW122637   1.357   5.740   5.478
 7246SOL    HW222638   1.468   5.643   5.406
 7247SOL     OW22639   3.754   5.810   3.981
 7247SOL    HW122640   3.832   5.765   3.938
 7247SOL    HW222641   3.689   5.840   3.911
 7248SOL     OW22642   3.503   0.680   4.215
 7248SOL    HW122643   3.564   0.678   4.136
 7248SOL    HW222644   3.554   0.658   4.298
 7249SOL     OW22645   4.941   3.624   5.729
 7249SOL    HW122646   4.860   3.627   5.787
 7249SOL    HW222647   4.946   3.707   5.673
 7250SOL     OW22648   2.921   3.534   0.018
 7250SOL    HW122649   2.879   3.454   6.999
 7250SOL    HW222650   2.903   3.615   6.986
 7251SOL     OW22651   5.727   1.295   5.195
 7251SOL    HW122652   5.713   1.394   5.191
 7251SOL    HW222653   5.695   1.260   5.282
 7252SOL     OW22654   4.385   3.393   5.274
 7252SOL    HW122655   4.455   3.459   5.247
 7252SOL    HW222656   4.301   3.412   5.223
 7253SOL     OW22657   5.168   4.653   1.209
 7253SOL    HW122658   5.167   4.597   1.292
 7253SOL    HW222659   5.138   4.746   1.231
 7254SOL     OW22660   5.636   6.350   5.050
 7254SOL    HW122661   5.640   6.396   4.962
 7254SOL    HW222662   5.716   6.377   5.105
 7255SOL     OW22663   4.094   3.464   2.726
 7255SOL    HW122664   4.079   3.369   2.696
 7255SOL    HW222665   4.075   3.525   2.649
 7256SOL     OW22666   3.594   4.999   3.621
 7256SOL    HW122667   3.691   5.022   3.612
 7256SOL    HW222668   3.563   5.020   3.714
 7257SOL     OW22669   6.315   4.187   2.977
 7257SOL    HW122670   6.261   4.108   2.946
 7257SOL    HW222671   6.377   4.215   2.905
 7258SOL     OW22672   2.615   0.016   5.778
 7258SOL    HW122673   2.591   0.097   5.724
 7258SOL    HW222674   2.649   6.968   5.716
 7259SOL     OW22675   2.882   4.843   6.353
 7259SOL    HW122676   2.968   4.792   6.344
 7259SOL    HW222677   2.888   4.929   6.303
 7260SOL     OW22678   4.350   1.775   2.658
 7260SOL    HW122679   4.348   1.849   2.725
 7260SOL    HW222680   4.441   1.768   2.619
 7261SOL     OW22681   1.577   4.863   1.191
 7261SOL    HW122682   1.677   4.869   1.185
 7261SOL    HW222683   1.544   4.794   1.127
 7262SOL     OW22684   5.930   0.650   5.290
 7262SOL    HW122685   5.860   0.585   5.261
 7262SOL    HW222686   5.973   0.691   5.210
 7263SOL     OW22687   5.115   6.564   1.771
 7263SOL    HW122688   5.210   6.578   1.798
 7263SOL    HW222689   5.106   6.474   1.728
 7264SOL     OW22690   1.196   6.583   4.222
 7264SOL    HW122691   1.202   6.501   4.165
 7264SOL    HW222692   1.192   6.556   4.318
 7265SOL     OW22693   4.383   3.538   6.353
 7265SOL    HW122694   4.383   3.441   6.375
 7265SOL    HW222695   4.430   3.588   6.426
 7266SOL     OW22696   3.650   1.791   2.203
 7266SOL    HW122697   3.608   1.730   2.136
 7266SOL    HW222698   3.633   1.886   2.175
 7267SOL     OW22699   5.951   3.264   4.849
 7267SOL    HW122700   5.876   3.211   4.809
 7267SOL    HW222701   6.030   3.261   4.787
 7268SOL     OW22702   3.747   0.897   0.520
 7268SOL    HW122703   3.669   0.905   0.582
 7268SOL    HW222704   3.719   0.851   0.436
 7269SOL     OW22705   1.259   0.429   1.988
 7269SOL    HW122706   1.173   0.445   2.036
 7269SOL    HW222707   1.317   0.368   2.041
 7270SOL     OW22708   3.322   1.342   2.343
 7270SOL    HW122709   3.314   1.422   2.403
 7270SOL    HW222710   3.342   1.372   2.250
 7271SOL     OW22711   6.108   5.202   3.915
 7271SOL    HW122712   6.063   5.126   3.868
 7271SOL    HW222713   6.132   5.273   3.849
 7272SOL     OW22714   6.649   2.241   1.142
 7272SOL    HW122715   6.744   2.219   1.121
 7272SOL    HW222716   6.633   2.339   1.130
 7273SOL     OW22717   5.587   5.909   5.617
 7273SOL    HW122718   5.499   5.871   5.647
 7273SOL    HW222719   5.654   5.835   5.609
 7274SOL     OW22720   5.964   4.525   4.474
 7274SOL    HW122721   5.921   4.563   4.555
 7274SOL    HW222722   5.922   4.564   4.392
 7275SOL     OW22723   5.584   6.599   1.144
 7275SOL    HW122724   5.577   6.516   1.088
 7275SOL    HW222725   5.585   6.680   1.085
 7276SOL     OW22726   2.796   2.285   3.847
 7276SOL    HW122727   2.752   2.305   3.934
 7276SOL    HW222728   2.867   2.353   3.829
 7277SOL     OW22729   6.360   1.455   4.219
 7277SOL    HW122730   6.452   1.419   4.230
 7277SOL    HW222731   6.345   1.529   4.284
 7278SOL     OW22732   3.011   2.175   4.033
 7278SOL    HW122733   3.024   2.155   4.130
 7278SOL    HW222734   2.914   2.184   4.013
 7279SOL     OW22735   4.266   3.527   1.130
 7279SOL    HW122736   4.265   3.599   1.199
 7279SOL    HW222737   4.171   3.503   1.106
 7280SOL     OW22738   6.824   2.045   5.195
 7280SOL    HW122739   6.778   2.069   5.280
 7280SOL    HW222740   6.904   1.989   5.215
 7281SOL     OW22741   3.491   6.398   2.352
 7281SOL    HW122742   3.551   6.338   2.406
 7281SOL    HW222743   3.522   6.399   2.257
 7282SOL     OW22744   0.289   3.570   1.589
 7282SOL    HW122745   0.197   3.530   1.588
 7282SOL    HW222746   0.292   3.647   1.526
 7283SOL     OW22747   3.799   6.051   2.860
 7283SOL    HW122748   3.851   6.009   2.786
 7283SOL    HW222749   3.792   6.150   2.844
 7284SOL     OW22750   0.629   1.191   2.852
 7284SOL    HW122751   0.529   1.194   2.850
 7284SOL    HW222752   0.662   1.131   2.779
 7285SOL     OW22753   5.376   2.940   2.057
 7285SOL    HW122754   5.349   2.966   1.964
 7285SOL    HW222755   5.295   2.909   2.107
 7286SOL     OW22756   6.110   1.290   4.243
 7286SOL    HW122757   6.203   1.322   4.263
 7286SOL    HW222758   6.090   1.304   4.146
 7287SOL     OW22759   3.340   1.040   4.147
 7287SOL    HW122760   3.363   1.061   4.242
 7287SOL    HW222761   3.241   1.032   4.138
 7288SOL     OW22762   3.115   1.592   1.980
 7288SOL    HW122763   3.092   1.625   2.072
 7288SOL    HW222764   3.186   1.649   1.940
 7289SOL     OW22765   6.020   2.764   2.103
 7289SOL    HW122766   6.029   2.701   2.180
 7289SOL    HW222767   6.055   2.720   2.020
 7290SOL     OW22768   3.739   1.781   4.952
 7290SOL    HW122769   3.703   1.816   5.038
 7290SOL    HW222770   3.764   1.858   4.892
 7291SOL     OW22771   1.608   1.231   0.592
 7291SOL    HW122772   1.546   1.189   0.659
 7291SOL    HW222773   1.595   1.188   0.503
 7292SOL     OW22774   3.181   1.039   2.738
 7292SOL    HW122775   3.277   1.043   2.710
 7292SOL    HW222776   3.130   0.980   2.676
 7293SOL     OW22777   6.337   1.129   4.564
 7293SOL    HW122778   6.394   1.116   4.483
 7293SOL    HW222779   6.241   1.135   4.537
 7294SOL     OW22780   4.055   0.220   2.903
 7294SOL    HW122781   4.078   0.243   2.997
 7294SOL    HW222782   3.967   0.260   2.879
 7295SOL     OW22783   5.361   3.840   1.508
 7295SOL    HW122784   5.434   3.901   1.541
 7295SOL    HW222785   5.379   3.747   1.538
 7296SOL     OW22786   3.301   6.289   2.113
 7296SOL    HW122787   3.242   6.360   2.152
 7296SOL    HW222788   3.289   6.204   2.165
 7297SOL     OW22789   3.799   6.784   0.391
 7297SOL    HW122790   3.871   6.770   0.459
 7297SOL    HW222791   3.744   6.863   0.417
 7298SOL     OW22792   4.335   5.146   1.414
 7298SOL    HW122793   4.260   5.112   1.357
 7298SOL    HW222794   4.311   5.137   1.510
 7299SOL     OW22795   0.106   3.783   6.272
 7299SOL    HW122796   0.163   3.859   6.240
 7299SOL    HW222797   0.144   3.746   6.357
 7300SOL     OW22798   0.874   4.216   1.832
 7300SOL    HW122799   0.868   4.256   1.740
 7300SOL    HW222800   0.970   4.213   1.860
 7301SOL     OW22801   4.315   2.281   0.265
 7301SOL    HW122802   4.348   2.241   0.351
 7301SOL    HW222803   4.216   2.270   0.259
 7302SOL     OW22804   5.615   2.007   6.464
 7302SOL    HW122805   5.531   1.956   6.479
 7302SOL    HW222806   5.694   1.949   6.486
 7303SOL     OW22807   2.863   2.053   1.701
 7303SOL    HW122808   2.891   1.958   1.688
 7303SOL    HW222809   2.800   2.059   1.778
 7304SOL     OW22810   2.229   6.629   0.755
 7304SOL    HW122811   2.318   6.605   0.716
 7304SOL    HW222812   2.189   6.549   0.800
 7305SOL     OW22813   5.827   0.304   6.283
 7305SOL    HW122814   5.744   0.284   6.334
 7305SOL    HW222815   5.838   0.403   6.274
 7306SOL     OW22816   1.284   3.197   1.421
 7306SOL    HW122817   1.251   3.105   1.399
 7306SOL    HW222818   1.241   3.229   1.505
 7307SOL     OW22819   3.170   0.359   1.849
 7307SOL    HW122820   3.252   0.364   1.905
 7307SOL    HW222821   3.195   0.333   1.755
 7308SOL     OW22822   3.784   1.450   3.151
 7308SOL    HW122823   3.825   1.461   3.060
 7308SOL    HW222824   3.768   1.353   3.169
 7309SOL     OW22825   2.350   5.605   3.765
 7309SOL    HW122826   2.253   5.626   3.751
 7309SOL    HW222827   2.358   5.519   3.815
 7310SOL     OW22828   2.622   2.817   0.012
 7310SOL    HW122829   2.627   2.750   6.963
 7310SOL    HW222830   2.597   2.906   6.998
 7311SOL     OW22831   0.235   6.507   6.068
 7311SOL    HW122832   0.335   6.511   6.065
 7311SOL    HW222833   0.202   6.446   5.996
 7312SOL     OW22834   6.142   1.966   4.810
 7312SOL    HW122835   6.048   1.988   4.781
 7312SOL    HW222836   6.177   1.891   4.753
 7313SOL     OW22837   3.073   0.861   2.533
 7313SOL    HW122838   3.075   0.773   2.486
 7313SOL    HW222839   3.148   0.918   2.499
 7314SOL     OW22840   1.820   5.102   5.229
 7314SOL    HW122841   1.821   5.118   5.327
 7314SOL    HW222842   1.731   5.065   5.201
 7315SOL     OW22843   3.300   5.112   2.826
 7315SOL    HW122844   3.375   5.055   2.860
 7315SOL    HW222845   3.248   5.148   2.903
 7316SOL     OW22846   3.777   1.416   1.438
 7316SOL    HW122847   3.824   1.394   1.524
 7316SOL    HW222848   3.760   1.514   1.433
 7317SOL     OW22849   5.359   2.051   0.783
 7317SOL    HW122850   5.279   2.055   0.723
 7317SOL    HW222851   5.362   1.963   0.830
 7318SOL     OW22852   4.735   6.718   1.234
 7318SOL    HW122853   4.762   6.683   1.145
 7318SOL    HW222854   4.710   6.814   1.227
 7319SOL     OW22855   4.999   5.994   6.752
 7319SOL    HW122856   5.086   6.015   6.797
 7319SOL    HW222857   4.946   5.932   6.809
 7320SOL     OW22858   0.586   2.886   7.012
 7320SOL    HW122859   0.497   2.861   0.025
 7320SOL    HW222860   0.621   2.967   0.035
 7321SOL     OW22861   2.288   2.267   5.734
 7321SOL    HW122862   2.220   2.260   5.808
 7321SOL    HW222863   2.330   2.178   5.719
 7322SOL     OW22864   1.618   2.305   3.935
 7322SOL    HW122865   1.605   2.404   3.930
 7322SOL    HW222866   1.532   2.258   3.914
 7323SOL     OW22867   1.512   1.901   0.874
 7323SOL    HW122868   1.526   1.840   0.796
 7323SOL    HW222869   1.422   1.943   0.869
 7324SOL     OW22870   4.982   3.612   4.514
 7324SOL    HW122871   4.961   3.633   4.609
 7324SOL    HW222872   4.991   3.514   4.502
 7325SOL     OW22873   3.764   1.569   6.157
 7325SOL    HW122874   3.839   1.593   6.095
 7325SOL    HW222875   3.727   1.652   6.198
 7326SOL     OW22876   4.004   6.526   0.466
 7326SOL    HW122877   4.072   6.520   0.393
 7326SOL    HW222878   4.022   6.455   0.534
 7327SOL     OW22879   1.448   4.626   3.623
 7327SOL    HW122880   1.465   4.547   3.682
 7327SOL    HW222881   1.432   4.707   3.680
 7328SOL     OW22882   4.959   5.379   5.876
 7328SOL    HW122883   4.971   5.429   5.790
 7328SOL    HW222884   4.866   5.392   5.909
 7329SOL     OW22885   2.486   3.217   0.986
 7329SOL    HW122886   2.499   3.187   1.080
 7329SOL    HW222887   2.557   3.176   0.928
 7330SOL     OW22888   2.907   3.209   0.880
 7330SOL    HW122889   2.956   3.136   0.927
 7330SOL    HW222890   2.969   3.256   0.818
 7331SOL     OW22891   5.236   1.829   2.466
 7331SOL    HW122892   5.196   1.753   2.415
 7331SOL    HW222893   5.200   1.915   2.430
 7332SOL     OW22894   2.765   6.702   5.355
 7332SOL    HW122895   2.846   6.750   5.322
 7332SOL    HW222896   2.695   6.768   5.380
 7333SOL     OW22897   6.116   0.902   1.392
 7333SOL    HW122898   6.129   0.998   1.418
 7333SOL    HW222899   6.019   0.879   1.400
 7334SOL     OW22900   1.760   4.425   5.058
 7334SOL    HW122901   1.837   4.407   5.120
 7334SOL    HW222902   1.746   4.345   5.000
 7335SOL     OW22903   1.140   3.665   2.612
 7335SOL    HW122904   1.161   3.760   2.636
 7335SOL    HW222905   1.183   3.641   2.525
 7336SOL     OW22906   2.372   0.001   1.036
 7336SOL    HW122907   2.391   6.954   0.967
 7336SOL    HW222908   2.347   0.086   0.991
 7337SOL     OW22909   3.320   1.350   3.912
 7337SOL    HW122910   3.378   1.431   3.907
 7337SOL    HW222911   3.228   1.377   3.941
 7338SOL     OW22912   4.998   4.095   1.359
 7338SOL    HW122913   4.964   4.142   1.440
 7338SOL    HW222914   4.977   4.149   1.277
 7339SOL     OW22915   0.195   6.504   4.842
 7339SOL    HW122916   0.286   6.535   4.868
 7339SOL    HW222917   0.165   6.433   4.906
 7340SOL     OW22918   2.585   6.122   6.953
 7340SOL    HW122919   2.538   6.101   6.868
 7340SOL    HW222920   2.559   6.213   6.985
 7341SOL     OW22921   6.213   5.436   3.770
 7341SOL    HW122922   6.170   5.526   3.772
 7341SOL    HW222923   6.313   5.446   3.775
 7342SOL     OW22924   1.010   5.389   0.359
 7342SOL    HW122925   1.014   5.400   0.458
 7342SOL    HW222926   1.099   5.360   0.324
 7343SOL     OW22927   6.624   2.277   3.254
 7343SOL    HW122928   6.526   2.259   3.256
 7343SOL    HW222929   6.661   2.277   3.347
 7344SOL     OW22930   2.304   0.880   6.342
 7344SOL    HW122931   2.381   0.919   6.393
 7344SOL    HW222932   2.329   0.789   6.308
 7345SOL     OW22933   2.184   6.634   6.560
 7345SOL    HW122934   2.095   6.677   6.545
 7345SOL    HW222935   2.226   6.674   6.641
 7346SOL     OW22936   4.008   4.940   2.744
 7346SOL    HW122937   3.913   4.934   2.713
 7346SOL    HW222938   4.058   5.006   2.687
 7347SOL     OW22939   6.441   2.647   2.957
 7347SOL    HW122940   6.535   2.632   2.926
 7347SOL    HW222941   6.384   2.671   2.878
 7348SOL     OW22942   6.608   1.380   6.002
 7348SOL    HW122943   6.661   1.330   5.933
 7348SOL    HW222944   6.660   1.384   6.087
 7349SOL     OW22945   3.880   1.795   1.507
 7349SOL    HW122946   3.854   1.735   1.431
 7349SOL    HW222947   3.803   1.852   1.533
 7350SOL     OW22948   2.715   1.019   3.062
 7350SOL    HW122949   2.749   1.099   3.013
 7350SOL    HW222950   2.615   1.018   3.060
 7351SOL     OW22951   4.422   4.310   0.906
 7351SOL    HW122952   4.355   4.383   0.891
 7351SOL    HW222953   4.443   4.267   0.818
 7352SOL     OW22954   6.764   0.696   3.254
 7352SOL    HW122955   6.702   0.665   3.326
 7352SOL    HW222956   6.836   0.628   3.241
 7353SOL     OW22957   5.570   1.342   5.439
 7353SOL    HW122958   5.476   1.342   5.473
 7353SOL    HW222959   5.633   1.342   5.516
 7354SOL     OW22960   6.040   4.741   4.886
 7354SOL    HW122961   6.045   4.794   4.801
 7354SOL    HW222962   6.040   4.804   4.964
 7355SOL     OW22963   0.359   5.579   0.987
 7355SOL    HW122964   0.361   5.486   0.951
 7355SOL    HW222965   0.422   5.587   1.064
 7356SOL     OW22966   0.254   2.338   5.896
 7356SOL    HW122967   0.246   2.306   5.802
 7356SOL    HW222968   0.327   2.288   5.943
 7357SOL     OW22969   0.797   1.443   6.998
 7357SOL    HW122970   0.758   1.415   6.910
 7357SOL    HW222971   0.724   1.455   0.041
 7358SOL     OW22972   3.333   0.888   3.680
 7358SOL    HW122973   3.288   0.930   3.601
 7358SOL    HW222974   3.370   0.959   3.739
 7359SOL     OW22975   3.414   3.017   3.442
 7359SOL    HW122976   3.458   2.929   3.425
 7359SOL    HW222977   3.439   3.082   3.370
 7360SOL     OW22978   0.474   3.701   6.487
 7360SOL    HW122979   0.500   3.610   6.520
 7360SOL    HW222980   0.381   3.722   6.517
 7361SOL     OW22981   4.495   6.742   1.505
 7361SOL    HW122982   4.480   6.690   1.421
 7361SOL    HW222983   4.459   6.690   1.583
 7362SOL     OW22984   1.855   6.106   6.303
 7362SOL    HW122985   1.765   6.093   6.261
 7362SOL    HW222986   1.914   6.028   6.280
 7363SOL     OW22987   4.842   2.895   6.482
 7363SOL    HW122988   4.915   2.857   6.425
 7363SOL    HW222989   4.882   2.947   6.557
 7364SOL     OW22990   4.595   0.395   1.369
 7364SOL    HW122991   4.562   0.459   1.438
 7364SOL    HW222992   4.585   0.301   1.402
 7365SOL     OW22993   4.594   0.164   1.547
 7365SOL    HW122994   4.683   0.131   1.516
 7365SOL    HW222995   4.602   0.199   1.640
 7366SOL     OW22996   1.134   6.733   0.328
 7366SOL    HW122997   1.169   6.650   0.370
 7366SOL    HW222998   1.200   6.768   0.262
 7367SOL     OW22999   4.829   2.708   0.059
 7367SOL    HW123000   4.835   2.796   0.106
 7367SOL    HW223001   4.866   2.636   0.117
 7368SOL     OW23002   3.270   3.266   4.082
 7368SOL    HW123003   3.314   3.299   3.999
 7368SOL    HW223004   3.318   3.303   4.162
 7369SOL     OW23005   5.319   0.971   6.159
 7369SOL    HW123006   5.262   1.046   6.125
 7369SOL    HW223007   5.325   0.901   6.088
 7370SOL     OW23008   0.928   5.756   0.778
 7370SOL    HW123009   0.988   5.824   0.821
 7370SOL    HW223010   0.947   5.753   0.680
 7371SOL     OW23011   1.842   4.654   4.410
 7371SOL    HW123012   1.901   4.685   4.336
 7371SOL    HW223013   1.847   4.719   4.486
 7372SOL     OW23014   3.151   0.251   5.243
 7372SOL    HW123015   3.159   0.347   5.215
 7372SOL    HW223016   3.073   0.241   5.305
 7373SOL     OW23017   3.750   0.315   0.861
 7373SOL    HW123018   3.830   0.339   0.916
 7373SOL    HW223019   3.774   0.318   0.764
 7374SOL     OW23020   2.260   3.317   6.609
 7374SOL    HW123021   2.298   3.383   6.674
 7374SOL    HW223022   2.335   3.268   6.564
 7375SOL     OW23023   2.648   6.352   2.944
 7375SOL    HW123024   2.553   6.321   2.944
 7375SOL    HW223025   2.686   6.344   3.036
 7376SOL     OW23026   2.957   4.037   6.146
 7376SOL    HW123027   2.900   3.955   6.144
 7376SOL    HW223028   3.004   4.042   6.234
 7377SOL     OW23029   6.396   5.975   1.712
 7377SOL    HW123030   6.466   6.027   1.663
 7377SOL    HW223031   6.329   5.940   1.647
 7378SOL     OW23032   0.247   2.716   5.677
 7378SOL    HW123033   0.183   2.778   5.632
 7378SOL    HW223034   0.208   2.685   5.764
 7379SOL     OW23035   4.548   0.713   0.431
 7379SOL    HW123036   4.487   0.731   0.508
 7379SOL    HW223037   4.516   0.764   0.351
 7380SOL     OW23038   6.757   2.833   6.032
 7380SOL    HW123039   6.677   2.847   6.090
 7380SOL    HW223040   6.817   2.913   6.039
 7381SOL     OW23041   4.811   2.372   0.518
 7381SOL    HW123042   4.753   2.319   0.579
 7381SOL    HW223043   4.757   2.444   0.474
 7382SOL     OW23044   0.802   5.638   3.827
 7382SOL    HW123045   0.846   5.702   3.889
 7382SOL    HW223046   0.732   5.685   3.773
 7383SOL     OW23047   1.376   4.765   2.897
 7383SOL    HW123048   1.337   4.754   2.988
 7383SOL    HW223049   1.381   4.862   2.874
 7384SOL     OW23050   6.435   2.055   1.084
 7384SOL    HW123051   6.391   2.046   0.994
 7384SOL    HW223052   6.515   2.114   1.076
 7385SOL     OW23053   4.896   0.759   1.539
 7385SOL    HW123054   4.994   0.743   1.552
 7385SOL    HW223055   4.851   0.770   1.628
 7386SOL     OW23056   0.083   2.349   6.108
 7386SOL    HW123057   0.151   2.390   6.169
 7386SOL    HW223058   0.123   2.335   6.018
 7387SOL     OW23059   5.375   6.475   3.788
 7387SOL    HW123060   5.441   6.541   3.821
 7387SOL    HW223061   5.416   6.421   3.714
 7388SOL     OW23062   5.344   4.270   5.108
 7388SOL    HW123063   5.261   4.270   5.052
 7388SOL    HW223064   5.385   4.179   5.107
 7389SOL     OW23065   0.569   3.659   4.618
 7389SOL    HW123066   0.596   3.563   4.615
 7389SOL    HW223067   0.611   3.702   4.698
 7390SOL     OW23068   3.403   0.479   6.268
 7390SOL    HW123069   3.464   0.555   6.292
 7390SOL    HW223070   3.441   0.394   6.304
 7391SOL     OW23071   0.160   4.843   6.983
 7391SOL    HW123072   0.221   4.820   0.035
 7391SOL    HW223073   0.157   4.768   6.917
 7392SOL     OW23074   2.059   4.615   2.362
 7392SOL    HW123075   2.072   4.591   2.266
 7392SOL    HW223076   2.149   4.628   2.405
 7393SOL     OW23077   1.055   3.987   0.016
 7393SOL    HW123078   0.971   4.017   0.062
 7393SOL    HW223079   1.059   3.887   0.018
 7394SOL     OW23080   2.626   2.593   5.794
 7394SOL    HW123081   2.633   2.646   5.709
 7394SOL    HW223082   2.530   2.585   5.820
 7395SOL     OW23083   2.293   0.008   6.947
 7395SOL    HW123084   2.197   7.004   6.950
 7395SOL    HW223085   2.322   0.020   6.852
 7396SOL     OW23086   6.523   0.053   1.730
 7396SOL    HW123087   6.428   0.065   1.703
 7396SOL    HW223088   6.553   6.985   1.706
 7397SOL     OW23089   6.351   4.201   4.324
 7397SOL    HW123090   6.450   4.205   4.337
 7397SOL    HW223091   6.321   4.106   4.327
 7398SOL     OW23092   4.699   6.572   3.153
 7398SOL    HW123093   4.600   6.567   3.137
 7398SOL    HW223094   4.727   6.667   3.159
 7399SOL     OW23095   5.306   4.342   4.727
 7399SOL    HW123096   5.301   4.245   4.703
 7399SOL    HW223097   5.379   4.356   4.794
 7400SOL     OW23098   3.183   3.872   0.579
 7400SOL    HW123099   3.208   3.797   0.641
 7400SOL    HW223100   3.203   3.846   0.485
 7401SOL     OW23101   5.895   2.250   5.101
 7401SOL    HW123102   5.942   2.332   5.134
 7401SOL    HW223103   5.862   2.265   5.008
 7402SOL     OW23104   2.795   6.160   4.394
 7402SOL    HW123105   2.788   6.147   4.295
 7402SOL    HW223106   2.859   6.092   4.432
 7403SOL     OW23107   3.010   2.847   1.241
 7403SOL    HW123108   3.088   2.792   1.273
 7403SOL    HW223109   2.930   2.826   1.297
 7404SOL     OW23110   0.875   1.784   2.624
 7404SOL    HW123111   0.817   1.741   2.555
 7404SOL    HW223112   0.964   1.738   2.626
 7405SOL     OW23113   4.069   4.959   6.281
 7405SOL    HW123114   3.987   4.905   6.298
 7405SOL    HW223115   4.150   4.901   6.286
 7406SOL     OW23116   0.285   6.464   1.894
 7406SOL    HW123117   0.353   6.424   1.955
 7406SOL    HW223118   0.331   6.515   1.821
 7407SOL     OW23119   2.725   0.421   6.144
 7407SOL    HW123120   2.792   0.404   6.072
 7407SOL    HW223121   2.750   0.370   6.226
 7408SOL     OW23122   0.835   3.764   5.014
 7408SOL    HW123123   0.826   3.857   5.052
 7408SOL    HW223124   0.865   3.702   5.087
 7409SOL     OW23125   2.531   6.835   5.421
 7409SOL    HW123126   2.513   6.875   5.331
 7409SOL    HW223127   2.457   6.772   5.444
 7410SOL     OW23128   4.917   5.356   6.354
 7410SOL    HW123129   4.895   5.400   6.267
 7410SOL    HW223130   4.961   5.268   6.336
 7411SOL     OW23131   4.949   4.762   5.767
 7411SOL    HW123132   4.933   4.854   5.802
 7411SOL    HW223133   4.911   4.754   5.674
 7412SOL     OW23134   1.317   1.245   6.347
 7412SOL    HW123135   1.387   1.315   6.331
 7412SOL    HW223136   1.238   1.287   6.392
 7413SOL     OW23137   6.542   3.633   3.907
 7413SOL    HW123138   6.629   3.583   3.901
 7413SOL    HW223139   6.556   3.728   3.880
 7414SOL     OW23140   0.574   4.875   1.658
 7414SOL    HW123141   0.670   4.861   1.633
 7414SOL    HW223142   0.515   4.840   1.585
 7415SOL     OW23143   3.276   1.728   3.537
 7415SOL    HW123144   3.258   1.687   3.447
 7415SOL    HW223145   3.190   1.756   3.579
 7416SOL     OW23146   6.298   6.918   3.400
 7416SOL    HW123147   6.364   6.853   3.361
 7416SOL    HW223148   6.344   7.006   3.414
 7417SOL     OW23149   0.728   5.457   0.718
 7417SOL    HW123150   0.709   5.465   0.620
 7417SOL    HW223151   0.651   5.411   0.763
 7418SOL     OW23152   1.086   3.691   0.488
 7418SOL    HW123153   1.143   3.626   0.438
 7418SOL    HW223154   1.007   3.716   0.432
 7419SOL     OW23155   5.730   1.880   5.223
 7419SOL    HW123156   5.739   1.976   5.194
 7419SOL    HW223157   5.665   1.874   5.298
 7420SOL     OW23158   6.990   5.567   2.373
 7420SOL    HW123159   7.007   5.618   2.457
 7420SOL    HW223160   0.053   5.537   2.334
 7421SOL     OW23161   4.552   2.204   1.116
 7421SOL    HW123162   4.634   2.150   1.098
 7421SOL    HW223163   4.482   2.182   1.048
 7422SOL     OW23164   0.866   1.476   0.503
 7422SOL    HW123165   0.900   1.383   0.493
 7422SOL    HW223166   0.836   1.491   0.597
 7423SOL     OW23167   2.481   4.438   0.205
 7423SOL    HW123168   2.508   4.482   0.119
 7423SOL    HW223169   2.431   4.354   0.185
 7424SOL     OW23170   5.200   0.149   4.807
 7424SOL    HW123171   5.275   0.086   4.790
 7424SOL    HW223172   5.233   0.243   4.798
 7425SOL     OW23173   3.947   0.431   4.961
 7425SOL    HW123174   4.040   0.459   4.935
 7425SOL    HW223175   3.881   0.474   4.900
 7426SOL     OW23176   0.048   1.792   6.949
 7426SOL    HW123177   6.988   1.759   6.992
 7426SOL    HW223178   0.069   1.884   6.982
 7427SOL     OW23179   5.155   5.536   5.079
 7427SOL    HW123180   5.090   5.519   5.005
 7427SOL    HW223181   5.217   5.610   5.052
 7428SOL     OW23182   3.972   1.268   5.971
 7428SOL    HW123183   4.026   1.313   5.900
 7428SOL    HW223184   4.028   1.255   6.053
 7429SOL     OW23185   6.490   6.364   4.138
 7429SOL    HW123186   6.498   6.462   4.155
 7429SOL    HW223187   6.410   6.329   4.187
 7430SOL     OW23188   0.766   4.245   4.516
 7430SOL    HW123189   0.733   4.239   4.422
 7430SOL    HW223190   0.697   4.207   4.578
 7431SOL     OW23191   0.572   4.106   2.433
 7431SOL    HW123192   0.615   4.098   2.343
 7431SOL    HW223193   0.599   4.192   2.476
 7432SOL     OW23194   1.451   6.768   4.990
 7432SOL    HW123195   1.496   6.725   5.068
 7432SOL    HW223196   1.393   6.701   4.944
 7433SOL     OW23197   0.263   6.059   0.955
 7433SOL    HW123198   0.344   6.002   0.943
 7433SOL    HW223199   0.186   6.002   0.982
 7434SOL     OW23200   3.870   6.882   7.017
 7434SOL    HW123201   3.806   6.812   0.024
 7434SOL    HW223202   3.955   6.875   0.045
 7435SOL     OW23203   1.733   6.150   6.925
 7435SOL    HW123204   1.669   6.146   6.848
 7435SOL    HW223205   1.737   6.060   6.969
 7436SOL     OW23206   4.437   3.402   0.004
 7436SOL    HW123207   4.506   3.473   7.012
 7436SOL    HW223208   4.346   3.442   7.023
 7437SOL     OW23209   6.929   6.471   5.551
 7437SOL    HW123210   6.869   6.549   5.537
 7437SOL    HW223211   6.975   6.479   5.639
 7438SOL     OW23212   5.567   4.029   1.519
 7438SOL    HW123213   5.564   4.086   1.437
 7438SOL    HW223214   5.622   4.074   1.589
 7439SOL     OW23215   0.929   6.383   3.376
 7439SOL    HW123216   0.961   6.476   3.396
 7439SOL    HW223217   0.917   6.332   3.462
 7440SOL     OW23218   0.519   1.595   3.875
 7440SOL    HW123219   0.425   1.572   3.901
 7440SOL    HW223220   0.523   1.612   3.777
 7441SOL     OW23221   6.114   0.320   3.626
 7441SOL    HW123222   6.076   0.378   3.554
 7441SOL    HW223223   6.205   0.351   3.650
 7442SOL     OW23224   1.862   0.579   5.857
 7442SOL    HW123225   1.910   0.554   5.772
 7442SOL    HW223226   1.901   0.527   5.933
 7443SOL     OW23227   6.759   1.976   1.787
 7443SOL    HW123228   6.822   1.905   1.818
 7443SOL    HW223229   6.808   2.043   1.731
 7444SOL     OW23230   0.263   2.666   5.033
 7444SOL    HW123231   0.224   2.603   4.967
 7444SOL    HW223232   0.316   2.615   5.101
 7445SOL     OW23233   5.880   3.300   1.779
 7445SOL    HW123234   5.939   3.286   1.858
 7445SOL    HW223235   5.908   3.239   1.705
 7446SOL     OW23236   6.206   3.213   2.821
 7446SOL    HW123237   6.279   3.280   2.814
 7446SOL    HW223238   6.174   3.209   2.915
 7447SOL     OW23239   0.126   4.173   6.338
 7447SOL    HW123240   0.151   4.233   6.413
 7447SOL    HW223241   0.034   4.138   6.352
 7448SOL     OW23242   0.357   6.835   6.260
 7448SOL    HW123243   0.285   6.828   6.330
 7448SOL    HW223244   0.439   6.788   6.292
 7449SOL     OW23245   4.029   0.078   1.589
 7449SOL    HW123246   4.064   0.022   1.664
 7449SOL    HW223247   3.987   0.161   1.626
 7450SOL     OW23248   3.964   0.742   2.129
 7450SOL    HW123249   4.014   0.669   2.175
 7450SOL    HW223250   3.876   0.707   2.096
 7451SOL     OW23251   1.521   0.306   2.833
 7451SOL    HW123252   1.612   0.346   2.823
 7451SOL    HW223253   1.463   0.366   2.887
 7452SOL     OW23254   1.746   6.490   3.409
 7452SOL    HW123255   1.784   6.531   3.492
 7452SOL    HW223256   1.650   6.515   3.400
 7453SOL     OW23257   5.792   4.922   5.829
 7453SOL    HW123258   5.841   4.954   5.748
 7453SOL    HW223259   5.731   4.847   5.804
 7454SOL     OW23260   0.791   3.329   6.664
 7454SOL    HW123261   0.723   3.299   6.731
 7454SOL    HW223262   0.880   3.338   6.709
 7455SOL     OW23263   5.104   0.829   0.916
 7455SOL    HW123264   5.182   0.889   0.900
 7455SOL    HW223265   5.082   0.779   0.833
 7456SOL     OW23266   0.871   3.743   5.552
 7456SOL    HW123267   0.846   3.839   5.562
 7456SOL    HW223268   0.796   3.693   5.508
 7457SOL     OW23269   6.560   7.009   5.816
 7457SOL    HW123270   6.483   0.031   5.860
 7457SOL    HW223271   6.525   6.945   5.747
 7458SOL     OW23272   2.214   0.203   1.371
 7458SOL    HW123273   2.225   0.198   1.272
 7458SOL    HW223274   2.122   0.234   1.393
 7459SOL     OW23275   4.231   6.926   4.862
 7459SOL    HW123276   4.266   6.850   4.917
 7459SOL    HW223277   4.246   7.012   4.910
 7460SOL     OW23278   1.120   5.909   0.017
 7460SOL    HW123279   1.031   5.926   0.058
 7460SOL    HW223280   1.120   5.942   6.946
 7461SOL     OW23281   4.106   0.974   4.311
 7461SOL    HW123282   4.115   1.033   4.230
 7461SOL    HW223283   4.086   0.881   4.282
 7462SOL     OW23284   1.851   0.971   2.932
 7462SOL    HW123285   1.836   0.928   3.022
 7462SOL    HW223286   1.856   1.070   2.944
 7463SOL     OW23287   3.535   3.736   1.966
 7463SOL    HW123288   3.583   3.812   2.010
 7463SOL    HW223289   3.577   3.650   1.995
 7464SOL     OW23290   4.865   6.848   0.484
 7464SOL    HW123291   4.939   6.827   0.421
 7464SOL    HW223292   4.806   6.918   0.444
 7465SOL     OW23293   3.813   0.480   2.675
 7465SOL    HW123294   3.767   0.499   2.762
 7465SOL    HW223295   3.840   0.566   2.632
 7466SOL     OW23296   6.668   0.021   6.868
 7466SOL    HW123297   6.575   7.011   6.848
 7466SOL    HW223298   6.667   0.070   6.955
 7467SOL     OW23299   4.922   1.761   0.843
 7467SOL    HW123300   4.854   1.796   0.779
 7467SOL    HW223301   4.888   1.770   0.937
 7468SOL     OW23302   6.006   3.890   4.298
 7468SOL    HW123303   6.007   3.791   4.306
 7468SOL    HW223304   5.993   3.931   4.388
 7469SOL     OW23305   5.948   0.878   2.229
 7469SOL    HW123306   6.030   0.862   2.175
 7469SOL    HW223307   5.875   0.818   2.198
 7470SOL     OW23308   0.154   3.256   2.810
 7470SOL    HW123309   0.086   3.324   2.837
 7470SOL    HW223310   0.138   3.228   2.715
 7471SOL     OW23311   6.282   4.678   5.769
 7471SOL    HW123312   6.234   4.675   5.857
 7471SOL    HW223313   6.268   4.768   5.728
 7472SOL     OW23314   4.431   5.021   2.995
 7472SOL    HW123315   4.525   4.990   2.988
 7472SOL    HW223316   4.370   4.942   3.002
 7473SOL     OW23317   0.622   3.123   5.077
 7473SOL    HW123318   0.665   3.158   5.161
 7473SOL    HW223319   0.632   3.189   5.004
 7474SOL     OW23320   3.230   1.769   2.842
 7474SOL    HW123321   3.239   1.823   2.925
 7474SOL    HW223322   3.162   1.811   2.781
 7475SOL     OW23323   4.386   1.082   6.713
 7475SOL    HW123324   4.380   0.990   6.750
 7475SOL    HW223325   4.305   1.135   6.741
 7476SOL     OW23326   2.605   0.071   4.967
 7476SOL    HW123327   2.507   0.068   4.946
 7476SOL    HW223328   2.651   7.020   4.920
 7477SOL     OW23329   4.884   3.839   3.870
 7477SOL    HW123330   4.836   3.910   3.921
 7477SOL    HW223331   4.856   3.843   3.774
 7478SOL     OW23332   1.465   4.641   1.748
 7478SOL    HW123333   1.417   4.646   1.661
 7478SOL    HW223334   1.404   4.671   1.821
 7479SOL     OW23335   4.642   0.605   5.441
 7479SOL    HW123336   4.594   0.537   5.385
 7479SOL    HW223337   4.736   0.574   5.457
 7480SOL     OW23338   6.422   5.611   0.851
 7480SOL    HW123339   6.394   5.674   0.923
 7480SOL    HW223340   6.342   5.564   0.814
 7481SOL     OW23341   6.014   6.160   0.306
 7481SOL    HW123342   6.084   6.106   0.352
 7481SOL    HW223343   6.058   6.238   0.260
 7482SOL     OW23344   5.476   6.698   4.032
 7482SOL    HW123345   5.534   6.768   3.992
 7482SOL    HW223346   5.381   6.731   4.034
 7483SOL     OW23347   3.116   0.654   5.975
 7483SOL    HW123348   3.162   0.575   6.015
 7483SOL    HW223349   3.179   0.731   5.970
 7484SOL     OW23350   3.751   0.408   2.086
 7484SOL    HW123351   3.740   0.312   2.059
 7484SOL    HW223352   3.831   0.417   2.146
 7485SOL     OW23353   1.218   0.392   4.969
 7485SOL    HW123354   1.169   0.374   4.884
 7485SOL    HW223355   1.159   0.441   5.033
 7486SOL     OW23356   1.258   1.785   5.119
 7486SOL    HW123357   1.243   1.690   5.093
 7486SOL    HW223358   1.184   1.842   5.084
 7487SOL     OW23359   3.565   5.231   3.220
 7487SOL    HW123360   3.573   5.321   3.262
 7487SOL    HW223361   3.621   5.166   3.272
 7488SOL     OW23362   4.212   0.822   5.565
 7488SOL    HW123363   4.155   0.899   5.535
 7488SOL    HW223364   4.292   0.857   5.614
 7489SOL     OW23365   6.772   3.790   3.352
 7489SOL    HW123366   6.871   3.800   3.355
 7489SOL    HW223367   6.748   3.694   3.345
 7490SOL     OW23368   5.632   1.176   3.149
 7490SOL    HW123369   5.588   1.220   3.071
 7490SOL    HW223370   5.723   1.215   3.162
 7491SOL     OW23371   0.336   6.993   0.204
 7491SOL    HW123372   0.248   6.995   0.156
 7491SOL    HW223373   0.354   6.899   0.235
 7492SOL     OW23374   2.551   2.151   3.598
 7492SOL    HW123375   2.535   2.170   3.501
 7492SOL    HW223376   2.597   2.063   3.608
 7493SOL     OW23377   5.247   4.959   6.800
 7493SOL    HW123378   5.171   5.024   6.798
 7493SOL    HW223379   5.216   4.872   6.762
 7494SOL     OW23380   5.175   2.034   1.498
 7494SOL    HW123381   5.238   2.062   1.425
 7494SOL    HW223382   5.106   2.105   1.511
 7495SOL     OW23383   1.049   1.845   2.253
 7495SOL    HW123384   0.955   1.852   2.287
 7495SOL    HW223385   1.109   1.901   2.311
 7496SOL     OW23386   0.302   5.532   5.714
 7496SOL    HW123387   0.303   5.435   5.689
 7496SOL    HW223388   0.391   5.557   5.752
 7497SOL     OW23389   2.069   4.912   2.015
 7497SOL    HW123390   2.089   4.859   1.933
 7497SOL    HW223391   2.122   4.877   2.092
 7498SOL     OW23392   5.470   2.251   4.535
 7498SOL    HW123393   5.416   2.204   4.464
 7498SOL    HW223394   5.519   2.182   4.589
 7499SOL     OW23395   3.994   4.948   3.996
 7499SOL    HW123396   3.985   4.919   4.092
 7499SOL    HW223397   4.016   5.046   3.993
 7500SOL     OW23398   4.760   4.213   1.842
 7500SOL    HW123399   4.790   4.211   1.937
 7500SOL    HW223400   4.662   4.233   1.838
 7501SOL     OW23401   0.421   4.767   3.981
 7501SOL    HW123402   0.364   4.837   3.941
 7501SOL    HW223403   0.514   4.801   3.992
 7502SOL     OW23404   1.942   2.158   4.189
 7502SOL    HW123405   1.908   2.198   4.274
 7502SOL    HW223406   1.893   2.073   4.170
 7503SOL     OW23407   2.444   2.745   6.812
 7503SOL    HW123408   2.536   2.766   6.778
 7503SOL    HW223409   2.376   2.784   6.750
 7504SOL     OW23410   3.927   5.075   3.531
 7504SOL    HW123411   3.903   4.993   3.478
 7504SOL    HW223412   3.866   5.150   3.506
 7505SOL     OW23413   1.577   1.208   4.270
 7505SOL    HW123414   1.500   1.195   4.333
 7505SOL    HW223415   1.582   1.304   4.244
 7506SOL     OW23416   3.438   1.426   3.295
 7506SOL    HW123417   3.452   1.361   3.370
 7506SOL    HW223418   3.459   1.381   3.208
 7507SOL     OW23419   1.771   6.081   5.533
 7507SOL    HW123420   1.711   6.122   5.602
 7507SOL    HW223421   1.723   6.006   5.488
 7508SOL     OW23422   4.948   5.483   4.152
 7508SOL    HW123423   4.882   5.555   4.132
 7508SOL    HW223424   4.948   5.464   4.250
 7509SOL     OW23425   4.114   3.730   6.498
 7509SOL    HW123426   4.195   3.707   6.553
 7509SOL    HW223427   4.138   3.730   6.401
 7510SOL     OW23428   3.830   4.094   4.526
 7510SOL    HW123429   3.785   4.030   4.589
 7510SOL    HW223430   3.814   4.187   4.557
 7511SOL     OW23431   0.796   0.482   1.900
 7511SOL    HW123432   0.875   0.516   1.951
 7511SOL    HW223433   0.817   0.391   1.863
 7512SOL     OW23434   1.977   2.842   1.734
 7512SOL    HW123435   1.984   2.746   1.708
 7512SOL    HW223436   2.068   2.880   1.748
 7513SOL     OW23437   1.392   3.301   6.240
 7513SOL    HW123438   1.404   3.212   6.284
 7513SOL    HW223439   1.346   3.364   6.304
 7514SOL     OW23440   3.014   5.642   3.455
 7514SOL    HW123441   3.025   5.637   3.356
 7514SOL    HW223442   3.050   5.558   3.497
 7515SOL     OW23443   0.004   4.879   2.858
 7515SOL    HW123444   0.095   4.854   2.891
 7515SOL    HW223445   6.980   4.797   2.825
 7516SOL     OW23446   1.267   1.920   1.797
 7516SOL    HW123447   1.285   1.822   1.791
 7516SOL    HW223448   1.199   1.936   1.869
 7517SOL     OW23449   0.850   4.658   0.916
 7517SOL    HW123450   0.804   4.581   0.871
 7517SOL    HW223451   0.782   4.724   0.946
 7518SOL     OW23452   5.143   4.770   3.521
 7518SOL    HW123453   5.241   4.786   3.527
 7518SOL    HW223454   5.097   4.856   3.496
 7519SOL     OW23455   1.639   0.263   4.269
 7519SOL    HW123456   1.656   0.177   4.316
 7519SOL    HW223457   1.637   0.338   4.335
 7520SOL     OW23458   2.693   0.110   3.880
 7520SOL    HW123459   2.641   0.025   3.877
 7520SOL    HW223460   2.639   0.184   3.840
 7521SOL     OW23461   4.198   3.305   5.728
 7521SOL    HW123462   4.198   3.377   5.659
 7521SOL    HW223463   4.291   3.275   5.744
 7522SOL     OW23464   1.573   0.213   2.367
 7522SOL    HW123465   1.656   0.177   2.325
 7522SOL    HW223466   1.556   0.166   2.453
 7523SOL     OW23467   6.137   6.900   6.268
 7523SOL    HW123468   6.212   6.851   6.312
 7523SOL    HW223469   6.153   6.904   6.169
 7524SOL     OW23470   6.181   0.966   4.790
 7524SOL    HW123471   6.208   0.992   4.697
 7524SOL    HW223472   6.098   0.910   4.786
 7525SOL     OW23473   0.816   6.762   0.621
 7525SOL    HW123474   0.755   6.715   0.684
 7525SOL    HW223475   0.782   6.753   0.527
 7526SOL     OW23476   3.709   3.202   4.664
 7526SOL    HW123477   3.702   3.224   4.567
 7526SOL    HW223478   3.708   3.286   4.718
 7527SOL     OW23479   4.447   5.713   2.297
 7527SOL    HW123480   4.530   5.733   2.349
 7527SOL    HW223481   4.446   5.617   2.269
 7528SOL     OW23482   5.884   3.456   6.447
 7528SOL    HW123483   5.908   3.467   6.543
 7528SOL    HW223484   5.826   3.532   6.418
 7529SOL     OW23485   2.846   0.191   5.079
 7529SOL    HW123486   2.907   0.193   5.000
 7529SOL    HW223487   2.757   0.156   5.052
 7530SOL     OW23488   6.779   2.836   3.232
 7530SOL    HW123489   6.689   2.878   3.218
 7530SOL    HW223490   6.771   2.764   3.301
 7531SOL     OW23491   2.858   1.203   4.638
 7531SOL    HW123492   2.803   1.285   4.622
 7531SOL    HW223493   2.935   1.202   4.574
 7532SOL     OW23494   4.820   4.849   2.509
 7532SOL    HW123495   4.754   4.828   2.437
 7532SOL    HW223496   4.874   4.768   2.529
 7533SOL     OW23497   3.751   0.536   4.796
 7533SOL    HW123498   3.808   0.596   4.740
 7533SOL    HW223499   3.687   0.592   4.849
 7534SOL     OW23500   5.782   6.624   4.499
 7534SOL    HW123501   5.698   6.578   4.470
 7534SOL    HW223502   5.775   6.651   4.595
 7535SOL     OW23503   3.458   4.554   0.589
 7535SOL    HW123504   3.405   4.516   0.665
 7535SOL    HW223505   3.457   4.654   0.594
 7536SOL     OW23506   3.566   6.088   4.882
 7536SOL    HW123507   3.505   6.114   4.957
 7536SOL    HW223508   3.543   5.995   4.851
 7537SOL     OW23509   2.318   4.555   5.533
 7537SOL    HW123510   2.398   4.526   5.584
 7537SOL    HW223511   2.345   4.624   5.466
 7538SOL     OW23512   2.915   3.365   3.514
 7538SOL    HW123513   2.938   3.322   3.601
 7538SOL    HW223514   2.875   3.455   3.531
 7539SOL     OW23515   1.513   2.320   4.404
 7539SOL    HW123516   1.517   2.420   4.392
 7539SOL    HW223517   1.430   2.284   4.363
 7540SOL     OW23518   2.317   0.914   6.733
 7540SOL    HW123519   2.299   0.955   6.644
 7540SOL    HW223520   2.271   0.967   6.804
 7541SOL     OW23521   6.856   2.691   5.283
 7541SOL    HW123522   6.952   2.692   5.255
 7541SOL    HW223523   6.798   2.694   5.202
 7542SOL     OW23524   1.688   0.345   5.956
 7542SOL    HW123525   1.723   0.259   5.918
 7542SOL    HW223526   1.765   0.402   5.987
 7543SOL     OW23527   3.290   2.464   0.149
 7543SOL    HW123528   3.296   2.428   0.242
 7543SOL    HW223529   3.365   2.429   0.094
 7544SOL     OW23530   1.122   2.268   2.288
 7544SOL    HW123531   1.119   2.286   2.387
 7544SOL    HW223532   1.053   2.324   2.242
 7545SOL     OW23533   4.389   0.584   3.782
 7545SOL    HW123534   4.312   0.630   3.826
 7545SOL    HW223535   4.421   0.639   3.705
 7546SOL     OW23536   5.240   6.858   5.838
 7546SOL    HW123537   5.286   6.930   5.786
 7546SOL    HW223538   5.241   6.774   5.784
 7547SOL     OW23539   2.812   0.280   0.091
 7547SOL    HW123540   2.750   0.329   0.152
 7547SOL    HW223541   2.775   0.279   7.022
 7548SOL     OW23542   1.229   3.559   1.709
 7548SOL    HW123543   1.170   3.574   1.629
 7548SOL    HW223544   1.181   3.588   1.792
 7549SOL     OW23545   5.798   1.751   2.791
 7549SOL    HW123546   5.740   1.808   2.849
 7549SOL    HW223547   5.891   1.748   2.828
 7550SOL     OW23548   1.290   5.182   1.127
 7550SOL    HW123549   1.333   5.171   1.038
 7550SOL    HW223550   1.191   5.168   1.119
 7551SOL     OW23551   5.308   4.463   6.713
 7551SOL    HW123552   5.336   4.378   6.669
 7551SOL    HW223553   5.389   4.517   6.737
 7552SOL     OW23554   3.367   5.330   3.701
 7552SOL    HW123555   3.466   5.337   3.715
 7552SOL    HW223556   3.320   5.386   3.770
 7553SOL     OW23557   4.236   4.321   5.749
 7553SOL    HW123558   4.179   4.402   5.762
 7553SOL    HW223559   4.330   4.342   5.775
 7554SOL     OW23560   0.085   1.538   0.771
 7554SOL    HW123561   7.014   1.569   0.771
 7554SOL    HW223562   0.144   1.609   0.810
 7555SOL     OW23563   1.361   6.179   5.851
 7555SOL    HW123564   1.319   6.090   5.866
 7555SOL    HW223565   1.324   6.220   5.768
 7556SOL     OW23566   6.474   3.517   3.643
 7556SOL    HW123567   6.476   3.532   3.742
 7556SOL    HW223568   6.480   3.606   3.597
 7557SOL     OW23569   3.769   3.761   0.668
 7557SOL    HW123570   3.858   3.801   0.691
 7557SOL    HW223571   3.777   3.707   0.585
 7558SOL     OW23572   1.897   2.407   3.077
 7558SOL    HW123573   1.827   2.412   3.005
 7558SOL    HW223574   1.985   2.438   3.040
 7559SOL     OW23575   1.523   4.829   0.247
 7559SOL    HW123576   1.510   4.771   0.328
 7559SOL    HW223577   1.436   4.869   0.220
 7560SOL     OW23578   4.595   0.239   5.706
 7560SOL    HW123579   4.575   0.184   5.625
 7560SOL    HW223580   4.675   0.202   5.753
 7561SOL     OW23581   0.028   3.720   0.313
 7561SOL    HW123582   6.969   3.721   0.369
 7561SOL    HW223583   0.107   3.743   0.369
 7562SOL     OW23584   4.532   6.252   4.924
 7562SOL    HW123585   4.459   6.308   4.964
 7562SOL    HW223586   4.612   6.253   4.984
 7563SOL     OW23587   2.645   1.395   3.044
 7563SOL    HW123588   2.601   1.366   3.129
 7563SOL    HW223589   2.705   1.473   3.063
 7564SOL     OW23590   5.427   5.991   4.334
 7564SOL    HW123591   5.492   5.969   4.261
 7564SOL    HW223592   5.337   6.009   4.294
 7565SOL     OW23593   4.997   5.218   6.650
 7565SOL    HW123594   4.908   5.255   6.626
 7565SOL    HW223595   4.991   5.170   6.738
 7566SOL     OW23596   1.529   5.951   4.831
 7566SOL    HW123597   1.587   5.929   4.752
 7566SOL    HW223598   1.435   5.966   4.800
 7567SOL     OW23599   2.798   2.906   0.430
 7567SOL    HW123600   2.703   2.888   0.457
 7567SOL    HW223601   2.803   2.915   0.331
 7568SOL     OW23602   4.401   4.540   2.718
 7568SOL    HW123603   4.434   4.534   2.624
 7568SOL    HW223604   4.311   4.585   2.720
 7569SOL     OW23605   3.920   0.380   1.069
 7569SOL    HW123606   3.848   0.393   1.137
 7569SOL    HW223607   3.977   0.462   1.063
 7570SOL     OW23608   6.174   5.440   4.900
 7570SOL    HW123609   6.100   5.372   4.897
 7570SOL    HW223610   6.256   5.398   4.937
 7571SOL     OW23611   5.625   4.202   1.321
 7571SOL    HW123612   5.666   4.288   1.350
 7571SOL    HW223613   5.587   4.213   1.229
 7572SOL     OW23614   0.679   1.164   3.249
 7572SOL    HW123615   0.716   1.175   3.341
 7572SOL    HW223616   0.748   1.123   3.190
 7573SOL     OW23617   2.667   5.437   5.409
 7573SOL    HW123618   2.601   5.509   5.388
 7573SOL    HW223619   2.710   5.405   5.325
 7574SOL     OW23620   5.024   5.993   2.477
 7574SOL    HW123621   4.945   5.934   2.496
 7574SOL    HW223622   4.993   6.087   2.464
 7575SOL     OW23623   4.811   2.631   4.591
 7575SOL    HW123624   4.878   2.614   4.519
 7575SOL    HW223625   4.858   2.647   4.678
 7576SOL     OW23626   6.489   3.628   1.409
 7576SOL    HW123627   6.586   3.611   1.391
 7576SOL    HW223628   6.435   3.553   1.370
 7577SOL     OW23629   4.580   0.662   4.786
 7577SOL    HW123630   4.653   0.671   4.854
 7577SOL    HW223631   4.595   0.580   4.731
 7578SOL     OW23632   2.903   5.422   4.540
 7578SOL    HW123633   2.934   5.350   4.477
 7578SOL    HW223634   2.975   5.440   4.608
 7579SOL     OW23635   4.421   2.421   3.698
 7579SOL    HW123636   4.478   2.345   3.667
 7579SOL    HW223637   4.467   2.507   3.677
 7580SOL     OW23638   2.053   3.598   2.240
 7580SOL    HW123639   2.033   3.680   2.186
 7580SOL    HW223640   2.112   3.537   2.188
 7581SOL     OW23641   5.416   0.997   1.284
 7581SOL    HW123642   5.410   1.012   1.383
 7581SOL    HW223643   5.474   1.067   1.243
 7582SOL     OW23644   3.288   2.122   1.056
 7582SOL    HW123645   3.272   2.204   1.003
 7582SOL    HW223646   3.286   2.042   0.996
 7583SOL     OW23647   6.935   3.805   2.907
 7583SOL    HW123648   7.003   3.751   2.957
 7583SOL    HW223649   6.966   3.819   2.813
 7584SOL     OW23650   1.894   1.668   1.205
 7584SOL    HW123651   1.931   1.576   1.193
 7584SOL    HW223652   1.892   1.691   1.303
 7585SOL     OW23653   1.539   5.185   6.587
 7585SOL    HW123654   1.519   5.261   6.525
 7585SOL    HW223655   1.581   5.221   6.671
 7586SOL     OW23656   2.047   1.461   2.522
 7586SOL    HW123657   2.140   1.457   2.559
 7586SOL    HW223658   2.050   1.456   2.422
 7587SOL     OW23659   1.791   0.884   5.956
 7587SOL    HW123660   1.731   0.911   5.880
 7587SOL    HW223661   1.834   0.796   5.935
 7588SOL     OW23662   1.417   4.223   1.925
 7588SOL    HW123663   1.477   4.227   2.005
 7588SOL    HW223664   1.470   4.196   1.844
 7589SOL     OW23665   5.184   6.109   6.971
 7589SOL    HW123666   5.145   6.197   6.996
 7589SOL    HW223667   5.277   6.123   6.935
 7590SOL     OW23668   1.748   0.234   6.643
 7590SOL    HW123669   1.668   0.255   6.587
 7590SOL    HW223670   1.815   0.308   6.635
 7591SOL     OW23671   6.262   5.532   6.764
 7591SOL    HW123672   6.356   5.500   6.767
 7591SOL    HW223673   6.254   5.620   6.810
 7592SOL     OW23674   5.056   5.494   6.108
 7592SOL    HW123675   5.035   5.437   6.028
 7592SOL    HW223676   5.094   5.437   6.181
 7593SOL     OW23677   6.219   4.057   0.448
 7593SOL    HW123678   6.254   4.117   0.520
 7593SOL    HW223679   6.119   4.057   0.450
 7594SOL     OW23680   0.945   6.606   3.574
 7594SOL    HW123681   1.001   6.667   3.518
 7594SOL    HW223682   0.954   6.632   3.670
 7595SOL     OW23683   6.583   2.488   0.063
 7595SOL    HW123684   6.638   2.478   0.146
 7595SOL    HW223685   6.595   2.407   0.005
 7596SOL     OW23686   4.741   4.539   1.985
 7596SOL    HW123687   4.838   4.516   1.977
 7596SOL    HW223688   4.691   4.462   2.023
 7597SOL     OW23689   2.813   6.024   1.699
 7597SOL    HW123690   2.743   6.035   1.770
 7597SOL    HW223691   2.796   6.090   1.626
 7598SOL     OW23692   6.970   1.096   2.361
 7598SOL    HW123693   6.882   1.048   2.367
 7598SOL    HW223694   6.978   1.141   2.272
 7599SOL     OW23695   6.348   2.653   2.199
 7599SOL    HW123696   6.292   2.733   2.173
 7599SOL    HW223697   6.444   2.673   2.181
 7600SOL     OW23698   2.098   1.497   2.183
 7600SOL    HW123699   2.005   1.508   2.150
 7600SOL    HW223700   2.131   1.584   2.218
 7601SOL     OW23701   1.783   0.543   4.931
 7601SOL    HW123702   1.815   0.485   4.856
 7601SOL    HW223703   1.768   0.487   5.013
 7602SOL     OW23704   2.194   3.457   5.344
 7602SOL    HW123705   2.231   3.525   5.407
 7602SOL    HW223706   2.096   3.475   5.329
 7603SOL     OW23707   7.007   1.499   1.699
 7603SOL    HW123708   0.014   1.514   1.793
 7603SOL    HW223709   0.031   1.564   1.638
 7604SOL     OW23710   4.950   5.551   6.915
 7604SOL    HW123711   5.010   5.582   6.842
 7604SOL    HW223712   4.920   5.630   6.969
 7605SOL     OW23713   5.555   3.778   6.159
 7605SOL    HW123714   5.461   3.807   6.146
 7605SOL    HW223715   5.572   3.695   6.106
 7606SOL     OW23716   5.732   1.923   3.517
 7606SOL    HW123717   5.761   1.836   3.557
 7606SOL    HW223718   5.812   1.977   3.494
 7607SOL     OW23719   5.099   0.041   6.036
 7607SOL    HW123720   5.193   0.020   6.010
 7607SOL    HW223721   5.071   0.127   5.993
 7608SOL     OW23722   4.113   3.334   3.886
 7608SOL    HW123723   4.130   3.247   3.839
 7608SOL    HW223724   4.111   3.318   3.985
 7609SOL     OW23725   2.087   2.539   4.013
 7609SOL    HW123726   2.054   2.445   4.015
 7609SOL    HW223727   2.032   2.596   4.074
 7610SOL     OW23728   5.437   1.143   2.278
 7610SOL    HW123729   5.445   1.142   2.377
 7610SOL    HW223730   5.494   1.071   2.239
 7611SOL     OW23731   1.772   1.884   1.686
 7611SOL    HW123732   1.734   1.817   1.750
 7611SOL    HW223733   1.848   1.932   1.729
 7612SOL     OW23734   4.101   1.562   2.707
 7612SOL    HW123735   4.163   1.634   2.677
 7612SOL    HW223736   4.063   1.515   2.627
 7613SOL     OW23737   5.233   0.943   3.173
 7613SOL    HW123738   5.233   0.928   3.074
 7613SOL    HW223739   5.181   0.870   3.217
 7614SOL     OW23740   4.094   1.144   0.303
 7614SOL    HW123741   3.996   1.160   0.317
 7614SOL    HW223742   4.140   1.145   0.392
 7615SOL     OW23743   3.908   4.661   5.719
 7615SOL    HW123744   3.836   4.592   5.717
 7615SOL    HW223745   3.913   4.701   5.811
 7616SOL     OW23746   6.849   4.629   3.459
 7616SOL    HW123747   6.881   4.583   3.377
 7616SOL    HW223748   6.921   4.627   3.529
 7617SOL     OW23749   3.353   6.145   2.520
 7617SOL    HW123750   3.294   6.150   2.600
 7617SOL    HW223751   3.441   6.189   2.540
 7618SOL     OW23752   1.989   2.309   0.545
 7618SOL    HW123753   1.989   2.210   0.557
 7618SOL    HW223754   2.023   2.353   0.628
 7619SOL     OW23755   5.783   3.454   5.702
 7619SOL    HW123756   5.842   3.374   5.700
 7619SOL    HW223757   5.839   3.536   5.689
 7620SOL     OW23758   2.789   6.490   1.561
 7620SOL    HW123759   2.836   6.457   1.642
 7620SOL    HW223760   2.735   6.416   1.521
 7621SOL     OW23761   2.194   2.123   1.130
 7621SOL    HW123762   2.217   2.212   1.090
 7621SOL    HW223763   2.252   2.105   1.209
 7622SOL     OW23764   5.462   1.630   1.172
 7622SOL    HW123765   5.362   1.630   1.174
 7622SOL    HW223766   5.496   1.675   1.255
 7623SOL     OW23767   5.608   0.108   5.167
 7623SOL    HW123768   5.632   0.104   5.264
 7623SOL    HW223769   5.686   0.074   5.113
 7624SOL     OW23770   6.595   0.998   4.654
 7624SOL    HW123771   6.678   1.048   4.628
 7624SOL    HW223772   6.516   1.037   4.606
 7625SOL     OW23773   3.633   6.318   0.987
 7625SOL    HW123774   3.604   6.229   1.021
 7625SOL    HW223775   3.594   6.333   0.896
 7626SOL     OW23776   2.510   4.627   4.581
 7626SOL    HW123777   2.540   4.638   4.675
 7626SOL    HW223778   2.576   4.668   4.519
 7627SOL     OW23779   6.782   1.575   6.917
 7627SOL    HW123780   6.832   1.513   6.978
 7627SOL    HW223781   6.793   1.669   6.949
 7628SOL     OW23782   4.511   1.925   0.847
 7628SOL    HW123783   4.600   1.966   0.871
 7628SOL    HW223784   4.488   1.948   0.753
 7629SOL     OW23785   6.331   5.351   3.534
 7629SOL    HW123786   6.336   5.408   3.452
 7629SOL    HW223787   6.245   5.369   3.582
 7630SOL     OW23788   6.424   1.632   2.269
 7630SOL    HW123789   6.519   1.634   2.236
 7630SOL    HW223790   6.363   1.666   2.197
 7631SOL     OW23791   1.402   1.211   3.735
 7631SOL    HW123792   1.494   1.179   3.715
 7631SOL    HW223793   1.363   1.157   3.810
 7632SOL     OW23794   4.285   0.981   6.194
 7632SOL    HW123795   4.243   0.991   6.284
 7632SOL    HW223796   4.384   0.992   6.203
 7633SOL     OW23797   5.228   5.169   6.480
 7633SOL    HW123798   5.157   5.210   6.536
 7633SOL    HW223799   5.315   5.215   6.498
 7634SOL     OW23800   0.830   2.690   1.737
 7634SOL    HW123801   0.845   2.591   1.739
 7634SOL    HW223802   0.758   2.714   1.802
 7635SOL     OW23803   2.657   5.116   6.134
 7635SOL    HW123804   2.667   5.106   6.035
 7635SOL    HW223805   2.582   5.057   6.165
 7636SOL     OW23806   2.480   0.456   3.826
 7636SOL    HW123807   2.397   0.478   3.877
 7636SOL    HW223808   2.463   0.378   3.766
 7637SOL     OW23809   2.230   6.180   4.161
 7637SOL    HW123810   2.318   6.211   4.125
 7637SOL    HW223811   2.156   6.228   4.113
 7638SOL     OW23812   4.115   4.240   1.522
 7638SOL    HW123813   4.190   4.253   1.587
 7638SOL    HW223814   4.108   4.320   1.463
 7639SOL     OW23815   6.843   2.507   4.431
 7639SOL    HW123816   6.926   2.544   4.389
 7639SOL    HW223817   6.787   2.462   4.360
 7640SOL     OW23818   2.333   3.185   5.605
 7640SOL    HW123819   2.417   3.210   5.654
 7640SOL    HW223820   2.324   3.243   5.524
 7641SOL     OW23821   6.203   2.528   3.547
 7641SOL    HW123822   6.129   2.538   3.613
 7641SOL    HW223823   6.249   2.616   3.534
 7642SOL     OW23824   1.859   0.917   2.632
 7642SOL    HW123825   1.849   0.910   2.731
 7642SOL    HW223826   1.936   0.976   2.610
 7643SOL     OW23827   5.636   2.913   3.234
 7643SOL    HW123828   5.642   2.873   3.325
 7643SOL    HW223829   5.575   2.857   3.177
 7644SOL     OW23830   6.381   3.981   3.465
 7644SOL    HW123831   6.387   4.038   3.547
 7644SOL    HW223832   6.376   4.040   3.384
 7645SOL     OW23833   4.049   3.070   0.165
 7645SOL    HW123834   4.104   2.988   0.183
 7645SOL    HW223835   4.019   3.070   0.070
 7646SOL     OW23836   0.413   1.087   1.953
 7646SOL    HW123837   0.451   1.136   2.031
 7646SOL    HW223838   0.325   1.127   1.928
 7647SOL     OW23839   2.619   5.123   0.916
 7647SOL    HW123840   2.642   5.112   1.013
 7647SOL    HW223841   2.616   5.220   0.893
 7648SOL     OW23842   3.708   0.447   4.096
 7648SOL    HW123843   3.661   0.401   4.172
 7648SOL    HW223844   3.645   0.454   4.018
 7649SOL     OW23845   2.937   1.348   1.588
 7649SOL    HW123846   2.864   1.338   1.655
 7649SOL    HW223847   3.007   1.409   1.625
 7650SOL     OW23848   5.983   4.211   1.399
 7650SOL    HW123849   5.968   4.167   1.310
 7650SOL    HW223850   6.046   4.155   1.453
 7651SOL     OW23851   4.668   2.414   6.460
 7651SOL    HW123852   4.619   2.352   6.521
 7651SOL    HW223853   4.749   2.450   6.507
 7652SOL     OW23854   1.529   3.438   3.012
 7652SOL    HW123855   1.628   3.430   2.997
 7652SOL    HW223856   1.489   3.497   2.942
 7653SOL     OW23857   4.059   2.185   1.587
 7653SOL    HW123858   4.144   2.149   1.549
 7653SOL    HW223859   4.023   2.120   1.655
 7654SOL     OW23860   5.171   3.555   4.265
 7654SOL    HW123861   5.074   3.581   4.257
 7654SOL    HW223862   5.215   3.566   4.176
 7655SOL     OW23863   4.633   5.897   5.354
 7655SOL    HW123864   4.625   5.813   5.407
 7655SOL    HW223865   4.549   5.912   5.302
 7656SOL     OW23866   1.220   6.791   4.058
 7656SOL    HW123867   1.195   6.720   4.124
 7656SOL    HW223868   1.316   6.778   4.031
 7657SOL     OW23869   4.572   1.716   4.113
 7657SOL    HW123870   4.499   1.703   4.047
 7657SOL    HW223871   4.535   1.710   4.206
 7658SOL     OW23872   4.444   0.323   6.612
 7658SOL    HW123873   4.461   0.232   6.574
 7658SOL    HW223874   4.520   0.383   6.587
 7659SOL     OW23875   5.336   6.375   0.252
 7659SOL    HW123876   5.245   6.362   0.291
 7659SOL    HW223877   5.400   6.312   0.296
 7660SOL     OW23878   5.780   4.818   4.488
 7660SOL    HW123879   5.742   4.908   4.468
 7660SOL    HW223880   5.778   4.762   4.405
 7661SOL     OW23881   6.088   3.282   4.057
 7661SOL    HW123882   6.053   3.272   3.964
 7661SOL    HW223883   6.011   3.282   4.121
 7662SOL     OW23884   6.805   5.704   2.927
 7662SOL    HW123885   6.846   5.774   2.867
 7662SOL    HW223886   6.872   5.676   2.996
 7663SOL     OW23887   6.689   5.802   6.898
 7663SOL    HW123888   6.613   5.864   6.918
 7663SOL    HW223889   6.770   5.856   6.876
 7664SOL     OW23890   2.542   5.549   4.939
 7664SOL    HW123891   2.559   5.647   4.943
 7664SOL    HW223892   2.477   5.523   5.011
 7665SOL     OW23893   2.390   5.783   4.104
 7665SOL    HW123894   2.414   5.797   4.008
 7665SOL    HW223895   2.311   5.722   4.110
 7666SOL     OW23896   2.338   1.176   1.372
 7666SOL    HW123897   2.269   1.131   1.315
 7666SOL    HW223898   2.301   1.261   1.409
 7667SOL     OW23899   4.505   5.965   6.191
 7667SOL    HW123900   4.597   6.003   6.208
 7667SOL    HW223901   4.491   5.955   6.093
 7668SOL     OW23902   2.844   3.981   1.381
 7668SOL    HW123903   2.827   4.050   1.452
 7668SOL    HW223904   2.919   3.922   1.410
 7669SOL     OW23905   4.319   6.443   4.896
 7669SOL    HW123906   4.298   6.362   4.951
 7669SOL    HW223907   4.268   6.440   4.810
 7670SOL     OW23908   1.348   5.623   0.932
 7670SOL    HW123909   1.294   5.553   0.977
 7670SOL    HW223910   1.442   5.622   0.967
 7671SOL     OW23911   5.395   2.373   5.145
 7671SOL    HW123912   5.382   2.347   5.050
 7671SOL    HW223913   5.487   2.410   5.157
 7672SOL     OW23914   5.991   0.189   1.929
 7672SOL    HW123915   5.920   0.255   1.952
 7672SOL    HW223916   6.055   0.180   2.006
 7673SOL     OW23917   0.380   4.347   6.790
 7673SOL    HW123918   0.426   4.423   6.744
 7673SOL    HW223919   0.359   4.373   6.884
 7674SOL     OW23920   5.965   1.162   5.443
 7674SOL    HW123921   6.062   1.170   5.468
 7674SOL    HW223922   5.929   1.252   5.420
 7675SOL     OW23923   5.043   0.072   3.279
 7675SOL    HW123924   5.075   0.163   3.254
 7675SOL    HW223925   5.070   0.007   3.208
 7676SOL     OW23926   1.225   0.398   1.709
 7676SOL    HW123927   1.233   0.416   1.807
 7676SOL    HW223928   1.183   0.476   1.663
 7677SOL     OW23929   1.989   1.881   2.822
 7677SOL    HW123930   1.894   1.873   2.791
 7677SOL    HW223931   2.026   1.969   2.794
 7678SOL     OW23932   5.063   6.561   6.003
 7678SOL    HW123933   4.964   6.567   6.010
 7678SOL    HW223934   5.089   6.488   5.941
 7679SOL     OW23935   1.263   5.000   4.943
 7679SOL    HW123936   1.359   4.999   4.916
 7679SOL    HW223937   1.212   4.933   4.889
 7680SOL     OW23938   4.812   1.318   6.617
 7680SOL    HW123939   4.808   1.418   6.616
 7680SOL    HW223940   4.876   1.286   6.547
 7681SOL     OW23941   2.778   1.766   5.685
 7681SOL    HW123942   2.841   1.844   5.682
 7681SOL    HW223943   2.766   1.737   5.780
 7682SOL     OW23944   2.420   0.012   1.410
 7682SOL    HW123945   2.344   0.075   1.420
 7682SOL    HW223946   2.463   7.020   1.499
 7683SOL     OW23947   6.061   1.840   2.854
 7683SOL    HW123948   6.032   1.869   2.945
 7683SOL    HW223949   6.147   1.789   2.861
 7684SOL     OW23950   4.428   2.444   6.318
 7684SOL    HW123951   4.500   2.462   6.385
 7684SOL    HW223952   4.469   2.428   6.228
 7685SOL     OW23953   4.361   3.869   0.987
 7685SOL    HW123954   4.432   3.931   1.020
 7685SOL    HW223955   4.399   3.777   0.977
 7686SOL     OW23956   3.133   0.737   3.807
 7686SOL    HW123957   3.073   0.707   3.733
 7686SOL    HW223958   3.208   0.790   3.770
 7687SOL     OW23959   4.462   5.081   6.022
 7687SOL    HW123960   4.456   5.055   6.119
 7687SOL    HW223961   4.385   5.043   5.972
 7688SOL     OW23962   6.359   0.147   3.505
 7688SOL    HW123963   6.323   0.240   3.518
 7688SOL    HW223964   6.433   0.131   3.570
 7689SOL     OW23965   3.401   6.516   4.764
 7689SOL    HW123966   3.487   6.485   4.806
 7689SOL    HW223967   3.356   6.439   4.719
 7690SOL     OW23968   0.597   5.193   2.931
 7690SOL    HW123969   0.666   5.265   2.943
 7690SOL    HW223970   0.575   5.184   2.834
 7691SOL     OW23971   5.720   3.824   5.703
 7691SOL    HW123972   5.623   3.812   5.680
 7691SOL    HW223973   5.736   3.794   5.797
 7692SOL     OW23974   1.553   6.491   1.577
 7692SOL    HW123975   1.542   6.392   1.574
 7692SOL    HW223976   1.648   6.515   1.554
 7693SOL     OW23977   5.494   1.038   0.585
 7693SOL    HW123978   5.573   1.059   0.642
 7693SOL    HW223979   5.490   0.940   0.567
 7694SOL     OW23980   6.195   4.759   4.361
 7694SOL    HW123981   6.283   4.728   4.397
 7694SOL    HW223982   6.130   4.772   4.437
 7695SOL     OW23983   4.090   0.198   6.480
 7695SOL    HW123984   4.048   0.282   6.445
 7695SOL    HW223985   4.188   0.200   6.460
 7696SOL     OW23986   1.395   4.137   5.914
 7696SOL    HW123987   1.304   4.096   5.923
 7696SOL    HW223988   1.429   4.163   6.004
 7697SOL     OW23989   4.313   2.062   1.923
 7697SOL    HW123990   4.252   2.061   1.843
 7697SOL    HW223991   4.263   2.093   2.003
 7698SOL     OW23992   0.268   3.140   5.718
 7698SOL    HW123993   0.347   3.093   5.677
 7698SOL    HW223994   0.300   3.215   5.776
 7699SOL     OW23995   2.523   4.481   0.473
 7699SOL    HW123996   2.506   4.474   0.374
 7699SOL    HW223997   2.587   4.410   0.501
 7700SOL     OW23998   5.239   6.731   4.849
 7700SOL    HW123999   5.249   6.826   4.879
 7700SOL    HW224000   5.284   6.719   4.761
 7701SOL     OW24001   6.364   2.141   5.359
 7701SOL    HW124002   6.460   2.170   5.358
 7701SOL    HW224003   6.331   2.134   5.265
 7702SOL     OW24004   2.137   6.175   5.846
 7702SOL    HW124005   2.150   6.138   5.938
 7702SOL    HW224006   2.080   6.114   5.792
 7703SOL     OW24007   0.828   2.149   5.585
 7703SOL    HW124008   0.798   2.203   5.664
 7703SOL    HW224009   0.922   2.118   5.600
 7704SOL     OW24010   2.742   4.347   0.556
 7704SOL    HW124011   2.839   4.362   0.537
 7704SOL    HW224012   2.732   4.277   0.627
 7705SOL     OW24013   3.611   4.425   5.361
 7705SOL    HW124014   3.593   4.427   5.459
 7705SOL    HW224015   3.597   4.516   5.322
 7706SOL     OW24016   6.282   0.513   5.238
 7706SOL    HW124017   6.279   0.497   5.140
 7706SOL    HW224018   6.312   0.607   5.256
 7707SOL     OW24019   0.330   5.408   6.285
 7707SOL    HW124020   0.335   5.312   6.312
 7707SOL    HW224021   0.304   5.415   6.189
 7708SOL     OW24022   4.887   0.936   4.558
 7708SOL    HW124023   4.823   0.932   4.635
 7708SOL    HW224024   4.928   1.027   4.553
 7709SOL     OW24025   3.742   2.206   1.635
 7709SOL    HW124026   3.719   2.269   1.709
 7709SOL    HW224027   3.797   2.254   1.567
 7710SOL     OW24028   3.089   2.360   6.078
 7710SOL    HW124029   3.004   2.311   6.057
 7710SOL    HW224030   3.090   2.446   6.027
 7711SOL     OW24031   4.711   6.469   5.255
 7711SOL    HW124032   4.735   6.383   5.210
 7711SOL    HW224033   4.741   6.466   5.350
 7712SOL     OW24034   5.047   5.066   0.420
 7712SOL    HW124035   4.959   5.066   0.467
 7712SOL    HW224036   5.038   5.016   0.334
 7713SOL     OW24037   1.021   5.436   6.346
 7713SOL    HW124038   0.933   5.391   6.336
 7713SOL    HW224039   1.025   5.483   6.434
 7714SOL     OW24040   5.389   3.935   4.251
 7714SOL    HW124041   5.379   3.879   4.333
 7714SOL    HW224042   5.333   3.898   4.178
 7715SOL     OW24043   4.268   2.448   1.876
 7715SOL    HW124044   4.319   2.422   1.794
 7715SOL    HW224045   4.196   2.381   1.892
 7716SOL     OW24046   4.695   2.569   3.618
 7716SOL    HW124047   4.688   2.591   3.716
 7716SOL    HW224048   4.776   2.512   3.603
 7717SOL     OW24049   2.993   0.098   6.608
 7717SOL    HW124050   3.010   0.134   6.700
 7717SOL    HW224051   2.933   0.018   6.615
 7718SOL     OW24052   2.873   6.138   4.111
 7718SOL    HW124053   2.903   6.074   4.041
 7718SOL    HW224054   2.947   6.202   4.132
 7719SOL     OW24055   6.205   2.759   5.356
 7719SOL    HW124056   6.154   2.673   5.353
 7719SOL    HW224057   6.294   2.743   5.400
 7720SOL     OW24058   5.350   6.244   1.597
 7720SOL    HW124059   5.388   6.266   1.508
 7720SOL    HW224060   5.419   6.198   1.652
 7721SOL     OW24061   0.975   4.821   2.938
 7721SOL    HW124062   1.028   4.758   2.881
 7721SOL    HW224063   1.013   4.821   3.030
 7722SOL     OW24064   0.413   6.389   4.121
 7722SOL    HW124065   0.461   6.309   4.085
 7722SOL    HW224066   0.474   6.468   4.120
 7723SOL     OW24067   6.693   2.544   0.718
 7723SOL    HW124068   6.757   2.601   0.770
 7723SOL    HW224069   6.715   2.448   0.731
 7724SOL     OW24070   1.745   5.691   0.306
 7724SOL    HW124071   1.765   5.597   0.279
 7724SOL    HW224072   1.830   5.739   0.328
 7725SOL     OW24073   5.259   3.794   4.468
 7725SOL    HW124074   5.209   3.736   4.404
 7725SOL    HW224075   5.209   3.880   4.482
 7726SOL     OW24076   5.697   4.414   3.762
 7726SOL    HW124077   5.755   4.355   3.819
 7726SOL    HW224078   5.707   4.387   3.666
 7727SOL     OW24079   5.739   3.395   2.081
 7727SOL    HW124080   5.704   3.301   2.080
 7727SOL    HW224081   5.824   3.398   2.134
 7728SOL     OW24082   2.365   2.318   2.321
 7728SOL    HW124083   2.362   2.318   2.421
 7728SOL    HW224084   2.382   2.412   2.289
 7729SOL     OW24085   5.040   2.551   0.537
 7729SOL    HW124086   4.964   2.488   0.554
 7729SOL    HW224087   5.060   2.554   0.439
 7730SOL     OW24088   4.795   6.992   2.347
 7730SOL    HW124089   4.774   0.065   2.330
 7730SOL    HW224090   4.888   6.972   2.315
 7731SOL     OW24091   6.844   1.958   4.859
 7731SOL    HW124092   6.773   1.958   4.930
 7731SOL    HW224093   6.875   1.864   4.844
 7732SOL     OW24094   4.297   4.902   0.743
 7732SOL    HW124095   4.375   4.905   0.681
 7732SOL    HW224096   4.317   4.957   0.824
 7733SOL     OW24097   2.866   6.535   0.611
 7733SOL    HW124098   2.891   6.447   0.651
 7733SOL    HW224099   2.948   6.584   0.584
 7734SOL     OW24100   1.507   2.325   2.954
 7734SOL    HW124101   1.564   2.396   2.995
 7734SOL    HW224102   1.440   2.368   2.893
 7735SOL     OW24103   5.321   4.271   0.839
 7735SOL    HW124104   5.268   4.340   0.889
 7735SOL    HW224105   5.302   4.181   0.876
 7736SOL     OW24106   5.648   4.555   6.044
 7736SOL    HW124107   5.672   4.597   6.132
 7736SOL    HW224108   5.571   4.604   6.003
 7737SOL     OW24109   5.121   2.625   0.959
 7737SOL    HW124110   5.115   2.624   0.859
 7737SOL    HW224111   5.050   2.685   0.997
 7738SOL     OW24112   2.285   4.815   6.988
 7738SOL    HW124113   2.259   4.739   6.928
 7738SOL    HW224114   2.321   4.779   0.050
 7739SOL     OW24115   5.707   3.606   2.393
 7739SOL    HW124116   5.675   3.596   2.299
 7739SOL    HW224117   5.725   3.702   2.412
 7740SOL     OW24118   0.435   6.145   3.903
 7740SOL    HW124119   0.365   6.210   3.872
 7740SOL    HW224120   0.410   6.053   3.872
 7741SOL     OW24121   3.234   6.078   4.171
 7741SOL    HW124122   3.199   6.061   4.078
 7741SOL    HW224123   3.285   5.998   4.202
 7742SOL     OW24124   6.703   1.468   4.213
 7742SOL    HW124125   6.675   1.373   4.197
 7742SOL    HW224126   6.801   1.476   4.199
 7743SOL     OW24127   4.925   3.038   2.762
 7743SOL    HW124128   4.886   3.044   2.854
 7743SOL    HW224129   5.021   3.065   2.765
 7744SOL     OW24130   0.351   6.891   4.902
 7744SOL    HW124131   0.441   6.861   4.870
 7744SOL    HW224132   0.359   6.926   4.995
 7745SOL     OW24133   4.741   3.362   5.332
 7745SOL    HW124134   4.712   3.437   5.273
 7745SOL    HW224135   4.839   3.368   5.349
 7746SOL     OW24136   1.292   0.299   0.022
 7746SOL    HW124137   1.238   0.349   0.091
 7746SOL    HW224138   1.378   0.269   0.062
 7747SOL     OW24139   5.177   5.578   1.256
 7747SOL    HW124140   5.214   5.491   1.289
 7747SOL    HW224141   5.147   5.568   1.161
 7748SOL     OW24142   2.665   3.865   6.328
 7748SOL    HW124143   2.594   3.935   6.319
 7748SOL    HW224144   2.718   3.859   6.244
 7749SOL     OW24145   5.592   4.101   6.067
 7749SOL    HW124146   5.587   4.002   6.076
 7749SOL    HW224147   5.528   4.143   6.133
 7750SOL     OW24148   5.512   5.152   3.136
 7750SOL    HW124149   5.490   5.082   3.069
 7750SOL    HW224150   5.483   5.242   3.102
 7751SOL     OW24151   0.148   2.555   1.089
 7751SOL    HW124152   0.150   2.631   1.024
 7751SOL    HW224153   0.053   2.532   1.111
 7752SOL     OW24154   4.191   1.462   3.563
 7752SOL    HW124155   4.223   1.550   3.528
 7752SOL    HW224156   4.262   1.393   3.550
 7753SOL     OW24157   3.393   1.927   5.295
 7753SOL    HW124158   3.463   1.995   5.314
 7753SOL    HW224159   3.306   1.973   5.277
 7754SOL     OW24160   5.380   5.709   1.853
 7754SOL    HW124161   5.448   5.657   1.905
 7754SOL    HW224162   5.305   5.649   1.826
 7755SOL     OW24163   0.544   5.332   4.834
 7755SOL    HW124164   0.634   5.331   4.791
 7755SOL    HW224165   0.545   5.394   4.912
 7756SOL     OW24166   2.255   4.774   2.176
 7756SOL    HW124167   2.230   4.686   2.136
 7756SOL    HW224168   2.251   4.768   2.276
 7757SOL     OW24169   0.004   4.120   1.438
 7757SOL    HW124170   0.053   4.151   1.519
 7757SOL    HW224171   0.070   4.098   1.365
 7758SOL     OW24172   1.362   2.741   4.629
 7758SOL    HW124173   1.359   2.840   4.615
 7758SOL    HW224174   1.440   2.716   4.686
 7759SOL     OW24175   3.568   1.240   2.306
 7759SOL    HW124176   3.492   1.297   2.337
 7759SOL    HW224177   3.648   1.298   2.292
 7760SOL     OW24178   5.205   3.284   0.165
 7760SOL    HW124179   5.206   3.192   0.203
 7760SOL    HW224180   5.147   3.286   0.084
 7761SOL     OW24181   4.906   4.967   3.159
 7761SOL    HW124182   4.920   4.868   3.165
 7761SOL    HW224183   4.810   4.987   3.144
 7762SOL     OW24184   5.372   1.870   1.635
 7762SOL    HW124185   5.310   1.833   1.704
 7762SOL    HW224186   5.322   1.933   1.576
 7763SOL     OW24187   2.485   0.198   3.716
 7763SOL    HW124188   2.413   0.157   3.771
 7763SOL    HW224189   2.479   0.164   3.622
 7764SOL     OW24190   3.293   4.179   5.815
 7764SOL    HW124191   3.240   4.227   5.745
 7764SOL    HW224192   3.336   4.247   5.876
 7765SOL     OW24193   5.286   4.090   4.652
 7765SOL    HW124194   5.371   4.092   4.598
 7765SOL    HW224195   5.209   4.069   4.591
 7766SOL     OW24196   6.873   2.794   6.511
 7766SOL    HW124197   6.774   2.782   6.503
 7766SOL    HW224198   6.917   2.704   6.512
 7767SOL     OW24199   4.350   0.097   3.889
 7767SOL    HW124200   4.301   0.138   3.966
 7767SOL    HW224201   4.444   0.130   3.888
 7768SOL     OW24202   3.855   5.465   4.326
 7768SOL    HW124203   3.781   5.518   4.285
 7768SOL    HW224204   3.941   5.515   4.316
 7769SOL     OW24205   3.644   3.013   6.749
 7769SOL    HW124206   3.633   3.104   6.710
 7769SOL    HW224207   3.726   2.969   6.711
 7770SOL     OW24208   1.407   3.625   3.944
 7770SOL    HW124209   1.487   3.614   4.004
 7770SOL    HW224210   1.435   3.671   3.860
 7771SOL     OW24211   1.567   3.838   5.544
 7771SOL    HW124212   1.605   3.855   5.453
 7771SOL    HW224213   1.582   3.742   5.569
 7772SOL     OW24214   5.750   6.385   2.093
 7772SOL    HW124215   5.716   6.292   2.107
 7772SOL    HW224216   5.848   6.388   2.111
 7773SOL     OW24217   2.430   6.708   6.706
 7773SOL    HW124218   2.448   6.628   6.764
 7773SOL    HW224219   2.514   6.760   6.694
 7774SOL     OW24220   4.951   1.111   2.266
 7774SOL    HW124221   4.935   1.067   2.354
 7774SOL    HW224222   4.867   1.155   2.235
 7775SOL     OW24223   3.099   1.850   1.580
 7775SOL    HW124224   3.165   1.911   1.536
 7775SOL    HW224225   3.017   1.844   1.523
 7776SOL     OW24226   3.086   1.014   4.100
 7776SOL    HW124227   3.020   1.024   4.174
 7776SOL    HW224228   3.085   0.920   4.066
 7777SOL     OW24229   6.284   5.667   3.154
 7777SOL    HW124230   6.199   5.679   3.103
 7777SOL    HW224231   6.334   5.753   3.157
 7778SOL     OW24232   0.714   4.529   2.716
 7778SOL    HW124233   0.649   4.465   2.676
 7778SOL    HW224234   0.723   4.512   2.814
 7779SOL     OW24235   3.420   6.394   1.883
 7779SOL    HW124236   3.397   6.363   1.975
 7779SOL    HW224237   3.336   6.410   1.831
 7780SOL     OW24238   6.515   5.500   4.353
 7780SOL    HW124239   6.502   5.595   4.382
 7780SOL    HW224240   6.609   5.472   4.374
 7781SOL     OW24241   2.518   3.073   0.623
 7781SOL    HW124242   2.571   3.068   0.708
 7781SOL    HW224243   2.502   3.168   0.599
 7782SOL     OW24244   5.869   3.839   4.891
 7782SOL    HW124245   5.964   3.859   4.864
 7782SOL    HW224246   5.866   3.748   4.932
 7783SOL     OW24247   1.904   6.550   3.951
 7783SOL    HW124248   1.816   6.501   3.949
 7783SOL    HW224249   1.901   6.621   4.021
 7784SOL     OW24250   1.797   1.705   2.171
 7784SOL    HW124251   1.703   1.736   2.157
 7784SOL    HW224252   1.855   1.783   2.194
 7785SOL     OW24253   6.784   5.903   3.212
 7785SOL    HW124254   6.804   5.841   3.288
 7785SOL    HW224255   6.856   5.896   3.143
 7786SOL     OW24256   4.963   0.871   6.392
 7786SOL    HW124257   4.918   0.918   6.316
 7786SOL    HW224258   4.900   0.866   6.470
 7787SOL     OW24259   1.995   2.570   1.345
 7787SOL    HW124260   1.955   2.543   1.257
 7787SOL    HW224261   1.984   2.669   1.358
 7788SOL     OW24262   1.085   3.888   1.877
 7788SOL    HW124263   1.078   3.789   1.893
 7788SOL    HW224264   1.036   3.911   1.793
 7789SOL     OW24265   3.423   1.057   6.285
 7789SOL    HW124266   3.359   1.076   6.210
 7789SOL    HW224267   3.516   1.057   6.249
 7790SOL     OW24268   3.889   5.269   3.917
 7790SOL    HW124269   3.962   5.241   3.854
 7790SOL    HW224270   3.927   5.332   3.985
 7791SOL     OW24271   3.085   5.587   1.880
 7791SOL    HW124272   3.105   5.623   1.789
 7791SOL    HW224273   2.990   5.608   1.904
 7792SOL     OW24274   1.271   1.294   2.710
 7792SOL    HW124275   1.332   1.298   2.789
 7792SOL    HW224276   1.325   1.287   2.627
 7793SOL     OW24277   5.121   1.375   0.787
 7793SOL    HW124278   5.066   1.308   0.736
 7793SOL    HW224279   5.172   1.328   0.859
 7794SOL     OW24280   1.584   0.159   3.376
 7794SOL    HW124281   1.677   0.177   3.344
 7794SOL    HW224282   1.520   0.220   3.329
 7795SOL     OW24283   3.703   3.991   1.434
 7795SOL    HW124284   3.764   4.060   1.471
 7795SOL    HW224285   3.646   3.954   1.507
 7796SOL     OW24286   3.161   1.277   0.598
 7796SOL    HW124287   3.131   1.239   0.686
 7796SOL    HW224288   3.200   1.204   0.542
 7797SOL     OW24289   1.548   5.603   2.802
 7797SOL    HW124290   1.614   5.669   2.839
 7797SOL    HW224291   1.457   5.624   2.836
 7798SOL     OW24292   1.884   3.332   0.481
 7798SOL    HW124293   1.837   3.415   0.453
 7798SOL    HW224294   1.848   3.300   0.569
 7799SOL     OW24295   3.103   6.304   4.215
 7799SOL    HW124296   3.151   6.349   4.290
 7799SOL    HW224297   3.144   6.214   4.197
 7800SOL     OW24298   1.935   1.004   2.318
 7800SOL    HW124299   1.873   0.943   2.368
 7800SOL    HW224300   1.899   1.097   2.320
 7801SOL     OW24301   1.610   2.431   0.900
 7801SOL    HW124302   1.591   2.429   0.998
 7801SOL    HW224303   1.569   2.351   0.857
 7802SOL     OW24304   6.517   4.301   3.833
 7802SOL    HW124305   6.454   4.246   3.779
 7802SOL    HW224306   6.522   4.393   3.794
 7803SOL     OW24307   3.274   2.616   5.589
 7803SOL    HW124308   3.192   2.605   5.532
 7803SOL    HW224309   3.333   2.686   5.549
 7804SOL     OW24310   3.016   1.382   5.475
 7804SOL    HW124311   2.958   1.460   5.452
 7804SOL    HW224312   2.969   1.324   5.542
 7805SOL     OW24313   5.687   3.253   6.540
 7805SOL    HW124314   5.749   3.175   6.550
 7805SOL    HW224315   5.739   3.333   6.509
 7806SOL     OW24316   5.958   1.435   5.419
 7806SOL    HW124317   5.899   1.472   5.347
 7806SOL    HW224318   6.034   1.499   5.435
 7807SOL     OW24319   1.835   5.478   5.272
 7807SOL    HW124320   1.765   5.439   5.212
 7807SOL    HW224321   1.857   5.571   5.242
 7808SOL     OW24322   6.155   3.760   3.765
 7808SOL    HW124323   6.160   3.716   3.675
 7808SOL    HW224324   6.183   3.696   3.836
 7809SOL     OW24325   4.689   6.325   2.414
 7809SOL    HW124326   4.750   6.316   2.336
 7809SOL    HW224327   4.730   6.386   2.482
 7810SOL     OW24328   1.849   6.553   5.603
 7810SOL    HW124329   1.767   6.518   5.648
 7810SOL    HW224330   1.919   6.571   5.671
 7811SOL     OW24331   1.093   6.192   2.927
 7811SOL    HW124332   1.058   6.234   3.012
 7811SOL    HW224333   1.028   6.124   2.895
 7812SOL     OW24334   3.055   1.086   5.666
 7812SOL    HW124335   2.978   1.112   5.609
 7812SOL    HW224336   3.027   1.084   5.762
 7813SOL     OW24337   5.559   1.048   0.956
 7813SOL    HW124338   5.627   1.009   0.893
 7813SOL    HW224339   5.467   1.021   0.925
 7814SOL     OW24340   5.755   2.394   1.765
 7814SOL    HW124341   5.770   2.320   1.699
 7814SOL    HW224342   5.672   2.443   1.741
 7815SOL     OW24343   5.010   5.532   3.683
 7815SOL    HW124344   4.991   5.434   3.690
 7815SOL    HW224345   5.104   5.546   3.652
 7816SOL     OW24346   1.056   1.474   5.311
 7816SOL    HW124347   1.041   1.563   5.353
 7816SOL    HW224348   1.114   1.483   5.230
 7817SOL     OW24349   4.588   1.810   0.035
 7817SOL    HW124350   4.585   1.755   0.118
 7817SOL    HW224351   4.513   1.783   6.998
 7818SOL     OW24352   6.249   0.985   3.301
 7818SOL    HW124353   6.170   0.930   3.327
 7818SOL    HW224354   6.283   1.034   3.382
 7819SOL     OW24355   1.729   2.928   5.377
 7819SOL    HW124356   1.672   2.960   5.452
 7819SOL    HW224357   1.705   2.977   5.293
 7820SOL     OW24358   1.541   1.361   5.303
 7820SOL    HW124359   1.459   1.368   5.359
 7820SOL    HW224360   1.607   1.301   5.347
 7821SOL     OW24361   3.811   5.784   0.002
 7821SOL    HW124362   3.787   5.815   0.095
 7821SOL    HW224363   3.907   5.804   7.008
 7822SOL     OW24364   0.272   1.640   4.673
 7822SOL    HW124365   0.365   1.603   4.670
 7822SOL    HW224366   0.275   1.738   4.688
 7823SOL     OW24367   2.752   3.144   5.843
 7823SOL    HW124368   2.824   3.096   5.794
 7823SOL    HW224369   2.700   3.079   5.899
 7824SOL     OW24370   6.192   3.820   3.127
 7824SOL    HW124371   6.132   3.740   3.117
 7824SOL    HW224372   6.208   3.837   3.224
 7825SOL     OW24373   3.666   3.450   2.672
 7825SOL    HW124374   3.574   3.453   2.632
 7825SOL    HW224375   3.733   3.436   2.600
 7826SOL     OW24376   6.695   0.207   0.840
 7826SOL    HW124377   6.721   0.294   0.797
 7826SOL    HW224378   6.601   0.214   0.874
 7827SOL     OW24379   4.251   3.572   0.441
 7827SOL    HW124380   4.316   3.530   0.379
 7827SOL    HW224381   4.248   3.519   0.526
 7828SOL     OW24382   1.106   6.247   1.313
 7828SOL    HW124383   1.174   6.306   1.356
 7828SOL    HW224384   1.145   6.156   1.299
 7829SOL     OW24385   3.732   3.780   3.193
 7829SOL    HW124386   3.635   3.773   3.170
 7829SOL    HW224387   3.773   3.689   3.195
 7830SOL     OW24388   6.264   4.232   0.222
 7830SOL    HW124389   6.244   4.143   0.262
 7830SOL    HW224390   6.247   4.303   0.291
 7831SOL     OW24391   1.791   2.678   0.398
 7831SOL    HW124392   1.769   2.774   0.419
 7831SOL    HW224393   1.888   2.670   0.377
 7832SOL     OW24394   3.652   2.607   5.585
 7832SOL    HW124395   3.605   2.532   5.630
 7832SOL    HW224396   3.625   2.610   5.488
 7833SOL     OW24397   6.755   6.393   1.520
 7833SOL    HW124398   6.848   6.382   1.556
 7833SOL    HW224399   6.689   6.365   1.591
 7834SOL     OW24400   5.638   0.809   1.304
 7834SOL    HW124401   5.551   0.858   1.303
 7834SOL    HW224402   5.628   0.724   1.356
 7835SOL     OW24403   2.092   1.880   4.134
 7835SOL    HW124404   2.122   1.975   4.124
 7835SOL    HW224405   1.992   1.878   4.146
 7836SOL     OW24406   2.062   0.480   0.321
 7836SOL    HW124407   2.020   0.414   0.259
 7836SOL    HW224408   2.158   0.456   0.336
 7837SOL     OW24409   5.656   6.201   2.713
 7837SOL    HW124410   5.628   6.112   2.677
 7837SOL    HW224411   5.692   6.190   2.806
 7838SOL     OW24412   4.416   6.272   4.135
 7838SOL    HW124413   4.336   6.212   4.132
 7838SOL    HW224414   4.458   6.277   4.044
 7839SOL     OW24415   0.117   4.855   3.590
 7839SOL    HW124416   0.022   4.858   3.561
 7839SOL    HW224417   0.176   4.851   3.509
 7840SOL     OW24418   5.096   3.463   6.152
 7840SOL    HW124419   5.005   3.504   6.157
 7840SOL    HW224420   5.120   3.445   6.056
 7841SOL     OW24421   1.089   1.749   6.397
 7841SOL    HW124422   1.149   1.758   6.476
 7841SOL    HW224423   1.115   1.816   6.327
 7842SOL     OW24424   2.890   6.956   2.242
 7842SOL    HW124425   2.873   0.019   2.288
 7842SOL    HW224426   2.810   6.932   2.186
 7843SOL     OW24427   0.447   2.733   2.039
 7843SOL    HW124428   0.430   2.762   2.133
 7843SOL    HW224429   0.378   2.666   2.013
 7844SOL     OW24430   3.880   1.849   3.805
 7844SOL    HW124431   3.823   1.926   3.775
 7844SOL    HW224432   3.953   1.883   3.864
 7845SOL     OW24433   0.745   1.363   3.710
 7845SOL    HW124434   0.696   1.442   3.675
 7845SOL    HW224435   0.712   1.341   3.802
 7846SOL     OW24436   4.399   6.539   2.555
 7846SOL    HW124437   4.427   6.616   2.613
 7846SOL    HW224438   4.372   6.462   2.613
 7847SOL     OW24439   0.305   0.056   6.872
 7847SOL    HW124440   0.222   0.072   6.819
 7847SOL    HW224441   0.337   0.142   6.911
 7848SOL     OW24442   3.783   4.344   1.309
 7848SOL    HW124443   3.786   4.311   1.403
 7848SOL    HW224444   3.691   4.376   1.287
 7849SOL     OW24445   5.541   4.369   4.969
 7849SOL    HW124446   5.458   4.352   5.023
 7849SOL    HW224447   5.610   4.300   4.991
 7850SOL     OW24448   0.923   2.501   4.841
 7850SOL    HW124449   0.968   2.427   4.892
 7850SOL    HW224450   0.841   2.465   4.796
 7851SOL     OW24451   4.136   6.438   1.109
 7851SOL    HW124452   4.168   6.499   1.181
 7851SOL    HW224453   4.072   6.372   1.147
 7852SOL     OW24454   2.436   6.693   0.404
 7852SOL    HW124455   2.401   6.701   0.311
 7852SOL    HW224456   2.536   6.694   0.402
 7853SOL     OW24457   1.952   2.236   0.083
 7853SOL    HW124458   2.026   2.263   0.145
 7853SOL    HW224459   1.872   2.294   0.101
 7854SOL     OW24460   3.537   4.014   3.565
 7854SOL    HW124461   3.447   3.976   3.543
 7854SOL    HW224462   3.526   4.085   3.635
 7855SOL     OW24463   3.471   0.015   5.170
 7855SOL    HW124464   3.415   6.962   5.198
 7855SOL    HW224465   3.560   7.006   5.137
 7856SOL     OW24466   3.053   3.347   6.680
 7856SOL    HW124467   3.148   3.351   6.649
 7856SOL    HW224468   3.035   3.422   6.742
 7857SOL     OW24469   0.529   3.074   5.658
 7857SOL    HW124470   0.573   3.005   5.601
 7857SOL    HW224471   0.599   3.127   5.706
 7858SOL     OW24472   6.390   3.522   3.041
 7858SOL    HW124473   6.401   3.473   3.128
 7858SOL    HW224474   6.337   3.605   3.057
 7859SOL     OW24475   0.691   6.360   0.299
 7859SOL    HW124476   0.690   6.274   0.248
 7859SOL    HW224477   0.785   6.392   0.307
 7860SOL     OW24478   4.083   6.570   1.497
 7860SOL    HW124479   4.107   6.598   1.590
 7860SOL    HW224480   4.015   6.497   1.500
 7861SOL     OW24481   5.341   3.452   0.699
 7861SOL    HW124482   5.405   3.491   0.632
 7861SOL    HW224483   5.386   3.378   0.748
 7862SOL     OW24484   2.971   4.727   1.738
 7862SOL    HW124485   2.941   4.636   1.767
 7862SOL    HW224486   2.990   4.784   1.818
 7863SOL     OW24487   5.118   5.756   2.623
 7863SOL    HW124488   5.098   5.792   2.532
 7863SOL    HW224489   5.083   5.663   2.630
 7864SOL     OW24490   0.779   6.183   4.663
 7864SOL    HW124491   0.877   6.185   4.642
 7864SOL    HW224492   0.752   6.089   4.684
 7865SOL     OW24493   4.260   1.003   3.329
 7865SOL    HW124494   4.323   1.055   3.271
 7865SOL    HW224495   4.174   1.054   3.340
 7866SOL     OW24496   2.307   2.036   5.012
 7866SOL    HW124497   2.216   2.037   5.053
 7866SOL    HW224498   2.341   2.130   5.003
 7867SOL     OW24499   5.887   3.907   1.610
 7867SOL    HW124500   5.963   3.932   1.549
 7867SOL    HW224501   5.826   3.844   1.563
 7868SOL     OW24502   5.066   0.098   0.460
 7868SOL    HW124503   5.063   0.197   0.469
 7868SOL    HW224504   5.162   0.068   0.462
 7869SOL     OW24505   6.068   1.781   4.303
 7869SOL    HW124506   6.163   1.785   4.270
 7869SOL    HW224507   6.069   1.772   4.403
 7870SOL     OW24508   6.432   6.834   2.961
 7870SOL    HW124509   6.385   6.922   2.961
 7870SOL    HW224510   6.455   6.809   3.055
 7871SOL     OW24511   6.310   3.243   4.375
 7871SOL    HW124512   6.249   3.321   4.360
 7871SOL    HW224513   6.374   3.235   4.299
 7872SOL     OW24514   0.104   4.278   4.515
 7872SOL    HW124515   0.037   4.316   4.578
 7872SOL    HW224516   0.128   4.346   4.446
 7873SOL     OW24517   6.829   5.717   4.825
 7873SOL    HW124518   6.922   5.737   4.856
 7873SOL    HW224519   6.808   5.621   4.841
 7874SOL     OW24520   6.469   0.566   0.498
 7874SOL    HW124521   6.423   0.593   0.582
 7874SOL    HW224522   6.565   0.597   0.502
 7875SOL     OW24523   5.079   3.342   0.408
 7875SOL    HW124524   5.120   3.282   0.477
 7875SOL    HW224525   5.112   3.315   0.317
 7876SOL     OW24526   6.983   1.237   5.093
 7876SOL    HW124527   6.922   1.260   5.017
 7876SOL    HW224528   6.929   1.217   5.175
 7877SOL     OW24529   6.138   2.750   2.978
 7877SOL    HW124530   6.053   2.725   2.932
 7877SOL    HW224531   6.207   2.680   2.961
 7878SOL     OW24532   4.064   3.953   1.523
 7878SOL    HW124533   4.035   3.934   1.429
 7878SOL    HW224534   4.089   4.050   1.531
 7879SOL     OW24535   6.268   0.914   5.337
 7879SOL    HW124536   6.332   0.985   5.307
 7879SOL    HW224537   6.235   0.937   5.429
 7880SOL     OW24538   1.796   6.347   6.114
 7880SOL    HW124539   1.881   6.387   6.079
 7880SOL    HW224540   1.814   6.253   6.143
 7881SOL     OW24541   0.983   5.354   4.413
 7881SOL    HW124542   0.931   5.438   4.398
 7881SOL    HW224543   0.951   5.283   4.351
 7882SOL     OW24544   1.675   4.975   1.841
 7882SOL    HW124545   1.664   5.045   1.769
 7882SOL    HW224546   1.627   4.892   1.813
 7883SOL     OW24547   3.548   1.937   2.697
 7883SOL    HW124548   3.596   1.951   2.610
 7883SOL    HW224549   3.555   1.841   2.723
 7884SOL     OW24550   0.558   3.372   4.595
 7884SOL    HW124551   0.527   3.368   4.690
 7884SOL    HW224552   0.480   3.396   4.536
 7885SOL     OW24553   6.082   5.256   2.373
 7885SOL    HW124554   5.991   5.258   2.332
 7885SOL    HW224555   6.127   5.345   2.359
 7886SOL     OW24556   4.929   3.999   2.478
 7886SOL    HW124557   5.029   3.992   2.482
 7886SOL    HW224558   4.889   3.913   2.507
 7887SOL     OW24559   0.852   3.359   1.480
 7887SOL    HW124560   0.845   3.299   1.401
 7887SOL    HW224561   0.933   3.334   1.534
 7888SOL     OW24562   6.134   1.068   5.056
 7888SOL    HW124563   6.133   1.050   4.958
 7888SOL    HW224564   6.168   1.160   5.073
 7889SOL     OW24565   5.540   5.172   0.857
 7889SOL    HW124566   5.604   5.136   0.789
 7889SOL    HW224567   5.561   5.267   0.877
 7890SOL     OW24568   2.338   2.766   3.427
 7890SOL    HW124569   2.360   2.827   3.503
 7890SOL    HW224570   2.413   2.701   3.414
 7891SOL     OW24571   6.149   1.745   4.591
 7891SOL    HW124572   6.240   1.721   4.556
 7891SOL    HW224573   6.120   1.677   4.658
 7892SOL     OW24574   1.032   1.895   5.006
 7892SOL    HW124575   1.053   1.968   4.941
 7892SOL    HW224576   0.994   1.817   4.957
 7893SOL     OW24577   6.066   6.555   0.678
 7893SOL    HW124578   6.067   6.483   0.748
 7893SOL    HW224579   5.985   6.544   0.621
 7894SOL     OW24580   3.041   1.150   0.036
 7894SOL    HW124581   2.970   1.191   0.094
 7894SOL    HW224582   3.008   1.064   7.022
 7895SOL     OW24583   6.673   6.083   2.963
 7895SOL    HW124584   6.691   6.000   3.016
 7895SOL    HW224585   6.584   6.075   2.917
 7896SOL     OW24586   2.271   1.415   0.641
 7896SOL    HW124587   2.290   1.403   0.738
 7896SOL    HW224588   2.191   1.474   0.630
 7897SOL     OW24589   3.811   2.077   0.744
 7897SOL    HW124590   3.729   2.070   0.687
 7897SOL    HW224591   3.863   1.992   0.738
 7898SOL     OW24592   5.289   6.712   3.310
 7898SOL    HW124593   5.252   6.785   3.367
 7898SOL    HW224594   5.237   6.628   3.324
 7899SOL     OW24595   6.043   4.272   3.702
 7899SOL    HW124596   5.990   4.228   3.774
 7899SOL    HW224597   5.981   4.303   3.629
 7900SOL     OW24598   0.476   3.696   0.116
 7900SOL    HW124599   0.537   3.687   0.038
 7900SOL    HW224600   0.524   3.669   0.200
 7901SOL     OW24601   0.592   2.205   0.377
 7901SOL    HW124602   0.604   2.303   0.397
 7901SOL    HW224603   0.522   2.194   0.307
 7902SOL     OW24604   1.970   6.210   1.475
 7902SOL    HW124605   1.891   6.172   1.522
 7902SOL    HW224606   2.051   6.155   1.496
 7903SOL     OW24607   2.678   2.202   5.589
 7903SOL    HW124608   2.763   2.214   5.538
 7903SOL    HW224609   2.603   2.249   5.542
 7904SOL     OW24610   4.696   2.452   2.653
 7904SOL    HW124611   4.713   2.388   2.578
 7904SOL    HW224612   4.633   2.409   2.718
 7905SOL     OW24613   6.037   2.431   0.985
 7905SOL    HW124614   6.045   2.443   1.084
 7905SOL    HW224615   5.951   2.384   0.963
 7906SOL     OW24616   1.007   5.498   6.617
 7906SOL    HW124617   1.088   5.486   6.674
 7906SOL    HW224618   0.966   5.408   6.600
 7907SOL     OW24619   6.213   6.266   2.382
 7907SOL    HW124620   6.159   6.199   2.331
 7907SOL    HW224621   6.223   6.350   2.328
 7908SOL     OW24622   1.719   6.618   6.430
 7908SOL    HW124623   1.658   6.675   6.375
 7908SOL    HW224624   1.689   6.523   6.425
 7909SOL     OW24625   6.507   3.653   1.090
 7909SOL    HW124626   6.525   3.593   1.168
 7909SOL    HW224627   6.500   3.747   1.122
 7910SOL     OW24628   1.488   4.359   5.758
 7910SOL    HW124629   1.420   4.395   5.694
 7910SOL    HW224630   1.454   4.274   5.798
 7911SOL     OW24631   5.721   4.361   5.882
 7911SOL    HW124632   5.705   4.269   5.919
 7911SOL    HW224633   5.694   4.430   5.949
 7912SOL     OW24634   5.761   5.431   0.778
 7912SOL    HW124635   5.853   5.392   0.775
 7912SOL    HW224636   5.762   5.515   0.833
 7913SOL     OW24637   1.628   4.746   6.637
 7913SOL    HW124638   1.688   4.676   6.674
 7913SOL    HW224639   1.552   4.703   6.589
 7914SOL     OW24640   0.656   6.771   4.821
 7914SOL    HW124641   0.699   6.759   4.910
 7914SOL    HW224642   0.703   6.842   4.770
 7915SOL     OW24643   3.015   4.815   2.435
 7915SOL    HW124644   2.977   4.795   2.345
 7915SOL    HW224645   3.036   4.912   2.443
 7916SOL     OW24646   1.174   0.299   3.894
 7916SOL    HW124647   1.173   0.199   3.898
 7916SOL    HW224648   1.081   0.333   3.879
 7917SOL     OW24649   4.802   2.051   2.052
 7917SOL    HW124650   4.753   1.995   2.119
 7917SOL    HW224651   4.739   2.080   1.980
 7918SOL     OW24652   2.283   2.868   3.188
 7918SOL    HW124653   2.284   2.810   3.270
 7918SOL    HW224654   2.300   2.963   3.215
 7919SOL     OW24655   1.008   6.705   4.659
 7919SOL    HW124656   1.025   6.770   4.733
 7919SOL    HW224657   0.920   6.726   4.616
 7920SOL     OW24658   4.619   0.569   0.969
 7920SOL    HW124659   4.698   0.516   0.939
 7920SOL    HW224660   4.647   0.633   1.041
 7921SOL     OW24661   5.342   2.282   1.097
 7921SOL    HW124662   5.375   2.368   1.138
 7921SOL    HW224663   5.412   2.244   1.037
 7922SOL     OW24664   2.889   0.278   2.382
 7922SOL    HW124665   2.983   0.247   2.397
 7922SOL    HW224666   2.884   0.326   2.294
 7923SOL     OW24667   3.883   1.334   0.009
 7923SOL    HW124668   3.818   1.308   6.962
 7923SOL    HW224669   3.901   1.254   0.068
 7924SOL     OW24670   5.857   5.464   0.111
 7924SOL    HW124671   5.896   5.391   0.168
 7924SOL    HW224672   5.759   5.470   0.127
 7925SOL     OW24673   1.391   5.405   6.465
 7925SOL    HW124674   1.356   5.447   6.549
 7925SOL    HW224675   1.321   5.345   6.426
 7926SOL     OW24676   5.622   5.882   6.271
 7926SOL    HW124677   5.571   5.833   6.200
 7926SOL    HW224678   5.718   5.890   6.245
 7927SOL     OW24679   4.164   0.159   3.423
 7927SOL    HW124680   4.184   0.206   3.338
 7927SOL    HW224681   4.198   0.065   3.418
 7928SOL     OW24682   5.632   2.167   3.638
 7928SOL    HW124683   5.659   2.087   3.584
 7928SOL    HW224684   5.544   2.202   3.605
 7929SOL     OW24685   4.709   4.424   5.877
 7929SOL    HW124686   4.786   4.419   5.941
 7929SOL    HW224687   4.669   4.515   5.881
 7930SOL     OW24688   4.272   6.392   6.273
 7930SOL    HW124689   4.261   6.422   6.178
 7930SOL    HW224690   4.278   6.472   6.333
 7931SOL     OW24691   4.126   1.501   1.331
 7931SOL    HW124692   4.081   1.495   1.420
 7931SOL    HW224693   4.117   1.593   1.295
 7932SOL     OW24694   1.427   3.918   1.736
 7932SOL    HW124695   1.412   3.911   1.834
 7932SOL    HW224696   1.357   3.977   1.695
 7933SOL     OW24697   1.124   1.711   0.171
 7933SOL    HW124698   1.099   1.676   0.081
 7933SOL    HW224699   1.052   1.687   0.237
 7934SOL     OW24700   0.634   5.435   1.049
 7934SOL    HW124701   0.557   5.397   0.998
 7934SOL    HW224702   0.698   5.478   0.986
 7935SOL     OW24703   6.504   2.889   3.267
 7935SOL    HW124704   6.520   2.791   3.280
 7935SOL    HW224705   6.405   2.906   3.261
 7936SOL     OW24706   2.150   5.496   3.267
 7936SOL    HW124707   2.098   5.426   3.217
 7936SOL    HW224708   2.157   5.579   3.211
 7937SOL     OW24709   4.280   1.077   0.881
 7937SOL    HW124710   4.318   0.991   0.916
 7937SOL    HW224711   4.216   1.114   0.948
 7938SOL     OW24712   2.602   6.941   3.264
 7938SOL    HW124713   2.652   6.971   3.182
 7938SOL    HW224714   2.657   6.873   3.313
 7939SOL     OW24715   0.704   0.975   2.679
 7939SOL    HW124716   0.781   0.942   2.733
 7939SOL    HW224717   0.640   0.899   2.663
 7940SOL     OW24718   5.774   1.766   4.625
 7940SOL    HW124719   5.832   1.696   4.667
 7940SOL    HW224720   5.698   1.788   4.686
 7941SOL     OW24721   3.484   6.859   0.870
 7941SOL    HW124722   3.506   6.784   0.933
 7941SOL    HW224723   3.399   6.903   0.900
 7942SOL     OW24724   1.472   4.148   0.772
 7942SOL    HW124725   1.564   4.150   0.809
 7942SOL    HW224726   1.463   4.072   0.708
 7943SOL     OW24727   1.434   6.221   6.110
 7943SOL    HW124728   1.373   6.278   6.166
 7943SOL    HW224729   1.390   6.203   6.022
 7944SOL     OW24730   1.072   2.109   1.507
 7944SOL    HW124731   1.142   2.136   1.573
 7944SOL    HW224732   1.045   2.189   1.453
 7945SOL     OW24733   6.228   3.664   2.787
 7945SOL    HW124734   6.300   3.597   2.800
 7945SOL    HW224735   6.188   3.652   2.696
 7946SOL     OW24736   4.591   2.252   6.682
 7946SOL    HW124737   4.540   2.180   6.729
 7946SOL    HW224738   4.645   2.303   6.748
 7947SOL     OW24739   6.884   3.854   5.860
 7947SOL    HW124740   6.800   3.806   5.833
 7947SOL    HW224741   6.928   3.893   5.780
 7948SOL     OW24742   1.194   5.670   1.323
 7948SOL    HW124743   1.202   5.649   1.420
 7948SOL    HW224744   1.148   5.758   1.311
 7949SOL     OW24745   2.575   5.477   5.839
 7949SOL    HW124746   2.577   5.491   5.938
 7949SOL    HW224747   2.487   5.437   5.813
 7950SOL     OW24748   6.861   4.404   5.684
 7950SOL    HW124749   6.824   4.388   5.593
 7950SOL    HW224750   6.876   4.502   5.697
 7951SOL     OW24751   4.236   6.742   2.878
 7951SOL    HW124752   4.335   6.758   2.873
 7951SOL    HW224753   4.190   6.825   2.908
 7952SOL     OW24754   6.709   3.895   5.031
 7952SOL    HW124755   6.757   3.964   4.977
 7952SOL    HW224756   6.626   3.866   4.984
 7953SOL     OW24757   1.631   0.019   0.287
 7953SOL    HW124758   1.582   0.075   0.220
 7953SOL    HW224759   1.585   6.955   0.297
 7954SOL     OW24760   3.838   3.387   7.017
 7954SOL    HW124761   3.821   3.485   7.004
 7954SOL    HW224762   3.937   3.371   7.022
 7955SOL     OW24763   0.941   1.103   6.334
 7955SOL    HW124764   0.865   1.059   6.381
 7955SOL    HW224765   0.972   1.046   6.259
 7956SOL     OW24766   0.584   6.372   0.552
 7956SOL    HW124767   0.515   6.440   0.527
 7956SOL    HW224768   0.635   6.346   0.470
 7957SOL     OW24769   5.355   1.607   5.875
 7957SOL    HW124770   5.307   1.665   5.809
 7957SOL    HW224771   5.388   1.663   5.950
 7958SOL     OW24772   4.603   2.439   6.950
 7958SOL    HW124773   4.566   2.508   7.012
 7958SOL    HW224774   4.577   2.348   6.983
 7959SOL     OW24775   5.397   2.453   0.270
 7959SOL    HW124776   5.373   2.420   0.362
 7959SOL    HW224777   5.422   2.375   0.212
 7960SOL     OW24778   0.798   1.477   5.203
 7960SOL    HW124779   0.740   1.402   5.235
 7960SOL    HW224780   0.882   1.480   5.258
 7961SOL     OW24781   6.043   0.101   0.322
 7961SOL    HW124782   6.071   0.119   0.228
 7961SOL    HW224783   6.023   0.187   0.368
 7962SOL     OW24784   5.857   0.006   5.051
 7962SOL    HW124785   5.909   0.016   5.136
 7962SOL    HW224786   5.920   7.020   4.975
 7963SOL     OW24787   6.247   6.067   3.532
 7963SOL    HW124788   6.256   6.142   3.597
 7963SOL    HW224789   6.271   6.099   3.440
 7964SOL     OW24790   6.066   3.657   1.232
 7964SOL    HW124791   6.083   3.726   1.161
 7964SOL    HW224792   6.137   3.665   1.302
 7965SOL     OW24793   5.297   2.022   6.159
 7965SOL    HW124794   5.210   2.032   6.209
 7965SOL    HW224795   5.369   2.073   6.207
 7966SOL     OW24796   5.575   3.596   5.243
 7966SOL    HW124797   5.488   3.633   5.213
 7966SOL    HW224798   5.580   3.599   5.343
 7967SOL     OW24799   1.212   4.794   0.028
 7967SOL    HW124800   1.150   4.808   6.974
 7967SOL    HW224801   1.275   4.719   0.007
 7968SOL     OW24802   1.995   2.246   3.945
 7968SOL    HW124803   1.909   2.238   3.894
 7968SOL    HW224804   1.982   2.207   4.036
 7969SOL     OW24805   3.423   4.627   6.803
 7969SOL    HW124806   3.485   4.705   6.814
 7969SOL    HW224807   3.447   4.555   6.868
 7970SOL     OW24808   6.236   2.997   4.251
 7970SOL    HW124809   6.292   2.936   4.308
 7970SOL    HW224810   6.256   3.092   4.275
 7971SOL     OW24811   2.673   1.297   6.959
 7971SOL    HW124812   2.743   1.252   7.014
 7971SOL    HW224813   2.712   1.377   6.914
 7972SOL     OW24814   3.471   4.090   4.360
 7972SOL    HW124815   3.560   4.055   4.331
 7972SOL    HW224816   3.479   4.127   4.453
 7973SOL     OW24817   6.286   4.963   1.915
 7973SOL    HW124818   6.263   5.060   1.925
 7973SOL    HW224819   6.213   4.907   1.955
 7974SOL     OW24820   0.709   3.076   4.768
 7974SOL    HW124821   0.690   2.979   4.760
 7974SOL    HW224822   0.804   3.089   4.798
 7975SOL     OW24823   4.699   0.488   0.384
 7975SOL    HW124824   4.649   0.559   0.432
 7975SOL    HW224825   4.636   0.415   0.357
 7976SOL     OW24826   0.777   0.623   0.168
 7976SOL    HW124827   0.737   0.611   0.259
 7976SOL    HW224828   0.710   0.598   0.099
 7977SOL     OW24829   5.590   5.518   3.335
 7977SOL    HW124830   5.557   5.471   3.417
 7977SOL    HW224831   5.550   5.475   3.254
 7978SOL     OW24832   0.616   4.122   1.348
 7978SOL    HW124833   0.608   4.078   1.438
 7978SOL    HW224834   0.646   4.055   1.281
 7979SOL     OW24835   2.632   2.181   5.251
 7979SOL    HW124836   2.564   2.254   5.250
 7979SOL    HW224837   2.700   2.198   5.180
 7980SOL     OW24838   3.494   5.405   1.512
 7980SOL    HW124839   3.424   5.351   1.559
 7980SOL    HW224840   3.582   5.358   1.519
 7981SOL     OW24841   1.806   3.858   4.322
 7981SOL    HW124842   1.821   3.788   4.392
 7981SOL    HW224843   1.873   3.931   4.333
 7982SOL     OW24844   6.849   1.303   5.876
 7982SOL    HW124845   6.848   1.265   5.968
 7982SOL    HW224846   6.925   1.368   5.868
 7983SOL     OW24847   3.853   0.540   1.842
 7983SOL    HW124848   3.801   0.468   1.889
 7983SOL    HW224849   3.795   0.621   1.830
 7984SOL     OW24850   6.897   3.090   2.722
 7984SOL    HW124851   6.877   3.107   2.819
 7984SOL    HW224852   6.820   3.121   2.666
 7985SOL     OW24853   3.053   2.925   5.245
 7985SOL    HW124854   3.114   2.846   5.257
 7985SOL    HW224855   3.106   3.003   5.213
 7986SOL     OW24856   3.949   0.913   4.022
 7986SOL    HW124857   3.912   1.006   4.021
 7986SOL    HW224858   3.914   0.863   3.942
 7987SOL     OW24859   0.983   3.429   6.438
 7987SOL    HW124860   1.005   3.525   6.459
 7987SOL    HW224861   0.905   3.400   6.493
 7988SOL     OW24862   6.727   0.891   1.193
 7988SOL    HW124863   6.640   0.891   1.144
 7988SOL    HW224864   6.731   0.969   1.255
 7989SOL     OW24865   0.732   4.467   0.748
 7989SOL    HW124866   0.779   4.454   0.661
 7989SOL    HW224867   0.638   4.433   0.740
 7990SOL     OW24868   4.738   5.234   4.884
 7990SOL    HW124869   4.783   5.149   4.908
 7990SOL    HW224870   4.750   5.251   4.786
 7991SOL     OW24871   5.835   0.985   4.652
 7991SOL    HW124872   5.885   0.905   4.685
 7991SOL    HW224873   5.883   1.068   4.680
 7992SOL     OW24874   2.024   6.989   0.100
 7992SOL    HW124875   2.043   0.061   0.120
 7992SOL    HW224876   2.008   6.939   0.185
 7993SOL     OW24877   6.207   5.980   0.433
 7993SOL    HW124878   6.280   6.005   0.496
 7993SOL    HW224879   6.237   5.906   0.373
 7994SOL     OW24880   6.777   0.749   4.368
 7994SOL    HW124881   6.691   0.726   4.413
 7994SOL    HW224882   6.803   0.842   4.391
 7995SOL     OW24883   0.254   5.408   1.417
 7995SOL    HW124884   0.230   5.312   1.431
 7995SOL    HW224885   0.354   5.418   1.422
 7996SOL     OW24886   2.354   6.906   3.164
 7996SOL    HW124887   2.438   6.920   3.216
 7996SOL    HW224888   2.309   6.822   3.194
 7997SOL     OW24889   2.273   1.968   5.692
 7997SOL    HW124890   2.370   1.948   5.676
 7997SOL    HW224891   2.220   1.884   5.689
 7998SOL     OW24892   2.293   0.785   1.136
 7998SOL    HW124893   2.282   0.698   1.185
 7998SOL    HW224894   2.386   0.819   1.150
 7999SOL     OW24895   0.824   0.216   3.648
 7999SOL    HW124896   0.858   0.136   3.697
 7999SOL    HW224897   0.859   0.299   3.692
 8000SOL     OW24898   4.242   5.658   1.199
 8000SOL    HW124899   4.265   5.562   1.209
 8000SOL    HW224900   4.197   5.673   1.110
 8001SOL     OW24901   4.644   4.256   1.343
 8001SOL    HW124902   4.587   4.300   1.413
 8001SOL    HW224903   4.620   4.291   1.253
 8002SOL     OW24904   1.082   0.339   4.749
 8002SOL    HW124905   1.144   0.264   4.724
 8002SOL    HW224906   0.998   0.332   4.695
 8003SOL     OW24907   3.219   5.972   2.852
 8003SOL    HW124908   3.197   6.061   2.810
 8003SOL    HW224909   3.134   5.924   2.874
 8004SOL     OW24910   1.569   3.609   4.265
 8004SOL    HW124911   1.661   3.591   4.300
 8004SOL    HW224912   1.543   3.704   4.284
 8005SOL     OW24913   2.046   0.467   3.394
 8005SOL    HW124914   1.989   0.541   3.356
 8005SOL    HW224915   2.120   0.507   3.447
 8006SOL     OW24916   4.663   5.388   5.902
 8006SOL    HW124917   4.619   5.349   5.821
 8006SOL    HW224918   4.598   5.447   5.950
 8007SOL     OW24919   0.552   0.793   0.679
 8007SOL    HW124920   0.594   0.789   0.770
 8007SOL    HW224921   0.622   0.820   0.612
 8008SOL     OW24922   4.604   5.220   0.731
 8008SOL    HW124923   4.670   5.292   0.755
 8008SOL    HW224924   4.514   5.261   0.716
 8009SOL     OW24925   6.388   1.438   0.531
 8009SOL    HW124926   6.330   1.358   0.516
 8009SOL    HW224927   6.331   1.515   0.562
 8010SOL     OW24928   3.412   0.630   5.655
 8010SOL    HW124929   3.383   0.535   5.665
 8010SOL    HW224930   3.507   0.640   5.685
 8011SOL     OW24931   3.921   2.155   2.507
 8011SOL    HW124932   3.831   2.113   2.503
 8011SOL    HW224933   3.986   2.100   2.454
 8012SOL     OW24934   6.549   1.152   4.393
 8012SOL    HW124935   6.602   1.199   4.463
 8012SOL    HW224936   6.572   1.189   4.303
 8013SOL     OW24937   3.585   0.955   3.134
 8013SOL    HW124938   3.565   1.015   3.057
 8013SOL    HW224939   3.525   0.876   3.132
 8014SOL     OW24940   2.596   2.379   2.803
 8014SOL    HW124941   2.675   2.387   2.742
 8014SOL    HW224942   2.562   2.285   2.800
 8015SOL     OW24943   3.684   6.968   4.371
 8015SOL    HW124944   3.717   6.876   4.348
 8015SOL    HW224945   3.710   0.008   4.300
 8016SOL     OW24946   3.580   2.520   5.354
 8016SOL    HW124947   3.492   2.474   5.358
 8016SOL    HW224948   3.649   2.458   5.318
 8017SOL     OW24949   6.131   5.842   1.222
 8017SOL    HW124950   6.158   5.918   1.280
 8017SOL    HW224951   6.163   5.756   1.262
 8018SOL     OW24952   3.394   3.283   0.584
 8018SOL    HW124953   3.423   3.374   0.555
 8018SOL    HW224954   3.416   3.270   0.681
 8019SOL     OW24955   2.607   3.423   0.310
 8019SOL    HW124956   2.613   3.384   0.402
 8019SOL    HW224957   2.687   3.481   0.293
 8020SOL     OW24958   0.043   0.524   6.274
 8020SOL    HW124959   6.978   0.479   6.260
 8020SOL    HW224960   0.059   0.589   6.200
 8021SOL     OW24961   0.989   3.182   0.585
 8021SOL    HW124962   0.916   3.189   0.653
 8021SOL    HW224963   1.036   3.094   0.596
 8022SOL     OW24964   4.224   6.842   2.379
 8022SOL    HW124965   4.188   6.929   2.348
 8022SOL    HW224966   4.209   6.833   2.478
 8023SOL     OW24967   4.075   5.654   2.182
 8023SOL    HW124968   3.984   5.681   2.215
 8023SOL    HW224969   4.127   5.616   2.258
 8024SOL     OW24970   2.898   0.896   6.967
 8024SOL    HW124971   2.966   0.857   6.905
 8024SOL    HW224972   2.834   0.825   6.996
 8025SOL     OW24973   1.004   6.161   2.072
 8025SOL    HW124974   0.937   6.132   2.005
 8025SOL    HW224975   1.085   6.102   2.065
 8026SOL     OW24976   0.834   6.778   6.342
 8026SOL    HW124977   0.796   6.794   6.251
 8026SOL    HW224978   0.922   6.732   6.334
 8027SOL     OW24979   3.607   0.542   6.635
 8027SOL    HW124980   3.608   0.442   6.637
 8027SOL    HW224981   3.595   0.576   6.728
 8028SOL     OW24982   3.536   5.949   5.756
 8028SOL    HW124983   3.506   6.042   5.736
 8028SOL    HW224984   3.581   5.910   5.675
 8029SOL     OW24985   1.200   0.627   1.555
 8029SOL    HW124986   1.118   0.581   1.520
 8029SOL    HW224987   1.173   0.712   1.599
 8030SOL     OW24988   1.106   4.406   1.059
 8030SOL    HW124989   1.159   4.491   1.062
 8030SOL    HW224990   1.151   4.341   0.997
 8031SOL     OW24991   6.704   0.348   2.214
 8031SOL    HW124992   6.670   0.441   2.205
 8031SOL    HW224993   6.804   0.349   2.220
 8032SOL     OW24994   0.126   2.649   0.099
 8032SOL    HW124995   0.039   2.692   0.120
 8032SOL    HW224996   0.112   2.574   0.033
 8033SOL     OW24997   3.838   4.204   1.556
 8033SOL    HW124998   3.938   4.200   1.548
 8033SOL    HW224999   3.810   4.161   1.642
 8034SOL     OW25000   0.280   0.404   5.648
 8034SOL    HW125001   0.308   0.472   5.716
 8034SOL    HW225002   0.272   0.314   5.691
 8035SOL     OW25003   6.299   6.925   4.199
 8035SOL    HW125004   6.233   6.979   4.250
 8035SOL    HW225005   6.288   6.943   4.101
 8036SOL     OW25006   5.074   3.119   4.287
 8036SOL    HW125007   4.989   3.145   4.241
 8036SOL    HW225008   5.054   3.095   4.382
 8037SOL     OW25009   2.608   0.953   6.196
 8037SOL    HW125010   2.650   0.865   6.219
 8037SOL    HW225011   2.545   0.941   6.119
 8038SOL     OW25012   6.625   5.516   1.964
 8038SOL    HW125013   6.673   5.460   1.897
 8038SOL    HW225014   6.682   5.526   2.046
 8039SOL     OW25015   2.387   2.312   5.005
 8039SOL    HW125016   2.310   2.339   5.064
 8039SOL    HW225017   2.453   2.386   5.000
 8040SOL     OW25018   0.825   6.015   6.372
 8040SOL    HW125019   0.898   5.950   6.390
 8040SOL    HW225020   0.862   6.094   6.323
 8041SOL     OW25021   3.235   1.629   3.271
 8041SOL    HW125022   3.297   1.552   3.255
 8041SOL    HW225023   3.147   1.611   3.226
 8042SOL     OW25024   3.713   4.161   5.866
 8042SOL    HW125025   3.717   4.216   5.949
 8042SOL    HW225026   3.652   4.083   5.881
 8043SOL     OW25027   4.966   5.677   0.183
 8043SOL    HW125028   5.032   5.602   0.193
 8043SOL    HW225029   4.873   5.640   0.181
 8044SOL     OW25030   1.942   2.824   1.370
 8044SOL    HW125031   1.854   2.788   1.400
 8044SOL    HW225032   1.956   2.915   1.410
 8045SOL     OW25033   6.434   3.708   4.356
 8045SOL    HW125034   6.449   3.629   4.297
 8045SOL    HW225035   6.494   3.703   4.436
 8046SOL     OW25036   0.436   4.512   1.333
 8046SOL    HW125037   0.518   4.470   1.296
 8046SOL    HW225038   0.361   4.445   1.334
 8047SOL     OW25039   3.110   5.978   6.807
 8047SOL    HW125040   3.188   6.041   6.799
 8047SOL    HW225041   3.074   5.982   6.901
 8048SOL     OW25042   3.940   2.458   5.792
 8048SOL    HW125043   4.003   2.404   5.848
 8048SOL    HW225044   3.885   2.397   5.735
 8049SOL     OW25045   1.568   1.521   0.288
 8049SOL    HW125046   1.562   1.429   0.249
 8049SOL    HW225047   1.510   1.527   0.369
 8050SOL     OW25048   0.603   4.616   6.280
 8050SOL    HW125049   0.567   4.677   6.350
 8050SOL    HW225050   0.687   4.573   6.313
 8051SOL     OW25051   4.887   6.726   3.520
 8051SOL    HW125052   4.977   6.733   3.563
 8051SOL    HW225053   4.859   6.815   3.484
 8052SOL     OW25054   2.926   1.756   2.467
 8052SOL    HW125055   2.848   1.773   2.407
 8052SOL    HW225056   2.971   1.843   2.488
 8053SOL     OW25057   1.680   2.490   6.730
 8053SOL    HW125058   1.769   2.499   6.775
 8053SOL    HW225059   1.628   2.416   6.773
 8054SOL     OW25060   5.025   3.417   4.858
 8054SOL    HW125061   4.957   3.490   4.869
 8054SOL    HW225062   4.987   3.344   4.802
 8055SOL     OW25063   6.399   0.136   6.621
 8055SOL    HW125064   6.397   0.083   6.706
 8055SOL    HW225065   6.488   0.125   6.577
 8056SOL     OW25066   2.103   1.297   3.945
 8056SOL    HW125067   2.142   1.205   3.939
 8056SOL    HW225068   2.123   1.346   3.860
 8057SOL     OW25069   2.975   2.083   2.231
 8057SOL    HW125070   2.936   2.164   2.187
 8057SOL    HW225071   2.982   2.009   2.164
 8058SOL     OW25072   3.898   6.141   1.888
 8058SOL    HW125073   3.900   6.053   1.934
 8058SOL    HW225074   3.805   6.160   1.856
 8059SOL     OW25075   2.879   2.928   5.694
 8059SOL    HW125076   2.783   2.903   5.684
 8059SOL    HW225077   2.927   2.914   5.608
 8060SOL     OW25078   6.838   1.237   6.160
 8060SOL    HW125079   6.801   1.314   6.211
 8060SOL    HW225080   6.769   1.165   6.153
 8061SOL     OW25081   6.887   1.101   1.966
 8061SOL    HW125082   6.948   1.022   1.975
 8061SOL    HW225083   6.835   1.094   1.881
 8062SOL     OW25084   4.328   4.988   5.636
 8062SOL    HW125085   4.427   4.979   5.639
 8062SOL    HW225086   4.295   4.972   5.543
 8063SOL     OW25087   2.604   4.600   2.886
 8063SOL    HW125088   2.607   4.562   2.978
 8063SOL    HW225089   2.681   4.663   2.873
 8064SOL     OW25090   6.656   1.861   0.459
 8064SOL    HW125091   6.564   1.840   0.492
 8064SOL    HW225092   6.719   1.862   0.536
 8065SOL     OW25093   4.514   6.884   6.910
 8065SOL    HW125094   4.523   6.861   6.813
 8065SOL    HW225095   4.546   6.807   6.965
 8066SOL     OW25096   0.421   0.104   5.966
 8066SOL    HW125097   0.329   0.131   5.995
 8066SOL    HW225098   0.483   0.106   6.044
 8067SOL     OW25099   5.565   0.611   4.358
 8067SOL    HW125100   5.620   0.572   4.284
 8067SOL    HW225101   5.508   0.685   4.322
 8068SOL     OW25102   6.853   3.404   1.739
 8068SOL    HW125103   6.874   3.307   1.734
 8068SOL    HW225104   6.830   3.428   1.834
 8069SOL     OW25105   1.522   2.996   2.492
 8069SOL    HW125106   1.447   2.941   2.456
 8069SOL    HW225107   1.608   2.945   2.482
 8070SOL     OW25108   5.003   3.727   1.019
 8070SOL    HW125109   5.043   3.817   1.000
 8070SOL    HW225110   5.069   3.655   0.998
 8071SOL     OW25111   2.807   0.125   5.953
 8071SOL    HW125112   2.884   0.095   5.897
 8071SOL    HW225113   2.721   0.092   5.913
 8072SOL     OW25114   2.277   1.926   4.716
 8072SOL    HW125115   2.205   1.933   4.784
 8072SOL    HW225116   2.349   1.992   4.737
 8073SOL     OW25117   5.091   0.194   0.100
 8073SOL    HW125118   5.177   0.198   0.150
 8073SOL    HW225119   5.103   0.236   0.010
 8074SOL     OW25120   6.606   0.800   0.192
 8074SOL    HW125121   6.557   0.847   0.120
 8074SOL    HW225122   6.682   0.856   0.223
 8075SOL     OW25123   0.363   0.287   1.027
 8075SOL    HW125124   0.411   0.232   0.958
 8075SOL    HW225125   0.395   0.263   1.118
 8076SOL     OW25126   6.699   6.002   0.761
 8076SOL    HW125127   6.736   5.913   0.735
 8076SOL    HW225128   6.623   6.025   0.700
 8077SOL     OW25129   5.929   4.433   1.221
 8077SOL    HW125130   5.946   4.343   1.261
 8077SOL    HW225131   5.924   4.502   1.293
 8078SOL     OW25132   6.543   0.672   1.434
 8078SOL    HW125133   6.640   0.674   1.409
 8078SOL    HW225134   6.493   0.741   1.381
 8079SOL     OW25135   0.787   0.986   6.545
 8079SOL    HW125136   0.799   1.060   6.611
 8079SOL    HW225137   0.862   0.921   6.554
 8080SOL     OW25138   1.365   3.386   3.254
 8080SOL    HW125139   1.349   3.345   3.343
 8080SOL    HW225140   1.463   3.393   3.237
 8081SOL     OW25141   6.593   6.851   5.201
 8081SOL    HW125142   6.520   6.806   5.252
 8081SOL    HW225143   6.673   6.792   5.197
 8082SOL     OW25144   3.489   2.125   4.266
 8082SOL    HW125145   3.405   2.070   4.262
 8082SOL    HW225146   3.497   2.166   4.357
 8083SOL     OW25147   6.726   1.988   4.505
 8083SOL    HW125148   6.742   2.085   4.525
 8083SOL    HW225149   6.711   1.976   4.406
 8084SOL     OW25150   4.077   1.883   5.633
 8084SOL    HW125151   4.116   1.792   5.649
 8084SOL    HW225152   4.007   1.876   5.562
 8085SOL     OW25153   1.919   5.730   4.335
 8085SOL    HW125154   1.830   5.739   4.288
 8085SOL    HW225155   1.943   5.818   4.376
 8086SOL     OW25156   6.520   1.771   2.691
 8086SOL    HW125157   6.449   1.701   2.682
 8086SOL    HW225158   6.574   1.775   2.607
 8087SOL     OW25159   7.023   1.071   6.780
 8087SOL    HW125160   7.016   1.167   6.807
 8087SOL    HW225161   0.095   1.047   6.766
 8088SOL     OW25162   6.832   0.347   5.102
 8088SOL    HW125163   6.778   0.334   5.185
 8088SOL    HW225164   6.835   0.262   5.051
 8089SOL     OW25165   6.177   2.051   6.985
 8089SOL    HW125166   6.169   2.046   6.885
 8089SOL    HW225167   6.252   2.113   7.008
 8090SOL     OW25168   4.525   2.546   5.293
 8090SOL    HW125169   4.540   2.614   5.222
 8090SOL    HW225170   4.582   2.566   5.373
 8091SOL     OW25171   0.991   4.058   4.275
 8091SOL    HW125172   1.047   3.976   4.259
 8091SOL    HW225173   0.963   4.061   4.371
 8092SOL     OW25174   4.887   1.075   5.565
 8092SOL    HW125175   4.790   1.092   5.582
 8092SOL    HW225176   4.941   1.117   5.638
 8093SOL     OW25177   3.489   6.390   3.119
 8093SOL    HW125178   3.474   6.460   3.189
 8093SOL    HW225179   3.558   6.422   3.054
 8094SOL     OW25180   2.089   3.811   4.042
 8094SOL    HW125181   1.992   3.796   4.022
 8094SOL    HW225182   2.128   3.729   4.084
 8095SOL     OW25183   1.505   4.627   4.899
 8095SOL    HW125184   1.507   4.584   4.989
 8095SOL    HW225185   1.587   4.601   4.848
 8096SOL     OW25186   1.227   4.817   0.293
 8096SOL    HW125187   1.203   4.828   0.197
 8096SOL    HW225188   1.202   4.725   0.324
 8097SOL     OW25189   4.609   6.488   0.348
 8097SOL    HW125190   4.706   6.513   0.349
 8097SOL    HW225191   4.568   6.510   0.436
 8098SOL     OW25192   2.236   5.951   4.933
 8098SOL    HW125193   2.194   5.868   4.895
 8098SOL    HW225194   2.167   6.002   4.985
 8099SOL     OW25195   1.932   3.892   2.528
 8099SOL    HW125196   1.978   3.957   2.468
 8099SOL    HW225197   1.945   3.799   2.494
 8100SOL     OW25198   6.443   0.353   6.457
 8100SOL    HW125199   6.418   0.268   6.502
 8100SOL    HW225200   6.384   0.369   6.378
 8101SOL     OW25201   2.847   5.283   1.285
 8101SOL    HW125202   2.843   5.378   1.315
 8101SOL    HW225203   2.762   5.260   1.236
 8102SOL     OW25204   0.930   3.905   3.653
 8102SOL    HW125205   0.964   3.934   3.564
 8102SOL    HW225206   0.852   3.844   3.641
 8103SOL     OW25207   3.747   0.797   1.410
 8103SOL    HW125208   3.811   0.787   1.486
 8103SOL    HW225209   3.700   0.885   1.418
 8104SOL     OW25210   2.044   5.052   6.941
 8104SOL    HW125211   2.098   4.969   6.956
 8104SOL    HW225212   1.957   5.028   6.897
 8105SOL     OW25213   6.773   6.815   3.992
 8105SOL    HW125214   6.858   6.826   4.043
 8105SOL    HW225215   6.794   6.790   3.897
 8106SOL     OW25216   2.601   6.284   6.238
 8106SOL    HW125217   2.526   6.349   6.226
 8106SOL    HW225218   2.567   6.191   6.228
 8107SOL     OW25219   1.620   6.437   6.890
 8107SOL    HW125220   1.715   6.431   6.922
 8107SOL    HW225221   1.603   6.364   6.823
 8108SOL     OW25222   1.297   1.383   6.747
 8108SOL    HW125223   1.396   1.381   6.730
 8108SOL    HW225224   1.256   1.298   6.716
 8109SOL     OW25225   6.248   3.081   1.751
 8109SOL    HW125226   6.212   3.132   1.830
 8109SOL    HW225227   6.292   3.145   1.688
 8110SOL     OW25228   4.079   4.650   1.070
 8110SOL    HW125229   4.159   4.711   1.072
 8110SOL    HW225230   4.086   4.590   0.990
 8111SOL     OW25231   6.310   0.870   2.779
 8111SOL    HW125232   6.363   0.803   2.832
 8111SOL    HW225233   6.251   0.921   2.842
 8112SOL     OW25234   1.799   4.953   6.831
 8112SOL    HW125235   1.742   4.921   6.907
 8112SOL    HW225236   1.794   4.887   6.756
 8113SOL     OW25237   4.949   4.823   6.608
 8113SOL    HW125238   4.895   4.765   6.546
 8113SOL    HW225239   4.985   4.901   6.557
 8114SOL     OW25240   1.880   3.767   3.118
 8114SOL    HW125241   1.848   3.838   3.180
 8114SOL    HW225242   1.846   3.784   3.026
 8115SOL     OW25243   2.338   1.094   5.855
 8115SOL    HW125244   2.296   1.066   5.942
 8115SOL    HW225245   2.349   1.013   5.797
 8116SOL     OW25246   4.005   3.133   1.581
 8116SOL    HW125247   3.957   3.163   1.663
 8116SOL    HW225248   4.057   3.049   1.601
 8117SOL     OW25249   2.661   6.876   4.123
 8117SOL    HW125250   2.606   6.874   4.040
 8117SOL    HW225251   2.738   6.939   4.110
 8118SOL     OW25252   6.705   3.212   6.686
 8118SOL    HW125253   6.787   3.267   6.702
 8118SOL    HW225254   6.732   3.118   6.664
 8119SOL     OW25255   5.462   6.278   6.638
 8119SOL    HW125256   5.557   6.288   6.608
 8119SOL    HW225257   5.409   6.235   6.565
 8120SOL     OW25258   1.829   6.694   2.241
 8120SOL    HW125259   1.816   6.616   2.302
 8120SOL    HW225260   1.829   6.663   2.146
 8121SOL     OW25261   1.462   2.583   2.327
 8121SOL    HW125262   1.406   2.666   2.326
 8121SOL    HW225263   1.453   2.536   2.239
 8122SOL     OW25264   0.418   4.773   1.436
 8122SOL    HW125265   0.438   4.844   1.368
 8122SOL    HW225266   0.406   4.685   1.390
 8123SOL     OW25267   6.650   1.997   0.184
 8123SOL    HW125268   6.562   1.961   0.153
 8123SOL    HW225269   6.669   1.963   0.277
 8124SOL     OW25270   5.999   5.856   5.495
 8124SOL    HW125271   5.946   5.804   5.562
 8124SOL    HW225272   5.994   5.953   5.517
 8125SOL     OW25273   1.182   5.430   2.257
 8125SOL    HW125274   1.263   5.485   2.239
 8125SOL    HW225275   1.125   5.427   2.175
 8126SOL     OW25276   3.774   5.746   4.849
 8126SOL    HW125277   3.827   5.767   4.767
 8126SOL    HW225278   3.835   5.743   4.928
 8127SOL     OW25279   3.598   1.759   6.214
 8127SOL    HW125280   3.539   1.735   6.291
 8127SOL    HW225281   3.584   1.854   6.189
 8128SOL     OW25282   3.198   2.662   1.326
 8128SOL    HW125283   3.139   2.596   1.280
 8128SOL    HW225284   3.244   2.618   1.403
 8129SOL     OW25285   0.668   2.266   2.670
 8129SOL    HW125286   0.618   2.182   2.692
 8129SOL    HW225287   0.655   2.289   2.574
 8130SOL     OW25288   0.425   6.245   6.471
 8130SOL    HW125289   0.456   6.302   6.547
 8130SOL    HW225290   0.438   6.149   6.494
 8131SOL     OW25291   1.776   2.431   0.108
 8131SOL    HW125292   1.722   2.464   0.031
 8131SOL    HW225293   1.846   2.499   0.131
 8132SOL     OW25294   6.630   1.479   5.147
 8132SOL    HW125295   6.640   1.506   5.243
 8132SOL    HW225296   6.598   1.384   5.142
 8133SOL     OW25297   3.147   4.704   1.280
 8133SOL    HW125298   3.212   4.774   1.251
 8133SOL    HW225299   3.093   4.738   1.358
 8134SOL     OW25300   5.252   1.831   5.740
 8134SOL    HW125301   5.351   1.828   5.723
 8134SOL    HW225302   5.231   1.912   5.795
 8135SOL     OW25303   2.555   6.660   1.992
 8135SOL    HW125304   2.494   6.582   1.982
 8135SOL    HW225305   2.638   6.645   1.938
 8136SOL     OW25306   5.068   4.467   1.985
 8136SOL    HW125307   5.073   4.367   1.992
 8136SOL    HW225308   5.143   4.501   1.928
 8137SOL     OW25309   4.778   2.113   6.050
 8137SOL    HW125310   4.808   2.042   5.986
 8137SOL    HW225311   4.708   2.076   6.111
 8138SOL     OW25312   5.211   1.232   2.143
 8138SOL    HW125313   5.136   1.180   2.183
 8138SOL    HW225314   5.297   1.203   2.185
 8139SOL     OW25315   0.129   1.791   3.244
 8139SOL    HW125316   0.086   1.754   3.161
 8139SOL    HW225317   0.228   1.799   3.229
 8140SOL     OW25318   4.843   2.448   3.175
 8140SOL    HW125319   4.750   2.478   3.196
 8140SOL    HW225320   4.886   2.516   3.115
 8141SOL     OW25321   5.439   4.396   4.306
 8141SOL    HW125322   5.379   4.324   4.343
 8141SOL    HW225323   5.516   4.353   4.259
 8142SOL     OW25324   0.509   6.416   6.659
 8142SOL    HW125325   0.527   6.512   6.639
 8142SOL    HW225326   0.534   6.396   6.753
 8143SOL     OW25327   6.272   3.517   5.602
 8143SOL    HW125328   6.296   3.428   5.640
 8143SOL    HW225329   6.285   3.587   5.672
 8144SOL     OW25330   5.006   6.946   0.060
 8144SOL    HW125331   4.975   6.911   0.148
 8144SOL    HW225332   5.069   7.022   0.074
 8145SOL     OW25333   4.712   6.098   3.062
 8145SOL    HW125334   4.704   6.190   3.100
 8145SOL    HW225335   4.795   6.092   3.007
 8146SOL     OW25336   3.757   1.289   4.594
 8146SOL    HW125337   3.681   1.350   4.570
 8146SOL    HW225338   3.768   1.220   4.522
 8147SOL     OW25339   4.879   0.760   3.003
 8147SOL    HW125340   4.896   0.744   3.100
 8147SOL    HW225341   4.951   0.717   2.949
 8148SOL     OW25342   6.227   4.450   3.270
 8148SOL    HW125343   6.183   4.539   3.261
 8148SOL    HW225344   6.170   4.380   3.227
 8149SOL     OW25345   3.803   5.242   3.096
 8149SOL    HW125346   3.828   5.233   2.999
 8149SOL    HW225347   3.703   5.239   3.105
 8150SOL     OW25348   1.013   5.905   1.330
 8150SOL    HW125349   1.021   5.982   1.266
 8150SOL    HW225350   0.917   5.895   1.357
 8151SOL     OW25351   0.555   2.109   4.659
 8151SOL    HW125352   0.609   2.161   4.725
 8151SOL    HW225353   0.583   2.013   4.661
 8152SOL     OW25354   1.433   0.373   3.298
 8152SOL    HW125355   1.514   0.424   3.324
 8152SOL    HW225356   1.351   0.425   3.324
 8153SOL     OW25357   1.583   6.497   0.313
 8153SOL    HW125358   1.646   6.448   0.373
 8153SOL    HW225359   1.567   6.443   0.230
 8154SOL     OW25360   2.236   6.651   3.283
 8154SOL    HW125361   2.244   6.695   3.372
 8154SOL    HW225362   2.149   6.601   3.278
 8155SOL     OW25363   3.379   3.675   4.548
 8155SOL    HW125364   3.399   3.609   4.475
 8155SOL    HW225365   3.295   3.648   4.595
 8156SOL     OW25366   0.228   0.903   5.726
 8156SOL    HW125367   0.189   0.970   5.790
 8156SOL    HW225368   0.169   0.822   5.724
 8157SOL     OW25369   6.226   2.445   6.852
 8157SOL    HW125370   6.146   2.455   6.910
 8157SOL    HW225371   6.237   2.527   6.796
 8158SOL     OW25372   2.058   5.183   2.263
 8158SOL    HW125373   2.039   5.101   2.209
 8158SOL    HW225374   2.151   5.215   2.243
 8159SOL     OW25375   0.545   5.393   1.763
 8159SOL    HW125376   0.448   5.403   1.787
 8159SOL    HW225377   0.563   5.299   1.735
 8160SOL     OW25378   4.665   1.871   1.804
 8160SOL    HW125379   4.621   1.882   1.894
 8160SOL    HW225380   4.626   1.792   1.758
 8161SOL     OW25381   4.557   2.155   1.971
 8161SOL    HW125382   4.474   2.104   1.951
 8161SOL    HW225383   4.547   2.201   2.059
 8162SOL     OW25384   5.786   0.667   1.876
 8162SOL    HW125385   5.708   0.685   1.816
 8162SOL    HW225386   5.867   0.713   1.840
 8163SOL     OW25387   1.760   3.337   4.769
 8163SOL    HW125388   1.848   3.375   4.795
 8163SOL    HW225389   1.764   3.306   4.674
 8164SOL     OW25390   5.039   2.485   2.702
 8164SOL    HW125391   5.036   2.545   2.622
 8164SOL    HW225392   4.990   2.400   2.681
 8165SOL     OW25393   2.284   4.965   1.714
 8165SOL    HW125394   2.325   5.030   1.777
 8165SOL    HW225395   2.350   4.941   1.643
 8166SOL     OW25396   3.545   6.697   1.232
 8166SOL    HW125397   3.577   6.652   1.149
 8166SOL    HW225398   3.572   6.794   1.229
 8167SOL     OW25399   5.480   3.083   4.245
 8167SOL    HW125400   5.577   3.065   4.234
 8167SOL    HW225401   5.449   3.045   4.333
 8168SOL     OW25402   3.107   1.697   2.239
 8168SOL    HW125403   3.195   1.744   2.239
 8168SOL    HW225404   3.054   1.724   2.319
 8169SOL     OW25405   5.467   3.999   5.089
 8169SOL    HW125406   5.556   3.955   5.095
 8169SOL    HW225407   5.413   3.957   5.017
 8170SOL     OW25408   1.387   4.780   4.615
 8170SOL    HW125409   1.362   4.695   4.662
 8170SOL    HW225410   1.459   4.761   4.548
 8171SOL     OW25411   1.432   1.124   6.136
 8171SOL    HW125412   1.362   1.161   6.197
 8171SOL    HW225413   1.389   1.084   6.055
 8172SOL     OW25414   0.031   6.308   0.940
 8172SOL    HW125415   6.990   6.232   0.939
 8172SOL    HW225416   0.122   6.274   0.916
 8173SOL     OW25417   5.757   2.714   7.005
 8173SOL    HW125418   5.797   2.644   6.945
 8173SOL    HW225419   5.746   2.799   6.954
 8174SOL     OW25420   5.179   6.754   2.027
 8174SOL    HW125421   5.276   6.773   2.011
 8174SOL    HW225422   5.169   6.659   2.059
 8175SOL     OW25423   1.590   2.690   4.739
 8175SOL    HW125424   1.646   2.768   4.768
 8175SOL    HW225425   1.609   2.612   4.798
 8176SOL     OW25426   3.932   5.592   3.453
 8176SOL    HW125427   3.951   5.521   3.385
 8176SOL    HW225428   3.984   5.674   3.430
 8177SOL     OW25429   0.861   6.942   5.205
 8177SOL    HW125430   0.926   6.962   5.278
 8177SOL    HW225431   0.863   6.844   5.185
 8178SOL     OW25432   1.887   6.831   6.006
 8178SOL    HW125433   1.920   6.751   5.956
 8178SOL    HW225434   1.964   6.891   6.027
 8179SOL     OW25435   3.296   0.397   0.100
 8179SOL    HW125436   3.292   0.402   0.001
 8179SOL    HW225437   3.235   0.325   0.133
 8180SOL     OW25438   4.633   4.668   5.882
 8180SOL    HW125439   4.555   4.707   5.930
 8180SOL    HW225440   4.655   4.725   5.803
 8181SOL     OW25441   2.301   2.178   2.092
 8181SOL    HW125442   2.302   2.239   2.171
 8181SOL    HW225443   2.381   2.195   2.035
 8182SOL     OW25444   5.515   2.770   6.037
 8182SOL    HW125445   5.471   2.806   5.955
 8182SOL    HW225446   5.519   2.670   6.032
 8183SOL     OW25447   2.031   2.883   3.727
 8183SOL    HW125448   2.038   2.918   3.820
 8183SOL    HW225449   2.016   2.784   3.730
 8184SOL     OW25450   6.017   6.353   4.844
 8184SOL    HW125451   6.089   6.380   4.908
 8184SOL    HW225452   6.055   6.350   4.751
 8185SOL     OW25453   1.824   2.179   3.255
 8185SOL    HW125454   1.890   2.227   3.197
 8185SOL    HW225455   1.872   2.108   3.307
 8186SOL     OW25456   4.050   4.185   6.687
 8186SOL    HW125457   4.024   4.204   6.592
 8186SOL    HW225458   4.119   4.252   6.715
 8187SOL     OW25459   1.979   0.996   5.801
 8187SOL    HW125460   2.069   0.956   5.816
 8187SOL    HW225461   1.931   1.003   5.889
 8188SOL     OW25462   5.402   3.279   2.688
 8188SOL    HW125463   5.430   3.200   2.633
 8188SOL    HW225464   5.427   3.363   2.640
 8189SOL     OW25465   6.835   5.078   3.024
 8189SOL    HW125466   6.870   4.988   3.049
 8189SOL    HW225467   6.810   5.129   3.107
 8190SOL     OW25468   5.962   3.717   2.243
 8190SOL    HW125469   5.975   3.630   2.195
 8190SOL    HW225470   5.976   3.703   2.341
 8191SOL     OW25471   6.924   4.871   2.063
 8191SOL    HW125472   6.851   4.914   2.010
 8191SOL    HW225473   6.903   4.774   2.076
 8192SOL     OW25474   1.434   3.252   0.432
 8192SOL    HW125475   1.338   3.255   0.406
 8192SOL    HW225476   1.460   3.157   0.454
 8193SOL     OW25477   3.962   0.029   5.457
 8193SOL    HW125478   3.886   0.090   5.437
 8193SOL    HW225479   4.003   0.053   5.545
 8194SOL     OW25480   1.495   0.168   1.870
 8194SOL    HW125481   1.482   0.256   1.823
 8194SOL    HW225482   1.580   0.171   1.922
 8195SOL     OW25483   5.303   1.381   1.237
 8195SOL    HW125484   5.235   1.319   1.276
 8195SOL    HW225485   5.267   1.474   1.235
 8196SOL     OW25486   2.035   0.687   6.959
 8196SOL    HW125487   1.965   0.681   0.007
 8196SOL    HW225488   1.990   0.707   6.872
 8197SOL     OW25489   0.500   0.231   1.283
 8197SOL    HW125490   0.437   0.290   1.334
 8197SOL    HW225491   0.476   0.135   1.298
 8198SOL     OW25492   3.087   0.111   2.577
 8198SOL    HW125493   2.993   0.134   2.602
 8198SOL    HW225494   3.100   0.012   2.585
 8199SOL     OW25495   5.662   5.077   0.650
 8199SOL    HW125496   5.649   4.979   0.661
 8199SOL    HW225497   5.758   5.097   0.632
 8200SOL     OW25498   4.128   3.590   1.680
 8200SOL    HW125499   4.172   3.678   1.697
 8200SOL    HW225500   4.098   3.585   1.585
 8201SOL     OW25501   6.558   0.645   4.953
 8201SOL    HW125502   6.556   0.550   4.983
 8201SOL    HW225503   6.568   0.706   5.032
 8202SOL     OW25504   1.573   3.945   4.457
 8202SOL    HW125505   1.656   3.901   4.426
 8202SOL    HW225506   1.499   3.929   4.392
 8203SOL     OW25507   6.181   4.239   6.961
 8203SOL    HW125508   6.215   4.252   0.031
 8203SOL    HW225509   6.139   4.324   6.929
 8204SOL     OW25510   3.246   0.385   0.953
 8204SOL    HW125511   3.307   0.319   0.908
 8204SOL    HW225512   3.151   0.357   0.938
 8205SOL     OW25513   5.269   6.249   2.948
 8205SOL    HW125514   5.275   6.244   2.848
 8205SOL    HW225515   5.361   6.261   2.986
 8206SOL     OW25516   4.070   1.922   4.000
 8206SOL    HW125517   4.051   2.018   4.020
 8206SOL    HW225518   4.020   1.864   4.063
 8207SOL     OW25519   2.982   5.753   6.762
 8207SOL    HW125520   2.974   5.731   6.665
 8207SOL    HW225521   3.015   5.847   6.773
 8208SOL     OW25522   1.766   5.926   0.053
 8208SOL    HW125523   1.814   5.966   0.131
 8208SOL    HW225524   1.693   5.866   0.087
 8209SOL     OW25525   1.287   5.501   5.051
 8209SOL    HW125526   1.265   5.542   5.140
 8209SOL    HW225527   1.285   5.401   5.059
 8210SOL     OW25528   2.266   1.377   0.199
 8210SOL    HW125529   2.281   1.300   0.261
 8210SOL    HW225530   2.172   1.410   0.208
 8211SOL     OW25531   3.466   3.690   3.560
 8211SOL    HW125532   3.410   3.760   3.516
 8211SOL    HW225533   3.563   3.715   3.554
 8212SOL     OW25534   4.004   5.350   0.081
 8212SOL    HW125535   3.983   5.395   7.018
 8212SOL    HW225536   3.956   5.397   0.155
 8213SOL     OW25537   4.458   4.341   1.561
 8213SOL    HW125538   4.456   4.245   1.587
 8213SOL    HW225539   4.496   4.396   1.636
 8214SOL     OW25540   3.992   5.405   3.281
 8214SOL    HW125541   3.942   5.351   3.213
 8214SOL    HW225542   4.088   5.412   3.255
 8215SOL     OW25543   2.247   6.060   6.601
 8215SOL    HW125544   2.241   6.032   6.506
 8215SOL    HW225545   2.184   6.006   6.657
 8216SOL     OW25546   5.242   5.864   1.285
 8216SOL    HW125547   5.196   5.775   1.275
 8216SOL    HW225548   5.180   5.928   1.331
 8217SOL     OW25549   3.370   6.776   3.964
 8217SOL    HW125550   3.392   6.680   3.980
 8217SOL    HW225551   3.450   6.832   3.984
 8218SOL     OW25552   2.229   6.249   4.790
 8218SOL    HW125553   2.270   6.238   4.700
 8218SOL    HW225554   2.292   6.216   4.860
 8219SOL     OW25555   3.913   3.051   3.093
 8219SOL    HW125556   3.947   3.078   3.183
 8219SOL    HW225557   3.971   3.090   3.022
 8220SOL     OW25558   3.901   3.948   5.820
 8220SOL    HW125559   3.886   3.859   5.862
 8220SOL    HW225560   3.839   4.015   5.861
 8221SOL     OW25561   6.526   3.537   4.162
 8221SOL    HW125562   6.589   3.598   4.209
 8221SOL    HW225563   6.538   3.545   4.063
 8222SOL     OW25564   5.973   2.986   6.987
 8222SOL    HW125565   6.001   3.072   6.944
 8222SOL    HW225566   5.876   2.970   6.969
 8223SOL     OW25567   1.446   5.999   5.560
 8223SOL    HW125568   1.401   5.978   5.473
 8223SOL    HW225569   1.456   6.099   5.569
 8224SOL     OW25570   5.619   1.463   6.298
 8224SOL    HW125571   5.531   1.429   6.268
 8224SOL    HW225572   5.691   1.430   6.236
 8225SOL     OW25573   5.809   3.175   0.197
 8225SOL    HW125574   5.791   3.228   0.280
 8225SOL    HW225575   5.846   3.085   0.221
 8226SOL     OW25576   3.408   1.322   6.594
 8226SOL    HW125577   3.465   1.320   6.511
 8226SOL    HW225578   3.369   1.232   6.610
 8227SOL     OW25579   4.519   2.563   2.940
 8227SOL    HW125580   4.548   2.565   3.036
 8227SOL    HW225581   4.572   2.630   2.888
 8228SOL     OW25582   3.048   0.745   4.628
 8228SOL    HW125583   3.104   0.779   4.704
 8228SOL    HW225584   2.969   0.696   4.665
 8229SOL     OW25585   4.604   4.811   1.095
 8229SOL    HW125586   4.620   4.736   1.160
 8229SOL    HW225587   4.575   4.892   1.145
 8230SOL     OW25588   5.820   1.316   6.166
 8230SOL    HW125589   5.803   1.323   6.068
 8230SOL    HW225590   5.908   1.358   6.188
 8231SOL     OW25591   3.047   1.155   2.229
 8231SOL    HW125592   3.013   1.160   2.322
 8231SOL    HW225593   2.983   1.103   2.172
 8232SOL     OW25594   3.711   6.027   3.147
 8232SOL    HW125595   3.744   6.050   3.055
 8232SOL    HW225596   3.614   6.006   3.143
 8233SOL     OW25597   1.845   1.018   6.697
 8233SOL    HW125598   1.754   1.037   6.736
 8233SOL    HW225599   1.860   1.077   6.618
 8234SOL     OW25600   1.191   2.690   0.199
 8234SOL    HW125601   1.160   2.597   0.178
 8234SOL    HW225602   1.233   2.730   0.117
 8235SOL     OW25603   0.561   0.596   1.306
 8235SOL    HW125604   0.631   0.549   1.360
 8235SOL    HW225605   0.546   0.546   1.220
 8236SOL     OW25606   0.432   6.997   1.320
 8236SOL    HW125607   0.451   6.970   1.415
 8236SOL    HW225608   0.376   6.927   1.276
 8237SOL     OW25609   3.951   4.792   5.287
 8237SOL    HW125610   4.023   4.850   5.250
 8237SOL    HW225611   3.991   4.707   5.323
 8238SOL     OW25612   0.341   5.854   0.178
 8238SOL    HW125613   0.396   5.770   0.171
 8238SOL    HW225614   0.271   5.854   0.107
 8239SOL     OW25615   3.625   1.559   5.653
 8239SOL    HW125616   3.538   1.577   5.699
 8239SOL    HW225617   3.621   1.593   5.559
 8240SOL     OW25618   3.510   3.947   5.164
 8240SOL    HW125619   3.446   3.930   5.089
 8240SOL    HW225620   3.464   4.000   5.236
 8241SOL     OW25621   1.167   3.623   5.272
 8241SOL    HW125622   1.181   3.556   5.345
 8241SOL    HW225623   1.207   3.710   5.299
 8242SOL     OW25624   0.419   2.681   2.323
 8242SOL    HW125625   0.392   2.594   2.365
 8242SOL    HW225626   0.395   2.756   2.384
 8243SOL     OW25627   1.558   6.921   3.768
 8243SOL    HW125628   1.561   6.856   3.844
 8243SOL    HW225629   1.602   7.006   3.795
 8244SOL     OW25630   6.390   0.176   4.077
 8244SOL    HW125631   6.374   0.134   4.167
 8244SOL    HW225632   6.326   0.252   4.065
 8245SOL     OW25633   4.833   3.018   2.510
 8245SOL    HW125634   4.794   2.926   2.515
 8245SOL    HW225635   4.860   3.048   2.602
 8246SOL     OW25636   2.105   4.321   6.665
 8246SOL    HW125637   2.068   4.323   6.572
 8246SOL    HW225638   2.184   4.382   6.670
 8247SOL     OW25639   2.721   4.626   3.324
 8247SOL    HW125640   2.763   4.689   3.389
 8247SOL    HW225641   2.785   4.606   3.250
 8248SOL     OW25642   6.824   5.468   3.152
 8248SOL    HW125643   6.832   5.399   3.224
 8248SOL    HW225644   6.785   5.427   3.070
 8249SOL     OW25645   2.830   1.289   6.620
 8249SOL    HW125646   2.807   1.346   6.698
 8249SOL    HW225647   2.825   1.343   6.536
 8250SOL     OW25648   1.561   2.073   6.939
 8250SOL    HW125649   1.642   2.078   6.880
 8250SOL    HW225650   1.574   2.001   7.007
 8251SOL     OW25651   1.068   1.755   5.414
 8251SOL    HW125652   1.120   1.715   5.489
 8251SOL    HW225653   1.099   1.849   5.398
 8252SOL     OW25654   0.868   2.077   6.776
 8252SOL    HW125655   0.864   1.995   6.718
 8252SOL    HW225656   0.963   2.106   6.786
 8253SOL     OW25657   5.696   4.400   6.365
 8253SOL    HW125658   5.633   4.342   6.416
 8253SOL    HW225659   5.737   4.347   6.290
 8254SOL     OW25660   6.315   5.934   0.128
 8254SOL    HW125661   6.323   6.033   0.142
 8254SOL    HW225662   6.225   5.903   0.158
 8255SOL     OW25663   1.031   0.159   5.350
 8255SOL    HW125664   1.070   0.144   5.259
 8255SOL    HW225665   1.073   0.239   5.391
 8256SOL     OW25666   1.490   6.036   4.002
 8256SOL    HW125667   1.479   6.082   3.914
 8256SOL    HW225668   1.519   5.941   3.987
 8257SOL     OW25669   4.899   3.530   3.880
 8257SOL    HW125670   4.995   3.511   3.861
 8257SOL    HW225671   4.878   3.624   3.852
 8258SOL     OW25672   0.186   2.712   3.241
 8258SOL    HW125673   0.123   2.701   3.164
 8258SOL    HW225674   0.210   2.622   3.277
 8259SOL     OW25675   5.796   2.221   4.397
 8259SOL    HW125676   5.811   2.292   4.466
 8259SOL    HW225677   5.821   2.132   4.435
 8260SOL     OW25678   5.083   2.743   6.633
 8260SOL    HW125679   5.056   2.744   6.537
 8260SOL    HW225680   5.002   2.749   6.691
 8261SOL     OW25681   5.967   1.516   3.004
 8261SOL    HW125682   5.993   1.552   3.093
 8261SOL    HW225683   6.049   1.484   2.956
 8262SOL     OW25684   5.026   4.168   2.007
 8262SOL    HW125685   5.103   4.134   2.062
 8262SOL    HW225686   5.018   4.113   1.924
 8263SOL     OW25687   6.483   1.939   6.271
 8263SOL    HW125688   6.521   1.983   6.189
 8263SOL    HW225689   6.459   2.009   6.338
 8264SOL     OW25690   2.828   0.819   1.412
 8264SOL    HW125691   2.914   0.806   1.462
 8264SOL    HW225692   2.807   0.737   1.359
 8265SOL     OW25693   4.453   5.742   0.136
 8265SOL    HW125694   4.494   5.830   0.115
 8265SOL    HW225695   4.415   5.744   0.229
 8266SOL     OW25696   3.248   1.523   2.966
 8266SOL    HW125697   3.163   1.534   3.018
 8266SOL    HW225698   3.249   1.586   2.889
 8267SOL     OW25699   1.807   2.608   3.305
 8267SOL    HW125700   1.862   2.565   3.233
 8267SOL    HW225701   1.863   2.675   3.355
 8268SOL     OW25702   3.057   4.468   0.709
 8268SOL    HW125703   3.148   4.457   0.748
 8268SOL    HW225704   3.048   4.410   0.628
 8269SOL     OW25705   6.456   2.166   4.959
 8269SOL    HW125706   6.530   2.232   4.944
 8269SOL    HW225707   6.494   2.082   4.998
 8270SOL     OW25708   3.685   4.842   6.913
 8270SOL    HW125709   3.773   4.795   6.905
 8270SOL    HW225710   3.689   4.929   6.864
 8271SOL     OW25711   3.572   6.793   6.041
 8271SOL    HW125712   3.519   6.732   6.100
 8271SOL    HW225713   3.517   6.872   6.015
 8272SOL     OW25714   0.062   0.897   2.019
 8272SOL    HW125715   0.028   0.827   2.082
 8272SOL    HW225716   0.138   0.946   2.061
 8273SOL     OW25717   3.964   0.431   6.430
 8273SOL    HW125718   3.943   0.453   6.525
 8273SOL    HW225719   3.988   0.514   6.381
 8274SOL     OW25720   5.225   6.110   5.240
 8274SOL    HW125721   5.197   6.197   5.200
 8274SOL    HW225722   5.244   6.044   5.167
 8275SOL     OW25723   4.350   1.382   5.309
 8275SOL    HW125724   4.300   1.344   5.386
 8275SOL    HW225725   4.312   1.347   5.224
 8276SOL     OW25726   5.815   2.799   0.463
 8276SOL    HW125727   5.773   2.791   0.553
 8276SOL    HW225728   5.889   2.733   0.455
 8277SOL     OW25729   1.289   6.394   1.462
 8277SOL    HW125730   1.313   6.443   1.379
 8277SOL    HW225731   1.371   6.385   1.520
 8278SOL     OW25732   1.299   0.537   1.018
 8278SOL    HW125733   1.202   0.554   0.999
 8278SOL    HW225734   1.324   0.447   0.981
 8279SOL     OW25735   4.839   5.699   6.070
 8279SOL    HW125736   4.917   5.636   6.079
 8279SOL    HW225737   4.776   5.685   6.147
 8280SOL     OW25738   5.470   4.711   6.794
 8280SOL    HW125739   5.379   4.750   6.783
 8280SOL    HW225740   5.539   4.778   6.766
 8281SOL     OW25741   3.247   5.435   6.100
 8281SOL    HW125742   3.175   5.500   6.124
 8281SOL    HW225743   3.308   5.477   6.033
 8282SOL     OW25744   4.224   2.863   0.871
 8282SOL    HW125745   4.179   2.781   0.837
 8282SOL    HW225746   4.256   2.847   0.965
 8283SOL     OW25747   0.572   0.151   3.019
 8283SOL    HW125748   0.628   0.146   3.102
 8283SOL    HW225749   0.519   0.067   3.010
 8284SOL     OW25750   5.474   1.907   1.996
 8284SOL    HW125751   5.553   1.915   2.057
 8284SOL    HW225752   5.476   1.818   1.951
 8285SOL     OW25753   1.221   4.552   0.425
 8285SOL    HW125754   1.231   4.562   0.524
 8285SOL    HW225755   1.145   4.489   0.406
 8286SOL     OW25756   6.354   2.694   6.716
 8286SOL    HW125757   6.354   2.784   6.670
 8286SOL    HW225758   6.365   2.707   6.814
 8287SOL     OW25759   1.240   0.895   3.259
 8287SOL    HW125760   1.146   0.873   3.232
 8287SOL    HW225761   1.253   0.994   3.258
 8288SOL     OW25762   2.120   0.171   2.209
 8288SOL    HW125763   2.213   0.189   2.240
 8288SOL    HW225764   2.123   0.131   2.117
 8289SOL     OW25765   5.703   0.055   0.060
 8289SOL    HW125766   5.709   0.036   0.158
 8289SOL    HW225767   5.762   0.133   0.037
 8290SOL     OW25768   5.043   2.787   1.982
 8290SOL    HW125769   5.098   2.828   2.054
 8290SOL    HW225770   5.005   2.860   1.925
 8291SOL     OW25771   4.969   6.091   6.449
 8291SOL    HW125772   5.068   6.087   6.439
 8291SOL    HW225773   4.946   6.104   6.546
 8292SOL     OW25774   0.278   3.716   5.410
 8292SOL    HW125775   0.284   3.619   5.433
 8292SOL    HW225776   0.289   3.727   5.311
 8293SOL     OW25777   3.211   4.952   3.795
 8293SOL    HW125778   3.225   4.950   3.696
 8293SOL    HW225779   3.299   4.941   3.841
 8294SOL     OW25780   6.268   3.732   5.785
 8294SOL    HW125781   6.280   3.734   5.884
 8294SOL    HW225782   6.269   3.825   5.749
 8295SOL     OW25783   4.710   5.269   2.771
 8295SOL    HW125784   4.747   5.266   2.864
 8295SOL    HW225785   4.738   5.187   2.721
 8296SOL     OW25786   3.751   0.361   2.406
 8296SOL    HW125787   3.771   0.419   2.485
 8296SOL    HW225788   3.797   0.273   2.417
 8297SOL     OW25789   5.531   4.400   1.978
 8297SOL    HW125790   5.599   4.444   2.036
 8297SOL    HW225791   5.549   4.301   1.975
 8298SOL     OW25792   6.475   6.367   0.741
 8298SOL    HW125793   6.545   6.425   0.699
 8298SOL    HW225794   6.484   6.274   0.706
 8299SOL     OW25795   1.165   3.077   6.134
 8299SOL    HW125796   1.184   3.040   6.043
 8299SOL    HW225797   1.173   3.004   6.202
 8300SOL     OW25798   5.744   5.274   4.627
 8300SOL    HW125799   5.719   5.251   4.721
 8300SOL    HW225800   5.764   5.372   4.621
 8301SOL     OW25801   0.076   5.362   0.490
 8301SOL    HW125802   0.092   5.266   0.466
 8301SOL    HW225803   7.002   5.380   0.490
 8302SOL     OW25804   3.834   6.757   5.741
 8302SOL    HW125805   3.735   6.746   5.741
 8302SOL    HW225806   3.878   6.668   5.749
 8303SOL     OW25807   1.163   4.906   4.475
 8303SOL    HW125808   1.212   4.945   4.398
 8303SOL    HW225809   1.223   4.842   4.523
 8304SOL     OW25810   6.863   2.910   4.271
 8304SOL    HW125811   6.922   2.858   4.210
 8304SOL    HW225812   6.918   2.959   4.338
 8305SOL     OW25813   4.587   0.019   5.463
 8305SOL    HW125814   4.537   6.982   5.401
 8305SOL    HW225815   4.662   6.994   5.506
 8306SOL     OW25816   6.058   0.143   4.064
 8306SOL    HW125817   5.991   0.094   4.008
 8306SOL    HW225818   6.077   0.232   4.023
 8307SOL     OW25819   0.667   4.889   4.051
 8307SOL    HW125820   0.710   4.969   4.011
 8307SOL    HW225821   0.684   4.887   4.149
 8308SOL     OW25822   1.362   5.396   0.513
 8308SOL    HW125823   1.408   5.409   0.601
 8308SOL    HW225824   1.402   5.317   0.466
 8309SOL     OW25825   6.484   4.673   3.113
 8309SOL    HW125826   6.470   4.736   3.036
 8309SOL    HW225827   6.469   4.721   3.199
 8310SOL     OW25828   2.611   6.589   2.794
 8310SOL    HW125829   2.604   6.495   2.828
 8310SOL    HW225830   2.530   6.611   2.739
 8311SOL     OW25831   4.292   6.148   2.122
 8311SOL    HW125832   4.360   6.208   2.162
 8311SOL    HW225833   4.299   6.057   2.163
 8312SOL     OW25834   6.386   1.770   0.592
 8312SOL    HW125835   6.304   1.727   0.629
 8312SOL    HW225836   6.362   1.825   0.512
 8313SOL     OW25837   5.420   3.233   6.118
 8313SOL    HW125838   5.508   3.192   6.141
 8313SOL    HW225839   5.380   3.274   6.200
 8314SOL     OW25840   4.393   5.702   3.608
 8314SOL    HW125841   4.440   5.629   3.658
 8314SOL    HW225842   4.317   5.736   3.663
 8315SOL     OW25843   3.179   2.957   6.645
 8315SOL    HW125844   3.171   3.023   6.571
 8315SOL    HW225845   3.198   2.866   6.607
 8316SOL     OW25846   1.498   1.896   4.940
 8316SOL    HW125847   1.418   1.863   4.990
 8316SOL    HW225848   1.514   1.838   4.860
 8317SOL     OW25849   1.320   2.221   4.953
 8317SOL    HW125850   1.384   2.220   4.876
 8317SOL    HW225851   1.368   2.195   5.037
 8318SOL     OW25852   4.655   6.769   6.133
 8318SOL    HW125853   4.586   6.825   6.178
 8318SOL    HW225854   4.725   6.828   6.092
 8319SOL     OW25855   2.451   5.530   0.035
 8319SOL    HW125856   2.392   5.582   6.997
 8319SOL    HW225857   2.523   5.589   0.070
 8320SOL     OW25858   3.789   4.088   5.587
 8320SOL    HW125859   3.701   4.128   5.610
 8320SOL    HW225860   3.825   4.037   5.666
 8321SOL     OW25861   0.506   0.108   0.873
 8321SOL    HW125862   0.518   0.120   0.775
 8321SOL    HW225863   0.596   0.106   0.918
 8322SOL     OW25864   1.538   0.882   0.923
 8322SOL    HW125865   1.473   0.895   0.848
 8322SOL    HW225866   1.612   0.823   0.892
 8323SOL     OW25867   5.851   4.772   6.981
 8323SOL    HW125868   5.820   4.861   6.949
 8323SOL    HW225869   5.951   4.772   6.988
 8324SOL     OW25870   5.183   6.380   6.784
 8324SOL    HW125871   5.172   6.464   6.838
 8324SOL    HW225872   5.267   6.333   6.812
 8325SOL     OW25873   1.266   6.266   4.693
 8325SOL    HW125874   1.237   6.170   4.690
 8325SOL    HW225875   1.185   6.325   4.689
 8326SOL     OW25876   2.231   1.900   6.506
 8326SOL    HW125877   2.268   1.964   6.438
 8326SOL    HW225878   2.306   1.858   6.556
 8327SOL     OW25879   0.850   6.391   4.966
 8327SOL    HW125880   0.753   6.374   4.952
 8327SOL    HW225881   0.894   6.406   4.877
 8328SOL     OW25882   0.864   6.318   1.148
 8328SOL    HW125883   0.888   6.305   1.052
 8328SOL    HW225884   0.941   6.289   1.206
 8329SOL     OW25885   1.605   2.567   5.430
 8329SOL    HW125886   1.547   2.492   5.462
 8329SOL    HW225887   1.670   2.533   5.362
 8330SOL     OW25888   2.696   6.476   0.331
 8330SOL    HW125889   2.682   6.499   0.235
 8330SOL    HW225890   2.755   6.544   0.374
 8331SOL     OW25891   2.342   2.553   5.784
 8331SOL    HW125892   2.340   2.454   5.772
 8331SOL    HW225893   2.336   2.598   5.695
 8332SOL     OW25894   5.741   3.914   1.238
 8332SOL    HW125895   5.685   3.990   1.271
 8332SOL    HW225896   5.828   3.949   1.203
 8333SOL     OW25897   2.786   4.212   6.419
 8333SOL    HW125898   2.870   4.159   6.427
 8333SOL    HW225899   2.807   4.310   6.420
 8334SOL     OW25900   3.365   2.368   5.363
 8334SOL    HW125901   3.324   2.313   5.436
 8334SOL    HW225902   3.303   2.369   5.285
 8335SOL     OW25903   5.137   4.329   5.856
 8335SOL    HW125904   5.218   4.360   5.906
 8335SOL    HW225905   5.143   4.360   5.761
 8336SOL     OW25906   1.465   3.806   3.750
 8336SOL    HW125907   1.466   3.806   3.650
 8336SOL    HW225908   1.383   3.851   3.783
 8337SOL     OW25909   0.018   1.447   4.172
 8337SOL    HW125910   0.033   1.509   4.249
 8337SOL    HW225911   7.007   1.499   4.094
 8338SOL     OW25912   2.465   5.685   1.087
 8338SOL    HW125913   2.520   5.650   1.011
 8338SOL    HW225914   2.375   5.640   1.087
 8339SOL     OW25915   6.021   0.483   1.538
 8339SOL    HW125916   6.096   0.547   1.520
 8339SOL    HW225917   6.047   0.422   1.612
 8340SOL     OW25918   5.966   2.521   6.506
 8340SOL    HW125919   5.979   2.435   6.456
 8340SOL    HW225920   6.028   2.591   6.471
 8341SOL     OW25921   4.270   0.404   0.819
 8341SOL    HW125922   4.183   0.451   0.830
 8341SOL    HW225923   4.264   0.312   0.857
 8342SOL     OW25924   3.803   1.137   0.395
 8342SOL    HW125925   3.742   1.207   0.431
 8342SOL    HW225926   3.781   1.049   0.438
 8343SOL     OW25927   5.883   5.474   3.146
 8343SOL    HW125928   5.803   5.512   3.193
 8343SOL    HW225929   5.940   5.548   3.111
 8344SOL     OW25930   2.500   4.860   6.103
 8344SOL    HW125931   2.488   4.770   6.145
 8344SOL    HW225932   2.590   4.863   6.058
 8345SOL     OW25933   5.890   6.961   3.875
 8345SOL    HW125934   5.961   6.891   3.865
 8345SOL    HW225935   5.800   6.919   3.870
 8346SOL     OW25936   5.747   3.800   4.102
 8346SOL    HW125937   5.819   3.870   4.105
 8346SOL    HW225938   5.786   3.711   4.127
 8347SOL     OW25939   1.586   1.413   5.794
 8347SOL    HW125940   1.616   1.363   5.875
 8347SOL    HW225941   1.650   1.396   5.719
 8348SOL     OW25942   3.106   5.741   1.624
 8348SOL    HW125943   3.078   5.829   1.586
 8348SOL    HW225944   3.202   5.746   1.652
 8349SOL     OW25945   4.408   6.320   1.711
 8349SOL    HW125946   4.473   6.253   1.745
 8349SOL    HW225947   4.373   6.290   1.622
 8350SOL     OW25948   0.963   0.087   7.010
 8350SOL    HW125949   0.893   0.077   0.058
 8350SOL    HW225950   1.043   0.133   0.025
 8351SOL     OW25951   0.031   2.465   2.742
 8351SOL    HW125952   0.017   2.423   2.832
 8351SOL    HW225953   0.109   2.527   2.747
 8352SOL     OW25954   2.955   6.584   6.413
 8352SOL    HW125955   3.025   6.654   6.400
 8352SOL    HW225956   2.986   6.499   6.370
 8353SOL     OW25957   0.469   6.094   2.515
 8353SOL    HW125958   0.402   6.098   2.440
 8353SOL    HW225959   0.500   6.187   2.536
 8354SOL     OW25960   4.200   2.027   3.113
 8354SOL    HW125961   4.213   2.014   3.212
 8354SOL    HW225962   4.170   2.121   3.095
 8355SOL     OW25963   3.134   5.209   6.204
 8355SOL    HW125964   3.055   5.200   6.143
 8355SOL    HW225965   3.198   5.276   6.166
 8356SOL     OW25966   3.127   4.194   1.271
 8356SOL    HW125967   3.112   4.277   1.325
 8356SOL    HW225968   3.041   4.146   1.258
 8357SOL     OW25969   3.866   6.656   4.606
 8357SOL    HW125970   3.854   6.570   4.655
 8357SOL    HW225971   3.963   6.679   4.601
 8358SOL     OW25972   0.586   1.232   4.817
 8358SOL    HW125973   0.657   1.300   4.837
 8358SOL    HW225974   0.517   1.232   4.889
 8359SOL     OW25975   4.392   2.510   5.660
 8359SOL    HW125976   4.322   2.544   5.597
 8359SOL    HW225977   4.436   2.430   5.621
 8360SOL     OW25978   3.615   6.853   1.479
 8360SOL    HW125979   3.660   6.830   1.393
 8360SOL    HW225980   3.616   6.953   1.491
 8361SOL     OW25981   4.708   1.481   0.291
 8361SOL    HW125982   4.807   1.473   0.276
 8361SOL    HW225983   4.678   1.408   0.353
 8362SOL     OW25984   0.054   3.338   1.333
 8362SOL    HW125985   0.100   3.359   1.246
 8362SOL    HW225986   0.120   3.299   1.397
 8363SOL     OW25987   1.253   2.945   1.312
 8363SOL    HW125988   1.207   2.868   1.356
 8363SOL    HW225989   1.347   2.951   1.345
 8364SOL     OW25990   0.549   2.431   4.076
 8364SOL    HW125991   0.586   2.350   4.120
 8364SOL    HW225992   0.588   2.441   3.984
 8365SOL     OW25993   1.293   2.603   1.260
 8365SOL    HW125994   1.201   2.591   1.298
 8365SOL    HW225995   1.286   2.631   1.165
 8366SOL     OW25996   4.945   5.708   1.991
 8366SOL    HW125997   4.905   5.631   2.040
 8366SOL    HW225998   4.955   5.685   1.894
 8367SOL     OW25999   1.955   4.555   3.136
 8367SOL    HW126000   1.893   4.601   3.073
 8367SOL    HW226001   1.909   4.539   3.223
 8368SOL     OW26002   6.528   4.621   5.650
 8368SOL    HW126003   6.438   4.624   5.694
 8368SOL    HW226004   6.571   4.711   5.658
 8369SOL     OW26005   1.692   6.898   6.928
 8369SOL    HW126006   1.664   6.819   6.873
 8369SOL    HW226007   1.748   6.867   7.005
 8370SOL     OW26008   3.044   2.902   0.609
 8370SOL    HW126009   3.125   2.937   0.562
 8370SOL    HW226010   2.976   2.873   0.542
 8371SOL     OW26011   3.240   3.891   6.296
 8371SOL    HW126012   3.270   3.975   6.341
 8371SOL    HW226013   3.240   3.904   6.197
 8372SOL     OW26014   1.473   6.749   1.629
 8372SOL    HW126015   1.514   6.772   1.717
 8372SOL    HW226016   1.487   6.651   1.611
 8373SOL     OW26017   6.239   0.580   4.180
 8373SOL    HW126018   6.305   0.654   4.167
 8373SOL    HW226019   6.249   0.542   4.272
 8374SOL     OW26020   0.964   1.465   3.317
 8374SOL    HW126021   1.014   1.469   3.404
 8374SOL    HW226022   0.872   1.501   3.330
 8375SOL     OW26023   1.692   2.061   5.427
 8375SOL    HW126024   1.791   2.065   5.414
 8375SOL    HW226025   1.664   1.967   5.445
 8376SOL     OW26026   1.182   1.944   3.649
 8376SOL    HW126027   1.149   2.015   3.587
 8376SOL    HW226028   1.227   1.872   3.596
 8377SOL     OW26029   3.674   5.373   0.740
 8377SOL    HW126030   3.769   5.350   0.717
 8377SOL    HW226031   3.617   5.292   0.729
 8378SOL     OW26032   4.343   5.589   4.885
 8378SOL    HW126033   4.365   5.562   4.979
 8378SOL    HW226034   4.389   5.675   4.863
 8379SOL     OW26035   6.157   1.832   1.745
 8379SOL    HW126036   6.237   1.775   1.727
 8379SOL    HW226037   6.149   1.848   1.843
 8380SOL     OW26038   0.519   6.120   2.162
 8380SOL    HW126039   0.600   6.133   2.219
 8380SOL    HW226040   0.437   6.129   2.218
 8381SOL     OW26041   1.300   1.947   2.375
 8381SOL    HW126042   1.324   2.034   2.418
 8381SOL    HW226043   1.364   1.927   2.301
 8382SOL     OW26044   0.628   6.954   1.802
 8382SOL    HW126045   0.583   0.019   1.796
 8382SOL    HW226046   0.712   6.954   1.748
 8383SOL     OW26047   2.761   6.577   6.117
 8383SOL    HW126048   2.852   6.612   6.139
 8383SOL    HW226049   2.770   6.499   6.055
 8384SOL     OW26050   0.401   3.593   2.959
 8384SOL    HW126051   0.478   3.638   3.004
 8384SOL    HW226052   0.418   3.590   2.860
 8385SOL     OW26053   4.418   1.786   2.328
 8385SOL    HW126054   4.414   1.849   2.406
 8385SOL    HW226055   4.339   1.802   2.268
 8386SOL     OW26056   1.030   5.368   1.490
 8386SOL    HW126057   0.987   5.333   1.574
 8386SOL    HW226058   1.062   5.461   1.506
 8387SOL     OW26059   0.959   1.575   3.051
 8387SOL    HW126060   0.914   1.535   2.972
 8387SOL    HW226061   0.947   1.514   3.130
 8388SOL     OW26062   3.947   4.901   1.552
 8388SOL    HW126063   3.932   4.869   1.646
 8388SOL    HW226064   3.963   4.822   1.492
 8389SOL     OW26065   1.198   3.090   3.852
 8389SOL    HW126066   1.192   3.144   3.767
 8389SOL    HW226067   1.157   3.142   3.927
 8390SOL     OW26068   2.744   0.297   6.367
 8390SOL    HW126069   2.800   0.306   6.449
 8390SOL    HW226070   2.716   0.202   6.357
 8391SOL     OW26071   5.020   6.121   0.672
 8391SOL    HW126072   5.040   6.095   0.577
 8391SOL    HW226073   5.105   6.122   0.724
 8392SOL     OW26074   4.788   6.172   0.357
 8392SOL    HW126075   4.702   6.171   0.305
 8392SOL    HW226076   4.773   6.135   0.448
 8393SOL     OW26077   0.741   4.960   2.129
 8393SOL    HW126078   0.804   4.920   2.061
 8393SOL    HW226079   0.790   5.027   2.184
 8394SOL     OW26080   1.309   1.726   3.537
 8394SOL    HW126081   1.391   1.735   3.481
 8394SOL    HW226082   1.321   1.649   3.600
 8395SOL     OW26083   1.327   6.548   5.840
 8395SOL    HW126084   1.270   6.477   5.880
 8395SOL    HW226085   1.375   6.511   5.760
 8396SOL     OW26086   4.709   2.398   1.255
 8396SOL    HW126087   4.787   2.360   1.304
 8396SOL    HW226088   4.652   2.323   1.219
 8397SOL     OW26089   1.974   5.279   3.618
 8397SOL    HW126090   2.066   5.241   3.614
 8397SOL    HW226091   1.975   5.362   3.674
 8398SOL     OW26092   6.085   1.894   0.180
 8398SOL    HW126093   6.026   1.813   0.183
 8398SOL    HW226094   6.105   1.916   0.084
 8399SOL     OW26095   5.620   5.679   6.705
 8399SOL    HW126096   5.587   5.749   6.642
 8399SOL    HW226097   5.561   5.598   6.699
 8400SOL     OW26098   6.746   6.510   4.170
 8400SOL    HW126099   6.785   6.590   4.215
 8400SOL    HW226100   6.780   6.504   4.077
 8401SOL     OW26101   2.849   3.715   5.745
 8401SOL    HW126102   2.824   3.798   5.695
 8401SOL    HW226103   2.928   3.734   5.803
 8402SOL     OW26104   4.820   0.367   5.376
 8402SOL    HW126105   4.904   0.409   5.342
 8402SOL    HW226106   4.780   0.309   5.305
 8403SOL     OW26107   0.846   2.844   5.413
 8403SOL    HW126108   0.892   2.929   5.435
 8403SOL    HW226109   0.753   2.846   5.449
 8404SOL     OW26110   4.270   4.928   5.357
 8404SOL    HW126111   4.268   5.028   5.359
 8404SOL    HW226112   4.248   4.896   5.266
 8405SOL     OW26113   2.081   2.259   4.901
 8405SOL    HW126114   2.095   2.271   4.999
 8405SOL    HW226115   2.016   2.327   4.868
 8406SOL     OW26116   5.314   3.792   1.943
 8406SOL    HW126117   5.260   3.805   1.860
 8406SOL    HW226118   5.257   3.807   2.024
 8407SOL     OW26119   4.896   3.524   3.134
 8407SOL    HW126120   4.884   3.549   3.037
 8407SOL    HW226121   4.980   3.566   3.169
 8408SOL     OW26122   5.155   3.924   3.837
 8408SOL    HW126123   5.171   4.019   3.809
 8408SOL    HW226124   5.057   3.906   3.838
 8409SOL     OW26125   0.826   1.660   3.952
 8409SOL    HW126126   0.911   1.661   3.899
 8409SOL    HW226127   0.751   1.628   3.893
 8410SOL     OW26128   2.315   6.001   2.413
 8410SOL    HW126129   2.373   5.946   2.472
 8410SOL    HW226130   2.336   6.098   2.426
 8411SOL     OW26131   1.909   3.222   3.175
 8411SOL    HW126132   1.969   3.302   3.169
 8411SOL    HW226133   1.894   3.186   3.083
 8412SOL     OW26134   6.621   2.119   2.532
 8412SOL    HW126135   6.669   2.065   2.463
 8412SOL    HW226136   6.682   2.191   2.567
 8413SOL     OW26137   2.107   5.039   1.196
 8413SOL    HW126138   2.194   4.990   1.199
 8413SOL    HW226139   2.112   5.112   1.128
 8414SOL     OW26140   6.154   0.343   3.294
 8414SOL    HW126141   6.152   0.251   3.334
 8414SOL    HW226142   6.231   0.394   3.331
 8415SOL     OW26143   6.830   4.075   1.658
 8415SOL    HW126144   6.887   4.044   1.582
 8415SOL    HW226145   6.862   4.164   1.691
 8416SOL     OW26146   4.911   4.494   2.387
 8416SOL    HW126147   4.943   4.435   2.461
 8416SOL    HW226148   4.856   4.441   2.323
 8417SOL     OW26149   2.012   5.813   6.545
 8417SOL    HW126150   1.953   5.874   6.598
 8417SOL    HW226151   2.037   5.733   6.600
 8418SOL     OW26152   6.437   5.623   2.654
 8418SOL    HW126153   6.465   5.679   2.733
 8418SOL    HW226154   6.482   5.534   2.660
 8419SOL     OW26155   5.194   6.818   4.051
 8419SOL    HW126156   5.191   6.908   4.007
 8419SOL    HW226157   5.146   6.824   4.139
 8420SOL     OW26158   4.099   2.655   5.676
 8420SOL    HW126159   4.168   2.700   5.732
 8420SOL    HW226160   4.055   2.582   5.729
 8421SOL     OW26161   0.313   0.726   1.111
 8421SOL    HW126162   0.317   0.729   1.211
 8421SOL    HW226163   0.222   0.694   1.083
 8422SOL     OW26164   3.718   0.135   2.057
 8422SOL    HW126165   3.712   0.042   2.019
 8422SOL    HW226166   3.810   0.152   2.091
 8423SOL     OW26167   2.004   3.813   1.397
 8423SOL    HW126168   2.016   3.878   1.472
 8423SOL    HW226169   2.005   3.720   1.433
 8424SOL     OW26170   2.599   2.657   1.654
 8424SOL    HW126171   2.658   2.579   1.629
 8424SOL    HW226172   2.526   2.666   1.588
 8425SOL     OW26173   6.353   4.995   6.299
 8425SOL    HW126174   6.355   5.028   6.394
 8425SOL    HW226175   6.259   4.997   6.265
 8426SOL     OW26176   3.427   3.495   2.514
 8426SOL    HW126177   3.468   3.585   2.528
 8426SOL    HW226178   3.440   3.467   2.419
 8427SOL     OW26179   2.339   2.182   6.894
 8427SOL    HW126180   2.248   2.160   6.927
 8427SOL    HW226181   2.403   2.110   6.920
 8428SOL     OW26182   6.504   4.149   1.172
 8428SOL    HW126183   6.497   4.218   1.099
 8428SOL    HW226184   6.588   4.165   1.225
 8429SOL     OW26185   1.535   6.668   3.205
 8429SOL    HW126186   1.628   6.639   3.185
 8429SOL    HW226187   1.534   6.764   3.233
 8430SOL     OW26188   5.433   3.856   3.083
 8430SOL    HW126189   5.447   3.951   3.113
 8430SOL    HW226190   5.336   3.843   3.062
 8431SOL     OW26191   3.062   3.456   2.158
 8431SOL    HW126192   3.012   3.487   2.239
 8431SOL    HW226193   3.004   3.397   2.103
 8432SOL     OW26194   4.915   6.046   0.130
 8432SOL    HW126195   4.907   6.138   0.091
 8432SOL    HW226196   4.855   6.038   0.209
 8433SOL     OW26197   0.236   1.666   4.272
 8433SOL    HW126198   0.247   1.568   4.258
 8433SOL    HW226199   0.257   1.714   4.186
 8434SOL     OW26200   5.507   6.127   6.394
 8434SOL    HW126201   5.528   6.038   6.354
 8434SOL    HW226202   5.591   6.178   6.410
 8435SOL     OW26203   5.008   2.141   1.902
 8435SOL    HW126204   5.072   2.064   1.902
 8435SOL    HW226205   4.931   2.121   1.962
 8436SOL     OW26206   3.116   4.434   1.634
 8436SOL    HW126207   3.139   4.337   1.622
 8436SOL    HW226208   3.047   4.443   1.706
 8437SOL     OW26209   0.495   1.608   0.722
 8437SOL    HW126210   0.439   1.655   0.791
 8437SOL    HW226211   0.549   1.536   0.766
 8438SOL     OW26212   1.905   5.844   0.804
 8438SOL    HW126213   1.808   5.846   0.777
 8438SOL    HW226214   1.921   5.914   0.873
 8439SOL     OW26215   5.801   0.392   1.944
 8439SOL    HW126216   5.831   0.487   1.935
 8439SOL    HW226217   5.740   0.370   1.868
 8440SOL     OW26218   1.031   3.124   4.295
 8440SOL    HW126219   1.088   3.127   4.377
 8440SOL    HW226220   0.941   3.086   4.319
 8441SOL     OW26221   4.650   5.477   2.598
 8441SOL    HW126222   4.679   5.395   2.646
 8441SOL    HW226223   4.600   5.537   2.661
 8442SOL     OW26224   2.518   2.963   0.346
 8442SOL    HW126225   2.526   3.035   0.276
 8442SOL    HW226226   2.512   3.006   0.436
 8443SOL     OW26227   0.485   1.537   1.380
 8443SOL    HW126228   0.467   1.499   1.289
 8443SOL    HW226229   0.576   1.578   1.382
 8444SOL     OW26230   3.984   1.385   3.372
 8444SOL    HW126231   3.948   1.435   3.293
 8444SOL    HW226232   4.038   1.446   3.429
 8445SOL     OW26233   4.465   5.442   2.210
 8445SOL    HW126234   4.480   5.405   2.302
 8445SOL    HW226235   4.532   5.402   2.148
 8446SOL     OW26236   0.400   3.310   2.955
 8446SOL    HW126237   0.423   3.406   2.938
 8446SOL    HW226238   0.326   3.282   2.893
 8447SOL     OW26239   4.471   3.328   1.091
 8447SOL    HW126240   4.419   3.412   1.105
 8447SOL    HW226241   4.561   3.336   1.134
 8448SOL     OW26242   1.882   3.420   5.609
 8448SOL    HW126243   1.876   3.320   5.612
 8448SOL    HW226244   1.905   3.455   5.700
 8449SOL     OW26245   0.987   1.494   4.496
 8449SOL    HW126246   1.048   1.546   4.436
 8449SOL    HW226247   1.011   1.511   4.592
 8450SOL     OW26248   1.660   5.560   1.332
 8450SOL    HW126249   1.737   5.611   1.294
 8450SOL    HW226250   1.630   5.490   1.267
 8451SOL     OW26251   3.624   2.908   0.658
 8451SOL    HW126252   3.556   2.840   0.686
 8451SOL    HW226253   3.620   2.921   0.559
 8452SOL     OW26254   0.271   5.120   1.414
 8452SOL    HW126255   0.218   5.044   1.452
 8452SOL    HW226256   0.361   5.124   1.458
 8453SOL     OW26257   6.256   5.190   5.269
 8453SOL    HW126258   6.349   5.170   5.238
 8453SOL    HW226259   6.260   5.225   5.363
 8454SOL     OW26260   2.458   6.812   4.753
 8454SOL    HW126261   2.428   6.737   4.812
 8454SOL    HW226262   2.540   6.854   4.790
 8455SOL     OW26263   6.065   2.734   0.739
 8455SOL    HW126264   6.110   2.816   0.773
 8455SOL    HW226265   5.977   2.722   0.785
 8456SOL     OW26266   4.921   5.282   3.722
 8456SOL    HW126267   4.863   5.220   3.668
 8456SOL    HW226268   4.883   5.292   3.814
 8457SOL     OW26269   6.706   6.005   5.981
 8457SOL    HW126270   6.757   6.076   5.932
 8457SOL    HW226271   6.692   5.926   5.921
 8458SOL     OW26272   1.640   2.199   1.237
 8458SOL    HW126273   1.685   2.112   1.216
 8458SOL    HW226274   1.620   2.202   1.335
 8459SOL     OW26275   2.339   5.431   3.467
 8459SOL    HW126276   2.346   5.472   3.558
 8459SOL    HW226277   2.274   5.482   3.412
 8460SOL     OW26278   3.960   1.616   0.864
 8460SOL    HW126279   4.055   1.627   0.896
 8460SOL    HW226280   3.904   1.689   0.901
 8461SOL     OW26281   5.490   4.174   3.134
 8461SOL    HW126282   5.523   4.228   3.211
 8461SOL    HW226283   5.391   4.183   3.126
 8462SOL     OW26284   2.004   3.867   0.965
 8462SOL    HW126285   1.952   3.953   0.965
 8462SOL    HW226286   2.061   3.864   0.883
 8463SOL     OW26287   6.775   0.461   0.730
 8463SOL    HW126288   6.860   0.427   0.690
 8463SOL    HW226289   6.797   0.534   0.795
 8464SOL     OW26290   6.204   3.717   6.408
 8464SOL    HW126291   6.120   3.706   6.356
 8464SOL    HW226292   6.228   3.630   6.451
 8465SOL     OW26293   5.088   3.455   0.931
 8465SOL    HW126294   5.004   3.411   0.899
 8465SOL    HW226295   5.122   3.517   0.861
 8466SOL     OW26296   0.501   1.556   5.217
 8466SOL    HW126297   0.559   1.475   5.208
 8466SOL    HW226298   0.456   1.574   5.129
 8467SOL     OW26299   2.946   1.277   0.456
 8467SOL    HW126300   2.932   1.179   0.446
 8467SOL    HW226301   3.037   1.295   0.493
 8468SOL     OW26302   5.565   4.291   0.613
 8468SOL    HW126303   5.483   4.234   0.618
 8468SOL    HW226304   5.547   4.372   0.559
 8469SOL     OW26305   3.669   2.949   5.457
 8469SOL    HW126306   3.649   3.024   5.520
 8469SOL    HW226307   3.722   2.984   5.379
 8470SOL     OW26308   1.303   5.774   1.656
 8470SOL    HW126309   1.324   5.750   1.751
 8470SOL    HW226310   1.360   5.719   1.595
 8471SOL     OW26311   4.338   2.416   4.571
 8471SOL    HW126312   4.375   2.332   4.533
 8471SOL    HW226313   4.244   2.401   4.601
 8472SOL     OW26314   5.599   1.993   6.819
 8472SOL    HW126315   5.503   1.975   6.795
 8472SOL    HW226316   5.603   2.070   6.883
 8473SOL     OW26317   4.927   5.040   5.894
 8473SOL    HW126318   4.847   5.068   5.948
 8473SOL    HW226319   5.010   5.081   5.933
 8474SOL     OW26320   3.003   4.105   5.329
 8474SOL    HW126321   3.011   4.204   5.320
 8474SOL    HW226322   2.914   4.075   5.294
 8475SOL     OW26323   6.564   1.489   3.198
 8475SOL    HW126324   6.529   1.396   3.210
 8475SOL    HW226325   6.662   1.484   3.176
 8476SOL     OW26326   6.257   1.449   1.785
 8476SOL    HW126327   6.254   1.429   1.687
 8476SOL    HW226328   6.247   1.365   1.837
 8477SOL     OW26329   5.557   0.582   1.410
 8477SOL    HW126330   5.604   0.494   1.404
 8477SOL    HW226331   5.466   0.573   1.369
 8478SOL     OW26332   0.395   6.685   5.528
 8478SOL    HW126333   0.409   6.608   5.590
 8478SOL    HW226334   0.392   6.652   5.434
 8479SOL     OW26335   0.841   3.032   0.377
 8479SOL    HW126336   0.881   2.987   0.297
 8479SOL    HW226337   0.892   3.005   0.459
 8480SOL     OW26338   3.551   4.207   0.939
 8480SOL    HW126339   3.641   4.225   0.898
 8480SOL    HW226340   3.494   4.158   0.873
 8481SOL     OW26341   4.182   2.234   2.412
 8481SOL    HW126342   4.221   2.179   2.486
 8481SOL    HW226343   4.084   2.248   2.429
 8482SOL     OW26344   4.291   0.757   6.579
 8482SOL    HW126345   4.243   0.840   6.550
 8482SOL    HW226346   4.358   0.781   6.650
 8483SOL     OW26347   3.901   4.862   3.351
 8483SOL    HW126348   3.936   4.920   3.278
 8483SOL    HW226349   3.971   4.794   3.377
 8484SOL     OW26350   5.937   6.228   5.386
 8484SOL    HW126351   5.885   6.168   5.448
 8484SOL    HW226352   5.987   6.296   5.440
 8485SOL     OW26353   3.961   1.174   6.337
 8485SOL    HW126354   4.049   1.220   6.338
 8485SOL    HW226355   3.918   1.182   6.427
 8486SOL     OW26356   5.943   2.540   5.097
 8486SOL    HW126357   5.871   2.595   5.138
 8486SOL    HW226358   5.928   2.531   4.999
 8487SOL     OW26359   6.613   2.313   6.069
 8487SOL    HW126360   6.523   2.324   6.028
 8487SOL    HW226361   6.668   2.250   6.015
 8488SOL     OW26362   4.663   4.234   2.909
 8488SOL    HW126363   4.757   4.228   2.875
 8488SOL    HW226364   4.664   4.264   3.005
 8489SOL     OW26365   6.133   1.916   2.047
 8489SOL    HW126366   6.110   1.873   2.135
 8489SOL    HW226367   6.196   1.992   2.063
 8490SOL     OW26368   3.056   6.464   0.301
 8490SOL    HW126369   3.034   6.559   0.322
 8490SOL    HW226370   3.051   6.410   0.385
 8491SOL     OW26371   3.067   5.456   2.244
 8491SOL    HW126372   3.041   5.387   2.177
 8491SOL    HW226373   3.167   5.463   2.248
 8492SOL     OW26374   6.439   5.754   4.373
 8492SOL    HW126375   6.531   5.789   4.360
 8492SOL    HW226376   6.375   5.806   4.317
 8493SOL     OW26377   4.676   1.032   5.946
 8493SOL    HW126378   4.655   1.122   5.907
 8493SOL    HW226379   4.614   0.964   5.909
 8494SOL     OW26380   6.806   3.118   2.414
 8494SOL    HW126381   6.794   3.211   2.379
 8494SOL    HW226382   6.717   3.078   2.434
 8495SOL     OW26383   6.124   5.714   6.488
 8495SOL    HW126384   6.167   5.793   6.532
 8495SOL    HW226385   6.047   5.683   6.545
 8496SOL     OW26386   5.445   2.501   2.633
 8496SOL    HW126387   5.434   2.402   2.623
 8496SOL    HW226388   5.510   2.534   2.565
 8497SOL     OW26389   0.148   0.616   2.772
 8497SOL    HW126390   0.062   0.590   2.728
 8497SOL    HW226391   0.200   0.534   2.797
 8498SOL     OW26392   4.740   6.609   4.073
 8498SOL    HW126393   4.646   6.574   4.081
 8498SOL    HW226394   4.739   6.699   4.030
 8499SOL     OW26395   5.581   6.811   5.711
 8499SOL    HW126396   5.603   6.723   5.754
 8499SOL    HW226397   5.500   6.800   5.654
 8500SOL     OW26398   0.981   0.513   6.985
 8500SOL    HW126399   0.881   0.511   6.995
 8500SOL    HW226400   1.018   0.423   7.008
 8501SOL     OW26401   2.604   1.128   5.954
 8501SOL    HW126402   2.608   1.153   6.050
 8501SOL    HW226403   2.509   1.109   5.927
 8502SOL     OW26404   5.887   3.529   6.691
 8502SOL    HW126405   5.809   3.590   6.707
 8502SOL    HW226406   5.941   3.522   6.774
 8503SOL     OW26407   4.698   2.596   5.500
 8503SOL    HW126408   4.759   2.675   5.495
 8503SOL    HW226409   4.630   2.611   5.573
 8504SOL     OW26410   0.985   0.032   2.570
 8504SOL    HW126411   0.997   0.059   2.665
 8504SOL    HW226412   1.033   0.097   2.511
 8505SOL     OW26413   5.649   2.371   2.872
 8505SOL    HW126414   5.591   2.444   2.906
 8505SOL    HW226415   5.594   2.305   2.822
 8506SOL     OW26416   1.161   6.740   5.985
 8506SOL    HW126417   1.208   6.661   5.948
 8506SOL    HW226418   1.074   6.753   5.938
 8507SOL     OW26419   3.635   5.186   5.503
 8507SOL    HW126420   3.700   5.189   5.427
 8507SOL    HW226421   3.553   5.236   5.478
 8508SOL     OW26422   3.076   1.081   6.313
 8508SOL    HW126423   3.138   1.116   6.243
 8508SOL    HW226424   3.103   0.988   6.338
 8509SOL     OW26425   5.363   2.212   2.568
 8509SOL    HW126426   5.274   2.166   2.563
 8509SOL    HW226427   5.410   2.206   2.480
 8510SOL     OW26428   0.911   2.201   4.676
 8510SOL    HW126429   0.876   2.290   4.647
 8510SOL    HW226430   0.857   2.168   4.754
 8511SOL     OW26431   6.146   1.830   3.913
 8511SOL    HW126432   6.185   1.793   3.997
 8511SOL    HW226433   6.073   1.895   3.935
 8512SOL     OW26434   1.975   5.879   5.367
 8512SOL    HW126435   1.989   5.978   5.368
 8512SOL    HW226436   1.885   5.857   5.406
 8513SOL     OW26437   4.842   5.832   6.938
 8513SOL    HW126438   4.745   5.818   6.920
 8513SOL    HW226439   4.853   5.876   0.004
 8514SOL     OW26440   3.673   5.578   4.156
 8514SOL    HW126441   3.588   5.559   4.107
 8514SOL    HW226442   3.711   5.664   4.123
 8515SOL     OW26443   6.187   2.343   1.805
 8515SOL    HW126444   6.269   2.357   1.861
 8515SOL    HW226445   6.128   2.276   1.850
 8516SOL     OW26446   6.800   1.978   2.366
 8516SOL    HW126447   6.885   1.967   2.316
 8516SOL    HW226448   6.730   1.916   2.330
 8517SOL     OW26449   1.493   3.467   5.847
 8517SOL    HW126450   1.411   3.521   5.870
 8517SOL    HW226451   1.478   3.371   5.871
 8518SOL     OW26452   2.615   5.583   0.895
 8518SOL    HW126453   2.602   5.496   0.847
 8518SOL    HW226454   2.710   5.612   0.886
 8519SOL     OW26455   2.574   6.009   3.532
 8519SOL    HW126456   2.576   5.909   3.526
 8519SOL    HW226457   2.667   6.045   3.529
 8520SOL     OW26458   3.461   6.448   6.767
 8520SOL    HW126459   3.491   6.542   6.747
 8520SOL    HW226460   3.514   6.411   6.843
 8521SOL     OW26461   1.743   0.188   1.982
 8521SOL    HW126462   1.745   0.089   1.993
 8521SOL    HW226463   1.837   0.224   1.983
 8522SOL     OW26464   2.809   6.455   4.663
 8522SOL    HW126465   2.745   6.392   4.620
 8522SOL    HW226466   2.903   6.425   4.646
 8523SOL     OW26467   1.641   6.686   6.768
 8523SOL    HW126468   1.595   6.721   6.686
 8523SOL    HW226469   1.591   6.607   6.803
 8524SOL     OW26470   1.807   1.576   6.907
 8524SOL    HW126471   1.869   1.554   6.982
 8524SOL    HW226472   1.859   1.579   6.821
 8525SOL     OW26473   5.795   3.490   4.082
 8525SOL    HW126474   5.833   3.411   4.130
 8525SOL    HW226475   5.710   3.464   4.037
 8526SOL     OW26476   2.028   3.341   2.122
 8526SOL    HW126477   1.940   3.340   2.075
 8526SOL    HW226478   2.092   3.399   2.072
 8527SOL     OW26479   4.355   0.323   4.059
 8527SOL    HW126480   4.404   0.252   4.111
 8527SOL    HW226481   4.416   0.401   4.044
 8528SOL     OW26482   5.497   1.607   6.763
 8528SOL    HW126483   5.441   1.683   6.730
 8528SOL    HW226484   5.455   1.568   6.845
 8529SOL     OW26485   6.483   6.094   5.580
 8529SOL    HW126486   6.505   6.172   5.522
 8529SOL    HW226487   6.387   6.068   5.565
 8530SOL     OW26488   1.880   4.763   6.342
 8530SOL    HW126489   1.795   4.720   6.313
 8530SOL    HW226490   1.863   4.820   6.422
 8531SOL     OW26491   4.433   4.831   1.932
 8531SOL    HW126492   4.406   4.735   1.936
 8531SOL    HW226493   4.353   4.889   1.948
 8532SOL     OW26494   1.615   3.836   0.899
 8532SOL    HW126495   1.685   3.865   0.834
 8532SOL    HW226496   1.610   3.902   0.974
 8533SOL     OW26497   4.049   6.443   5.665
 8533SOL    HW126498   4.140   6.468   5.698
 8533SOL    HW226499   4.050   6.439   5.565
 8534SOL     OW26500   1.898   2.464   1.097
 8534SOL    HW126501   1.916   2.365   1.091
 8534SOL    HW226502   1.967   2.513   1.045
 8535SOL     OW26503   0.567   3.337   5.347
 8535SOL    HW126504   0.486   3.280   5.333
 8535SOL    HW226505   0.647   3.279   5.360
 8536SOL     OW26506   5.848   1.083   5.856
 8536SOL    HW126507   5.795   1.026   5.920
 8536SOL    HW226508   5.843   1.179   5.885
 8537SOL     OW26509   4.435   6.553   3.108
 8537SOL    HW126510   4.373   6.603   3.168
 8537SOL    HW226511   4.416   6.455   3.115
 8538SOL     OW26512   5.032   0.381   5.172
 8538SOL    HW126513   4.942   0.353   5.140
 8538SOL    HW226514   5.060   0.464   5.125
 8539SOL     OW26515   1.056   3.131   2.347
 8539SOL    HW126516   1.134   3.163   2.400
 8539SOL    HW226517   1.000   3.069   2.404
 8540SOL     OW26518   3.968   0.390   6.829
 8540SOL    HW126519   3.962   0.312   6.767
 8540SOL    HW226520   4.042   0.450   6.799
 8541SOL     OW26521   2.622   6.501   5.107
 8541SOL    HW126522   2.660   6.511   5.199
 8541SOL    HW226523   2.685   6.450   5.049
 8542SOL     OW26524   1.038   5.303   5.579
 8542SOL    HW126525   1.064   5.284   5.673
 8542SOL    HW226526   1.027   5.218   5.528
 8543SOL     OW26527   2.943   2.376   5.342
 8543SOL    HW126528   3.026   2.369   5.286
 8543SOL    HW226529   2.936   2.296   5.401
 8544SOL     OW26530   5.118   4.442   5.616
 8544SOL    HW126531   5.021   4.452   5.593
 8544SOL    HW226532   5.172   4.450   5.532
 8545SOL     OW26533   1.967   6.954   6.295
 8545SOL    HW126534   2.065   6.950   6.275
 8545SOL    HW226535   1.925   0.003   6.240
 8546SOL     OW26536   3.810   1.601   3.875
 8546SOL    HW126537   3.833   1.690   3.834
 8546SOL    HW226538   3.872   1.531   3.840
 8547SOL     OW26539   5.344   6.226   5.891
 8547SOL    HW126540   5.370   6.262   5.801
 8547SOL    HW226541   5.392   6.140   5.908
 8548SOL     OW26542   1.147   4.528   4.426
 8548SOL    HW126543   1.230   4.565   4.384
 8548SOL    HW226544   1.067   4.554   4.371
 8549SOL     OW26545   2.254   0.581   3.975
 8549SOL    HW126546   2.171   0.609   3.927
 8549SOL    HW226547   2.263   0.632   4.060
 8550SOL     OW26548   0.132   4.943   5.468
 8550SOL    HW126549   0.154   4.859   5.420
 8550SOL    HW226550   0.215   4.980   5.510
 8551SOL     OW26551   3.963   1.153   4.707
 8551SOL    HW126552   3.906   1.232   4.684
 8551SOL    HW226553   4.024   1.178   4.783
 8552SOL     OW26554   3.590   1.590   2.028
 8552SOL    HW126555   3.524   1.517   2.015
 8552SOL    HW226556   3.682   1.552   2.036
 8553SOL     OW26557   4.850   3.868   0.817
 8553SOL    HW126558   4.908   3.862   0.899
 8553SOL    HW226559   4.852   3.781   0.768
 8554SOL     OW26560   1.263   0.982   6.489
 8554SOL    HW126561   1.283   1.056   6.424
 8554SOL    HW226562   1.219   0.907   6.440
 8555SOL     OW26563   3.125   2.138   3.103
 8555SOL    HW126564   3.153   2.103   3.192
 8555SOL    HW226565   3.195   2.115   3.035
 8556SOL     OW26566   0.174   5.403   5.245
 8556SOL    HW126567   0.174   5.484   5.305
 8556SOL    HW226568   0.090   5.351   5.261
 8557SOL     OW26569   6.356   1.194   6.910
 8557SOL    HW126570   6.342   1.148   6.822
 8557SOL    HW226571   6.453   1.200   6.930
 8558SOL     OW26572   3.208   6.403   3.858
 8558SOL    HW126573   3.119   6.436   3.890
 8558SOL    HW226574   3.231   6.449   3.772
 8559SOL     OW26575   1.917   3.611   2.453
 8559SOL    HW126576   1.969   3.607   2.367
 8559SOL    HW226577   1.825   3.575   2.438
 8560SOL     OW26578   3.539   3.738   1.349
 8560SOL    HW126579   3.557   3.676   1.425
 8560SOL    HW226580   3.483   3.815   1.381
 8561SOL     OW26581   3.881   0.899   2.798
 8561SOL    HW126582   3.822   0.866   2.872
 8561SOL    HW226583   3.898   0.997   2.810
 8562SOL     OW26584   5.549   2.433   6.546
 8562SOL    HW126585   5.451   2.417   6.537
 8562SOL    HW226586   5.597   2.389   6.470
 8563SOL     OW26587   2.644   5.241   2.554
 8563SOL    HW126588   2.565   5.272   2.608
 8563SOL    HW226589   2.625   5.150   2.517
 8564SOL     OW26590   3.512   5.993   0.565
 8564SOL    HW126591   3.542   5.900   0.586
 8564SOL    HW226592   3.587   6.056   0.584
 8565SOL     OW26593   1.376   5.222   0.868
 8565SOL    HW126594   1.311   5.159   0.825
 8565SOL    HW226595   1.469   5.192   0.850
 8566SOL     OW26596   3.722   0.841   3.401
 8566SOL    HW126597   3.808   0.862   3.353
 8566SOL    HW226598   3.646   0.847   3.336
 8567SOL     OW26599   1.774   2.493   1.700
 8567SOL    HW126600   1.786   2.411   1.645
 8567SOL    HW226601   1.679   2.500   1.730
 8568SOL     OW26602   5.931   0.620   5.676
 8568SOL    HW126603   5.871   0.689   5.636
 8568SOL    HW226604   6.006   0.599   5.613
 8569SOL     OW26605   5.353   1.810   0.292
 8569SOL    HW126606   5.313   1.848   0.208
 8569SOL    HW226607   5.288   1.747   0.334
 8570SOL     OW26608   2.407   1.473   2.904
 8570SOL    HW126609   2.470   1.398   2.924
 8570SOL    HW226610   2.340   1.444   2.836
 8571SOL     OW26611   1.485   0.557   3.680
 8571SOL    HW126612   1.487   0.615   3.761
 8571SOL    HW226613   1.456   0.611   3.601
 8572SOL     OW26614   3.269   3.924   5.735
 8572SOL    HW126615   3.225   3.958   5.652
 8572SOL    HW226616   3.289   4.001   5.796
 8573SOL     OW26617   2.077   5.906   6.308
 8573SOL    HW126618   2.049   5.871   6.398
 8573SOL    HW226619   2.031   5.854   6.236
 8574SOL     OW26620   5.217   1.590   5.539
 8574SOL    HW126621   5.200   1.536   5.457
 8574SOL    HW226622   5.156   1.669   5.541
 8575SOL     OW26623   3.417   6.587   4.268
 8575SOL    HW126624   3.421   6.565   4.170
 8575SOL    HW226625   3.439   6.684   4.281
 8576SOL     OW26626   1.493   4.451   4.347
 8576SOL    HW126627   1.511   4.464   4.444
 8576SOL    HW226628   1.413   4.505   4.320
 8577SOL     OW26629   2.405   0.363   0.208
 8577SOL    HW126630   2.489   0.401   0.247
 8577SOL    HW226631   2.345   0.331   0.281
 8578SOL     OW26632   0.931   0.181   6.014
 8578SOL    HW126633   0.862   0.226   6.071
 8578SOL    HW226634   1.003   0.143   6.072
 8579SOL     OW26635   3.445   0.211   2.128
 8579SOL    HW126636   3.392   0.141   2.081
 8579SOL    HW226637   3.542   0.189   2.124
 8580SOL     OW26638   1.936   0.520   1.567
 8580SOL    HW126639   1.839   0.544   1.561
 8580SOL    HW226640   1.954   0.476   1.655
 8581SOL     OW26641   3.720   3.937   2.081
 8581SOL    HW126642   3.672   4.020   2.052
 8581SOL    HW226643   3.818   3.948   2.067
 8582SOL     OW26644   4.462   5.551   6.006
 8582SOL    HW126645   4.383   5.497   6.034
 8582SOL    HW226646   4.488   5.613   6.081
 8583SOL     OW26647   2.795   6.882   2.650
 8583SOL    HW126648   2.745   6.835   2.577
 8583SOL    HW226649   2.891   6.891   2.624
 8584SOL     OW26650   6.198   1.629   5.000
 8584SOL    HW126651   6.150   1.597   5.081
 8584SOL    HW226652   6.296   1.614   5.011
 8585SOL     OW26653   5.034   2.624   2.447
 8585SOL    HW126654   5.132   2.606   2.431
 8585SOL    HW226655   4.986   2.620   2.359
 8586SOL     OW26656   5.773   5.704   5.588
 8586SOL    HW126657   5.755   5.610   5.619
 8586SOL    HW226658   5.752   5.712   5.491
 8587SOL     OW26659   6.424   1.644   0.108
 8587SOL    HW126660   6.507   1.629   0.161
 8587SOL    HW226661   6.345   1.609   0.158
 8588SOL     OW26662   1.907   0.726   5.089
 8588SOL    HW126663   1.893   0.699   5.184
 8588SOL    HW226664   1.856   0.664   5.028
 8589SOL     OW26665   5.362   2.945   6.984
 8589SOL    HW126666   5.427   2.964   0.035
 8589SOL    HW226667   5.395   2.988   6.900
 8590SOL     OW26668   1.043   1.681   3.723
 8590SOL    HW126669   0.970   1.743   3.694
 8590SOL    HW226670   1.132   1.725   3.707
 8591SOL     OW26671   0.172   4.324   5.481
 8591SOL    HW126672   0.236   4.306   5.407
 8591SOL    HW226673   0.217   4.377   5.552
 8592SOL     OW26674   6.920   1.863   4.048
 8592SOL    HW126675   6.973   1.933   3.999
 8592SOL    HW226676   6.962   1.847   4.137
 8593SOL     OW26677   6.256   1.183   0.140
 8593SOL    HW126678   6.175   1.127   0.155
 8593SOL    HW226679   6.266   1.202   0.042
 8594SOL     OW26680   5.885   4.267   6.231
 8594SOL    HW126681   5.964   4.307   6.184
 8594SOL    HW226682   5.907   4.173   6.259
 8595SOL     OW26683   4.965   6.172   2.937
 8595SOL    HW126684   5.037   6.126   2.886
 8595SOL    HW226685   5.000   6.258   2.974
 8596SOL     OW26686   1.162   2.572   5.141
 8596SOL    HW126687   1.087   2.552   5.078
 8596SOL    HW226688   1.200   2.487   5.177
 8597SOL     OW26689   6.056   2.271   6.463
 8597SOL    HW126690   5.983   2.253   6.529
 8597SOL    HW226691   6.086   2.184   6.422
 8598SOL     OW26692   6.756   0.553   5.523
 8598SOL    HW126693   6.769   0.455   5.515
 8598SOL    HW226694   6.665   0.572   5.562
 8599SOL     OW26695   6.196   4.034   5.090
 8599SOL    HW126696   6.174   4.127   5.120
 8599SOL    HW226697   6.118   3.996   5.041
 8600SOL     OW26698   4.748   2.764   1.830
 8600SOL    HW126699   4.820   2.776   1.762
 8600SOL    HW226700   4.743   2.845   1.889
 8601SOL     OW26701   5.903   5.919   2.861
 8601SOL    HW126702   5.944   5.936   2.772
 8601SOL    HW226703   5.829   5.852   2.851
 8602SOL     OW26704   1.623   6.975   5.224
 8602SOL    HW126705   1.577   0.040   5.224
 8602SOL    HW226706   1.584   6.918   5.297
 8603SOL     OW26707   0.541   0.857   6.417
 8603SOL    HW126708   0.615   0.877   6.480
 8603SOL    HW226709   0.453   0.863   6.465
 8604SOL     OW26710   2.164   5.315   6.015
 8604SOL    HW126711   2.152   5.251   6.091
 8604SOL    HW226712   2.182   5.406   6.052
 8605SOL     OW26713   0.066   4.560   3.980
 8605SOL    HW126714   0.011   4.477   3.990
 8605SOL    HW226715   0.013   4.629   3.931
 8606SOL     OW26716   1.317   0.995   6.901
 8606SOL    HW126717   1.274   0.965   6.986
 8606SOL    HW226718   1.347   0.915   6.849
 8607SOL     OW26719   2.987   3.138   1.319
 8607SOL    HW126720   2.973   3.052   1.269
 8607SOL    HW226721   2.966   3.215   1.259
 8608SOL     OW26722   1.842   5.389   2.215
 8608SOL    HW126723   1.886   5.312   2.260
 8608SOL    HW226724   1.790   5.441   2.283
 8609SOL     OW26725   4.618   1.868   4.505
 8609SOL    HW126726   4.602   1.805   4.428
 8609SOL    HW226727   4.613   1.962   4.472
 8610SOL     OW26728   0.045   5.556   2.770
 8610SOL    HW126729   7.013   5.473   2.777
 8610SOL    HW226730   0.139   5.530   2.746
 8611SOL     OW26731   2.116   1.118   4.936
 8611SOL    HW126732   2.068   1.204   4.957
 8611SOL    HW226733   2.138   1.071   5.022
 8612SOL     OW26734   3.477   3.492   4.908
 8612SOL    HW126735   3.428   3.568   4.951
 8612SOL    HW226736   3.414   3.440   4.850
 8613SOL     OW26737   4.025   3.116   3.329
 8613SOL    HW126738   3.962   3.110   3.406
 8613SOL    HW226739   4.042   3.212   3.307
 8614SOL     OW26740   0.837   2.096   3.500
 8614SOL    HW126741   0.914   2.159   3.511
 8614SOL    HW226742   0.751   2.147   3.514
 8615SOL     OW26743   3.256   1.728   5.489
 8615SOL    HW126744   3.169   1.709   5.444
 8615SOL    HW226745   3.325   1.752   5.420
 8616SOL     OW26746   5.960   4.713   5.170
 8616SOL    HW126747   6.002   4.678   5.086
 8616SOL    HW226748   5.886   4.775   5.147
 8617SOL     OW26749   1.256   6.951   3.052
 8617SOL    HW126750   1.247   0.016   3.096
 8617SOL    HW226751   1.200   6.883   3.100
 8618SOL     OW26752   5.942   4.110   0.840
 8618SOL    HW126753   5.857   4.151   0.872
 8618SOL    HW226754   5.930   4.011   0.832
 8619SOL     OW26755   5.543   5.935   0.734
 8619SOL    HW126756   5.473   5.876   0.694
 8619SOL    HW226757   5.607   5.964   0.663
 8620SOL     OW26758   2.028   6.574   3.713
 8620SOL    HW126759   1.978   6.651   3.674
 8620SOL    HW226760   1.993   6.554   3.804
 8621SOL     OW26761   5.627   3.617   2.143
 8621SOL    HW126762   5.646   3.676   2.065
 8621SOL    HW226763   5.645   3.521   2.118
 8622SOL     OW26764   0.289   5.425   3.037
 8622SOL    HW126765   0.373   5.394   3.082
 8622SOL    HW226766   0.284   5.525   3.042
 8623SOL     OW26767   1.932   2.352   3.473
 8623SOL    HW126768   1.964   2.335   3.567
 8623SOL    HW226769   1.950   2.271   3.417
 8624SOL     OW26770   3.375   4.073   5.355
 8624SOL    HW126771   3.429   4.134   5.413
 8624SOL    HW226772   3.297   4.038   5.406
 8625SOL     OW26773   4.440   3.223   6.207
 8625SOL    HW126774   4.357   3.209   6.153
 8625SOL    HW226775   4.415   3.242   6.302
 8626SOL     OW26776   5.148   1.760   1.458
 8626SOL    HW126777   5.198   1.729   1.376
 8626SOL    HW226778   5.170   1.855   1.476
 8627SOL     OW26779   1.455   0.097   2.644
 8627SOL    HW126780   1.456   0.184   2.693
 8627SOL    HW226781   1.537   0.044   2.666
 8628SOL     OW26782   0.622   6.895   1.124
 8628SOL    HW126783   0.570   6.930   1.202
 8628SOL    HW226784   0.566   6.832   1.071
 8629SOL     OW26785   0.591   6.920   4.477
 8629SOL    HW126786   0.533   6.840   4.485
 8629SOL    HW226787   0.553   6.983   4.409
 8630SOL     OW26788   5.208   2.555   2.078
 8630SOL    HW126789   5.179   2.636   2.026
 8630SOL    HW226790   5.136   2.486   2.075
 8631SOL     OW26791   2.214   6.037   6.070
 8631SOL    HW126792   2.144   6.008   6.137
 8631SOL    HW226793   2.265   5.958   6.038
 8632SOL     OW26794   6.069   5.314   4.393
 8632SOL    HW126795   5.994   5.350   4.447
 8632SOL    HW226796   6.039   5.298   4.299
 8633SOL     OW26797   5.833   4.003   5.327
 8633SOL    HW126798   5.772   4.066   5.376
 8633SOL    HW226799   5.894   3.958   5.392
 8634SOL     OW26800   5.176   4.713   6.705
 8634SOL    HW126801   5.082   4.741   6.687
 8634SOL    HW226802   5.180   4.613   6.708
 8635SOL     OW26803   4.936   2.790   6.856
 8635SOL    HW126804   4.998   2.862   6.885
 8635SOL    HW226805   4.884   2.756   6.934
 8636SOL     OW26806   4.241   6.045   1.815
 8636SOL    HW126807   4.160   5.988   1.804
 8636SOL    HW226808   4.234   6.097   1.900
 8637SOL     OW26809   1.784   2.104   6.792
 8637SOL    HW126810   1.775   2.105   6.692
 8637SOL    HW226811   1.874   2.139   6.817
 8638SOL     OW26812   4.816   3.148   4.178
 8638SOL    HW126813   4.820   3.239   4.220
 8638SOL    HW226814   4.793   3.157   4.081
 8639SOL     OW26815   3.016   4.380   0.457
 8639SOL    HW126816   3.024   4.306   0.391
 8639SOL    HW226817   3.024   4.468   0.411
 8640SOL     OW26818   3.904   2.582   0.671
 8640SOL    HW126819   3.920   2.484   0.654
 8640SOL    HW226820   3.992   2.630   0.672
 8641SOL     OW26821   3.847   5.213   2.835
 8641SOL    HW126822   3.849   5.171   2.744
 8641SOL    HW226823   3.865   5.311   2.828
 8642SOL     OW26824   1.995   5.770   3.073
 8642SOL    HW126825   2.078   5.745   3.023
 8642SOL    HW226826   1.962   5.859   3.040
 8643SOL     OW26827   3.525   6.441   1.277
 8643SOL    HW126828   3.541   6.539   1.284
 8643SOL    HW226829   3.579   6.403   1.202
 8644SOL     OW26830   5.891   2.505   6.161
 8644SOL    HW126831   5.847   2.594   6.145
 8644SOL    HW226832   5.990   2.515   6.152
 8645SOL     OW26833   5.542   5.668   2.896
 8645SOL    HW126834   5.515   5.741   2.959
 8645SOL    HW226835   5.505   5.686   2.805
 8646SOL     OW26836   0.087   2.721   5.228
 8646SOL    HW126837   0.093   2.638   5.283
 8646SOL    HW226838   0.159   2.719   5.158
 8647SOL     OW26839   1.688   5.181   1.682
 8647SOL    HW126840   1.710   5.199   1.777
 8647SOL    HW226841   1.599   5.221   1.660
 8648SOL     OW26842   4.566   5.502   0.426
 8648SOL    HW126843   4.541   5.536   0.517
 8648SOL    HW226844   4.513   5.420   0.407
 8649SOL     OW26845   5.692   1.452   1.071
 8649SOL    HW126846   5.675   1.366   1.120
 8649SOL    HW226847   5.615   1.514   1.085
 8650SOL     OW26848   1.996   6.793   5.491
 8650SOL    HW126849   1.940   6.805   5.572
 8650SOL    HW226850   1.938   6.782   5.410
 8651SOL     OW26851   4.002   1.997   1.779
 8651SOL    HW126852   4.032   1.903   1.767
 8651SOL    HW226853   3.905   1.999   1.805
 8652SOL     OW26854   0.927   2.802   3.743
 8652SOL    HW126855   0.851   2.863   3.723
 8652SOL    HW226856   1.002   2.854   3.784
 8653SOL     OW26857   5.782   1.235   6.758
 8653SOL    HW126858   5.692   1.202   6.730
 8653SOL    HW226859   5.829   1.274   6.679
 8654SOL     OW26860   6.885   4.818   3.127
 8654SOL    HW126861   6.914   4.747   3.063
 8654SOL    HW226862   6.806   4.786   3.179
 8655SOL     OW26863   0.650   0.193   4.855
 8655SOL    HW126864   0.697   0.221   4.938
 8655SOL    HW226865   0.568   0.250   4.842
 8656SOL     OW26866   4.344   6.648   0.981
 8656SOL    HW126867   4.390   6.585   1.044
 8656SOL    HW226868   4.255   6.673   1.020
 8657SOL     OW26869   2.953   1.874   2.789
 8657SOL    HW126870   2.944   1.775   2.789
 8657SOL    HW226871   2.888   1.914   2.724
 8658SOL     OW26872   6.420   4.466   1.414
 8658SOL    HW126873   6.366   4.537   1.368
 8658SOL    HW226874   6.516   4.474   1.384
 8659SOL     OW26875   3.828   0.732   2.549
 8659SOL    HW126876   3.867   0.789   2.622
 8659SOL    HW226877   3.875   0.752   2.463
 8660SOL     OW26878   0.613   4.182   1.834
 8660SOL    HW126879   0.713   4.189   1.837
 8660SOL    HW226880   0.585   4.087   1.851
 8661SOL     OW26881   6.837   3.546   2.001
 8661SOL    HW126882   6.931   3.564   2.028
 8661SOL    HW226883   6.803   3.621   1.945
 8662SOL     OW26884   1.270   2.170   2.784
 8662SOL    HW126885   1.285   2.090   2.842
 8662SOL    HW226886   1.234   2.245   2.840
 8663SOL     OW26887   4.220   4.766   2.707
 8663SOL    HW126888   4.250   4.765   2.611
 8663SOL    HW226889   4.136   4.820   2.714
 8664SOL     OW26890   3.570   6.366   3.851
 8664SOL    HW126891   3.540   6.389   3.759
 8664SOL    HW226892   3.663   6.329   3.847
 8665SOL     OW26893   5.607   3.897   6.981
 8665SOL    HW126894   5.592   3.808   6.939
 8665SOL    HW226895   5.622   3.966   6.910
 8666SOL     OW26896   4.647   0.538   2.980
 8666SOL    HW126897   4.596   0.544   2.894
 8666SOL    HW226898   4.697   0.623   2.995
 8667SOL     OW26899   5.461   2.307   2.325
 8667SOL    HW126900   5.403   2.298   2.244
 8667SOL    HW226901   5.545   2.356   2.299
 8668SOL     OW26902   4.641   2.112   4.381
 8668SOL    HW126903   4.544   2.119   4.358
 8668SOL    HW226904   4.695   2.111   4.296
 8669SOL     OW26905   6.647   6.183   6.740
 8669SOL    HW126906   6.738   6.195   6.779
 8669SOL    HW226907   6.649   6.109   6.672
 8670SOL     OW26908   6.959   5.241   5.333
 8670SOL    HW126909   6.900   5.318   5.312
 8670SOL    HW226910   6.906   5.156   5.332
 8671SOL     OW26911   0.074   2.916   2.919
 8671SOL    HW126912   0.018   2.984   2.967
 8671SOL    HW226913   0.049   2.824   2.951
 8672SOL     OW26914   6.940   1.574   2.736
 8672SOL    HW126915   6.847   1.540   2.751
 8672SOL    HW226916   7.004   1.521   2.792
 8673SOL     OW26917   0.979   1.605   1.327
 8673SOL    HW126918   1.045   1.530   1.335
 8673SOL    HW226919   1.026   1.692   1.344
 8674SOL     OW26920   0.118   4.378   3.327
 8674SOL    HW126921   0.049   4.360   3.396
 8674SOL    HW226922   0.209   4.372   3.369
 8675SOL     OW26923   4.421   2.498   4.877
 8675SOL    HW126924   4.363   2.524   4.799
 8675SOL    HW226925   4.365   2.493   4.960
 8676SOL     OW26926   4.785   1.954   1.552
 8676SOL    HW126927   4.792   2.049   1.520
 8676SOL    HW226928   4.732   1.952   1.637
 8677SOL     OW26929   2.632   0.028   6.338
 8677SOL    HW126930   2.572   7.009   6.271
 8677SOL    HW226931   2.595   0.013   6.430
 8678SOL     OW26932   2.830   2.167   0.253
 8678SOL    HW126933   2.731   2.152   0.257
 8678SOL    HW226934   2.878   2.086   0.286
 8679SOL     OW26935   1.698   1.845   6.655
 8679SOL    HW126936   1.711   1.863   6.753
 8679SOL    HW226937   1.787   1.846   6.609
 8680SOL     OW26938   0.125   0.253   0.537
 8680SOL    HW126939   0.146   0.279   0.631
 8680SOL    HW226940   0.176   0.171   0.512
 8681SOL     OW26941   5.471   5.076   1.760
 8681SOL    HW126942   5.567   5.098   1.747
 8681SOL    HW226943   5.416   5.159   1.756
 8682SOL     OW26944   2.634   0.538   2.639
 8682SOL    HW126945   2.564   0.481   2.682
 8682SOL    HW226946   2.604   0.563   2.547
 8683SOL     OW26947   2.483   4.432   4.138
 8683SOL    HW126948   2.490   4.444   4.237
 8683SOL    HW226949   2.443   4.343   4.118
 8684SOL     OW26950   2.291   4.484   3.392
 8684SOL    HW126951   2.369   4.542   3.413
 8684SOL    HW226952   2.228   4.484   3.470
 8685SOL     OW26953   4.883   3.195   4.742
 8685SOL    HW126954   4.849   3.179   4.649
 8685SOL    HW226955   4.876   3.110   4.795
 8686SOL     OW26956   1.345   5.041   2.896
 8686SOL    HW126957   1.246   5.031   2.907
 8686SOL    HW226958   1.383   5.086   2.977
 8687SOL     OW26959   5.711   4.353   5.339
 8687SOL    HW126960   5.736   4.360   5.435
 8687SOL    HW226961   5.633   4.292   5.329
 8688SOL     OW26962   1.253   3.972   4.973
 8688SOL    HW126963   1.171   3.980   4.917
 8688SOL    HW226964   1.316   3.907   4.931
 8689SOL     OW26965   4.760   3.334   0.777
 8689SOL    HW126966   4.678   3.281   0.755
 8689SOL    HW226967   4.733   3.424   0.812
 8690SOL     OW26968   1.245   1.537   2.386
 8690SOL    HW126969   1.326   1.561   2.333
 8690SOL    HW226970   1.266   1.457   2.443
 8691SOL     OW26971   3.647   2.232   6.318
 8691SOL    HW126972   3.609   2.283   6.242
 8691SOL    HW226973   3.602   2.259   6.403
 8692SOL     OW26974   5.436   2.903   4.464
 8692SOL    HW126975   5.450   2.933   4.558
 8692SOL    HW226976   5.341   2.876   4.452
 8693SOL     OW26977   6.878   6.854   5.515
 8693SOL    HW126978   6.972   6.828   5.531
 8693SOL    HW226979   6.817   6.801   5.574
 8694SOL     OW26980   4.461   3.736   5.762
 8694SOL    HW126981   4.454   3.721   5.663
 8694SOL    HW226982   4.370   3.753   5.800
 8695SOL     OW26983   3.020   5.001   1.148
 8695SOL    HW126984   2.981   5.081   1.103
 8695SOL    HW226985   2.946   4.935   1.168
 8696SOL     OW26986   2.370   5.832   6.397
 8696SOL    HW126987   2.294   5.767   6.388
 8696SOL    HW226988   2.450   5.797   6.348
 8697SOL     OW26989   1.149   3.548   4.975
 8697SOL    HW126990   1.194   3.616   5.033
 8697SOL    HW226991   1.124   3.590   4.888
 8698SOL     OW26992   4.252   4.448   6.702
 8698SOL    HW126993   4.233   4.472   6.797
 8698SOL    HW226994   4.351   4.445   6.687
 8699SOL     OW26995   2.473   2.419   0.546
 8699SOL    HW126996   2.570   2.440   0.544
 8699SOL    HW226997   2.460   2.321   0.533
 8700SOL     OW26998   0.650   1.866   4.816
 8700SOL    HW126999   0.560   1.898   4.844
 8700SOL    HW227000   0.686   1.803   4.884
 8701SOL     OW27001   1.723   3.464   6.418
 8701SOL    HW127002   1.735   3.447   6.320
 8701SOL    HW227003   1.661   3.396   6.457
 8702SOL     OW27004   5.713   4.448   1.424
 8702SOL    HW127005   5.773   4.526   1.408
 8702SOL    HW227006   5.617   4.478   1.418
 8703SOL     OW27007   2.334   5.871   1.885
 8703SOL    HW127008   2.362   5.910   1.973
 8703SOL    HW227009   2.251   5.816   1.898
 8704SOL     OW27010   6.914   1.654   4.840
 8704SOL    HW127011   7.011   1.630   4.830
 8704SOL    HW227012   6.890   1.654   4.937
 8705SOL     OW27013   3.423   2.158   0.167
 8705SOL    HW127014   3.472   2.086   0.216
 8705SOL    HW227015   3.411   2.237   0.226
 8706SOL     OW27016   4.867   2.507   6.227
 8706SOL    HW127017   4.829   2.490   6.137
 8706SOL    HW227018   4.795   2.538   6.289
 8707SOL     OW27019   1.143   1.115   4.308
 8707SOL    HW127020   1.087   1.087   4.229
 8707SOL    HW227021   1.083   1.150   4.380
 8708SOL     OW27022   6.085   2.545   1.248
 8708SOL    HW127023   6.139   2.492   1.314
 8708SOL    HW227024   6.018   2.600   1.298
 8709SOL     OW27025   6.831   6.041   4.124
 8709SOL    HW127026   6.763   6.083   4.064
 8709SOL    HW227027   6.857   6.107   4.195
 8710SOL     OW27028   2.496   1.684   3.574
 8710SOL    HW127029   2.405   1.721   3.592
 8710SOL    HW227030   2.521   1.701   3.478
 8711SOL     OW27031   1.590   1.101   2.124
 8711SOL    HW127032   1.677   1.149   2.132
 8711SOL    HW227033   1.518   1.155   2.169
 8712SOL     OW27034   0.961   4.515   4.176
 8712SOL    HW127035   0.870   4.543   4.144
 8712SOL    HW227036   0.986   4.428   4.134
 8713SOL     OW27037   0.373   3.686   2.213
 8713SOL    HW127038   0.452   3.679   2.153
 8713SOL    HW227039   0.401   3.677   2.308
 8714SOL     OW27040   6.013   4.680   6.483
 8714SOL    HW127041   5.982   4.590   6.514
 8714SOL    HW227042   6.011   4.684   6.384
 8715SOL     OW27043   2.364   4.945   1.249
 8715SOL    HW127044   2.436   5.013   1.242
 8715SOL    HW227045   2.368   4.901   1.339
 8716SOL     OW27046   6.255   0.540   1.848
 8716SOL    HW127047   6.223   0.453   1.810
 8716SOL    HW227048   6.332   0.574   1.794
 8717SOL     OW27049   3.359   2.321   0.379
 8717SOL    HW127050   3.447   2.353   0.414
 8717SOL    HW227051   3.292   2.319   0.453
 8718SOL     OW27052   2.976   5.625   6.506
 8718SOL    HW127053   2.899   5.561   6.496
 8718SOL    HW227054   3.060   5.574   6.525
 8719SOL     OW27055   3.009   1.171   5.113
 8719SOL    HW127056   3.033   1.166   5.016
 8719SOL    HW227057   2.910   1.183   5.122
 8720SOL     OW27058   1.030   6.085   4.512
 8720SOL    HW127059   1.030   5.987   4.532
 8720SOL    HW227060   1.107   6.107   4.454
 8721SOL     OW27061   1.108   0.114   1.162
 8721SOL    HW127062   1.137   0.048   1.093
 8721SOL    HW227063   1.011   0.100   1.184
 8722SOL     OW27064   3.098   1.551   0.596
 8722SOL    HW127065   3.042   1.595   0.666
 8722SOL    HW227066   3.115   1.456   0.622
 8723SOL     OW27067   3.884   6.478   2.173
 8723SOL    HW127068   3.961   6.527   2.213
 8723SOL    HW227069   3.904   6.380   2.173
 8724SOL     OW27070   3.388   1.485   4.910
 8724SOL    HW127071   3.337   1.548   4.968
 8724SOL    HW227072   3.456   1.536   4.857
 8725SOL     OW27073   6.943   0.474   2.676
 8725SOL    HW127074   7.005   0.433   2.609
 8725SOL    HW227075   6.870   0.410   2.699
 8726SOL     OW27076   6.301   0.811   0.372
 8726SOL    HW127077   6.285   0.766   0.460
 8726SOL    HW227078   6.365   0.887   0.384
 8727SOL     OW27079   5.486   5.772   6.476
 8727SOL    HW127080   5.563   5.801   6.418
 8727SOL    HW227081   5.400   5.788   6.427
 8728SOL     OW27082   6.154   6.420   4.504
 8728SOL    HW127083   6.063   6.460   4.488
 8728SOL    HW227084   6.194   6.393   4.416
 8729SOL     OW27085   5.852   5.770   6.149
 8729SOL    HW127086   5.771   5.727   6.109
 8729SOL    HW227087   5.930   5.708   6.142
 8730SOL     OW27088   3.909   4.775   1.786
 8730SOL    HW127089   3.974   4.699   1.799
 8730SOL    HW227090   3.907   4.832   1.868
 8731SOL     OW27091   6.913   1.716   3.586
 8731SOL    HW127092   6.844   1.771   3.539
 8731SOL    HW227093   6.876   1.684   3.673
 8732SOL     OW27094   5.046   6.276   5.913
 8732SOL    HW127095   5.011   6.212   5.981
 8732SOL    HW227096   5.141   6.253   5.891
 8733SOL     OW27097   6.624   4.472   2.168
 8733SOL    HW127098   6.639   4.486   2.070
 8733SOL    HW227099   6.698   4.514   2.220
 8734SOL     OW27100   1.441   5.144   0.393
 8734SOL    HW127101   1.538   5.123   0.383
 8734SOL    HW227102   1.395   5.066   0.435
 8735SOL     OW27103   1.426   2.889   5.858
 8735SOL    HW127104   1.333   2.923   5.841
 8735SOL    HW227105   1.488   2.927   5.790
 8736SOL     OW27106   1.574   5.763   3.339
 8736SOL    HW127107   1.493   5.742   3.284
 8736SOL    HW227108   1.655   5.731   3.290
 8737SOL     OW27109   0.396   5.659   6.942
 8737SOL    HW127110   0.298   5.645   6.956
 8737SOL    HW227111   0.418   5.648   6.845
 8738SOL     OW27112   1.827   2.619   2.135
 8738SOL    HW127113   1.813   2.538   2.078
 8738SOL    HW227114   1.899   2.676   2.095
 8739SOL     OW27115   5.646   4.585   3.472
 8739SOL    HW127116   5.622   4.642   3.550
 8739SOL    HW227117   5.578   4.513   3.461
 8740SOL     OW27118   2.955   1.876   3.199
 8740SOL    HW127119   3.033   1.919   3.155
 8740SOL    HW227120   2.923   1.934   3.274
 8741SOL     OW27121   1.188   1.755   2.556
 8741SOL    HW127122   1.169   1.685   2.488
 8741SOL    HW227123   1.221   1.838   2.509
 8742SOL     OW27124   2.574   2.932   1.740
 8742SOL    HW127125   2.506   2.939   1.666
 8742SOL    HW227126   2.637   2.858   1.720
 8743SOL     OW27127   0.849   3.340   0.330
 8743SOL    HW127128   0.772   3.313   0.388
 8743SOL    HW227129   0.931   3.291   0.359
 8744SOL     OW27130   3.576   3.941   5.990
 8744SOL    HW127131   3.627   3.903   6.068
 8744SOL    HW227132   3.569   3.871   5.918
 8745SOL     OW27133   5.911   1.936   6.392
 8745SOL    HW127134   5.889   1.952   6.488
 8745SOL    HW227135   5.988   1.993   6.365
 8746SOL     OW27136   3.969   4.965   5.045
 8746SOL    HW127137   3.937   4.963   4.950
 8746SOL    HW227138   3.899   4.928   5.105
 8747SOL     OW27139   1.082   0.428   2.229
 8747SOL    HW127140   1.062   0.525   2.241
 8747SOL    HW227141   0.999   0.375   2.247
 8748SOL     OW27142   5.302   2.153   4.333
 8748SOL    HW127143   5.274   2.081   4.270
 8748SOL    HW227144   5.328   2.235   4.282
 8749SOL     OW27145   2.598   1.169   4.113
 8749SOL    HW127146   2.675   1.119   4.073
 8749SOL    HW227147   2.614   1.184   4.211
 8750SOL     OW27148   4.387   3.500   1.729
 8750SOL    HW127149   4.292   3.529   1.722
 8750SOL    HW227150   4.446   3.580   1.740
 8751SOL     OW27151   2.571   7.003   0.383
 8751SOL    HW127152   2.475   7.001   0.413
 8751SOL    HW227153   2.574   7.002   0.283
 8752SOL     OW27154   6.946   3.561   5.894
 8752SOL    HW127155   6.927   3.565   5.992
 8752SOL    HW227156   6.984   3.648   5.863
 8753SOL     OW27157   1.837   1.899   1.020
 8753SOL    HW127158   1.883   1.817   1.053
 8753SOL    HW227159   1.739   1.884   1.016
 8754SOL     OW27160   0.920   6.321   6.403
 8754SOL    HW127161   0.837   6.284   6.362
 8754SOL    HW227162   0.898   6.401   6.458
 8755SOL     OW27163   0.124   2.910   1.404
 8755SOL    HW127164   0.194   2.839   1.399
 8755SOL    HW227165   0.085   2.924   1.314
 8756SOL     OW27166   1.500   1.588   1.919
 8756SOL    HW127167   1.406   1.624   1.917
 8756SOL    HW227168   1.497   1.488   1.921
 8757SOL     OW27169   5.550   6.013   4.984
 8757SOL    HW127170   5.523   5.958   5.062
 8757SOL    HW227171   5.649   6.031   4.988
 8758SOL     OW27172   3.610   5.978   6.023
 8758SOL    HW127173   3.570   5.952   5.935
 8758SOL    HW227174   3.643   6.072   6.019
 8759SOL     OW27175   6.244   1.179   1.879
 8759SOL    HW127176   6.266   1.130   1.795
 8759SOL    HW227177   6.303   1.147   1.953
 8760SOL     OW27178   2.442   2.330   4.073
 8760SOL    HW127179   2.469   2.277   3.992
 8760SOL    HW227180   2.379   2.276   4.129
 8761SOL     OW27181   4.902   2.584   2.937
 8761SOL    HW127182   4.840   2.661   2.929
 8761SOL    HW227183   4.946   2.566   2.849
 8762SOL     OW27184   4.201   6.458   2.932
 8762SOL    HW127185   4.218   6.551   2.901
 8762SOL    HW227186   4.285   6.420   2.972
 8763SOL     OW27187   6.886   1.596   5.133
 8763SOL    HW127188   6.870   1.662   5.206
 8763SOL    HW227189   6.806   1.536   5.123
 8764SOL     OW27190   3.478   4.862   6.443
 8764SOL    HW127191   3.471   4.768   6.478
 8764SOL    HW227192   3.392   4.910   6.460
 8765SOL     OW27193   4.450   6.609   4.083
 8765SOL    HW127194   4.426   6.703   4.057
 8765SOL    HW227195   4.414   6.590   4.174
 8766SOL     OW27196   5.469   6.919   5.005
 8766SOL    HW127197   5.474   7.000   5.064
 8766SOL    HW227198   5.442   6.946   4.913
 8767SOL     OW27199   1.873   0.863   4.069
 8767SOL    HW127200   1.904   0.801   4.142
 8767SOL    HW227201   1.785   0.903   4.095
 8768SOL     OW27202   6.488   1.814   0.878
 8768SOL    HW127203   6.486   1.717   0.904
 8768SOL    HW227204   6.480   1.822   0.778
 8769SOL     OW27205   5.893   7.010   6.229
 8769SOL    HW127206   5.978   6.966   6.257
 8769SOL    HW227207   5.899   0.011   6.133
 8770SOL     OW27208   5.014   2.008   0.273
 8770SOL    HW127209   4.965   1.926   0.300
 8770SOL    HW227210   4.972   2.047   0.191
 8771SOL     OW27211   0.922   2.148   6.162
 8771SOL    HW127212   0.939   2.129   6.066
 8771SOL    HW227213   0.996   2.204   6.199
 8772SOL     OW27214   0.413   0.286   3.568
 8772SOL    HW127215   0.454   0.293   3.659
 8772SOL    HW227216   0.486   0.290   3.498
 8773SOL     OW27217   0.229   1.645   3.621
 8773SOL    HW127218   0.233   1.554   3.664
 8773SOL    HW227219   0.144   1.653   3.569
 8774SOL     OW27220   1.272   1.826   6.903
 8774SOL    HW127221   1.268   1.914   6.951
 8774SOL    HW227222   1.309   1.756   6.964
 8775SOL     OW27223   5.268   2.180   3.036
 8775SOL    HW127224   5.183   2.142   3.074
 8775SOL    HW227225   5.251   2.271   3.000
 8776SOL     OW27226   5.368   2.861   1.592
 8776SOL    HW127227   5.291   2.808   1.557
 8776SOL    HW227228   5.408   2.916   1.519
 8777SOL     OW27229   6.670   2.317   3.522
 8777SOL    HW127230   6.581   2.279   3.549
 8777SOL    HW227231   6.703   2.377   3.594
 8778SOL     OW27232   2.612   3.776   6.956
 8778SOL    HW127233   2.588   3.821   6.869
 8778SOL    HW227234   2.529   3.747   7.002
 8779SOL     OW27235   4.163   5.499   3.061
 8779SOL    HW127236   4.091   5.489   2.993
 8779SOL    HW227237   4.230   5.426   3.049
 8780SOL     OW27238   0.726   4.281   3.875
 8780SOL    HW127239   0.793   4.209   3.858
 8780SOL    HW227240   0.660   4.284   3.800
 8781SOL     OW27241   2.698   1.052   1.542
 8781SOL    HW127242   2.736   1.132   1.496
 8781SOL    HW227243   2.748   0.970   1.513
 8782SOL     OW27244   6.486   2.636   0.948
 8782SOL    HW127245   6.437   2.607   0.866
 8782SOL    HW227246   6.553   2.706   0.924
 8783SOL     OW27247   4.383   4.080   5.361
 8783SOL    HW127248   4.399   4.028   5.446
 8783SOL    HW227249   4.350   4.171   5.383
 8784SOL     OW27250   4.245   0.691   0.028
 8784SOL    HW127251   4.266   0.663   6.958
 8784SOL    HW227252   4.298   0.635   0.092
 8785SOL     OW27253   6.936   5.742   5.509
 8785SOL    HW127254   6.917   5.750   5.411
 8785SOL    HW227255   6.982   5.654   5.527
 8786SOL     OW27256   5.785   1.660   3.586
 8786SOL    HW127257   5.783   1.596   3.509
 8786SOL    HW227258   5.823   1.615   3.666
 8787SOL     OW27259   3.335   5.227   1.932
 8787SOL    HW127260   3.388   5.142   1.923
 8787SOL    HW227261   3.332   5.273   1.843
 8788SOL     OW27262   0.154   6.001   4.489
 8788SOL    HW127263   0.228   6.044   4.541
 8788SOL    HW227264   0.192   5.956   4.408
 8789SOL     OW27265   1.601   2.675   6.499
 8789SOL    HW127266   1.563   2.756   6.543
 8789SOL    HW227267   1.620   2.606   6.568
 8790SOL     OW27268   4.663   2.539   5.022
 8790SOL    HW127269   4.582   2.568   4.970
 8790SOL    HW227270   4.716   2.619   5.049
 8791SOL     OW27271   4.108   6.004   5.073
 8791SOL    HW127272   4.139   5.909   5.083
 8791SOL    HW227273   4.023   6.005   5.019
 8792SOL     OW27274   5.642   5.355   1.678
 8792SOL    HW127275   5.715   5.406   1.631
 8792SOL    HW227276   5.662   5.257   1.674
 8793SOL     OW27277   6.185   6.134   5.279
 8793SOL    HW127278   6.243   6.210   5.248
 8793SOL    HW227279   6.100   6.172   5.317
 8794SOL     OW27280   0.006   1.672   3.031
 8794SOL    HW127281   6.933   1.678   3.007
 8794SOL    HW227282   0.038   1.578   3.019
 8795SOL     OW27283   1.059   6.711   6.650
 8795SOL    HW127284   1.130   6.660   6.699
 8795SOL    HW227285   1.101   6.779   6.591
 8796SOL     OW27286   5.802   4.243   5.083
 8796SOL    HW127287   5.775   4.147   5.083
 8796SOL    HW227288   5.805   4.277   5.177
 8797SOL     OW27289   5.160   6.257   4.508
 8797SOL    HW127290   5.193   6.297   4.594
 8797SOL    HW227291   5.087   6.315   4.470
 8798SOL     OW27292   1.967   5.996   5.684
 8798SOL    HW127293   1.938   5.900   5.687
 8798SOL    HW227294   1.910   6.045   5.618
 8799SOL     OW27295   1.112   6.020   1.636
 8799SOL    HW127296   1.195   5.964   1.633
 8799SOL    HW227297   1.070   6.022   1.545
 8800SOL     OW27298   7.000   5.926   3.952
 8800SOL    HW127299   6.953   5.962   4.033
 8800SOL    HW227300   6.944   5.940   3.871
 8801SOL     OW27301   4.938   3.390   5.534
 8801SOL    HW127302   4.953   3.469   5.594
 8801SOL    HW227303   5.023   3.367   5.487
 8802SOL     OW27304   1.243   6.511   6.732
 8802SOL    HW127305   1.278   6.555   6.815
 8802SOL    HW227306   1.188   6.432   6.758
 8803SOL     OW27307   5.510   5.497   5.338
 8803SOL    HW127308   5.569   5.452   5.405
 8803SOL    HW227309   5.550   5.585   5.313
 8804SOL     OW27310   1.387   6.113   2.325
 8804SOL    HW127311   1.464   6.173   2.348
 8804SOL    HW227312   1.380   6.105   2.225
 8805SOL     OW27313   5.346   4.724   3.094
 8805SOL    HW127314   5.408   4.801   3.085
 8805SOL    HW227315   5.364   4.658   3.021
 8806SOL     OW27316   1.058   0.722   2.265
 8806SOL    HW127317   0.963   0.751   2.250
 8806SOL    HW227318   1.096   0.772   2.343
 8807SOL     OW27319   5.808   2.092   1.352
 8807SOL    HW127320   5.819   2.176   1.404
 8807SOL    HW227321   5.793   2.015   1.414
 8808SOL     OW27322   2.085   1.845   0.024
 8808SOL    HW127323   2.173   1.821   0.064
 8808SOL    HW227324   2.016   1.854   0.096
 8809SOL     OW27325   0.689   3.375   3.085
 8809SOL    HW127326   0.599   3.386   3.129
 8809SOL    HW227327   0.714   3.460   3.039
 8810SOL     OW27328   0.417   2.291   4.908
 8810SOL    HW127329   0.482   2.364   4.889
 8810SOL    HW227330   0.366   2.269   4.824
 8811SOL     OW27331   4.507   4.500   2.468
 8811SOL    HW127332   4.600   4.493   2.430
 8811SOL    HW227333   4.443   4.455   2.406
 8812SOL     OW27334   5.715   0.905   0.290
 8812SOL    HW127335   5.667   0.846   0.225
 8812SOL    HW227336   5.797   0.859   0.323
 8813SOL     OW27337   1.889   3.106   2.351
 8813SOL    HW127338   1.831   3.104   2.270
 8813SOL    HW227339   1.974   3.155   2.331
 8814SOL     OW27340   6.114   6.799   5.042
 8814SOL    HW127341   6.154   6.890   5.028
 8814SOL    HW227342   6.130   6.743   4.961
 8815SOL     OW27343   5.154   1.201   1.409
 8815SOL    HW127344   5.222   1.144   1.455
 8815SOL    HW227345   5.062   1.174   1.439
 8816SOL     OW27346   0.060   0.241   3.814
 8816SOL    HW127347   6.997   0.279   3.845
 8816SOL    HW227348   0.122   0.229   3.892
 8817SOL     OW27349   1.378   2.825   3.241
 8817SOL    HW127350   1.418   2.914   3.262
 8817SOL    HW227351   1.282   2.837   3.213
 8818SOL     OW27352   1.140   6.372   6.010
 8818SOL    HW127353   1.142   6.272   6.005
 8818SOL    HW227354   1.069   6.400   6.074
 8819SOL     OW27355   4.732   6.082   6.313
 8819SOL    HW127356   4.817   6.118   6.352
 8819SOL    HW227357   4.680   6.158   6.273
 8820SOL     OW27358   4.139   6.623   5.370
 8820SOL    HW127359   4.050   6.632   5.416
 8820SOL    HW227360   4.209   6.669   5.425
 8821SOL     OW27361   0.885   4.715   6.134
 8821SOL    HW127362   0.819   4.787   6.157
 8821SOL    HW227363   0.978   4.753   6.137
 8822SOL     OW27364   6.211   0.243   4.751
 8822SOL    HW127365   6.207   0.259   4.653
 8822SOL    HW227366   6.140   0.297   4.797
 8823SOL     OW27367   4.035   1.627   2.972
 8823SOL    HW127368   4.050   1.591   2.880
 8823SOL    HW227369   4.001   1.721   2.966
 8824SOL     OW27370   2.001   0.565   3.822
 8824SOL    HW127371   1.919   0.556   3.877
 8824SOL    HW227372   1.993   0.645   3.763
 8825SOL     OW27373   0.384   6.698   0.248
 8825SOL    HW127374   0.433   6.693   0.161
 8825SOL    HW227375   0.299   6.645   0.241
 8826SOL     OW27376   0.781   4.343   0.166
 8826SOL    HW127377   0.757   4.404   0.241
 8826SOL    HW227378   0.840   4.269   0.199
 8827SOL     OW27379   4.723   6.537   3.618
 8827SOL    HW127380   4.770   6.524   3.705
 8827SOL    HW227381   4.770   6.606   3.564
 8828SOL     OW27382   5.208   2.053   5.885
 8828SOL    HW127383   5.265   2.126   5.848
 8828SOL    HW227384   5.243   2.026   5.975
 8829SOL     OW27385   7.020   1.245   2.606
 8829SOL    HW127386   0.096   1.256   2.600
 8829SOL    HW227387   6.984   1.224   2.515
 8830SOL     OW27388   3.302   0.494   3.190
 8830SOL    HW127389   3.333   0.578   3.145
 8830SOL    HW227390   3.203   0.484   3.177
 8831SOL     OW27391   0.266   2.891   2.482
 8831SOL    HW127392   0.284   2.927   2.574
 8831SOL    HW227393   0.185   2.832   2.484
 8832SOL     OW27394   5.212   0.599   5.712
 8832SOL    HW127395   5.166   0.688   5.715
 8832SOL    HW227396   5.297   0.604   5.764
 8833SOL     OW27397   4.889   2.882   0.662
 8833SOL    HW127398   4.810   2.939   0.683
 8833SOL    HW227399   4.920   2.837   0.746
 8834SOL     OW27400   5.488   4.844   6.328
 8834SOL    HW127401   5.440   4.795   6.400
 8834SOL    HW227402   5.524   4.930   6.364
 8835SOL     OW27403   6.563   1.031   5.328
 8835SOL    HW127404   6.488   1.095   5.308
 8835SOL    HW227405   6.542   0.980   5.411
 8836SOL     OW27406   4.107   1.143   1.104
 8836SOL    HW127407   4.036   1.200   1.063
 8836SOL    HW227408   4.177   1.202   1.146
 8837SOL     OW27409   4.615   5.936   0.484
 8837SOL    HW127410   4.692   5.954   0.546
 8837SOL    HW227411   4.634   5.854   0.430
 8838SOL     OW27412   2.129   3.405   3.198
 8838SOL    HW127413   2.119   3.467   3.276
 8838SOL    HW227414   2.128   3.458   3.113
 8839SOL     OW27415   4.840   4.935   1.429
 8839SOL    HW127416   4.827   4.849   1.478
 8839SOL    HW227417   4.751   4.979   1.413
 8840SOL     OW27418   6.803   1.163   1.067
 8840SOL    HW127419   6.724   1.175   1.128
 8840SOL    HW227420   6.772   1.156   0.973
 8841SOL     OW27421   3.443   1.135   0.914
 8841SOL    HW127422   3.424   1.149   1.011
 8841SOL    HW227423   3.406   1.047   0.885
 8842SOL     OW27424   3.630   2.912   4.060
 8842SOL    HW127425   3.637   2.927   3.961
 8842SOL    HW227426   3.536   2.926   4.089
 8843SOL     OW27427   2.435   5.277   5.374
 8843SOL    HW127428   2.467   5.348   5.312
 8843SOL    HW227429   2.507   5.210   5.388
 8844SOL     OW27430   3.118   2.883   6.198
 8844SOL    HW127431   3.050   2.820   6.160
 8844SOL    HW227432   3.140   2.952   6.129
 8845SOL     OW27433   0.468   3.404   2.172
 8845SOL    HW127434   0.456   3.437   2.265
 8845SOL    HW227435   0.528   3.324   2.172
 8846SOL     OW27436   5.411   5.144   4.529
 8846SOL    HW127437   5.484   5.078   4.516
 8846SOL    HW227438   5.449   5.237   4.532
 8847SOL     OW27439   0.857   2.167   3.887
 8847SOL    HW127440   0.798   2.091   3.861
 8847SOL    HW227441   0.853   2.238   3.818
 8848SOL     OW27442   6.573   2.188   0.790
 8848SOL    HW127443   6.551   2.236   0.706
 8848SOL    HW227444   6.490   2.174   0.844
 8849SOL     OW27445   3.412   5.538   4.046
 8849SOL    HW127446   3.380   5.559   3.953
 8849SOL    HW227447   3.337   5.551   4.111
 8850SOL     OW27448   2.490   1.809   1.275
 8850SOL    HW127449   2.403   1.795   1.227
 8850SOL    HW227450   2.566   1.804   1.210
 8851SOL     OW27451   0.111   5.124   2.681
 8851SOL    HW127452   0.123   5.131   2.581
 8851SOL    HW227453   0.199   5.144   2.725
 8852SOL     OW27454   5.227   3.534   4.749
 8852SOL    HW127455   5.191   3.614   4.700
 8852SOL    HW227456   5.151   3.482   4.788
 8853SOL     OW27457   4.535   2.254   5.581
 8853SOL    HW127458   4.501   2.172   5.628
 8853SOL    HW227459   4.633   2.263   5.597
 8854SOL     OW27460   2.321   1.072   6.160
 8854SOL    HW127461   2.247   1.138   6.177
 8854SOL    HW227462   2.315   0.998   6.227
 8855SOL     OW27463   6.094   5.078   6.222
 8855SOL    HW127464   6.090   5.175   6.245
 8855SOL    HW227465   6.021   5.029   6.270
 8856SOL     OW27466   5.493   0.865   5.381
 8856SOL    HW127467   5.499   0.940   5.316
 8856SOL    HW227468   5.491   0.778   5.332
 8857SOL     OW27469   1.269   3.403   4.695
 8857SOL    HW127470   1.350   3.396   4.753
 8857SOL    HW227471   1.190   3.364   4.742
 8858SOL     OW27472   0.180   3.741   5.774
 8858SOL    HW127473   0.202   3.825   5.823
 8858SOL    HW227474   0.130   3.763   5.690
 8859SOL     OW27475   2.673   6.134   5.332
 8859SOL    HW127476   2.654   6.230   5.349
 8859SOL    HW227477   2.674   6.117   5.233
 8860SOL     OW27478   1.803   2.004   0.579
 8860SOL    HW127479   1.726   2.065   0.559
 8860SOL    HW227480   1.839   2.024   0.670
 8861SOL     OW27481   2.463   2.476   1.216
 8861SOL    HW127482   2.547   2.439   1.176
 8861SOL    HW227483   2.475   2.487   1.315
 8862SOL     OW27484   6.320   2.339   5.155
 8862SOL    HW127485   6.351   2.265   5.095
 8862SOL    HW227486   6.381   2.418   5.144
 8863SOL     OW27487   1.195   5.757   5.580
 8863SOL    HW127488   1.175   5.704   5.662
 8863SOL    HW227489   1.133   5.728   5.506
 8864SOL     OW27490   1.323   3.972   6.251
 8864SOL    HW127491   1.384   3.940   6.323
 8864SOL    HW227492   1.351   4.064   6.222
 8865SOL     OW27493   2.953   1.963   5.701
 8865SOL    HW127494   2.950   1.955   5.800
 8865SOL    HW227495   3.042   1.933   5.667
 8866SOL     OW27496   5.164   6.480   4.976
 8866SOL    HW127497   5.228   6.446   5.045
 8866SOL    HW227498   5.172   6.580   4.970
 8867SOL     OW27499   6.610   1.234   4.133
 8867SOL    HW127500   6.695   1.183   4.128
 8867SOL    HW227501   6.545   1.201   4.064
 8868SOL     OW27502   5.086   3.581   0.623
 8868SOL    HW127503   5.136   3.662   0.651
 8868SOL    HW227504   5.150   3.509   0.596
 8869SOL     OW27505   3.625   2.074   3.043
 8869SOL    HW127506   3.563   2.062   3.122
 8869SOL    HW227507   3.603   2.005   2.974
 8870SOL     OW27508   4.701   1.257   2.281
 8870SOL    HW127509   4.619   1.299   2.242
 8870SOL    HW227510   4.730   1.309   2.361
 8871SOL     OW27511   1.813   2.175   3.745
 8871SOL    HW127512   1.746   2.250   3.741
 8871SOL    HW227513   1.765   2.088   3.751
 8872SOL     OW27514   1.512   2.497   1.755
 8872SOL    HW127515   1.484   2.553   1.677
 8872SOL    HW227516   1.521   2.555   1.836
 8873SOL     OW27517   6.710   5.859   5.033
 8873SOL    HW127518   6.762   5.847   5.118
 8873SOL    HW227519   6.751   5.804   4.961
 8874SOL     OW27520   0.586   1.637   6.251
 8874SOL    HW127521   0.574   1.645   6.350
 8874SOL    HW227522   0.643   1.713   6.218
 8875SOL     OW27523   1.448   1.498   4.601
 8875SOL    HW127524   1.462   1.399   4.610
 8875SOL    HW227525   1.533   1.546   4.626
 8876SOL     OW27526   2.756   0.449   4.417
 8876SOL    HW127527   2.840   0.500   4.434
 8876SOL    HW227528   2.777   0.366   4.364
 8877SOL     OW27529   3.050   6.699   4.455
 8877SOL    HW127530   2.985   6.641   4.405
 8877SOL    HW227531   3.142   6.685   4.418
 8878SOL     OW27532   5.403   4.886   5.525
 8878SOL    HW127533   5.352   4.841   5.452
 8878SOL    HW227534   5.343   4.949   5.575
 8879SOL     OW27535   4.917   5.585   4.441
 8879SOL    HW127536   4.905   5.646   4.519
 8879SOL    HW227537   4.994   5.524   4.458
 8880SOL     OW27538   0.062   6.209   5.261
 8880SOL    HW127539   0.153   6.168   5.256
 8880SOL    HW227540   0.007   6.159   5.328
 8881SOL     OW27541   6.562   1.371   1.570
 8881SOL    HW127542   6.599   1.461   1.595
 8881SOL    HW227543   6.637   1.309   1.547
 8882SOL     OW27544   5.370   2.726   0.349
 8882SOL    HW127545   5.373   2.635   0.308
 8882SOL    HW227546   5.461   2.754   0.377
 8883SOL     OW27547   6.569   1.666   5.362
 8883SOL    HW127548   6.589   1.613   5.444
 8883SOL    HW227549   6.501   1.737   5.384
 8884SOL     OW27550   6.657   1.120   5.723
 8884SOL    HW127551   6.632   1.190   5.656
 8884SOL    HW227552   6.740   1.148   5.771
 8885SOL     OW27553   5.590   3.848   1.939
 8885SOL    HW127554   5.621   3.790   1.863
 8885SOL    HW227555   5.493   3.834   1.954
 8886SOL     OW27556   3.220   5.816   6.092
 8886SOL    HW127557   3.132   5.861   6.078
 8886SOL    HW227558   3.252   5.835   6.184
 8887SOL     OW27559   1.610   0.594   1.030
 8887SOL    HW127560   1.638   0.576   1.124
 8887SOL    HW227561   1.510   0.585   1.023
 8888SOL     OW27562   3.118   2.158   2.732
 8888SOL    HW127563   3.217   2.159   2.738
 8888SOL    HW227564   3.081   2.088   2.794
 8889SOL     OW27565   3.567   0.203   4.572
 8889SOL    HW127566   3.473   0.201   4.540
 8889SOL    HW227567   3.579   0.275   4.639
 8890SOL     OW27568   0.381   3.893   3.296
 8890SOL    HW127569   0.437   3.881   3.214
 8890SOL    HW227570   0.429   3.954   3.360
 8891SOL     OW27571   2.789   1.723   5.957
 8891SOL    HW127572   2.694   1.709   5.985
 8891SOL    HW227573   2.842   1.642   5.979
 8892SOL     OW27574   0.975   6.651   2.582
 8892SOL    HW127575   1.062   6.690   2.614
 8892SOL    HW227576   0.903   6.671   2.649
 8893SOL     OW27577   0.356   0.665   0.061
 8893SOL    HW127578   0.338   0.570   0.089
 8893SOL    HW227579   0.339   0.674   6.987
 8894SOL     OW27580   4.140   2.900   6.325
 8894SOL    HW127581   4.183   2.816   6.291
 8894SOL    HW227582   4.058   2.877   6.377
 8895SOL     OW27583   1.925   0.729   2.467
 8895SOL    HW127584   1.852   0.742   2.400
 8895SOL    HW227585   1.919   0.801   2.536
 8896SOL     OW27586   2.024   4.307   4.927
 8896SOL    HW127587   2.010   4.364   5.008
 8896SOL    HW227588   2.014   4.211   4.952
 8897SOL     OW27589   1.349   2.577   0.985
 8897SOL    HW127590   1.380   2.504   1.046
 8897SOL    HW227591   1.429   2.623   0.945
 8898SOL     OW27592   6.827   3.020   5.024
 8898SOL    HW127593   6.913   3.038   4.977
 8898SOL    HW227594   6.844   3.000   5.120
 8899SOL     OW27595   3.387   5.131   1.402
 8899SOL    HW127596   3.355   5.045   1.362
 8899SOL    HW227597   3.434   5.185   1.333
 8900SOL     OW27598   0.251   1.334   3.627
 8900SOL    HW127599   0.295   1.305   3.542
 8900SOL    HW227600   0.279   1.273   3.701
 8901SOL     OW27601   1.778   6.378   1.807
 8901SOL    HW127602   1.836   6.299   1.790
 8901SOL    HW227603   1.733   6.368   1.895
 8902SOL     OW27604   3.190   5.934   5.121
 8902SOL    HW127605   3.128   5.992   5.174
 8902SOL    HW227606   3.137   5.864   5.073
 8903SOL     OW27607   0.540   0.518   2.607
 8903SOL    HW127608   0.526   0.431   2.655
 8903SOL    HW227609   0.558   0.590   2.674
 8904SOL     OW27610   1.523   4.832   3.175
 8904SOL    HW127611   1.512   4.897   3.250
 8904SOL    HW227612   1.620   4.827   3.149
 8905SOL     OW27613   2.288   4.245   4.855
 8905SOL    HW127614   2.191   4.261   4.872
 8905SOL    HW227615   2.313   4.154   4.889
 8906SOL     OW27616   1.642   5.005   4.437
 8906SOL    HW127617   1.716   4.963   4.490
 8906SOL    HW227618   1.570   5.036   4.498
 8907SOL     OW27619   3.991   2.705   6.507
 8907SOL    HW127620   3.951   2.788   6.545
 8907SOL    HW227621   4.083   2.693   6.544
 8908SOL     OW27622   0.608   2.496   2.208
 8908SOL    HW127623   0.679   2.565   2.192
 8908SOL    HW227624   0.535   2.536   2.263
 8909SOL     OW27625   3.398   0.354   5.651
 8909SOL    HW127626   3.329   0.283   5.638
 8909SOL    HW227627   3.469   0.344   5.582
 8910SOL     OW27628   3.868   2.836   6.860
 8910SOL    HW127629   3.779   2.802   6.891
 8910SOL    HW227630   3.938   2.766   6.878
 8911SOL     OW27631   4.508   1.998   3.862
 8911SOL    HW127632   4.434   2.038   3.809
 8911SOL    HW227633   4.583   2.064   3.869
 8912SOL     OW27634   5.329   1.815   6.713
 8912SOL    HW127635   5.297   1.888   6.774
 8912SOL    HW227636   5.324   1.846   6.619
 8913SOL     OW27637   4.120   4.460   1.335
 8913SOL    HW127638   4.139   4.392   1.264
 8913SOL    HW227639   4.052   4.525   1.302
 8914SOL     OW27640   5.001   1.979   3.570
 8914SOL    HW127641   5.005   1.933   3.658
 8914SOL    HW227642   4.948   1.923   3.505
 8915SOL     OW27643   1.047   5.727   2.379
 8915SOL    HW127644   1.142   5.698   2.389
 8915SOL    HW227645   0.990   5.647   2.361
 8916SOL     OW27646   6.037   3.417   2.204
 8916SOL    HW127647   6.092   3.443   2.284
 8916SOL    HW227648   6.056   3.479   2.129
 8917SOL     OW27649   5.463   5.330   5.134
 8917SOL    HW127650   5.432   5.378   5.053
 8917SOL    HW227651   5.474   5.394   5.210
 8918SOL     OW27652   4.772   4.161   6.135
 8918SOL    HW127653   4.773   4.092   6.062
 8918SOL    HW227654   4.828   4.239   6.108
 8919SOL     OW27655   2.575   3.330   1.488
 8919SOL    HW127656   2.675   3.324   1.495
 8919SOL    HW227657   2.550   3.394   1.415
 8920SOL     OW27658   6.979   5.248   5.601
 8920SOL    HW127659   6.936   5.168   5.643
 8920SOL    HW227660   6.993   5.231   5.504
 8921SOL     OW27661   1.421   5.546   3.805
 8921SOL    HW127662   1.331   5.589   3.803
 8921SOL    HW227663   1.416   5.455   3.763
 8922SOL     OW27664   6.547   4.039   6.735
 8922SOL    HW127665   6.568   4.119   6.792
 8922SOL    HW227666   6.627   3.978   6.735
 8923SOL     OW27667   2.317   4.235   4.200
 8923SOL    HW127668   2.339   4.287   4.282
 8923SOL    HW227669   2.270   4.151   4.226
 8924SOL     OW27670   2.407   5.500   5.170
 8924SOL    HW127671   2.422   5.557   5.251
 8924SOL    HW227672   2.311   5.506   5.143
 8925SOL     OW27673   4.670   6.001   1.592
 8925SOL    HW127674   4.624   5.997   1.680
 8925SOL    HW227675   4.694   5.908   1.562
 8926SOL     OW27676   5.210   0.693   6.855
 8926SOL    HW127677   5.142   0.678   6.783
 8926SOL    HW227678   5.300   0.666   6.822
 8927SOL     OW27679   2.694   1.505   4.403
 8927SOL    HW127680   2.742   1.533   4.320
 8927SOL    HW227681   2.615   1.565   4.418
 8928SOL     OW27682   0.663   0.323   4.410
 8928SOL    HW127683   0.613   0.324   4.324
 8928SOL    HW227684   0.601   0.299   4.485
 8929SOL     OW27685   5.220   4.549   3.749
 8929SOL    HW127686   5.224   4.633   3.696
 8929SOL    HW227687   5.256   4.473   3.695
 8930SOL     OW27688   0.742   4.994   5.431
 8930SOL    HW127689   0.837   5.021   5.447
 8930SOL    HW227690   0.706   4.949   5.513
 8931SOL     OW27691   4.956   1.107   1.628
 8931SOL    HW127692   4.976   1.175   1.698
 8931SOL    HW227693   5.010   1.024   1.646
 8932SOL     OW27694   5.977   0.693   0.016
 8932SOL    HW127695   6.061   0.745   0.028
 8932SOL    HW227696   5.966   0.668   6.943
 8933SOL     OW27697   1.115   0.412   5.472
 8933SOL    HW127698   1.126   0.511   5.458
 8933SOL    HW227699   1.025   0.394   5.511
 8934SOL     OW27700   4.288   6.950   3.395
 8934SOL    HW127701   4.386   6.944   3.380
 8934SOL    HW227702   4.239   6.900   3.323
 8935SOL     OW27703   5.604   1.605   2.677
 8935SOL    HW127704   5.552   1.577   2.758
 8935SOL    HW227705   5.680   1.664   2.705
 8936SOL     OW27706   1.818   3.868   2.853
 8936SOL    HW127707   1.736   3.925   2.858
 8936SOL    HW227708   1.870   3.891   2.770
 8937SOL     OW27709   4.544   0.256   5.179
 8937SOL    HW127710   4.468   0.317   5.155
 8937SOL    HW227711   4.510   0.183   5.238
 8938SOL     OW27712   5.875   6.544   1.190
 8938SOL    HW127713   5.878   6.447   1.215
 8938SOL    HW227714   5.780   6.571   1.175
 8939SOL     OW27715   0.821   3.006   4.451
 8939SOL    HW127716   0.734   2.956   4.454
 8939SOL    HW227717   0.816   3.085   4.513
 8940SOL     OW27718   6.466   3.358   2.008
 8940SOL    HW127719   6.495   3.292   2.077
 8940SOL    HW227720   6.370   3.342   1.984
 8941SOL     OW27721   5.680   2.106   3.279
 8941SOL    HW127722   5.609   2.164   3.238
 8941SOL    HW227723   5.679   2.016   3.236
 8942SOL     OW27724   4.894   4.373   3.673
 8942SOL    HW127725   4.933   4.432   3.602
 8942SOL    HW227726   4.909   4.415   3.763
 8943SOL     OW27727   4.503   2.794   0.530
 8943SOL    HW127728   4.410   2.813   0.498
 8943SOL    HW227729   4.564   2.866   0.497
 8944SOL     OW27730   4.076   5.623   5.526
 8944SOL    HW127731   4.012   5.546   5.531
 8944SOL    HW227732   4.060   5.684   5.604
 8945SOL     OW27733   6.537   4.227   2.310
 8945SOL    HW127734   6.561   4.310   2.260
 8945SOL    HW227735   6.535   4.150   2.247
 8946SOL     OW27736   4.130   1.712   4.811
 8946SOL    HW127737   4.067   1.787   4.831
 8946SOL    HW227738   4.081   1.640   4.762
 8947SOL     OW27739   2.005   4.635   0.753
 8947SOL    HW127740   2.061   4.572   0.698
 8947SOL    HW227741   1.923   4.587   0.784
 8948SOL     OW27742   5.452   0.509   3.098
 8948SOL    HW127743   5.512   0.585   3.122
 8948SOL    HW227744   5.508   0.429   3.073
 8949SOL     OW27745   3.312   6.282   0.928
 8949SOL    HW127746   3.289   6.222   0.851
 8949SOL    HW227747   3.393   6.248   0.974
 8950SOL     OW27748   3.037   3.934   2.718
 8950SOL    HW127749   3.050   3.836   2.735
 8950SOL    HW227750   3.018   3.949   2.621
 8951SOL     OW27751   0.781   0.966   4.241
 8951SOL    HW127752   0.837   0.944   4.321
 8951SOL    HW227753   0.704   1.024   4.269
 8952SOL     OW27754   1.781   4.393   4.536
 8952SOL    HW127755   1.687   4.380   4.505
 8952SOL    HW227756   1.814   4.483   4.508
 8953SOL     OW27757   0.550   5.175   1.485
 8953SOL    HW127758   0.596   5.202   1.401
 8953SOL    HW227759   0.615   5.128   1.545
 8954SOL     OW27760   2.165   4.009   5.433
 8954SOL    HW127761   2.255   4.050   5.418
 8954SOL    HW227762   2.112   4.069   5.493
 8955SOL     OW27763   5.797   2.895   5.383
 8955SOL    HW127764   5.886   2.921   5.346
 8955SOL    HW227765   5.727   2.957   5.349
 8956SOL     OW27766   0.612   6.044   0.897
 8956SOL    HW127767   0.652   6.048   0.989
 8956SOL    HW227768   0.558   5.961   0.888
 8957SOL     OW27769   1.178   6.799   2.659
 8957SOL    HW127770   1.208   6.840   2.573
 8957SOL    HW227771   1.251   6.805   2.727
 8958SOL     OW27772   0.324   4.081   4.536
 8958SOL    HW127773   0.285   4.035   4.456
 8958SOL    HW227774   0.254   4.135   4.582
 8959SOL     OW27775   5.634   2.297   4.178
 8959SOL    HW127776   5.657   2.274   4.272
 8959SOL    HW227777   5.535   2.303   4.167
 8960SOL     OW27778   5.417   4.989   2.950
 8960SOL    HW127779   5.455   5.001   2.858
 8960SOL    HW227780   5.331   5.040   2.956
 8961SOL     OW27781   2.784   1.549   4.997
 8961SOL    HW127782   2.829   1.582   5.080
 8961SOL    HW227783   2.695   1.511   5.020
 8962SOL     OW27784   6.623   5.870   2.263
 8962SOL    HW127785   6.603   5.966   2.280
 8962SOL    HW227786   6.615   5.851   2.166
 8963SOL     OW27787   2.538   6.158   5.813
 8963SOL    HW127788   2.483   6.237   5.784
 8963SOL    HW227789   2.633   6.173   5.788
 8964SOL     OW27790   1.910   3.046   3.369
 8964SOL    HW127791   1.921   3.105   3.288
 8964SOL    HW227792   1.879   3.102   3.446
 8965SOL     OW27793   4.235   5.942   0.607
 8965SOL    HW127794   4.306   6.012   0.613
 8965SOL    HW227795   4.145   5.986   0.602
 8966SOL     OW27796   5.019   6.594   5.509
 8966SOL    HW127797   4.924   6.570   5.530
 8966SOL    HW227798   5.020   6.677   5.453
 8967SOL     OW27799   2.507   0.379   2.815
 8967SOL    HW127800   2.550   0.310   2.873
 8967SOL    HW227801   2.444   0.434   2.871
 8968SOL     OW27802   3.628   4.942   2.553
 8968SOL    HW127803   3.624   4.912   2.648
 8968SOL    HW227804   3.535   4.958   2.519
 8969SOL     OW27805   6.565   1.204   2.888
 8969SOL    HW127806   6.513   1.144   2.949
 8969SOL    HW227807   6.659   1.171   2.880
 8970SOL     OW27808   2.171   0.799   3.300
 8970SOL    HW127809   2.078   0.836   3.288
 8970SOL    HW227810   2.237   0.874   3.295
 8971SOL     OW27811   3.222   3.975   0.888
 8971SOL    HW127812   3.223   3.971   0.988
 8971SOL    HW227813   3.129   3.997   0.857
 8972SOL     OW27814   5.354   4.189   6.733
 8972SOL    HW127815   5.277   4.151   6.681
 8972SOL    HW227816   5.409   4.115   6.770
 8973SOL     OW27817   2.646   1.948   2.931
 8973SOL    HW127818   2.614   1.858   2.902
 8973SOL    HW227819   2.732   1.969   2.884
 8974SOL     OW27820   1.986   4.079   4.431
 8974SOL    HW127821   1.968   4.140   4.354
 8974SOL    HW227822   1.956   4.122   4.516
 8975SOL     OW27823   6.677   3.953   6.107
 8975SOL    HW127824   6.619   3.872   6.094
 8975SOL    HW227825   6.729   3.970   6.024
 8976SOL     OW27826   5.738   0.364   1.481
 8976SOL    HW127827   5.829   0.401   1.501
 8976SOL    HW227828   5.714   0.296   1.550
 8977SOL     OW27829   7.008   4.607   6.383
 8977SOL    HW127830   6.949   4.685   6.405
 8977SOL    HW227831   6.954   4.523   6.380
 8978SOL     OW27832   6.277   5.286   5.536
 8978SOL    HW127833   6.357   5.346   5.539
 8978SOL    HW227834   6.272   5.232   5.620
 8979SOL     OW27835   1.660   5.308   3.612
 8979SOL    HW127836   1.613   5.387   3.573
 8979SOL    HW227837   1.758   5.326   3.617
 8980SOL     OW27838   3.993   0.857   0.610
 8980SOL    HW127839   3.985   0.820   0.703
 8980SOL    HW227840   3.901   0.870   0.572
 8981SOL     OW27841   3.991   2.164   6.868
 8981SOL    HW127842   3.904   2.121   6.847
 8981SOL    HW227843   3.977   2.263   6.881
 8982SOL     OW27844   6.747   1.504   1.748
 8982SOL    HW127845   6.705   1.483   1.836
 8982SOL    HW227846   6.846   1.496   1.755
 8983SOL     OW27847   1.374   6.894   2.490
 8983SOL    HW127848   1.401   6.975   2.543
 8983SOL    HW227849   1.449   6.866   2.430
 8984SOL     OW27850   0.049   2.031   4.672
 8984SOL    HW127851   0.031   2.051   4.576
 8984SOL    HW227852   6.989   2.038   4.725
 8985SOL     OW27853   4.398   1.300   1.977
 8985SOL    HW127854   4.463   1.355   2.030
 8985SOL    HW227855   4.329   1.359   1.936
 8986SOL     OW27856   6.818   6.161   0.188
 8986SOL    HW127857   6.823   6.075   0.240
 8986SOL    HW227858   6.817   6.238   0.252
 8987SOL     OW27859   2.150   6.539   1.936
 8987SOL    HW127860   2.211   6.554   2.013
 8987SOL    HW227861   2.168   6.607   1.865
 8988SOL     OW27862   2.593   0.103   1.152
 8988SOL    HW127863   2.535   0.089   1.232
 8988SOL    HW227864   2.545   0.070   1.070
 8989SOL     OW27865   6.105   1.093   2.515
 8989SOL    HW127866   6.064   1.182   2.534
 8989SOL    HW227867   6.036   1.022   2.531
 8990SOL     OW27868   3.396   1.296   3.059
 8990SOL    HW127869   3.359   1.382   3.023
 8990SOL    HW227870   3.436   1.243   2.984
 8991SOL     OW27871   1.482   2.521   0.551
 8991SOL    HW127872   1.413   2.470   0.603
 8991SOL    HW227873   1.564   2.464   0.541
 8992SOL     OW27874   6.700   4.369   6.196
 8992SOL    HW127875   6.611   4.324   6.186
 8992SOL    HW227876   6.693   4.443   6.263
 8993SOL     OW27877   5.235   4.178   3.733
 8993SOL    HW127878   5.264   4.154   3.641
 8993SOL    HW227879   5.312   4.219   3.783
 8994SOL     OW27880   1.085   6.545   3.014
 8994SOL    HW127881   1.164   6.526   3.072
 8994SOL    HW227882   1.007   6.567   3.071
 8995SOL     OW27883   2.168   3.941   3.804
 8995SOL    HW127884   2.151   3.920   3.900
 8995SOL    HW227885   2.242   4.008   3.797
 8996SOL     OW27886   2.300   3.535   1.310
 8996SOL    HW127887   2.256   3.600   1.247
 8996SOL    HW227888   2.396   3.559   1.321
 8997SOL     OW27889   4.340   0.814   5.062
 8997SOL    HW127890   4.373   0.730   5.018
 8997SOL    HW227891   4.418   0.868   5.094
 8998SOL     OW27892   1.026   1.557   6.217
 8998SOL    HW127893   1.061   1.487   6.279
 8998SOL    HW227894   1.026   1.646   6.264
 8999SOL     OW27895   5.355   2.823   5.809
 8999SOL    HW127896   5.307   2.907   5.783
 8999SOL    HW227897   5.317   2.746   5.758
 9000SOL     OW27898   3.492   4.830   1.027
 9000SOL    HW127899   3.567   4.766   1.011
 9000SOL    HW227900   3.527   4.923   1.026
 9001SOL     OW27901   1.796   4.831   3.130
 9001SOL    HW127902   1.814   4.824   3.032
 9001SOL    HW227903   1.848   4.908   3.168
 9002SOL     OW27904   5.255   3.883   5.495
 9002SOL    HW127905   5.263   3.850   5.401
 9002SOL    HW227906   5.317   3.831   5.554
 9003SOL     OW27907   6.434   3.314   6.734
 9003SOL    HW127908   6.524   3.322   6.692
 9003SOL    HW227909   6.442   3.331   6.832
 9004SOL     OW27910   4.709   5.668   1.181
 9004SOL    HW127911   4.702   5.589   1.241
 9004SOL    HW227912   4.732   5.749   1.234
 9005SOL     OW27913   5.273   2.992   3.800
 9005SOL    HW127914   5.193   3.050   3.814
 9005SOL    HW227915   5.268   2.950   3.709
 9006SOL     OW27916   1.994   6.846   0.970
 9006SOL    HW127917   1.996   6.746   0.960
 9006SOL    HW227918   2.063   6.874   1.037
 9007SOL     OW27919   1.808   5.894   5.028
 9007SOL    HW127920   1.711   5.869   5.025
 9007SOL    HW227921   1.823   5.977   4.974
 9008SOL     OW27922   0.398   4.506   2.451
 9008SOL    HW127923   0.319   4.547   2.496
 9008SOL    HW227924   0.367   4.446   2.377
 9009SOL     OW27925   3.738   5.819   0.251
 9009SOL    HW127926   3.651   5.863   0.275
 9009SOL    HW227927   3.791   5.803   0.335
 9010SOL     OW27928   6.989   5.285   4.718
 9010SOL    HW127929   0.025   5.205   4.706
 9010SOL    HW227930   0.005   5.364   4.672
 9011SOL     OW27931   4.404   2.418   2.471
 9011SOL    HW127932   4.465   2.454   2.540
 9011SOL    HW227933   4.312   2.410   2.508
 9012SOL     OW27934   5.449   5.039   2.674
 9012SOL    HW127935   5.402   5.127   2.683
 9012SOL    HW227936   5.526   5.049   2.612
 9013SOL     OW27937   4.527   6.178   2.731
 9013SOL    HW127938   4.458   6.247   2.707
 9013SOL    HW227939   4.615   6.223   2.748
 9014SOL     OW27940   1.982   0.375   1.333
 9014SOL    HW127941   1.971   0.415   1.424
 9014SOL    HW227942   1.987   0.447   1.265
 9015SOL     OW27943   5.994   1.466   5.135
 9015SOL    HW127944   5.945   1.393   5.087
 9015SOL    HW227945   5.927   1.532   5.171
 9016SOL     OW27946   6.860   5.607   6.588
 9016SOL    HW127947   6.824   5.528   6.637
 9016SOL    HW227948   6.933   5.579   6.526
 9017SOL     OW27949   0.014   3.530   2.836
 9017SOL    HW127950   0.023   3.543   2.737
 9017SOL    HW227951   0.082   3.587   2.883
 9018SOL     OW27952   4.582   1.993   6.217
 9018SOL    HW127953   4.612   1.971   6.310
 9018SOL    HW227954   4.484   2.012   6.217
 9019SOL     OW27955   1.727   5.194   0.084
 9019SOL    HW127956   1.820   5.221   0.060
 9019SOL    HW227957   1.726   5.153   0.175
 9020SOL     OW27958   0.850   4.997   3.800
 9020SOL    HW127959   0.879   5.072   3.741
 9020SOL    HW227960   0.886   4.910   3.764
 9021SOL     OW27961   5.593   5.321   5.542
 9021SOL    HW127962   5.653   5.332   5.621
 9021SOL    HW227963   5.501   5.298   5.574
 9022SOL     OW27964   2.885   6.780   6.937
 9022SOL    HW127965   2.852   6.867   6.902
 9022SOL    HW227966   2.924   6.726   6.862
 9023SOL     OW27967   3.245   3.167   3.731
 9023SOL    HW127968   3.271   3.079   3.772
 9023SOL    HW227969   3.192   3.150   3.648
 9024SOL     OW27970   1.280   0.462   6.510
 9024SOL    HW127971   1.372   0.442   6.542
 9024SOL    HW227972   1.219   0.387   6.536
 9025SOL     OW27973   0.243   3.662   6.989
 9025SOL    HW127974   0.336   3.645   6.958
 9025SOL    HW227975   0.242   3.676   0.064
 9026SOL     OW27976   2.847   3.311   5.565
 9026SOL    HW127977   2.803   3.388   5.611
 9026SOL    HW227978   2.922   3.276   5.621
 9027SOL     OW27979   2.366   2.748   2.600
 9027SOL    HW127980   2.394   2.701   2.517
 9027SOL    HW227981   2.406   2.702   2.679
 9028SOL     OW27982   2.741   4.697   4.429
 9028SOL    HW127983   2.831   4.719   4.390
 9028SOL    HW227984   2.733   4.598   4.440
 9029SOL     OW27985   5.786   5.436   2.311
 9029SOL    HW127986   5.804   5.346   2.272
 9029SOL    HW227987   5.705   5.476   2.268
 9030SOL     OW27988   3.925   2.085   2.070
 9030SOL    HW127989   3.837   2.126   2.045
 9030SOL    HW227990   3.992   2.157   2.085
 9031SOL     OW27991   1.991   1.420   1.141
 9031SOL    HW127992   2.078   1.425   1.190
 9031SOL    HW227993   1.954   1.327   1.146
 9032SOL     OW27994   0.530   2.914   1.660
 9032SOL    HW127995   0.567   2.954   1.576
 9032SOL    HW227996   0.604   2.901   1.725
 9033SOL     OW27997   1.226   3.999   2.328
 9033SOL    HW127998   1.289   3.965   2.399
 9033SOL    HW227999   1.270   4.075   2.280
 9034SOL     OW28000   1.925   6.755   6.750
 9034SOL    HW128001   1.942   6.784   6.656
 9034SOL    HW228002   1.841   6.701   6.753
 9035SOL     OW28003   6.931   1.045   4.671
 9035SOL    HW128004   6.921   0.946   4.669
 9035SOL    HW228005   7.006   1.070   4.733
 9036SOL     OW28006   0.958   1.352   4.124
 9036SOL    HW128007   0.930   1.444   4.150
 9036SOL    HW228008   0.881   1.289   4.136
 9037SOL     OW28009   2.750   3.845   6.096
 9037SOL    HW128010   2.664   3.871   6.051
 9037SOL    HW228011   2.806   3.793   6.032
 9038SOL     OW28012   4.442   5.334   5.452
 9038SOL    HW128013   4.370   5.267   5.433
 9038SOL    HW228014   4.410   5.425   5.423
 9039SOL     OW28015   2.448   4.350   6.619
 9039SOL    HW128016   2.406   4.303   6.541
 9039SOL    HW228017   2.526   4.297   6.651
 9040SOL     OW28018   2.507   2.197   1.928
 9040SOL    HW128019   2.584   2.134   1.929
 9040SOL    HW228020   2.535   2.284   1.888
 9041SOL     OW28021   1.841   2.830   5.967
 9041SOL    HW128022   1.855   2.928   5.950
 9041SOL    HW228023   1.895   2.802   6.047
 9042SOL     OW28024   1.693   5.186   3.069
 9042SOL    HW128025   1.767   5.144   3.016
 9042SOL    HW228026   1.605   5.149   3.040
 9043SOL     OW28027   0.088   2.380   7.010
 9043SOL    HW128028   0.142   2.430   6.942
 9043SOL    HW228029   0.002   2.429   0.003
 9044SOL     OW28030   0.253   4.143   0.121
 9044SOL    HW128031   0.336   4.197   0.136
 9044SOL    HW228032   0.265   4.052   0.162
 9045SOL     OW28033   2.318   4.875   4.094
 9045SOL    HW128034   2.368   4.942   4.038
 9045SOL    HW228035   2.298   4.914   4.183
 9046SOL     OW28036   3.624   4.484   6.340
 9046SOL    HW128037   3.719   4.515   6.350
 9046SOL    HW228038   3.565   4.538   6.399
 9047SOL     OW28039   1.014   4.333   4.628
 9047SOL    HW128040   1.059   4.358   4.542
 9047SOL    HW228041   0.919   4.309   4.610
 9048SOL     OW28042   1.660   1.758   5.436
 9048SOL    HW128043   1.697   1.789   5.523
 9048SOL    HW228044   1.701   1.670   5.412
 9049SOL     OW28045   5.033   6.486   6.426
 9049SOL    HW128046   5.115   6.428   6.427
 9049SOL    HW228047   5.006   6.506   6.520
 9050SOL     OW28048   0.088   5.492   5.534
 9050SOL    HW128049   0.162   5.491   5.601
 9050SOL    HW228050   0.020   5.423   5.557
 9051SOL     OW28051   5.361   6.567   6.298
 9051SOL    HW128052   5.321   6.626   6.229
 9051SOL    HW228053   5.370   6.474   6.262
 9052SOL     OW28054   2.877   4.832   4.815
 9052SOL    HW128055   2.882   4.893   4.894
 9052SOL    HW228056   2.857   4.739   4.845
 9053SOL     OW28057   2.490   1.320   2.435
 9053SOL    HW128058   2.556   1.382   2.476
 9053SOL    HW228059   2.531   1.230   2.424
 9054SOL     OW28060   1.875   6.968   1.261
 9054SOL    HW128061   1.974   6.958   1.249
 9054SOL    HW228062   1.838   6.884   1.302
 9055SOL     OW28063   0.831   2.663   4.485
 9055SOL    HW128064   0.898   2.644   4.413
 9055SOL    HW228065   0.863   2.740   4.540
 9056SOL     OW28066   4.848   2.665   2.251
 9056SOL    HW128067   4.866   2.763   2.255
 9056SOL    HW228068   4.843   2.636   2.155
 9057SOL     OW28069   3.815   6.374   0.171
 9057SOL    HW128070   3.851   6.448   0.115
 9057SOL    HW228071   3.798   6.407   0.264
 9058SOL     OW28072   2.468   2.251   4.568
 9058SOL    HW128073   2.382   2.261   4.618
 9058SOL    HW228074   2.542   2.230   4.633
 9059SOL     OW28075   0.006   1.545   1.977
 9059SOL    HW128076   6.997   1.457   2.012
 9059SOL    HW228077   0.086   1.573   2.028
 9060SOL     OW28078   0.347   5.116   1.144
 9060SOL    HW128079   0.421   5.054   1.165
 9060SOL    HW228080   0.296   5.138   1.227
 9061SOL     OW28081   4.988   3.749   1.924
 9061SOL    HW128082   4.997   3.769   2.021
 9061SOL    HW228083   4.931   3.667   1.912
 9062SOL     OW28084   1.075   5.802   3.036
 9062SOL    HW128085   1.091   5.831   3.131
 9062SOL    HW228086   0.992   5.844   3.002
 9063SOL     OW28087   4.877   1.116   1.107
 9063SOL    HW128088   4.931   1.034   1.126
 9063SOL    HW228089   4.865   1.168   1.192
 9064SOL     OW28090   1.364   5.471   3.232
 9064SOL    HW128091   1.271   5.468   3.269
 9064SOL    HW228092   1.381   5.561   3.192
 9065SOL     OW28093   3.756   4.336   6.928
 9065SOL    HW128094   3.695   4.259   6.913
 9065SOL    HW228095   3.745   4.403   6.855
 9066SOL     OW28096   4.609   4.898   4.017
 9066SOL    HW128097   4.684   4.963   4.017
 9066SOL    HW228098   4.576   4.884   3.923
 9067SOL     OW28099   2.305   6.672   4.535
 9067SOL    HW128100   2.228   6.613   4.559
 9067SOL    HW228101   2.349   6.705   4.619
 9068SOL     OW28102   4.454   6.906   6.254
 9068SOL    HW128103   4.357   6.879   6.257
 9068SOL    HW228104   4.463   7.001   6.281
 9069SOL     OW28105   5.284   2.619   2.333
 9069SOL    HW128106   5.277   2.606   2.234
 9069SOL    HW228107   5.378   2.605   2.362
 9070SOL     OW28108   1.576   0.741   5.759
 9070SOL    HW128109   1.662   0.744   5.707
 9070SOL    HW228110   1.544   0.646   5.765
 9071SOL     OW28111   5.181   2.469   6.627
 9071SOL    HW128112   5.134   2.438   6.710
 9071SOL    HW228113   5.136   2.551   6.592
 9072SOL     OW28114   5.725   6.885   1.896
 9072SOL    HW128115   5.795   6.920   1.834
 9072SOL    HW228116   5.746   6.915   1.989
 9073SOL     OW28117   4.406   3.131   5.433
 9073SOL    HW128118   4.367   3.202   5.374
 9073SOL    HW228119   4.493   3.163   5.470
 9074SOL     OW28120   1.651   0.563   3.029
 9074SOL    HW128121   1.568   0.544   2.977
 9074SOL    HW228122   1.675   0.660   3.019
 9075SOL     OW28123   5.277   5.837   0.586
 9075SOL    HW128124   5.181   5.809   0.580
 9075SOL    HW228125   5.291   5.922   0.535
 9076SOL     OW28126   0.590   6.330   2.579
 9076SOL    HW128127   0.597   6.429   2.588
 9076SOL    HW228128   0.681   6.289   2.591
 9077SOL     OW28129   6.147   1.997   6.694
 9077SOL    HW128130   6.194   1.921   6.649
 9077SOL    HW228131   6.198   2.082   6.678
 9078SOL     OW28132   5.100   6.816   0.334
 9078SOL    HW128133   5.136   6.902   0.370
 9078SOL    HW228134   5.175   6.763   0.294
 9079SOL     OW28135   1.372   1.520   5.713
 9079SOL    HW128136   1.378   1.544   5.616
 9079SOL    HW228137   1.457   1.477   5.742
 9080SOL     OW28138   6.234   3.999   2.582
 9080SOL    HW128139   6.239   4.076   2.518
 9080SOL    HW228140   6.264   3.915   2.536
 9081SOL     OW28141   5.192   1.679   0.802
 9081SOL    HW128142   5.176   1.581   0.789
 9081SOL    HW228143   5.105   1.727   0.811
 9082SOL     OW28144   3.491   5.216   6.404
 9082SOL    HW128145   3.438   5.141   6.444
 9082SOL    HW228146   3.559   5.179   6.341
 9083SOL     OW28147   3.507   0.154   0.552
 9083SOL    HW128148   3.439   0.132   0.482
 9083SOL    HW228149   3.575   0.216   0.514
 9084SOL     OW28150   6.848   3.979   4.793
 9084SOL    HW128151   6.829   3.912   4.722
 9084SOL    HW228152   6.947   3.987   4.805
 9085SOL     OW28153   3.102   4.813   0.530
 9085SOL    HW128154   3.021   4.848   0.577
 9085SOL    HW228155   3.161   4.765   0.596
 9086SOL     OW28156   0.095   3.055   0.360
 9086SOL    HW128157   0.155   3.095   0.429
 9086SOL    HW228158   0.109   2.956   0.357
 9087SOL     OW28159   5.207   1.748   1.807
 9087SOL    HW128160   5.111   1.723   1.797
 9087SOL    HW228161   5.259   1.668   1.838
 9088SOL     OW28162   6.142   5.560   0.032
 9088SOL    HW128163   6.169   5.628   6.988
 9088SOL    HW228164   6.051   5.525   0.010
 9089SOL     OW28165   5.274   5.556   3.562
 9089SOL    HW128166   5.361   5.524   3.600
 9089SOL    HW228167   5.291   5.637   3.506
 9090SOL     OW28168   5.016   6.100   6.120
 9090SOL    HW128169   5.054   6.124   6.210
 9090SOL    HW228170   4.959   6.018   6.129
 9091SOL     OW28171   2.773   2.094   1.982
 9091SOL    HW128172   2.827   2.173   2.011
 9091SOL    HW228173   2.816   2.010   2.015
 9092SOL     OW28174   2.250   1.466   4.991
 9092SOL    HW128175   2.257   1.564   5.012
 9092SOL    HW228176   2.157   1.445   4.961
 9093SOL     OW28177   2.271   3.367   1.057
 9093SOL    HW128178   2.338   3.312   1.008
 9093SOL    HW228179   2.315   3.414   1.133
 9094SOL     OW28180   6.342   3.882   0.843
 9094SOL    HW128181   6.349   3.791   0.803
 9094SOL    HW228182   6.432   3.910   0.879
 9095SOL     OW28183   2.140   2.944   0.108
 9095SOL    HW128184   2.145   2.897   0.196
 9095SOL    HW228185   2.065   2.906   0.053
 9096SOL     OW28186   6.193   3.386   3.279
 9096SOL    HW128187   6.137   3.409   3.358
 9096SOL    HW228188   6.290   3.398   3.302
 9097SOL     OW28189   6.482   5.884   6.149
 9097SOL    HW128190   6.532   5.937   6.080
 9097SOL    HW228191   6.544   5.822   6.195
 9098SOL     OW28192   3.518   4.148   4.647
 9098SOL    HW128193   3.500   4.052   4.666
 9098SOL    HW228194   3.466   4.205   4.710
 9099SOL     OW28195   1.863   1.962   0.157
 9099SOL    HW128196   1.776   1.967   0.208
 9099SOL    HW228197   1.904   2.053   0.152
 9100SOL     OW28198   1.342   2.798   0.013
 9100SOL    HW128199   1.428   2.776   0.058
 9100SOL    HW228200   1.358   2.865   6.964
 9101SOL     OW28201   2.122   1.744   6.798
 9101SOL    HW128202   2.064   1.776   6.873
 9101SOL    HW228203   2.163   1.823   6.752
 9102SOL     OW28204   5.771   6.316   2.507
 9102SOL    HW128205   5.731   6.274   2.588
 9102SOL    HW228206   5.716   6.394   2.479
 9103SOL     OW28207   0.698   4.465   6.503
 9103SOL    HW128208   0.639   4.422   6.435
 9103SOL    HW228209   0.783   4.412   6.511
 9104SOL     OW28210   5.160   0.054   2.557
 9104SOL    HW128211   5.171   6.999   2.618
 9104SOL    HW228212   5.166   0.023   2.462
 9105SOL     OW28213   2.805   1.197   5.615
 9105SOL    HW128214   2.812   1.282   5.668
 9105SOL    HW228215   2.771   1.124   5.673
 9106SOL     OW28216   6.501   4.868   1.772
 9106SOL    HW128217   6.544   4.957   1.784
 9106SOL    HW228218   6.409   4.870   1.810
 9107SOL     OW28219   4.817   0.337   0.576
 9107SOL    HW128220   4.799   0.405   0.505
 9107SOL    HW228221   4.740   0.335   0.640
 9108SOL     OW28222   4.222   6.071   6.871
 9108SOL    HW128223   4.198   6.167   6.881
 9108SOL    HW228224   4.321   6.063   6.858
 9109SOL     OW28225   3.099   1.263   4.482
 9109SOL    HW128226   3.137   1.176   4.451
 9109SOL    HW228227   3.154   1.297   4.558
 9110SOL     OW28228   1.524   2.737   2.889
 9110SOL    HW128229   1.480   2.766   2.974
 9110SOL    HW228230   1.540   2.817   2.831
 9111SOL     OW28231   4.269   4.134   1.736
 9111SOL    HW128232   4.265   4.036   1.716
 9111SOL    HW228233   4.341   4.151   1.803
 9112SOL     OW28234   0.928   5.238   1.708
 9112SOL    HW128235   0.840   5.197   1.685
 9112SOL    HW228236   0.917   5.295   1.790
 9113SOL     OW28237   3.067   6.064   0.086
 9113SOL    HW128238   2.979   6.064   0.038
 9113SOL    HW228239   3.107   6.155   0.083
 9114SOL     OW28240   2.856   4.215   1.529
 9114SOL    HW128241   2.762   4.204   1.562
 9114SOL    HW228242   2.874   4.312   1.511
 9115SOL     OW28243   1.859   4.203   4.206
 9115SOL    HW128244   1.833   4.158   4.121
 9115SOL    HW228245   1.932   4.269   4.188
 9116SOL     OW28246   2.230   1.373   5.635
 9116SOL    HW128247   2.265   1.446   5.576
 9116SOL    HW228248   2.157   1.410   5.693
 9117SOL     OW28249   6.848   2.952   6.744
 9117SOL    HW128250   6.867   2.889   6.819
 9117SOL    HW228251   6.868   2.906   6.657
 9118SOL     OW28252   6.972   5.322   1.565
 9118SOL    HW128253   0.021   5.274   1.613
 9118SOL    HW228254   6.985   5.421   1.573
 9119SOL     OW28255   6.027   6.969   0.881
 9119SOL    HW128256   6.055   0.035   0.848
 9119SOL    HW228257   6.003   6.911   0.803
 9120SOL     OW28258   5.756   1.072   6.291
 9120SOL    HW128259   5.792   1.158   6.256
 9120SOL    HW228260   5.801   1.050   6.378
 9121SOL     OW28261   1.677   1.225   7.012
 9121SOL    HW128262   1.651   1.154   6.946
 9121SOL    HW228263   1.697   1.310   6.964
 9122SOL     OW28264   0.675   2.651   0.665
 9122SOL    HW128265   0.600   2.716   0.652
 9122SOL    HW228266   0.664   2.605   0.753
 9123SOL     OW28267   2.862   6.088   6.890
 9123SOL    HW128268   2.765   6.111   6.895
 9123SOL    HW228269   2.902   6.128   6.807
 9124SOL     OW28270   5.989   4.721   5.956
 9124SOL    HW128271   5.950   4.770   5.879
 9124SOL    HW228272   5.996   4.624   5.934
 9125SOL     OW28273   4.882   5.935   2.157
 9125SOL    HW128274   4.904   5.855   2.101
 9125SOL    HW228275   4.954   5.950   2.225
 9126SOL     OW28276   5.872   0.350   2.230
 9126SOL    HW128277   5.880   0.443   2.267
 9126SOL    HW228278   5.846   0.355   2.134
 9127SOL     OW28279   5.195   6.738   6.817
 9127SOL    HW128280   5.255   6.717   6.894
 9127SOL    HW228281   5.232   6.699   6.734
 9128SOL     OW28282   4.884   2.668   4.901
 9128SOL    HW128283   4.952   2.667   4.974
 9128SOL    HW228284   4.848   2.576   4.887
 9129SOL     OW28285   1.884   1.624   6.369
 9129SOL    HW128286   1.931   1.645   6.283
 9129SOL    HW228287   1.819   1.549   6.354
 9130SOL     OW28288   6.153   5.633   0.984
 9130SOL    HW128289   6.177   5.619   0.888
 9130SOL    HW228290   6.081   5.703   0.990
 9131SOL     OW28291   0.280   4.305   4.098
 9131SOL    HW128292   0.201   4.325   4.040
 9131SOL    HW228293   0.281   4.368   4.176
 9132SOL     OW28294   1.513   3.014   4.723
 9132SOL    HW128295   1.590   2.960   4.757
 9132SOL    HW228296   1.469   3.061   4.799
 9133SOL     OW28297   1.770   4.544   0.885
 9133SOL    HW128298   1.748   4.534   0.982
 9133SOL    HW228299   1.705   4.606   0.842
 9134SOL     OW28300   3.025   4.859   5.887
 9134SOL    HW128301   3.079   4.797   5.945
 9134SOL    HW228302   3.067   4.949   5.887
 9135SOL     OW28303   0.212   5.903   4.233
 9135SOL    HW128304   0.290   5.901   4.171
 9135SOL    HW228305   0.182   5.810   4.253
 9136SOL     OW28306   4.269   5.350   6.126
 9136SOL    HW128307   4.224   5.305   6.203
 9136SOL    HW228308   4.301   5.281   6.061
 9137SOL     OW28309   4.036   1.242   2.611
 9137SOL    HW128310   4.018   1.325   2.559
 9137SOL    HW228311   4.036   1.163   2.549
 9138SOL     OW28312   3.832   4.753   0.936
 9138SOL    HW128313   3.873   4.800   1.015
 9138SOL    HW228314   3.896   4.754   0.860
 9139SOL     OW28315   3.471   1.122   5.385
 9139SOL    HW128316   3.426   1.177   5.315
 9139SOL    HW228317   3.497   1.181   5.462
 9140SOL     OW28318   0.220   2.466   3.650
 9140SOL    HW128319   0.187   2.495   3.560
 9140SOL    HW228320   0.154   2.405   3.692
 9141SOL     OW28321   5.572   0.785   5.758
 9141SOL    HW128322   5.579   0.884   5.742
 9141SOL    HW228323   5.624   0.761   5.840
 9142SOL     OW28324   0.689   3.719   6.272
 9142SOL    HW128325   0.618   3.710   6.342
 9142SOL    HW228326   0.757   3.786   6.302
 9143SOL     OW28327   5.306   4.112   1.078
 9143SOL    HW128328   5.292   4.052   1.157
 9143SOL    HW228329   5.253   4.196   1.090
 9144SOL     OW28330   1.870   4.683   5.091
 9144SOL    HW128331   1.959   4.674   5.047
 9144SOL    HW228332   1.824   4.594   5.093
 9145SOL     OW28333   0.415   4.093   6.751
 9145SOL    HW128334   0.381   4.186   6.766
 9145SOL    HW228335   0.357   4.028   6.800
 9146SOL     OW28336   6.827   1.632   1.490
 9146SOL    HW128337   6.806   1.580   1.573
 9146SOL    HW228338   6.870   1.719   1.514
 9147SOL     OW28339   4.124   6.396   6.034
 9147SOL    HW128340   4.066   6.476   6.050
 9147SOL    HW228341   4.068   6.319   6.003
 9148SOL     OW28342   4.236   5.927   3.153
 9148SOL    HW128343   4.257   5.916   3.056
 9148SOL    HW228344   4.250   6.023   3.179
 9149SOL     OW28345   5.846   3.490   3.764
 9149SOL    HW128346   5.752   3.466   3.789
 9149SOL    HW228347   5.857   3.590   3.767
 9150SOL     OW28348   4.420   1.337   3.409
 9150SOL    HW128349   4.360   1.322   3.330
 9150SOL    HW228350   4.486   1.410   3.387
 9151SOL     OW28351   1.505   3.667   2.561
 9151SOL    HW128352   1.432   3.634   2.501
 9151SOL    HW228353   1.593   3.630   2.530
 9152SOL     OW28354   2.468   5.829   2.579
 9152SOL    HW128355   2.542   5.762   2.570
 9152SOL    HW228356   2.380   5.783   2.572
 9153SOL     OW28357   1.390   3.204   5.932
 9153SOL    HW128358   1.310   3.205   5.873
 9153SOL    HW228359   1.363   3.222   6.027
 9154SOL     OW28360   2.119   5.850   0.614
 9154SOL    HW128361   2.055   5.840   0.689
 9154SOL    HW228362   2.207   5.810   0.639
 9155SOL     OW28363   1.622   4.310   0.113
 9155SOL    HW128364   1.571   4.228   0.142
 9155SOL    HW228365   1.652   4.299   0.018
 9156SOL     OW28366   5.579   2.763   1.774
 9156SOL    HW128367   5.508   2.790   1.709
 9156SOL    HW228368   5.566   2.668   1.801
 9157SOL     OW28369   4.978   3.875   5.624
 9157SOL    HW128370   4.983   3.957   5.680
 9157SOL    HW228371   5.055   3.872   5.561
 9158SOL     OW28372   0.685   3.874   3.315
 9158SOL    HW128373   0.614   3.940   3.343
 9158SOL    HW228374   0.670   3.789   3.365
 9159SOL     OW28375   0.046   4.044   3.032
 9159SOL    HW128376   0.061   4.013   3.126
 9159SOL    HW228377   7.019   3.974   2.982
 9160SOL     OW28378   6.846   0.184   6.681
 9160SOL    HW128379   6.941   0.164   6.659
 9160SOL    HW228380   6.816   0.126   6.756
 9161SOL     OW28381   5.249   3.792   4.048
 9161SOL    HW128382   5.219   3.698   4.029
 9161SOL    HW228383   5.205   3.855   3.984
 9162SOL     OW28384   5.158   2.075   2.381
 9162SOL    HW128385   5.087   2.056   2.314
 9162SOL    HW228386   5.210   2.156   2.353
 9163SOL     OW28387   3.296   1.817   3.974
 9163SOL    HW128388   3.339   1.861   3.895
 9163SOL    HW228389   3.326   1.862   4.058
 9164SOL     OW28390   3.173   7.000   0.313
 9164SOL    HW128391   3.204   6.911   0.279
 9164SOL    HW228392   3.085   6.988   0.360
 9165SOL     OW28393   5.352   6.673   0.299
 9165SOL    HW128394   5.391   6.580   0.301
 9165SOL    HW228395   5.342   6.707   0.392
 9166SOL     OW28396   3.014   5.615   1.391
 9166SOL    HW128397   3.028   5.673   1.472
 9166SOL    HW228398   2.972   5.668   1.318
 9167SOL     OW28399   1.135   4.218   4.834
 9167SOL    HW128400   1.108   4.267   4.751
 9167SOL    HW228401   1.135   4.119   4.815
 9168SOL     OW28402   2.257   0.167   6.540
 9168SOL    HW128403   2.163   0.172   6.575
 9168SOL    HW228404   2.318   0.219   6.600
 9169SOL     OW28405   6.703   6.811   3.430
 9169SOL    HW128406   6.633   6.740   3.421
 9169SOL    HW228407   6.793   6.768   3.440
 9170SOL     OW28408   6.549   6.052   6.975
 9170SOL    HW128409   6.587   6.117   6.909
 9170SOL    HW228410   6.495   6.101   0.020
 9171SOL     OW28411   2.589   5.805   6.207
 9171SOL    HW128412   2.657   5.817   6.278
 9171SOL    HW228413   2.617   5.855   6.125
 9172SOL     OW28414   2.980   1.871   4.141
 9172SOL    HW128415   2.888   1.891   4.107
 9172SOL    HW228416   3.048   1.922   4.087
 9173SOL     OW28417   0.512   5.049   4.974
 9173SOL    HW128418   0.519   5.143   4.940
 9173SOL    HW228419   0.559   5.043   5.063
 9174SOL     OW28420   0.335   4.989   0.277
 9174SOL    HW128421   0.406   5.053   0.247
 9174SOL    HW228422   0.247   5.035   0.275
 9175SOL     OW28423   1.293   6.992   5.086
 9175SOL    HW128424   1.341   0.041   5.134
 9175SOL    HW228425   1.357   6.919   5.062
 9176SOL     OW28426   2.092   0.672   5.603
 9176SOL    HW128427   2.029   0.594   5.604
 9176SOL    HW228428   2.110   0.700   5.697
 9177SOL     OW28429   1.030   5.062   3.986
 9177SOL    HW128430   1.105   5.117   3.949
 9177SOL    HW228431   0.971   5.033   3.911
 9178SOL     OW28432   2.323   4.592   0.617
 9178SOL    HW128433   2.390   4.543   0.561
 9178SOL    HW228434   2.365   4.619   0.703
 9179SOL     OW28435   3.110   4.865   4.694
 9179SOL    HW128436   3.018   4.829   4.711
 9179SOL    HW228437   3.174   4.828   4.761
 9180SOL     OW28438   4.814   2.004   3.050
 9180SOL    HW128439   4.855   2.083   3.006
 9180SOL    HW228440   4.836   1.921   2.997
 9181SOL     OW28441   4.259   1.155   2.186
 9181SOL    HW128442   4.214   1.075   2.147
 9181SOL    HW228443   4.342   1.175   2.134
 9182SOL     OW28444   1.245   6.913   1.635
 9182SOL    HW128445   1.185   6.879   1.707
 9182SOL    HW228446   1.331   6.862   1.637
 9183SOL     OW28447   5.399   5.837   0.097
 9183SOL    HW128448   5.323   5.872   0.043
 9183SOL    HW228449   5.374   5.836   0.194
 9184SOL     OW28450   4.800   0.069   0.362
 9184SOL    HW128451   4.801   0.087   0.264
 9184SOL    HW228452   4.888   0.094   0.402
 9185SOL     OW28453   3.875   1.560   5.418
 9185SOL    HW128454   3.777   1.541   5.414
 9185SOL    HW228455   3.913   1.559   5.325
 9186SOL     OW28456   5.294   0.149   6.478
 9186SOL    HW128457   5.253   0.088   6.410
 9186SOL    HW228458   5.290   0.106   6.568
 9187SOL     OW28459   2.447   6.223   2.150
 9187SOL    HW128460   2.418   6.128   2.135
 9187SOL    HW228461   2.405   6.259   2.233
 9188SOL     OW28462   2.583   6.089   1.330
 9188SOL    HW128463   2.521   6.048   1.264
 9188SOL    HW228464   2.621   6.017   1.388
 9189SOL     OW28465   5.385   5.206   2.038
 9189SOL    HW128466   5.386   5.107   2.050
 9189SOL    HW228467   5.306   5.246   2.084
 9190SOL     OW28468   1.783   5.022   0.622
 9190SOL    HW128469   1.715   5.077   0.671
 9190SOL    HW228470   1.838   4.970   0.688
 9191SOL     OW28471   7.001   0.790   5.986
 9191SOL    HW128472   6.944   0.837   6.054
 9191SOL    HW228473   6.973   0.818   5.894
 9192SOL     OW28474   6.914   3.864   3.942
 9192SOL    HW128475   7.014   3.855   3.945
 9192SOL    HW228476   6.879   3.812   3.864
 9193SOL     OW28477   2.935   3.108   6.716
 9193SOL    HW128478   2.961   3.205   6.715
 9193SOL    HW228479   3.017   3.051   6.714
 9194SOL     OW28480   3.738   0.069   4.097
 9194SOL    HW128481   3.818   0.108   4.141
 9194SOL    HW228482   3.700   0.135   4.031
 9195SOL     OW28483   1.622   1.554   3.461
 9195SOL    HW128484   1.708   1.604   3.456
 9195SOL    HW228485   1.592   1.548   3.556
 9196SOL     OW28486   5.096   2.402   5.639
 9196SOL    HW128487   5.068   2.308   5.658
 9196SOL    HW228488   5.028   2.447   5.581
 9197SOL     OW28489   2.342   3.787   1.560
 9197SOL    HW128490   2.295   3.701   1.579
 9197SOL    HW228491   2.319   3.818   1.467
 9198SOL     OW28492   0.330   5.100   4.066
 9198SOL    HW128493   0.425   5.130   4.055
 9198SOL    HW228494   0.289   5.084   3.976
 9199SOL     OW28495   6.271   4.624   4.808
 9199SOL    HW128496   6.298   4.568   4.886
 9199SOL    HW228497   6.194   4.683   4.835
 9200SOL     OW28498   2.696   0.205   0.492
 9200SOL    HW128499   2.664   0.131   0.433
 9200SOL    HW228500   2.788   0.184   0.525
 9201SOL     OW28501   1.799   4.158   0.548
 9201SOL    HW128502   1.836   4.133   0.458
 9201SOL    HW228503   1.720   4.218   0.537
 9202SOL     OW28504   2.257   0.626   3.498
 9202SOL    HW128505   2.283   0.648   3.593
 9202SOL    HW228506   2.259   0.710   3.443
 9203SOL     OW28507   0.031   6.810   0.633
 9203SOL    HW128508   6.994   6.733   0.652
 9203SOL    HW228509   0.031   6.830   0.535
 9204SOL     OW28510   5.029   0.828   5.692
 9204SOL    HW128511   4.938   0.790   5.674
 9204SOL    HW228512   5.026   0.928   5.684
 9205SOL     OW28513   0.215   4.276   1.890
 9205SOL    HW128514   0.293   4.326   1.927
 9205SOL    HW228515   0.140   4.276   1.956
 9206SOL     OW28516   3.712   5.784   0.601
 9206SOL    HW128517   3.631   5.734   0.632
 9206SOL    HW228518   3.785   5.720   0.578
 9207SOL     OW28519   5.021   5.602   6.490
 9207SOL    HW128520   4.979   5.513   6.470
 9207SOL    HW228521   4.954   5.674   6.475
 9208SOL     OW28522   1.653   3.630   3.206
 9208SOL    HW128523   1.616   3.566   3.138
 9208SOL    HW228524   1.741   3.665   3.174
 9209SOL     OW28525   3.083   0.268   6.386
 9209SOL    HW128526   3.043   0.225   6.305
 9209SOL    HW228527   3.067   0.211   6.466
 9210SOL     OW28528   6.965   0.139   3.480
 9210SOL    HW128529   6.936   0.094   3.396
 9210SOL    HW228530   6.901   0.213   3.501
 9211SOL     OW28531   0.775   1.650   2.372
 9211SOL    HW128532   0.746   1.740   2.339
 9211SOL    HW228533   0.756   1.581   2.302
 9212SOL     OW28534   3.379   4.968   4.217
 9212SOL    HW128535   3.293   4.921   4.199
 9212SOL    HW228536   3.363   5.066   4.226
 9213SOL     OW28537   5.627   4.467   6.736
 9213SOL    HW128538   5.709   4.473   6.793
 9213SOL    HW228539   5.588   4.558   6.724
 9214SOL     OW28540   0.340   4.760   0.738
 9214SOL    HW128541   0.375   4.787   0.649
 9214SOL    HW228542   0.332   4.660   0.742
 9215SOL     OW28543   0.924   1.064   0.889
 9215SOL    HW128544   0.901   0.982   0.838
 9215SOL    HW228545   1.013   1.052   0.933
 9216SOL     OW28546   2.025   6.720   3.030
 9216SOL    HW128547   2.006   6.665   3.112
 9216SOL    HW228548   2.119   6.704   3.001
 9217SOL     OW28549   1.120   2.187   6.749
 9217SOL    HW128550   1.127   2.282   6.718
 9217SOL    HW228551   1.204   2.138   6.725
 9218SOL     OW28552   2.700   0.770   0.703
 9218SOL    HW128553   2.757   0.851   0.690
 9218SOL    HW228554   2.604   0.796   0.706
 9219SOL     OW28555   0.466   1.755   0.500
 9219SOL    HW128556   0.459   1.690   0.575
 9219SOL    HW228557   0.549   1.810   0.511
 9220SOL     OW28558   2.927   6.398   1.809
 9220SOL    HW128559   3.016   6.410   1.764
 9220SOL    HW228560   2.927   6.312   1.860
 9221SOL     OW28561   3.061   5.739   4.400
 9221SOL    HW128562   2.975   5.729   4.449
 9221SOL    HW228563   3.043   5.771   4.307
 9222SOL     OW28564   2.610   2.302   5.837
 9222SOL    HW128565   2.643   2.394   5.815
 9222SOL    HW228566   2.635   2.239   5.763
 9223SOL     OW28567   2.677   3.038   5.315
 9223SOL    HW128568   2.714   3.129   5.302
 9223SOL    HW228569   2.588   3.031   5.269
 9224SOL     OW28570   2.298   5.146   5.170
 9224SOL    HW128571   2.351   5.061   5.159
 9224SOL    HW228572   2.337   5.199   5.245
 9225SOL     OW28573   2.027   6.491   0.105
 9225SOL    HW128574   2.041   6.584   0.073
 9225SOL    HW228575   1.963   6.443   0.045
 9226SOL     OW28576   3.689   6.579   1.050
 9226SOL    HW128577   3.683   6.501   0.989
 9226SOL    HW228578   3.784   6.605   1.064
 9227SOL     OW28579   1.785   5.823   2.048
 9227SOL    HW128580   1.691   5.796   2.028
 9227SOL    HW228581   1.833   5.747   2.092
 9228SOL     OW28582   0.821   6.958   6.531
 9228SOL    HW128583   0.839   6.920   6.622
 9228SOL    HW228584   0.859   6.896   6.462
 9229SOL     OW28585   0.510   5.597   5.346
 9229SOL    HW128586   0.560   5.528   5.397
 9229SOL    HW228587   0.572   5.672   5.321
 9230SOL     OW28588   5.780   0.307   4.228
 9230SOL    HW128589   5.693   0.286   4.274
 9230SOL    HW228590   5.838   0.226   4.228
 9231SOL     OW28591   1.963   2.792   3.433
 9231SOL    HW128592   1.951   2.881   3.390
 9231SOL    HW228593   2.035   2.797   3.502
 9232SOL     OW28594   4.003   4.705   1.320
 9232SOL    HW128595   3.963   4.719   1.229
 9232SOL    HW228596   4.103   4.709   1.312
 9233SOL     OW28597   4.892   4.792   0.989
 9233SOL    HW128598   4.797   4.808   1.015
 9233SOL    HW228599   4.953   4.823   1.062
 9234SOL     OW28600   2.486   6.261   3.601
 9234SOL    HW128601   2.399   6.226   3.637
 9234SOL    HW228602   2.537   6.187   3.559
 9235SOL     OW28603   0.586   2.128   3.050
 9235SOL    HW128604   0.606   2.030   3.052
 9235SOL    HW228605   0.643   2.174   3.118
 9236SOL     OW28606   3.515   2.852   5.702
 9236SOL    HW128607   3.569   2.786   5.650
 9236SOL    HW228608   3.470   2.807   5.779
 9237SOL     OW28609   1.450   3.396   4.208
 9237SOL    HW128610   1.473   3.383   4.112
 9237SOL    HW228611   1.484   3.485   4.239
 9238SOL     OW28612   4.358   3.292   6.459
 9238SOL    HW128613   4.304   3.316   6.540
 9238SOL    HW228614   4.445   3.252   6.488
 9239SOL     OW28615   1.687   3.811   0.478
 9239SOL    HW128616   1.772   3.831   0.429
 9239SOL    HW228617   1.692   3.851   0.570
 9240SOL     OW28618   4.364   0.712   2.476
 9240SOL    HW128619   4.399   0.759   2.557
 9240SOL    HW228620   4.358   0.777   2.401
 9241SOL     OW28621   0.509   6.060   6.831
 9241SOL    HW128622   0.591   6.116   6.823
 9241SOL    HW228623   0.534   5.970   6.867
 9242SOL     OW28624   6.663   6.100   1.788
 9242SOL    HW128625   6.590   6.168   1.791
 9242SOL    HW228626   6.682   6.075   1.693
 9243SOL     OW28627   6.546   6.250   4.377
 9243SOL    HW128628   6.539   6.303   4.293
 9243SOL    HW228629   6.475   6.180   4.379
 9244SOL     OW28630   3.358   5.103   6.790
 9244SOL    HW128631   3.458   5.109   6.794
 9244SOL    HW228632   3.318   5.190   6.818
 9245SOL     OW28633   0.779   5.843   1.099
 9245SOL    HW128634   0.789   5.917   1.166
 9245SOL    HW228635   0.740   5.763   1.144
 9246SOL     OW28636   0.195   4.782   4.436
 9246SOL    HW128637   0.119   4.744   4.488
 9246SOL    HW228638   0.211   4.727   4.355
 9247SOL     OW28639   1.503   6.592   2.111
 9247SOL    HW128640   1.547   6.504   2.091
 9247SOL    HW228641   1.457   6.625   2.029
 9248SOL     OW28642   3.093   1.472   6.380
 9248SOL    HW128643   3.105   1.457   6.478
 9248SOL    HW228644   2.998   1.451   6.355
 9249SOL     OW28645   4.896   6.983   3.781
 9249SOL    HW128646   4.859   6.940   3.863
 9249SOL    HW228647   4.827   0.020   3.742
 9250SOL     OW28648   5.271   3.512   4.007
 9250SOL    HW128649   5.229   3.452   3.938
 9250SOL    HW228650   5.351   3.467   4.046
 9251SOL     OW28651   3.301   1.923   2.507
 9251SOL    HW128652   3.207   1.954   2.515
 9251SOL    HW228653   3.354   1.957   2.584
 9252SOL     OW28654   1.673   6.630   4.316
 9252SOL    HW128655   1.656   6.658   4.410
 9252SOL    HW228656   1.770   6.609   4.304
 9253SOL     OW28657   1.184   6.969   5.582
 9253SOL    HW128658   1.250   6.945   5.653
 9253SOL    HW228659   1.124   0.018   5.615
 9254SOL     OW28660   5.667   3.662   1.743
 9254SOL    HW128661   5.674   3.685   1.646
 9254SOL    HW228662   5.636   3.568   1.753
 9255SOL     OW28663   6.628   4.281   0.438
 9255SOL    HW128664   6.581   4.252   0.522
 9255SOL    HW228665   6.721   4.245   0.438
 9256SOL     OW28666   4.516   4.833   1.635
 9256SOL    HW128667   4.440   4.810   1.575
 9256SOL    HW228668   4.481   4.862   1.724
 9257SOL     OW28669   0.977   3.749   1.130
 9257SOL    HW128670   1.076   3.740   1.141
 9257SOL    HW228671   0.935   3.659   1.133
 9258SOL     OW28672   3.960   3.956   3.577
 9258SOL    HW128673   3.939   4.021   3.650
 9258SOL    HW228674   3.886   3.889   3.570
 9259SOL     OW28675   0.826   3.024   6.849
 9259SOL    HW128676   0.851   2.937   6.890
 9259SOL    HW228677   0.740   3.014   6.799
 9260SOL     OW28678   5.468   3.576   6.592
 9260SOL    HW128679   5.461   3.643   6.518
 9260SOL    HW228680   5.425   3.490   6.564
 9261SOL     OW28681   4.498   0.135   0.268
 9261SOL    HW128682   4.453   0.197   0.333
 9261SOL    HW228683   4.583   0.101   0.309
 9262SOL     OW28684   5.043   1.218   5.394
 9262SOL    HW128685   4.991   1.169   5.464
 9262SOL    HW228686   5.065   1.156   5.319
 9263SOL     OW28687   5.587   4.116   1.916
 9263SOL    HW128688   5.640   4.140   1.834
 9263SOL    HW228689   5.605   4.021   1.942
 9264SOL     OW28690   6.303   3.310   0.187
 9264SOL    HW128691   6.221   3.361   0.161
 9264SOL    HW228692   6.366   3.372   0.234
 9265SOL     OW28693   1.838   0.864   5.611
 9265SOL    HW128694   1.904   0.832   5.544
 9265SOL    HW228695   1.882   0.927   5.674
 9266SOL     OW28696   1.774   6.319   2.224
 9266SOL    HW128697   1.776   6.370   2.138
 9266SOL    HW228698   1.814   6.375   2.297
 9267SOL     OW28699   2.854   5.122   5.240
 9267SOL    HW128700   2.847   5.221   5.247
 9267SOL    HW228701   2.811   5.091   5.155
 9268SOL     OW28702   0.284   1.326   2.792
 9268SOL    HW128703   0.273   1.358   2.698
 9268SOL    HW228704   0.322   1.234   2.792
 9269SOL     OW28705   3.773   1.250   5.795
 9269SOL    HW128706   3.760   1.154   5.770
 9269SOL    HW228707   3.848   1.258   5.860
 9270SOL     OW28708   0.487   6.774   5.813
 9270SOL    HW128709   0.495   6.681   5.777
 9270SOL    HW228710   0.522   6.839   5.746
 9271SOL     OW28711   1.171   5.070   0.058
 9271SOL    HW128712   1.142   5.099   6.991
 9271SOL    HW228713   1.234   4.993   0.050
 9272SOL     OW28714   2.709   4.571   6.663
 9272SOL    HW128715   2.637   4.502   6.653
 9272SOL    HW228716   2.751   4.562   6.753
 9273SOL     OW28717   3.983   6.079   5.391
 9273SOL    HW128718   3.959   6.093   5.295
 9273SOL    HW228719   3.900   6.069   5.445
 9274SOL     OW28720   5.618   2.430   1.085
 9274SOL    HW128721   5.620   2.354   1.019
 9274SOL    HW228722   5.682   2.501   1.056
 9275SOL     OW28723   0.965   0.380   6.279
 9275SOL    HW128724   1.061   0.374   6.253
 9275SOL    HW228725   0.950   0.324   6.361
 9276SOL     OW28726   4.275   6.244   5.072
 9276SOL    HW128727   4.224   6.158   5.068
 9276SOL    HW228728   4.223   6.311   5.124
 9277SOL     OW28729   3.392   2.724   0.596
 9277SOL    HW128730   3.349   2.733   0.505
 9277SOL    HW228731   3.480   2.679   0.586
 9278SOL     OW28732   1.282   2.365   1.534
 9278SOL    HW128733   1.319   2.272   1.524
 9278SOL    HW228734   1.352   2.432   1.509
 9279SOL     OW28735   3.300   6.846   1.262
 9279SOL    HW128736   3.389   6.801   1.256
 9279SOL    HW228737   3.228   6.782   1.237
 9280SOL     OW28738   1.897   0.182   2.847
 9280SOL    HW128739   1.948   0.114   2.902
 9280SOL    HW228740   1.903   0.157   2.751
 9281SOL     OW28741   2.088   2.730   0.345
 9281SOL    HW128742   2.119   2.802   0.408
 9281SOL    HW228743   2.161   2.663   0.333
 9282SOL     OW28744   4.705   2.065   6.507
 9282SOL    HW128745   4.676   2.135   6.573
 9282SOL    HW228746   4.731   2.109   6.421
 9283SOL     OW28747   5.730   2.070   2.837
 9283SOL    HW128748   5.635   2.095   2.852
 9283SOL    HW228749   5.777   2.144   2.788
 9284SOL     OW28750   3.141   3.462   1.757
 9284SOL    HW128751   3.173   3.371   1.731
 9284SOL    HW228752   3.093   3.504   1.680
 9285SOL     OW28753   6.162   2.971   6.431
 9285SOL    HW128754   6.096   2.969   6.506
 9285SOL    HW228755   6.120   3.013   6.350
 9286SOL     OW28756   5.112   6.371   5.317
 9286SOL    HW128757   5.096   6.440   5.386
 9286SOL    HW228758   5.038   6.303   5.320
 9287SOL     OW28759   2.832   6.661   1.917
 9287SOL    HW128760   2.835   6.617   2.007
 9287SOL    HW228761   2.836   6.591   1.846
 9288SOL     OW28762   4.744   2.617   5.891
 9288SOL    HW128763   4.842   2.622   5.869
 9288SOL    HW228764   4.690   2.649   5.814
 9289SOL     OW28765   4.857   3.007   3.024
 9289SOL    HW128766   4.864   2.943   3.100
 9289SOL    HW228767   4.867   3.101   3.059
 9290SOL     OW28768   4.595   2.053   5.122
 9290SOL    HW128769   4.541   1.978   5.084
 9290SOL    HW228770   4.668   2.077   5.057
 9291SOL     OW28771   0.703   2.237   5.131
 9291SOL    HW128772   0.790   2.221   5.177
 9291SOL    HW228773   0.671   2.330   5.152
 9292SOL     OW28774   6.699   3.545   6.569
 9292SOL    HW128775   6.796   3.535   6.545
 9292SOL    HW228776   6.690   3.550   6.668
 9293SOL     OW28777   5.524   4.288   6.968
 9293SOL    HW128778   5.468   4.323   6.893
 9293SOL    HW228779   5.621   4.296   6.945
 9294SOL     OW28780   5.705   6.071   0.243
 9294SOL    HW128781   5.701   6.073   0.143
 9294SOL    HW228782   5.800   6.078   0.273
 9295SOL     OW28783   4.836   1.805   3.424
 9295SOL    HW128784   4.892   1.724   3.442
 9295SOL    HW228785   4.777   1.788   3.346
 9296SOL     OW28786   6.159   0.119   5.508
 9296SOL    HW128787   6.253   0.120   5.476
 9296SOL    HW228788   6.144   0.195   5.571
 9297SOL     OW28789   0.717   0.886   0.458
 9297SOL    HW128790   0.789   0.849   0.399
 9297SOL    HW228791   0.647   0.931   0.401
 9298SOL     OW28792   1.097   6.392   5.063
 9298SOL    HW128793   1.147   6.305   5.056
 9298SOL    HW228794   1.006   6.382   5.024
 9299SOL     OW28795   2.261   2.594   4.251
 9299SOL    HW128796   2.216   2.558   4.169
 9299SOL    HW228797   2.360   2.598   4.237
 9300SOL     OW28798   5.505   4.657   4.377
 9300SOL    HW128799   5.551   4.632   4.462
 9300SOL    HW228800   5.467   4.575   4.334
 9301SOL     OW28801   5.615   4.145   2.658
 9301SOL    HW128802   5.600   4.067   2.719
 9301SOL    HW228803   5.700   4.132   2.607
 9302SOL     OW28804   2.167   1.739   2.292
 9302SOL    HW128805   2.174   1.822   2.238
 9302SOL    HW228806   2.114   1.757   2.375
 9303SOL     OW28807   3.447   5.144   0.792
 9303SOL    HW128808   3.496   5.073   0.843
 9303SOL    HW228809   3.382   5.190   0.853
 9304SOL     OW28810   4.507   3.246   0.748
 9304SOL    HW128811   4.465   3.156   0.737
 9304SOL    HW228812   4.442   3.308   0.793
 9305SOL     OW28813   5.530   3.059   2.555
 9305SOL    HW128814   5.493   2.971   2.583
 9305SOL    HW228815   5.522   3.069   2.456
 9306SOL     OW28816   6.832   4.136   3.884
 9306SOL    HW128817   6.811   4.040   3.897
 9306SOL    HW228818   6.814   4.162   3.789
 9307SOL     OW28819   1.979   1.220   6.512
 9307SOL    HW128820   2.011   1.134   6.474
 9307SOL    HW228821   2.053   1.288   6.507
 9308SOL     OW28822   6.696   3.202   1.050
 9308SOL    HW128823   6.694   3.242   1.141
 9308SOL    HW228824   6.636   3.254   0.988
 9309SOL     OW28825   4.886   3.785   6.541
 9309SOL    HW128826   4.972   3.765   6.588
 9309SOL    HW228827   4.906   3.837   6.457
 9310SOL     OW28828   3.852   5.912   0.797
 9310SOL    HW128829   3.792   5.858   0.738
 9310SOL    HW228830   3.908   5.972   0.741
 9311SOL     OW28831   6.148   3.002   0.852
 9311SOL    HW128832   6.241   2.973   0.877
 9311SOL    HW228833   6.153   3.080   0.790
 9312SOL     OW28834   1.505   4.657   5.530
 9312SOL    HW128835   1.480   4.721   5.458
 9312SOL    HW228836   1.423   4.632   5.582
 9313SOL     OW28837   5.811   6.743   2.525
 9313SOL    HW128838   5.761   6.746   2.439
 9313SOL    HW228839   5.821   6.837   2.560
 9314SOL     OW28840   5.342   4.856   0.601
 9314SOL    HW128841   5.285   4.936   0.623
 9314SOL    HW228842   5.290   4.793   0.543
 9315SOL     OW28843   6.609   6.514   6.360
 9315SOL    HW128844   6.612   6.614   6.360
 9315SOL    HW228845   6.543   6.483   6.429
 9316SOL     OW28846   3.864   5.993   4.151
 9316SOL    HW128847   3.824   5.939   4.077
 9316SOL    HW228848   3.951   5.952   4.178
 9317SOL     OW28849   5.979   4.206   4.579
 9317SOL    HW128850   6.073   4.236   4.561
 9317SOL    HW228851   5.950   4.240   4.668
 9318SOL     OW28852   6.305   0.119   6.310
 9318SOL    HW128853   6.394   0.109   6.265
 9318SOL    HW228854   6.276   0.030   6.346
 9319SOL     OW28855   0.143   3.274   4.636
 9319SOL    HW128856   0.125   3.318   4.724
 9319SOL    HW228857   0.174   3.180   4.652
 9320SOL     OW28858   4.627   2.757   6.570
 9320SOL    HW128859   4.547   2.817   6.568
 9320SOL    HW228860   4.700   2.795   6.514
 9321SOL     OW28861   6.513   5.807   3.196
 9321SOL    HW128862   6.593   5.864   3.214
 9321SOL    HW228863   6.525   5.718   3.239
 9322SOL     OW28864   0.727   6.567   6.868
 9322SOL    HW128865   0.817   6.564   6.912
 9322SOL    HW228866   0.675   6.486   6.895
 9323SOL     OW28867   6.967   1.545   6.068
 9323SOL    HW128868   0.005   1.624   6.073
 9323SOL    HW228869   6.883   1.564   6.117
 9324SOL     OW28870   2.031   5.915   6.958
 9324SOL    HW128871   1.945   5.931   7.006
 9324SOL    HW228872   2.037   5.975   6.878
 9325SOL     OW28873   0.113   2.726   0.865
 9325SOL    HW128874   0.014   2.729   0.876
 9325SOL    HW228875   0.136   2.678   0.781
 9326SOL     OW28876   2.306   6.238   1.133
 9326SOL    HW128877   2.353   6.324   1.156
 9326SOL    HW228878   2.373   6.165   1.125
 9327SOL     OW28879   3.982   1.122   3.379
 9327SOL    HW128880   3.984   1.221   3.388
 9327SOL    HW228881   3.986   1.080   3.470
 9328SOL     OW28882   2.946   0.755   2.173
 9328SOL    HW128883   3.023   0.727   2.231
 9328SOL    HW228884   2.870   0.786   2.231
 9329SOL     OW28885   1.434   3.376   1.721
 9329SOL    HW128886   1.343   3.418   1.713
 9329SOL    HW228887   1.492   3.407   1.646
 9330SOL     OW28888   5.726   0.301   0.231
 9330SOL    HW128889   5.820   0.326   0.209
 9330SOL    HW228890   5.668   0.382   0.226
 9331SOL     OW28891   0.485   1.124   6.612
 9331SOL    HW128892   0.581   1.112   6.583
 9331SOL    HW228893   0.481   1.190   6.686
 9332SOL     OW28894   3.671   3.743   4.372
 9332SOL    HW128895   3.679   3.843   4.380
 9332SOL    HW228896   3.613   3.722   4.292
 9333SOL     OW28897   5.353   5.265   1.407
 9333SOL    HW128898   5.393   5.347   1.447
 9333SOL    HW228899   5.421   5.191   1.407
 9334SOL     OW28900   3.031   0.005   4.795
 9334SOL    HW128901   3.095   0.017   4.871
 9334SOL    HW228902   3.082   7.017   4.710
 9335SOL     OW28903   0.694   0.957   1.015
 9335SOL    HW128904   0.768   1.021   0.995
 9335SOL    HW228905   0.723   0.864   0.994
 9336SOL     OW28906   3.184   6.664   5.502
 9336SOL    HW128907   3.175   6.763   5.498
 9336SOL    HW228908   3.236   6.638   5.583
 9337SOL     OW28909   4.838   0.111   3.005
 9337SOL    HW128910   4.928   0.140   2.975
 9337SOL    HW228911   4.768   0.155   2.949
 9338SOL     OW28912   3.893   0.592   1.275
 9338SOL    HW128913   3.863   0.679   1.314
 9338SOL    HW228914   3.945   0.541   1.344
 9339SOL     OW28915   4.138   5.763   0.970
 9339SOL    HW128916   4.043   5.779   0.997
 9339SOL    HW228917   4.188   5.849   0.969
 9340SOL     OW28918   5.750   3.122   0.766
 9340SOL    HW128919   5.786   3.139   0.675
 9340SOL    HW228920   5.802   3.049   0.810
 9341SOL     OW28921   6.809   5.315   6.013
 9341SOL    HW128922   6.796   5.344   5.918
 9341SOL    HW228923   6.777   5.387   6.075
 9342SOL     OW28924   1.134   6.103   6.061
 9342SOL    HW128925   1.152   6.107   6.159
 9342SOL    HW228926   1.144   6.008   6.030
 9343SOL     OW28927   6.531   5.344   4.651
 9343SOL    HW128928   6.435   5.355   4.625
 9343SOL    HW228929   6.577   5.287   4.583
 9344SOL     OW28930   4.792   6.682   1.490
 9344SOL    HW128931   4.720   6.734   1.536
 9344SOL    HW228932   4.765   6.663   1.396
 9345SOL     OW28933   6.719   2.894   0.411
 9345SOL    HW128934   6.729   2.991   0.436
 9345SOL    HW228935   6.651   2.851   0.469
 9346SOL     OW28936   6.357   7.012   6.840
 9346SOL    HW128937   6.323   0.064   6.895
 9346SOL    HW228938   6.281   6.954   6.811
 9347SOL     OW28939   1.555   6.324   2.002
 9347SOL    HW128940   1.498   6.340   1.922
 9347SOL    HW228941   1.517   6.248   2.055
 9348SOL     OW28942   2.939   5.125   0.149
 9348SOL    HW128943   2.848   5.086   0.160
 9348SOL    HW228944   2.998   5.093   0.224
 9349SOL     OW28945   1.738   6.249   2.584
 9349SOL    HW128946   1.680   6.171   2.610
 9349SOL    HW228947   1.807   6.219   2.518
 9350SOL     OW28948   0.745   2.679   6.021
 9350SOL    HW128949   0.676   2.707   6.088
 9350SOL    HW228950   0.729   2.727   5.935
 9351SOL     OW28951   2.446   1.153   6.955
 9351SOL    HW128952   2.516   1.223   6.968
 9351SOL    HW228953   2.422   1.113   0.020
 9352SOL     OW28954   2.273   4.811   5.722
 9352SOL    HW128955   2.311   4.869   5.650
 9352SOL    HW228956   2.341   4.742   5.749
 9353SOL     OW28957   6.210   0.680   0.871
 9353SOL    HW128958   6.245   0.625   0.947
 9353SOL    HW228959   6.114   0.702   0.888
 9354SOL     OW28960   0.685   1.610   6.520
 9354SOL    HW128961   0.734   1.532   6.559
 9354SOL    HW228962   0.730   1.695   6.547
 9355SOL     OW28963   0.372   2.037   5.391
 9355SOL    HW128964   0.429   2.011   5.469
 9355SOL    HW228965   0.417   2.009   5.306
 9356SOL     OW28966   5.576   0.125   3.540
 9356SOL    HW128967   5.483   0.153   3.565
 9356SOL    HW228968   5.572   0.039   3.489
 9357SOL     OW28969   0.675   1.793   0.243
 9357SOL    HW128970   0.731   1.828   0.319
 9357SOL    HW228971   0.622   1.714   0.274
 9358SOL     OW28972   0.649   3.020   1.365
 9358SOL    HW128973   0.693   2.936   1.333
 9358SOL    HW228974   0.690   3.099   1.319
 9359SOL     OW28975   0.826   0.264   5.074
 9359SOL    HW128976   0.908   0.209   5.085
 9359SOL    HW228977   0.762   0.244   5.148
 9360SOL     OW28978   0.645   0.324   5.785
 9360SOL    HW128979   0.685   0.237   5.814
 9360SOL    HW228980   0.558   0.308   5.740
 9361SOL     OW28981   2.113   5.971   3.774
 9361SOL    HW128982   2.065   5.990   3.860
 9361SOL    HW228983   2.134   5.873   3.769
 9362SOL     OW28984   1.977   0.433   1.809
 9362SOL    HW128985   2.062   0.392   1.776
 9362SOL    HW228986   1.964   0.408   1.905
 9363SOL     OW28987   1.959   4.858   2.396
 9363SOL    HW128988   1.903   4.891   2.320
 9363SOL    HW228989   1.973   4.759   2.386
 9364SOL     OW28990   1.527   2.899   0.825
 9364SOL    HW128991   1.567   2.814   0.790
 9364SOL    HW228992   1.468   2.940   0.754
 9365SOL     OW28993   3.266   0.986   4.666
 9365SOL    HW128994   3.252   1.060   4.732
 9365SOL    HW228995   3.189   0.981   4.604
 9366SOL     OW28996   4.528   6.070   2.480
 9366SOL    HW128997   4.502   6.095   2.574
 9366SOL    HW228998   4.600   6.131   2.449
 9367SOL     OW28999   6.730   0.957   1.500
 9367SOL    HW129000   6.682   0.922   1.581
 9367SOL    HW229001   6.760   1.051   1.518
 9368SOL     OW29002   2.795   0.376   2.810
 9368SOL    HW129003   2.723   0.410   2.750
 9368SOL    HW229004   2.831   0.290   2.773
 9369SOL     OW29005   3.449   5.108   0.517
 9369SOL    HW129006   3.373   5.161   0.480
 9369SOL    HW229007   3.457   5.125   0.615
 9370SOL     OW29008   4.357   1.654   4.959
 9370SOL    HW129009   4.429   1.683   4.896
 9370SOL    HW229010   4.268   1.660   4.914
 9371SOL     OW29011   4.534   5.146   1.154
 9371SOL    HW129012   4.563   5.149   1.250
 9371SOL    HW229013   4.569   5.226   1.107
 9372SOL     OW29014   4.129   5.956   1.523
 9372SOL    HW129015   4.198   5.922   1.459
 9372SOL    HW229016   4.170   6.025   1.582
 9373SOL     OW29017   0.132   2.984   0.979
 9373SOL    HW129018   0.059   2.973   1.047
 9373SOL    HW229019   0.143   2.899   0.927
 9374SOL     OW29020   0.438   5.955   6.061
 9374SOL    HW129021   0.493   5.951   5.978
 9374SOL    HW229022   0.344   5.982   6.039
 9375SOL     OW29023   0.453   1.266   6.853
 9375SOL    HW129024   0.421   1.327   6.924
 9375SOL    HW229025   0.465   1.174   6.890
 9376SOL     OW29026   2.401   3.887   1.295
 9376SOL    HW129027   2.362   3.974   1.326
 9376SOL    HW229028   2.342   3.847   1.225
 9377SOL     OW29029   1.881   0.650   3.283
 9377SOL    HW129030   1.858   0.739   3.322
 9377SOL    HW229031   1.921   0.663   3.192
 9378SOL     OW29032   3.709   1.522   5.159
 9378SOL    HW129033   3.660   1.607   5.139
 9378SOL    HW229034   3.766   1.497   5.081
 9379SOL     OW29035   5.031   6.837   4.290
 9379SOL    HW129036   4.945   6.854   4.339
 9379SOL    HW229037   5.055   6.740   4.299
 9380SOL     OW29038   5.541   5.359   0.152
 9380SOL    HW129039   5.556   5.299   0.231
 9380SOL    HW229040   5.451   5.339   0.113
 9381SOL     OW29041   5.364   1.630   5.288
 9381SOL    HW129042   5.443   1.585   5.330
 9381SOL    HW229043   5.284   1.572   5.298
 9382SOL     OW29044   2.910   5.181   6.080
 9382SOL    HW129045   2.824   5.162   6.127
 9382SOL    HW229046   2.892   5.233   5.997
 9383SOL     OW29047   5.972   3.905   2.716
 9383SOL    HW129048   6.050   3.961   2.742
 9383SOL    HW229049   5.935   3.858   2.796
 9384SOL     OW29050   3.491   0.414   1.613
 9384SOL    HW129051   3.515   0.504   1.576
 9384SOL    HW229052   3.475   0.422   1.712
 9385SOL     OW29053   4.706   1.421   4.059
 9385SOL    HW129054   4.645   1.501   4.061
 9385SOL    HW229055   4.781   1.439   3.995
 9386SOL     OW29056   4.787   6.379   0.617
 9386SOL    HW129057   4.861   6.339   0.563
 9386SOL    HW229058   4.805   6.476   0.633
 9387SOL     OW29059   2.681   1.428   0.232
 9387SOL    HW129060   2.626   1.469   0.160
 9387SOL    HW229061   2.666   1.330   0.234
 9388SOL     OW29062   2.422   0.062   5.519
 9388SOL    HW129063   2.485   0.126   5.564
 9388SOL    HW229064   2.467   6.997   5.506
 9389SOL     OW29065   1.986   4.189   1.903
 9389SOL    HW129066   2.086   4.196   1.893
 9389SOL    HW229067   1.948   4.278   1.924
 9390SOL     OW29068   4.752   4.661   4.388
 9390SOL    HW129069   4.794   4.741   4.343
 9390SOL    HW229070   4.701   4.608   4.321
 9391SOL     OW29071   1.414   4.187   4.513
 9391SOL    HW129072   1.482   4.146   4.452
 9391SOL    HW229073   1.450   4.192   4.606
 9392SOL     OW29074   5.248   4.368   2.806
 9392SOL    HW129075   5.316   4.399   2.873
 9392SOL    HW229076   5.288   4.295   2.750
 9393SOL     OW29077   1.989   5.844   6.069
 9393SOL    HW129078   1.937   5.923   6.037
 9393SOL    HW229079   2.015   5.787   5.992
 9394SOL     OW29080   4.158   0.657   0.486
 9394SOL    HW129081   4.197   0.695   0.402
 9394SOL    HW229082   4.102   0.726   0.531
 9395SOL     OW29083   1.200   1.475   1.294
 9395SOL    HW129084   1.279   1.487   1.355
 9395SOL    HW229085   1.224   1.507   1.203
 9396SOL     OW29086   0.741   0.342   6.114
 9396SOL    HW129087   0.817   0.363   6.175
 9396SOL    HW229088   0.666   0.301   6.166
 9397SOL     OW29089   3.589   0.974   5.071
 9397SOL    HW129090   3.607   1.072   5.078
 9397SOL    HW229091   3.578   0.949   4.975
 9398SOL     OW29092   0.791   1.914   7.023
 9398SOL    HW129093   0.741   1.882   0.080
 9398SOL    HW229094   0.857   1.845   6.995
 9399SOL     OW29095   1.299   2.170   4.232
 9399SOL    HW129096   1.218   2.205   4.279
 9399SOL    HW229097   1.354   2.116   4.296
 9400SOL     OW29098   5.976   1.471   1.034
 9400SOL    HW129099   5.997   1.560   0.993
 9400SOL    HW229100   5.877   1.458   1.036
 9401SOL     OW29101   0.065   2.270   3.734
 9401SOL    HW129102   0.124   2.202   3.777
 9401SOL    HW229103   0.008   2.225   3.664
 9402SOL     OW29104   2.691   6.770   4.366
 9402SOL    HW129105   2.677   6.783   4.268
 9402SOL    HW229106   2.642   6.688   4.396
 9403SOL     OW29107   5.344   2.151   1.332
 9403SOL    HW129108   5.314   2.224   1.271
 9403SOL    HW229109   5.441   2.131   1.315
 9404SOL     OW29110   2.264   2.392   1.039
 9404SOL    HW129111   2.343   2.411   1.097
 9404SOL    HW229112   2.196   2.465   1.049
 9405SOL     OW29113   6.198   5.576   5.542
 9405SOL    HW129114   6.176   5.480   5.558
 9405SOL    HW229115   6.197   5.595   5.444
 9406SOL     OW29116   1.165   2.431   0.388
 9406SOL    HW129117   1.114   2.375   0.453
 9406SOL    HW229118   1.261   2.434   0.417
 9407SOL     OW29119   2.016   5.049   4.607
 9407SOL    HW129120   2.066   4.986   4.548
 9407SOL    HW229121   2.052   5.043   4.700
 9408SOL     OW29122   6.383   4.196   4.660
 9408SOL    HW129123   6.373   4.106   4.618
 9408SOL    HW229124   6.349   4.266   4.598
 9409SOL     OW29125   6.282   5.438   1.931
 9409SOL    HW129126   6.194   5.410   1.893
 9409SOL    HW229127   6.318   5.516   1.880
 9410SOL     OW29128   3.924   0.677   0.867
 9410SOL    HW129129   3.935   0.605   0.799
 9410SOL    HW229130   3.980   0.656   0.947
 9411SOL     OW29131   3.383   3.995   3.128
 9411SOL    HW129132   3.449   4.032   3.193
 9411SOL    HW229133   3.323   4.068   3.096
 9412SOL     OW29134   4.558   6.906   1.949
 9412SOL    HW129135   4.481   6.857   1.992
 9412SOL    HW229136   4.534   6.928   1.855
 9413SOL     OW29137   4.774   3.982   2.924
 9413SOL    HW129138   4.680   4.007   2.946
 9413SOL    HW229139   4.805   4.034   2.845
 9414SOL     OW29140   2.516   2.144   2.718
 9414SOL    HW129141   2.609   2.123   2.688
 9414SOL    HW229142   2.451   2.084   2.672
 9415SOL     OW29143   5.403   0.454   2.230
 9415SOL    HW129144   5.487   0.425   2.275
 9415SOL    HW229145   5.416   0.452   2.130
 9416SOL     OW29146   5.713   5.412   5.753
 9416SOL    HW129147   5.811   5.398   5.738
 9416SOL    HW229148   5.686   5.370   5.840
 9417SOL     OW29149   3.229   5.223   2.552
 9417SOL    HW129150   3.198   5.317   2.537
 9417SOL    HW229151   3.268   5.216   2.644
 9418SOL     OW29152   3.096   1.864   5.065
 9418SOL    HW129153   3.027   1.846   4.995
 9418SOL    HW229154   3.148   1.946   5.040
 9419SOL     OW29155   2.088   2.636   6.523
 9419SOL    HW129156   2.011   2.572   6.525
 9419SOL    HW229157   2.170   2.592   6.559
 9420SOL     OW29158   5.383   4.118   5.538
 9420SOL    HW129159   5.421   4.113   5.631
 9420SOL    HW229160   5.316   4.045   5.526
 9421SOL     OW29161   3.621   6.371   6.976
 9421SOL    HW129162   3.605   6.279   7.013
 9421SOL    HW229163   3.696   6.414   0.002
 9422SOL     OW29164   2.332   6.325   5.727
 9422SOL    HW129165   2.324   6.269   5.645
 9422SOL    HW229166   2.271   6.289   5.798
 9423SOL     OW29167   4.651   4.772   2.091
 9423SOL    HW129168   4.568   4.799   2.042
 9423SOL    HW229169   4.685   4.685   2.054
 9424SOL     OW29170   6.539   0.482   4.146
 9424SOL    HW129171   6.568   0.528   4.062
 9424SOL    HW229172   6.617   0.433   4.186
 9425SOL     OW29173   0.194   4.066   0.980
 9425SOL    HW129174   0.257   4.049   0.904
 9425SOL    HW229175   0.102   4.039   0.953
 9426SOL     OW29176   5.242   3.088   5.953
 9426SOL    HW129177   5.175   3.048   6.015
 9426SOL    HW229178   5.317   3.129   6.006
 9427SOL     OW29179   4.838   4.154   2.702
 9427SOL    HW129180   4.770   4.219   2.669
 9427SOL    HW229181   4.884   4.112   2.623
 9428SOL     OW29182   0.973   6.401   5.778
 9428SOL    HW129183   0.907   6.474   5.760
 9428SOL    HW229184   1.043   6.434   5.841
 9429SOL     OW29185   2.501   2.421   3.679
 9429SOL    HW129186   2.501   2.321   3.675
 9429SOL    HW229187   2.438   2.451   3.750
 9430SOL     OW29188   1.738   1.134   3.901
 9430SOL    HW129189   1.669   1.106   3.969
 9430SOL    HW229190   1.827   1.097   3.927
 9431SOL     OW29191   0.881   4.549   5.535
 9431SOL    HW129192   0.789   4.572   5.505
 9431SOL    HW229193   0.882   4.458   5.576
 9432SOL     OW29194   6.749   1.227   4.545
 9432SOL    HW129195   6.814   1.167   4.592
 9432SOL    HW229196   6.773   1.322   4.564
 9433SOL     OW29197   4.708   5.379   2.083
 9433SOL    HW129198   4.749   5.288   2.086
 9433SOL    HW229199   4.706   5.412   1.989
 9434SOL     OW29200   3.930   5.632   3.864
 9434SOL    HW129201   3.855   5.610   3.802
 9434SOL    HW229202   4.013   5.648   3.810
 9435SOL     OW29203   6.065   3.869   1.030
 9435SOL    HW129204   6.147   3.857   0.975
 9435SOL    HW229205   5.985   3.845   0.976
 9436SOL     OW29206   2.877   0.861   3.219
 9436SOL    HW129207   2.822   0.913   3.153
 9436SOL    HW229208   2.962   0.832   3.175
 9437SOL     OW29209   5.380   0.624   5.037
 9437SOL    HW129210   5.447   0.613   5.111
 9437SOL    HW229211   5.289   0.639   5.077
 9438SOL     OW29212   4.690   0.214   2.807
 9438SOL    HW129213   4.593   0.223   2.783
 9438SOL    HW229214   4.739   0.297   2.783
 9439SOL     OW29215   2.052   3.854   0.651
 9439SOL    HW129216   2.056   3.763   0.609
 9439SOL    HW229217   2.142   3.879   0.687
 9440SOL     OW29218   1.539   5.277   4.151
 9440SOL    HW129219   1.448   5.314   4.132
 9440SOL    HW229220   1.562   5.208   4.082
 9441SOL     OW29221   0.449   6.629   4.499
 9441SOL    HW129222   0.522   6.582   4.549
 9441SOL    HW229223   0.365   6.627   4.553
 9442SOL     OW29224   5.983   3.349   1.228
 9442SOL    HW129225   5.972   3.364   1.129
 9442SOL    HW229226   5.901   3.381   1.275
 9443SOL     OW29227   2.216   4.325   1.256
 9443SOL    HW129228   2.247   4.236   1.291
 9443SOL    HW229229   2.274   4.352   1.179
 9444SOL     OW29230   2.083   4.764   6.584
 9444SOL    HW129231   2.086   4.691   6.515
 9444SOL    HW229232   2.019   4.835   6.554
 9445SOL     OW29233   0.346   1.428   4.251
 9445SOL    HW129234   0.401   1.376   4.317
 9445SOL    HW229235   0.317   1.367   4.178
 9446SOL     OW29236   6.110   3.850   4.786
 9446SOL    HW129237   6.153   3.775   4.837
 9446SOL    HW229238   6.178   3.894   4.727
 9447SOL     OW29239   5.058   4.967   2.393
 9447SOL    HW129240   5.020   4.986   2.484
 9447SOL    HW229241   5.063   4.868   2.379
 9448SOL     OW29242   5.868   1.966   6.667
 9448SOL    HW129243   5.820   1.928   6.746
 9448SOL    HW229244   5.966   1.971   6.686
 9449SOL     OW29245   5.427   6.840   2.175
 9449SOL    HW129246   5.391   6.889   2.096
 9449SOL    HW229247   5.412   6.895   2.258
 9450SOL     OW29248   1.104   0.172   3.391
 9450SOL    HW129249   1.191   0.145   3.431
 9450SOL    HW229250   1.053   0.229   3.456
 9451SOL     OW29251   3.877   5.096   0.143
 9451SOL    HW129252   3.906   5.183   0.105
 9451SOL    HW229253   3.814   5.112   0.219
 9452SOL     OW29254   6.160   3.999   6.432
 9452SOL    HW129255   6.158   3.902   6.457
 9452SOL    HW229256   6.118   4.011   6.342
 9453SOL     OW29257   5.562   4.727   1.856
 9453SOL    HW129258   5.535   4.755   1.764
 9453SOL    HW229259   5.632   4.655   1.849
 9454SOL     OW29260   6.279   5.057   0.587
 9454SOL    HW129261   6.300   5.155   0.584
 9454SOL    HW229262   6.187   5.044   0.622
 9455SOL     OW29263   4.347   0.298   1.551
 9455SOL    HW129264   4.428   0.240   1.553
 9455SOL    HW229265   4.310   0.306   1.644
 9456SOL     OW29266   6.239   2.059   3.442
 9456SOL    HW129267   6.269   2.101   3.357
 9456SOL    HW229268   6.261   1.962   3.441
 9457SOL     OW29269   6.824   6.270   4.312
 9457SOL    HW129270   6.740   6.262   4.364
 9457SOL    HW229271   6.810   6.335   4.237
 9458SOL     OW29272   5.751   4.200   0.251
 9458SOL    HW129273   5.772   4.195   0.349
 9458SOL    HW229274   5.657   4.172   0.236
 9459SOL     OW29275   4.717   4.220   4.832
 9459SOL    HW129276   4.716   4.183   4.925
 9459SOL    HW229277   4.665   4.305   4.830
 9460SOL     OW29278   1.142   2.986   1.933
 9460SOL    HW129279   1.084   2.988   1.852
 9460SOL    HW229280   1.188   2.898   1.939
 9461SOL     OW29281   1.708   1.300   1.711
 9461SOL    HW129282   1.723   1.259   1.622
 9461SOL    HW229283   1.785   1.359   1.735
 9462SOL     OW29284   6.633   1.321   5.522
 9462SOL    HW129285   6.545   1.353   5.489
 9462SOL    HW229286   6.679   1.270   5.449
 9463SOL     OW29287   6.579   3.682   0.083
 9463SOL    HW129288   6.502   3.708   0.024
 9463SOL    HW229289   6.586   3.747   0.159
 9464SOL     OW29290   1.411   0.783   1.652
 9464SOL    HW129291   1.352   0.728   1.594
 9464SOL    HW229292   1.357   0.822   1.727
 9465SOL     OW29293   6.798   5.933   0.330
 9465SOL    HW129294   6.701   5.933   0.354
 9465SOL    HW229295   6.852   5.915   0.413
 9466SOL     OW29296   4.545   3.675   5.322
 9466SOL    HW129297   4.604   3.698   5.400
 9466SOL    HW229298   4.600   3.634   5.249
 9467SOL     OW29299   1.175   3.607   0.853
 9467SOL    HW129300   1.216   3.561   0.932
 9467SOL    HW229301   1.243   3.613   0.779
 9468SOL     OW29302   5.941   1.297   0.739
 9468SOL    HW129303   5.968   1.393   0.726
 9468SOL    HW229304   5.962   1.269   0.833
 9469SOL     OW29305   6.717   6.937   1.322
 9469SOL    HW129306   6.624   6.902   1.323
 9469SOL    HW229307   6.726   7.008   1.252
 9470SOL     OW29308   4.245   3.363   0.632
 9470SOL    HW129309   4.211   3.358   0.726
 9470SOL    HW229310   4.238   3.272   0.589
 9471SOL     OW29311   6.469   2.800   5.154
 9471SOL    HW129312   6.381   2.822   5.113
 9471SOL    HW229313   6.498   2.875   5.214
 9472SOL     OW29314   1.431   3.496   5.375
 9472SOL    HW129315   1.461   3.526   5.465
 9472SOL    HW229316   1.454   3.566   5.307
 9473SOL     OW29317   2.995   3.363   1.168
 9473SOL    HW129318   3.088   3.393   1.190
 9473SOL    HW229319   2.991   3.329   1.074
 9474SOL     OW29320   5.677   4.456   1.084
 9474SOL    HW129321   5.762   4.461   1.137
 9474SOL    HW229322   5.695   4.411   0.996
 9475SOL     OW29323   4.828   3.984   5.926
 9475SOL    HW129324   4.769   4.031   5.860
 9475SOL    HW229325   4.793   3.891   5.941
 9476SOL     OW29326   4.222   4.037   1.292
 9476SOL    HW129327   4.230   4.118   1.235
 9476SOL    HW229328   4.304   4.027   1.348
 9477SOL     OW29329   2.397   4.551   0.946
 9477SOL    HW129330   2.348   4.608   1.012
 9477SOL    HW229331   2.470   4.605   0.903
 9478SOL     OW29332   5.444   4.143   6.293
 9478SOL    HW129333   5.456   4.166   6.389
 9478SOL    HW229334   5.348   4.121   6.275
 9479SOL     OW29335   4.389   1.054   1.852
 9479SOL    HW129336   4.308   1.003   1.883
 9479SOL    HW229337   4.398   1.138   1.905
 9480SOL     OW29338   5.887   0.708   0.341
 9480SOL    HW129339   5.974   0.667   0.370
 9480SOL    HW229340   5.840   0.645   0.279
 9481SOL     OW29341   4.641   0.416   3.228
 9481SOL    HW129342   4.595   0.501   3.255
 9481SOL    HW229343   4.689   0.430   3.142
 9482SOL     OW29344   6.267   5.130   5.760
 9482SOL    HW129345   6.244   5.059   5.694
 9482SOL    HW229346   6.250   5.095   5.853
 9483SOL     OW29347   6.169   6.236   6.753
 9483SOL    HW129348   6.141   6.219   6.848
 9483SOL    HW229349   6.209   6.328   6.747
 9484SOL     OW29350   3.024   5.759   4.977
 9484SOL    HW129351   2.981   5.801   4.897
 9484SOL    HW229352   3.112   5.721   4.951
 9485SOL     OW29353   0.159   1.774   5.454
 9485SOL    HW129354   0.257   1.787   5.444
 9485SOL    HW229355   0.131   1.803   5.546
 9486SOL     OW29356   6.521   5.491   6.671
 9486SOL    HW129357   6.536   5.461   6.577
 9486SOL    HW229358   6.498   5.589   6.671
 9487SOL     OW29359   3.270   3.627   3.720
 9487SOL    HW129360   3.280   3.690   3.797
 9487SOL    HW229361   3.341   3.648   3.652
 9488SOL     OW29362   1.774   0.867   1.107
 9488SOL    HW129363   1.722   0.813   1.042
 9488SOL    HW229364   1.759   0.832   1.200
 9489SOL     OW29365   5.786   3.922   0.175
 9489SOL    HW129366   5.718   3.901   0.104
 9489SOL    HW229367   5.810   4.019   0.171
 9490SOL     OW29368   5.993   3.335   5.100
 9490SOL    HW129369   5.986   3.306   5.005
 9490SOL    HW229370   6.079   3.303   5.139
 9491SOL     OW29371   5.730   0.155   2.763
 9491SOL    HW129372   5.652   0.217   2.750
 9491SOL    HW229373   5.815   0.202   2.742
 9492SOL     OW29374   4.973   2.453   3.670
 9492SOL    HW129375   4.945   2.447   3.765
 9492SOL    HW229376   5.066   2.489   3.664
 9493SOL     OW29377   3.604   6.163   1.828
 9493SOL    HW129378   3.539   6.236   1.851
 9493SOL    HW229379   3.609   6.097   1.903
 9494SOL     OW29380   5.639   2.364   2.047
 9494SOL    HW129381   5.543   2.334   2.049
 9494SOL    HW229382   5.666   2.384   1.953
 9495SOL     OW29383   5.594   3.110   1.176
 9495SOL    HW129384   5.607   3.209   1.164
 9495SOL    HW229385   5.570   3.069   1.088
 9496SOL     OW29386   5.682   2.742   1.094
 9496SOL    HW129387   5.740   2.805   1.146
 9496SOL    HW229388   5.614   2.795   1.042
 9497SOL     OW29389   4.937   5.222   5.218
 9497SOL    HW129390   4.840   5.236   5.235
 9497SOL    HW229391   4.982   5.310   5.207
 9498SOL     OW29392   0.915   5.897   5.160
 9498SOL    HW129393   0.986   5.906   5.230
 9498SOL    HW229394   0.959   5.880   5.071
 9499SOL     OW29395   5.691   6.098   4.325
 9499SOL    HW129396   5.598   6.096   4.361
 9499SOL    HW229397   5.728   6.005   4.323
 9500SOL     OW29398   2.949   1.675   0.776
 9500SOL    HW129399   2.972   1.769   0.801
 9500SOL    HW229400   2.850   1.666   0.767
 9501SOL     OW29401   2.135   3.904   5.172
 9501SOL    HW129402   2.169   3.956   5.250
 9501SOL    HW229403   2.194   3.921   5.093
 9502SOL     OW29404   5.783   4.923   4.003
 9502SOL    HW129405   5.758   4.828   4.022
 9502SOL    HW229406   5.844   4.927   3.924
 9503SOL     OW29407   6.233   0.796   0.106
 9503SOL    HW129408   6.280   0.872   0.062
 9503SOL    HW229409   6.251   0.798   0.204
 9504SOL     OW29410   6.172   5.810   1.856
 9504SOL    HW129411   6.265   5.779   1.876
 9504SOL    HW229412   6.171   5.910   1.852
 9505SOL     OW29413   4.490   4.401   6.367
 9505SOL    HW129414   4.490   4.329   6.298
 9505SOL    HW229415   4.478   4.490   6.323
 9506SOL     OW29416   2.669   1.041   0.922
 9506SOL    HW129417   2.740   1.029   0.853
 9506SOL    HW229418   2.709   1.027   1.013
 9507SOL     OW29419   6.244   0.032   1.678
 9507SOL    HW129420   6.242   6.989   1.752
 9507SOL    HW229421   6.185   0.001   1.603
 9508SOL     OW29422   4.459   0.803   2.742
 9508SOL    HW129423   4.399   0.793   2.822
 9508SOL    HW229424   4.453   0.897   2.708
 9509SOL     OW29425   5.404   1.279   3.657
 9509SOL    HW129426   5.313   1.237   3.662
 9509SOL    HW229427   5.400   1.361   3.600
 9510SOL     OW29428   2.088   2.697   2.612
 9510SOL    HW129429   2.081   2.736   2.703
 9510SOL    HW229430   2.183   2.705   2.579
 9511SOL     OW29431   0.517   1.677   1.128
 9511SOL    HW129432   0.596   1.703   1.183
 9511SOL    HW229433   0.507   1.740   1.052
 9512SOL     OW29434   6.453   1.818   1.960
 9512SOL    HW129435   6.511   1.882   2.009
 9512SOL    HW229436   6.498   1.793   1.874
 9513SOL     OW29437   4.709   3.943   5.254
 9513SOL    HW129438   4.660   4.025   5.283
 9513SOL    HW229439   4.644   3.868   5.243
 9514SOL     OW29440   3.608   2.753   0.360
 9514SOL    HW129441   3.651   2.718   0.443
 9514SOL    HW229442   3.615   2.853   0.359
 9515SOL     OW29443   0.695   5.561   3.267
 9515SOL    HW129444   0.660   5.635   3.209
 9515SOL    HW229445   0.631   5.485   3.266
 9516SOL     OW29446   0.195   3.992   5.910
 9516SOL    HW129447   0.107   4.017   5.951
 9516SOL    HW229448   0.207   4.044   5.825
 9517SOL     OW29449   0.143   6.540   1.094
 9517SOL    HW129450   0.075   6.614   1.098
 9517SOL    HW229451   0.096   6.453   1.077
 9518SOL     OW29452   0.782   0.892   1.290
 9518SOL    HW129453   0.864   0.949   1.298
 9518SOL    HW229454   0.735   0.913   1.204
 9519SOL     OW29455   0.916   2.591   5.314
 9519SOL    HW129456   0.881   2.673   5.360
 9519SOL    HW229457   1.003   2.612   5.270
 9520SOL     OW29458   3.826   6.673   1.974
 9520SOL    HW129459   3.859   6.591   2.021
 9520SOL    HW229460   3.742   6.651   1.924
 9521SOL     OW29461   5.162   5.153   3.550
 9521SOL    HW129462   5.103   5.216   3.599
 9521SOL    HW229463   5.109   5.072   3.523
 9522SOL     OW29464   2.887   5.103   6.636
 9522SOL    HW129465   2.907   5.085   6.732
 9522SOL    HW229466   2.968   5.140   6.591
 9523SOL     OW29467   2.059   6.425   5.392
 9523SOL    HW129468   1.985   6.454   5.453
 9523SOL    HW229469   2.116   6.504   5.369
 9524SOL     OW29470   4.908   2.788   0.991
 9524SOL    HW129471   4.932   2.880   1.021
 9524SOL    HW229472   4.808   2.779   0.984
 9525SOL     OW29473   4.137   0.220   4.678
 9525SOL    HW129474   4.095   0.298   4.632
 9525SOL    HW229475   4.067   0.164   4.722
 9526SOL     OW29476   4.922   6.066   1.601
 9526SOL    HW129477   4.826   6.036   1.595
 9526SOL    HW229478   4.958   6.044   1.691
 9527SOL     OW29479   6.989   2.374   0.808
 9527SOL    HW129480   0.048   2.422   0.780
 9527SOL    HW229481   6.949   2.327   0.729
 9528SOL     OW29482   0.060   1.255   1.542
 9528SOL    HW129483   0.154   1.225   1.563
 9528SOL    HW229484   0.040   1.340   1.591
 9529SOL     OW29485   1.265   3.356   5.154
 9529SOL    HW129486   1.324   3.390   5.227
 9529SOL    HW229487   1.244   3.430   5.090
 9530SOL     OW29488   1.741   1.676   3.990
 9530SOL    HW129489   1.646   1.674   3.957
 9530SOL    HW229490   1.784   1.588   3.972
 9531SOL     OW29491   3.027   6.478   3.453
 9531SOL    HW129492   2.950   6.454   3.512
 9531SOL    HW229493   3.060   6.569   3.478
 9532SOL     OW29494   3.347   1.449   2.035
 9532SOL    HW129495   3.261   1.493   2.010
 9532SOL    HW229496   3.363   1.370   1.976
 9533SOL     OW29497   0.770   1.691   5.022
 9533SOL    HW129498   0.788   1.767   5.086
 9533SOL    HW229499   0.748   1.609   5.074
 9534SOL     OW29500   5.634   1.715   4.378
 9534SOL    HW129501   5.647   1.706   4.476
 9534SOL    HW229502   5.713   1.761   4.337
 9535SOL     OW29503   3.432   2.026   4.573
 9535SOL    HW129504   3.427   1.926   4.580
 9535SOL    HW229505   3.340   2.064   4.576
 9536SOL     OW29506   2.715   6.412   6.691
 9536SOL    HW129507   2.618   6.438   6.694
 9536SOL    HW229508   2.771   6.491   6.716
 9537SOL     OW29509   2.964   6.916   0.483
 9537SOL    HW129510   2.877   6.883   0.520
 9537SOL    HW229511   2.996   6.994   0.537
 9538SOL     OW29512   6.234   3.946   2.887
 9538SOL    HW129513   6.245   3.872   2.820
 9538SOL    HW229514   6.207   3.906   2.975
 9539SOL     OW29515   0.227   3.949   6.946
 9539SOL    HW129516   0.237   3.858   6.987
 9539SOL    HW229517   0.193   4.013   7.015
 9540SOL     OW29518   5.291   3.129   5.703
 9540SOL    HW129519   5.390   3.128   5.695
 9540SOL    HW229520   5.265   3.111   5.798
 9541SOL     OW29521   6.690   1.870   3.530
 9541SOL    HW129522   6.648   1.794   3.480
 9541SOL    HW229523   6.729   1.935   3.464
 9542SOL     OW29524   4.653   4.346   4.336
 9542SOL    HW129525   4.607   4.362   4.424
 9542SOL    HW229526   4.606   4.396   4.264
 9543SOL     OW29527   5.355   2.319   2.043
 9543SOL    HW129528   5.334   2.413   2.067
 9543SOL    HW229529   5.305   2.293   1.961
 9544SOL     OW29530   4.371   1.058   1.398
 9544SOL    HW129531   4.338   1.111   1.320
 9544SOL    HW229532   4.394   0.965   1.369
 9545SOL     OW29533   1.222   0.096   4.684
 9545SOL    HW129534   1.178   0.073   4.597
 9545SOL    HW229535   1.282   0.021   4.711
 9546SOL     OW29536   2.135   4.742   1.795
 9546SOL    HW129537   2.207   4.812   1.801
 9546SOL    HW229538   2.174   4.657   1.759
 9547SOL     OW29539   5.788   5.281   3.366
 9547SOL    HW129540   5.692   5.260   3.387
 9547SOL    HW229541   5.797   5.304   3.269
 9548SOL     OW29542   5.397   0.122   2.690
 9548SOL    HW129543   5.437   0.213   2.677
 9548SOL    HW229544   5.311   0.117   2.639
 9549SOL     OW29545   2.277   5.773   0.343
 9549SOL    HW129546   2.298   5.868   0.322
 9549SOL    HW229547   2.361   5.726   0.372
 9550SOL     OW29548   1.817   1.217   0.230
 9550SOL    HW129549   1.766   1.193   0.313
 9550SOL    HW229550   1.755   1.220   0.152
 9551SOL     OW29551   1.932   5.540   4.935
 9551SOL    HW129552   2.001   5.503   4.997
 9551SOL    HW229553   1.973   5.612   4.879
 9552SOL     OW29554   0.465   5.101   3.659
 9552SOL    HW129555   0.492   5.004   3.654
 9552SOL    HW229556   0.368   5.109   3.635
 9553SOL     OW29557   5.718   4.656   6.293
 9553SOL    HW129558   5.707   4.567   6.337
 9553SOL    HW229559   5.644   4.717   6.321
 9554SOL     OW29560   1.752   1.572   1.548
 9554SOL    HW129561   1.816   1.636   1.506
 9554SOL    HW229562   1.786   1.479   1.539
 9555SOL     OW29563   0.248   2.719   6.244
 9555SOL    HW129564   0.258   2.632   6.292
 9555SOL    HW229565   0.155   2.727   6.207
 9556SOL     OW29566   6.597   1.236   1.207
 9556SOL    HW129567   6.514   1.206   1.254
 9556SOL    HW229568   6.605   1.335   1.214
 9557SOL     OW29569   5.087   1.700   2.250
 9557SOL    HW129570   5.039   1.627   2.202
 9557SOL    HW229571   5.035   1.785   2.242
 9558SOL     OW29572   6.579   3.879   1.224
 9558SOL    HW129573   6.534   3.965   1.200
 9558SOL    HW229574   6.678   3.887   1.208
 9559SOL     OW29575   0.514   3.945   2.644
 9559SOL    HW129576   0.436   3.989   2.689
 9559SOL    HW229577   0.555   4.009   2.579
 9560SOL     OW29578   3.941   2.451   5.437
 9560SOL    HW129579   3.890   2.511   5.499
 9560SOL    HW229580   3.970   2.503   5.357
 9561SOL     OW29581   2.956   6.241   6.060
 9561SOL    HW129582   2.927   6.314   5.998
 9561SOL    HW229583   3.010   6.173   6.009
 9562SOL     OW29584   5.678   5.083   4.457
 9562SOL    HW129585   5.710   5.150   4.524
 9562SOL    HW229586   5.704   5.113   4.365
 9563SOL     OW29587   0.508   6.692   6.678
 9563SOL    HW129588   0.596   6.700   6.725
 9563SOL    HW229589   0.464   6.782   6.673
 9564SOL     OW29590   1.069   0.640   5.915
 9564SOL    HW129591   1.142   0.584   5.955
 9564SOL    HW229592   1.000   0.660   5.985
 9565SOL     OW29593   3.348   5.881   4.886
 9565SOL    HW129594   3.283   5.919   4.952
 9565SOL    HW229595   3.357   5.782   4.901
 9566SOL     OW29596   3.144   4.764   6.311
 9566SOL    HW129597   3.216   4.833   6.309
 9566SOL    HW229598   3.138   4.720   6.221
 9567SOL     OW29599   6.023   4.987   5.025
 9567SOL    HW129600   6.070   4.971   5.111
 9567SOL    HW229601   5.926   4.967   5.035
 9568SOL     OW29602   5.322   3.843   6.003
 9568SOL    HW129603   5.234   3.891   6.002
 9568SOL    HW229604   5.317   3.764   5.942
 9569SOL     OW29605   5.834   0.020   1.321
 9569SOL    HW129606   5.771   7.017   1.394
 9569SOL    HW229607   5.800   0.102   1.275
 9570SOL     OW29608   1.085   1.577   6.691
 9570SOL    HW129609   1.101   1.676   6.687
 9570SOL    HW229610   1.172   1.529   6.680
 9571SOL     OW29611   2.700   2.310   0.774
 9571SOL    HW129612   2.719   2.346   0.682
 9571SOL    HW229613   2.635   2.235   0.767
 9572SOL     OW29614   0.327   3.986   0.763
 9572SOL    HW129615   0.335   3.996   0.664
 9572SOL    HW229616   0.316   3.889   0.786
 9573SOL     OW29617   4.772   1.093   3.101
 9573SOL    HW129618   4.749   1.024   3.031
 9573SOL    HW229619   4.708   1.169   3.095
 9574SOL     OW29620   2.730   2.353   3.373
 9574SOL    HW129621   2.710   2.336   3.277
 9574SOL    HW229622   2.686   2.438   3.402
 9575SOL     OW29623   4.151   1.626   3.210
 9575SOL    HW129624   4.121   1.715   3.244
 9575SOL    HW229625   4.102   1.604   3.126
 9576SOL     OW29626   3.844   3.457   5.571
 9576SOL    HW129627   3.818   3.455   5.668
 9576SOL    HW229628   3.890   3.372   5.548
 9577SOL     OW29629   0.864   6.218   3.645
 9577SOL    HW129630   0.808   6.248   3.722
 9577SOL    HW229631   0.864   6.118   3.641
 9578SOL     OW29632   6.841   3.904   1.205
 9578SOL    HW129633   6.857   3.811   1.238
 9578SOL    HW229634   6.855   3.969   1.279
 9579SOL     OW29635   2.031   5.128   2.961
 9579SOL    HW129636   1.950   5.110   2.906
 9579SOL    HW229637   2.110   5.143   2.902
 9580SOL     OW29638   4.192   3.758   5.840
 9580SOL    HW129639   4.154   3.850   5.833
 9580SOL    HW229640   4.134   3.702   5.899
 9581SOL     OW29641   1.071   5.838   6.014
 9581SOL    HW129642   0.976   5.858   5.987
 9581SOL    HW229643   1.107   5.766   5.954
 9582SOL     OW29644   4.718   5.247   3.317
 9582SOL    HW129645   4.660   5.327   3.329
 9582SOL    HW229646   4.814   5.274   3.325
 9583SOL     OW29647   1.771   4.719   1.391
 9583SOL    HW129648   1.851   4.744   1.445
 9583SOL    HW229649   1.700   4.789   1.401
 9584SOL     OW29650   4.977   4.972   0.177
 9584SOL    HW129651   5.076   4.971   0.169
 9584SOL    HW229652   4.939   4.889   0.137
 9585SOL     OW29653   6.819   1.086   2.902
 9585SOL    HW129654   6.847   1.054   2.812
 9585SOL    HW229655   6.900   1.111   2.955
 9586SOL     OW29656   5.093   3.630   2.456
 9586SOL    HW129657   5.026   3.704   2.444
 9586SOL    HW229658   5.054   3.558   2.513
 9587SOL     OW29659   4.504   6.585   1.737
 9587SOL    HW129660   4.513   6.576   1.836
 9587SOL    HW229661   4.500   6.494   1.695
 9588SOL     OW29662   6.308   1.093   3.558
 9588SOL    HW129663   6.214   1.080   3.591
 9588SOL    HW229664   6.371   1.043   3.618
 9589SOL     OW29665   3.124   2.058   4.592
 9589SOL    HW129666   3.105   1.963   4.616
 9589SOL    HW229667   3.060   2.118   4.640
 9590SOL     OW29668   0.422   4.652   4.770
 9590SOL    HW129669   0.483   4.730   4.756
 9590SOL    HW229670   0.427   4.592   4.691
 9591SOL     OW29671   1.051   4.403   2.638
 9591SOL    HW129672   1.128   4.373   2.694
 9591SOL    HW229673   1.058   4.362   2.547
 9592SOL     OW29674   4.590   5.739   0.948
 9592SOL    HW129675   4.514   5.804   0.957
 9592SOL    HW229676   4.630   5.722   1.037
 9593SOL     OW29677   2.128   1.948   3.120
 9593SOL    HW129678   2.153   1.991   3.033
 9593SOL    HW229679   2.073   1.866   3.101
 9594SOL     OW29680   5.928   0.455   1.221
 9594SOL    HW129681   5.916   0.525   1.291
 9594SOL    HW229682   5.858   0.385   1.231
 9595SOL     OW29683   1.188   5.714   5.252
 9595SOL    HW129684   1.170   5.623   5.290
 9595SOL    HW229685   1.268   5.754   5.298
 9596SOL     OW29686   5.206   5.763   2.190
 9596SOL    HW129687   5.127   5.749   2.249
 9596SOL    HW229688   5.204   5.696   2.115
 9597SOL     OW29689   2.464   4.583   1.348
 9597SOL    HW129690   2.389   4.603   1.284
 9597SOL    HW229691   2.516   4.666   1.366
 9598SOL     OW29692   0.495   6.320   5.965
 9598SOL    HW129693   0.483   6.407   5.916
 9598SOL    HW229694   0.445   6.324   6.051
 9599SOL     OW29695   3.837   2.144   5.036
 9599SOL    HW129696   3.738   2.138   5.023
 9599SOL    HW229697   3.883   2.140   4.947
 9600SOL     OW29698   1.598   6.352   6.339
 9600SOL    HW129699   1.644   6.364   6.251
 9600SOL    HW229700   1.533   6.426   6.353
 9601SOL     OW29701   0.845   6.625   5.149
 9601SOL    HW129702   0.884   6.599   5.238
 9601SOL    HW229703   0.828   6.543   5.094
 9602SOL     OW29704   1.469   5.493   6.193
 9602SOL    HW129705   1.465   5.476   6.292
 9602SOL    HW229706   1.565   5.503   6.166
 9603SOL     OW29707   0.989   4.762   2.427
 9603SOL    HW129708   0.993   4.808   2.516
 9603SOL    HW229709   0.935   4.678   2.436
 9604SOL     OW29710   0.219   0.511   6.496
 9604SOL    HW129711   0.165   0.523   6.580
 9604SOL    HW229712   0.157   0.503   6.418
 9605SOL     OW29713   3.012   4.668   1.044
 9605SOL    HW129714   2.932   4.727   1.039
 9605SOL    HW229715   3.062   4.688   1.129
 9606SOL     OW29716   0.081   0.419   5.423
 9606SOL    HW129717   0.149   0.394   5.492
 9606SOL    HW229718   0.109   0.383   5.334
 9607SOL     OW29719   0.214   2.156   2.269
 9607SOL    HW129720   0.160   2.190   2.346
 9607SOL    HW229721   0.306   2.194   2.274
 9608SOL     OW29722   6.447   0.945   2.221
 9608SOL    HW129723   6.445   0.970   2.124
 9608SOL    HW229724   6.397   1.013   2.275
 9609SOL     OW29725   1.441   2.264   3.521
 9609SOL    HW129726   1.478   2.171   3.525
 9609SOL    HW229727   1.515   2.328   3.500
 9610SOL     OW29728   3.908   1.031   5.349
 9610SOL    HW129729   3.858   1.039   5.262
 9610SOL    HW229730   3.856   0.974   5.412
 9611SOL     OW29731   5.234   5.801   0.872
 9611SOL    HW129732   5.236   5.810   0.773
 9611SOL    HW229733   5.142   5.774   0.902
 9612SOL     OW29734   5.592   3.413   3.815
 9612SOL    HW129735   5.561   3.492   3.867
 9612SOL    HW229736   5.546   3.331   3.849
 9613SOL     OW29737   5.597   1.006   4.783
 9613SOL    HW129738   5.679   0.982   4.733
 9613SOL    HW229739   5.617   1.081   4.847
 9614SOL     OW29740   2.733   2.496   0.551
 9614SOL    HW129741   2.833   2.503   0.554
 9614SOL    HW229742   2.693   2.587   0.562
 9615SOL     OW29743   0.662   5.743   3.623
 9615SOL    HW129744   0.619   5.659   3.590
 9615SOL    HW229745   0.605   5.821   3.598
 9616SOL     OW29746   1.083   2.599   0.933
 9616SOL    HW129747   1.172   2.557   0.952
 9616SOL    HW229748   1.089   2.698   0.945
 9617SOL     OW29749   0.361   2.501   2.513
 9617SOL    HW129750   0.321   2.535   2.598
 9617SOL    HW229751   0.368   2.401   2.516
 9618SOL     OW29752   5.017   3.774   1.634
 9618SOL    HW129753   5.011   3.715   1.715
 9618SOL    HW229754   5.003   3.869   1.660
 9619SOL     OW29755   0.623   6.559   1.308
 9619SOL    HW129756   0.722   6.556   1.294
 9619SOL    HW229757   0.578   6.583   1.222
 9620SOL     OW29758   3.616   1.393   0.211
 9620SOL    HW129759   3.698   1.370   0.158
 9620SOL    HW229760   3.628   1.365   0.306
 9621SOL     OW29761   0.412   0.894   1.658
 9621SOL    HW129762   0.315   0.899   1.684
 9621SOL    HW229763   0.464   0.962   1.709
 9622SOL     OW29764   6.576   5.795   5.711
 9622SOL    HW129765   6.557   5.699   5.730
 9622SOL    HW229766   6.584   5.809   5.612
 9623SOL     OW29767   2.841   5.976   5.744
 9623SOL    HW129768   2.919   5.916   5.763
 9623SOL    HW229769   2.821   5.975   5.646
 9624SOL     OW29770   4.382   5.728   5.792
 9624SOL    HW129771   4.402   5.692   5.883
 9624SOL    HW229772   4.355   5.653   5.732
 9625SOL     OW29773   4.511   4.495   6.615
 9625SOL    HW129774   4.604   4.495   6.652
 9625SOL    HW229775   4.513   4.461   6.521
 9626SOL     OW29776   2.427   2.480   6.292
 9626SOL    HW129777   2.515   2.434   6.304
 9626SOL    HW229778   2.442   2.572   6.255
 9627SOL     OW29779   0.184   5.724   0.494
 9627SOL    HW129780   0.267   5.670   0.479
 9627SOL    HW229781   0.200   5.818   0.464
 9628SOL     OW29782   5.616   0.992   6.028
 9628SOL    HW129783   5.665   1.027   6.109
 9628SOL    HW229784   5.619   0.892   6.028
 9629SOL     OW29785   0.765   5.895   3.988
 9629SOL    HW129786   0.778   5.956   4.066
 9629SOL    HW229787   0.673   5.854   3.993
 9630SOL     OW29788   5.182   0.968   6.626
 9630SOL    HW129789   5.167   0.963   6.725
 9630SOL    HW229790   5.110   0.917   6.579
 9631SOL     OW29791   4.590   6.295   0.758
 9631SOL    HW129792   4.678   6.312   0.714
 9631SOL    HW229793   4.552   6.381   0.792
 9632SOL     OW29794   2.494   5.080   3.077
 9632SOL    HW129795   2.434   5.071   3.157
 9632SOL    HW229796   2.558   5.003   3.076
 9633SOL     OW29797   3.560   2.977   5.040
 9633SOL    HW129798   3.586   2.895   5.092
 9633SOL    HW229799   3.551   3.055   5.102
 9634SOL     OW29800   5.636   4.767   2.773
 9634SOL    HW129801   5.705   4.702   2.803
 9634SOL    HW229802   5.546   4.740   2.809
 9635SOL     OW29803   0.805   4.652   4.703
 9635SOL    HW129804   0.904   4.646   4.715
 9635SOL    HW229805   0.780   4.617   4.612
 9636SOL     OW29806   5.870   3.772   3.802
 9636SOL    HW129807   5.969   3.768   3.789
 9636SOL    HW229808   5.846   3.856   3.850
 9637SOL     OW29809   1.476   3.311   6.877
 9637SOL    HW129810   1.463   3.402   6.839
 9637SOL    HW229811   1.537   3.316   6.957
 9638SOL     OW29812   6.467   4.861   5.480
 9638SOL    HW129813   6.532   4.921   5.526
 9638SOL    HW229814   6.377   4.870   5.523
 9639SOL     OW29815   5.020   2.252   1.533
 9639SOL    HW129816   4.994   2.327   1.472
 9639SOL    HW229817   4.974   2.264   1.621
 9640SOL     OW29818   3.425   0.209   3.018
 9640SOL    HW129819   3.512   0.169   3.047
 9640SOL    HW229820   3.397   0.169   2.931
 9641SOL     OW29821   0.452   3.115   4.688
 9641SOL    HW129822   0.550   3.113   4.708
 9641SOL    HW229823   0.439   3.137   4.591
 9642SOL     OW29824   0.629   2.803   4.777
 9642SOL    HW129825   0.565   2.824   4.851
 9642SOL    HW229826   0.701   2.744   4.812
 9643SOL     OW29827   5.475   4.804   4.847
 9643SOL    HW129828   5.500   4.786   4.942
 9643SOL    HW229829   5.436   4.721   4.806
 9644SOL     OW29830   1.138   4.672   3.845
 9644SOL    HW129831   1.147   4.759   3.798
 9644SOL    HW229832   1.226   4.645   3.884
 9645SOL     OW29833   1.101   5.150   6.814
 9645SOL    HW129834   1.172   5.112   6.755
 9645SOL    HW229835   1.027   5.187   6.757
 9646SOL     OW29836   2.974   5.201   0.709
 9646SOL    HW129837   2.935   5.210   0.801
 9646SOL    HW229838   2.922   5.258   0.645
 9647SOL     OW29839   5.550   6.732   3.182
 9647SOL    HW129840   5.456   6.731   3.218
 9647SOL    HW229841   5.592   6.642   3.197
 9648SOL     OW29842   3.077   2.030   1.211
 9648SOL    HW129843   2.999   2.082   1.178
 9648SOL    HW229844   3.161   2.068   1.172
 9649SOL     OW29845   0.069   5.587   1.116
 9649SOL    HW129846   0.166   5.594   1.094
 9649SOL    HW229847   0.036   5.496   1.094
 9650SOL     OW29848   0.900   4.863   5.015
 9650SOL    HW129849   0.922   4.862   4.917
 9650SOL    HW229850   0.881   4.770   5.046
 9651SOL     OW29851   3.741   2.080   6.813
 9651SOL    HW129852   3.641   2.088   6.819
 9651SOL    HW229853   3.765   2.012   6.743
 9652SOL     OW29854   0.410   3.937   0.219
 9652SOL    HW129855   0.481   4.002   0.190
 9652SOL    HW229856   0.441   3.844   0.201
 9653SOL     OW29857   5.194   4.675   5.789
 9653SOL    HW129858   5.204   4.580   5.761
 9653SOL    HW229859   5.099   4.703   5.779
 9654SOL     OW29860   3.695   3.805   3.488
 9654SOL    HW129861   3.621   3.867   3.515
 9654SOL    HW229862   3.725   3.827   3.395
 9655SOL     OW29863   4.667   1.535   1.048
 9655SOL    HW129864   4.646   1.503   0.956
 9655SOL    HW229865   4.652   1.460   1.113
 9656SOL     OW29866   4.492   4.250   6.811
 9656SOL    HW129867   4.411   4.200   6.842
 9656SOL    HW229868   4.530   4.303   6.887
 9657SOL     OW29869   5.283   4.474   3.197
 9657SOL    HW129870   5.304   4.569   3.173
 9657SOL    HW229871   5.197   4.447   3.154
 9658SOL     OW29872   5.304   1.283   2.716
 9658SOL    HW129873   5.231   1.293   2.784
 9658SOL    HW229874   5.264   1.281   2.624
 9659SOL     OW29875   3.390   3.002   6.844
 9659SOL    HW129876   3.314   3.004   6.779
 9659SOL    HW229877   3.473   2.970   6.797
 9660SOL     OW29878   1.654   6.584   1.287
 9660SOL    HW129879   1.708   6.666   1.305
 9660SOL    HW229880   1.706   6.503   1.316
 9661SOL     OW29881   4.171   3.505   1.935
 9661SOL    HW129882   4.127   3.547   1.856
 9661SOL    HW229883   4.257   3.463   1.908
 9662SOL     OW29884   4.652   0.057   6.050
 9662SOL    HW129885   4.601   0.142   6.065
 9662SOL    HW229886   4.592   7.012   6.011
 9663SOL     OW29887   0.825   5.347   2.951
 9663SOL    HW129888   0.859   5.253   2.958
 9663SOL    HW229889   0.897   5.406   2.916
 9664SOL     OW29890   3.071   4.882   2.859
 9664SOL    HW129891   3.123   4.910   2.778
 9664SOL    HW229892   3.130   4.882   2.939
 9665SOL     OW29893   6.827   4.818   6.415
 9665SOL    HW129894   6.791   4.800   6.506
 9665SOL    HW229895   6.790   4.904   6.381
 9666SOL     OW29896   5.246   3.769   0.762
 9666SOL    HW129897   5.223   3.815   0.848
 9666SOL    HW229898   5.331   3.718   0.773
 9667SOL     OW29899   5.603   6.438   6.983
 9667SOL    HW129900   5.699   6.412   6.995
 9667SOL    HW229901   5.545   6.374   0.008
 9668SOL     OW29902   1.552   1.011   6.336
 9668SOL    HW129903   1.511   1.051   6.254
 9668SOL    HW229904   1.544   1.075   6.412
 9669SOL     OW29905   3.056   0.487   6.831
 9669SOL    HW129906   3.005   0.493   6.917
 9669SOL    HW229907   3.121   0.563   6.827
 9670SOL     OW29908   0.610   1.176   1.300
 9670SOL    HW129909   0.541   1.226   1.247
 9670SOL    HW229910   0.612   1.081   1.270
 9671SOL     OW29911   1.387   4.904   6.421
 9671SOL    HW129912   1.383   4.969   6.345
 9671SOL    HW229913   1.334   4.939   6.498
 9672SOL     OW29914   0.761   3.510   4.096
 9672SOL    HW129915   0.724   3.446   4.163
 9672SOL    HW229916   0.692   3.525   4.024
 9673SOL     OW29917   2.356   2.490   6.558
 9673SOL    HW129918   2.326   2.449   6.472
 9673SOL    HW229919   2.448   2.528   6.547
 9674SOL     OW29920   1.853   7.018   4.060
 9674SOL    HW129921   1.797   0.024   3.982
 9674SOL    HW229922   1.882   0.075   4.112
 9675SOL     OW29923   6.530   4.356   5.607
 9675SOL    HW129924   6.529   4.447   5.650
 9675SOL    HW229925   6.612   4.347   5.551
 9676SOL     OW29926   0.698   3.555   5.483
 9676SOL    HW129927   0.631   3.603   5.540
 9676SOL    HW229928   0.658   3.469   5.450
 9677SOL     OW29929   6.879   4.827   2.549
 9677SOL    HW129930   6.866   4.899   2.617
 9677SOL    HW229931   6.969   4.835   2.507
 9678SOL     OW29932   3.524   3.253   5.481
 9678SOL    HW129933   3.533   3.352   5.472
 9678SOL    HW229934   3.538   3.227   5.577
 9679SOL     OW29935   1.318   1.030   3.899
 9679SOL    HW129936   1.320   0.992   3.991
 9679SOL    HW229937   1.239   0.995   3.849
 9680SOL     OW29938   4.414   0.285   2.429
 9680SOL    HW129939   4.395   0.336   2.513
 9680SOL    HW229940   4.460   0.344   2.363
 9681SOL     OW29941   1.386   3.445   1.351
 9681SOL    HW129942   1.473   3.435   1.400
 9681SOL    HW229943   1.334   3.360   1.359
 9682SOL     OW29944   4.819   0.136   5.831
 9682SOL    HW129945   4.792   0.126   5.926
 9682SOL    HW229946   4.868   0.054   5.802
 9683SOL     OW29947   3.899   5.869   4.395
 9683SOL    HW129948   3.863   5.933   4.327
 9683SOL    HW229949   3.938   5.789   4.349
 9684SOL     OW29950   6.880   3.353   5.744
 9684SOL    HW129951   6.924   3.424   5.798
 9684SOL    HW229952   6.783   3.376   5.731
 9685SOL     OW29953   3.309   4.645   1.715
 9685SOL    HW129954   3.382   4.593   1.759
 9685SOL    HW229955   3.239   4.582   1.683
 9686SOL     OW29956   0.466   1.666   5.672
 9686SOL    HW129957   0.563   1.655   5.694
 9686SOL    HW229958   0.457   1.698   5.578
 9687SOL     OW29959   5.565   1.317   3.880
 9687SOL    HW129960   5.513   1.291   3.799
 9687SOL    HW229961   5.505   1.363   3.945
 9688SOL     OW29962   0.185   4.887   1.559
 9688SOL    HW129963   0.268   4.836   1.534
 9688SOL    HW229964   0.159   4.864   1.653
 9689SOL     OW29965   1.552   5.358   1.198
 9689SOL    HW129966   1.565   5.288   1.268
 9689SOL    HW229967   1.458   5.355   1.166
 9690SOL     OW29968   0.191   4.685   5.163
 9690SOL    HW129969   0.249   4.620   5.114
 9690SOL    HW229970   0.095   4.667   5.141
 9691SOL     OW29971   4.063   3.428   2.180
 9691SOL    HW129972   4.045   3.332   2.160
 9691SOL    HW229973   4.118   3.467   2.106
 9692SOL     OW29974   5.005   4.483   0.583
 9692SOL    HW129975   5.018   4.469   0.485
 9692SOL    HW229976   5.013   4.580   0.604
 9693SOL     OW29977   4.590   3.556   6.131
 9693SOL    HW129978   4.621   3.465   6.104
 9693SOL    HW229979   4.527   3.549   6.208
 9694SOL     OW29980   2.529   6.327   0.940
 9694SOL    HW129981   2.509   6.420   0.911
 9694SOL    HW229982   2.628   6.316   0.952
 9695SOL     OW29983   1.357   2.982   4.080
 9695SOL    HW129984   1.318   3.017   3.994
 9695SOL    HW229985   1.350   3.053   4.150
 9696SOL     OW29986   4.808   3.139   3.405
 9696SOL    HW129987   4.786   3.234   3.426
 9696SOL    HW229988   4.861   3.100   3.480
 9697SOL     OW29989   0.084   0.564   1.624
 9697SOL    HW129990   0.169   0.549   1.573
 9697SOL    HW229991   0.102   0.557   1.722
 9698SOL     OW29992   0.125   3.348   1.851
 9698SOL    HW129993   0.101   3.399   1.933
 9698SOL    HW229994   0.136   3.411   1.775
 9699SOL     OW29995   0.649   5.904   2.077
 9699SOL    HW129996   0.712   5.934   2.006
 9699SOL    HW229997   0.590   5.981   2.104
 9700SOL     OW29998   5.512   0.725   6.308
 9700SOL    HW129999   5.478   0.812   6.272
 9700SOL    HW230000   5.529   0.662   6.232
 9701SOL     OW30001   5.358   4.034   0.589
 9701SOL    HW130002   5.326   3.940   0.594
 9701SOL    HW230003   5.285   4.096   0.619
 9702SOL     OW30004   3.392   3.896   1.791
 9702SOL    HW130005   3.421   3.854   1.878
 9702SOL    HW230006   3.377   3.994   1.805
 9703SOL     OW30007   6.120   4.957   3.248
 9703SOL    HW130008   6.065   5.033   3.282
 9703SOL    HW230009   6.174   4.919   3.323
 9704SOL     OW30010   1.063   4.470   2.180
 9704SOL    HW130011   1.031   4.460   2.086
 9704SOL    HW230012   1.031   4.393   2.235
 9705SOL     OW30013   0.476   3.665   5.667
 9705SOL    HW130014   0.519   3.747   5.704
 9705SOL    HW230015   0.384   3.687   5.634
 9706SOL     OW30016   0.788   0.797   2.267
 9706SOL    HW130017   0.748   0.747   2.344
 9706SOL    HW230018   0.754   0.758   2.181
 9707SOL     OW30019   0.881   5.093   2.308
 9707SOL    HW130020   0.861   5.125   2.401
 9707SOL    HW230021   0.980   5.085   2.296
 9708SOL     OW30022   2.814   0.569   1.580
 9708SOL    HW130023   2.810   0.494   1.514
 9708SOL    HW230024   2.749   0.553   1.654
 9709SOL     OW30025   5.007   1.941   2.192
 9709SOL    HW130026   5.077   1.949   2.121
 9709SOL    HW230027   4.918   1.967   2.154
 9710SOL     OW30028   4.890   5.124   4.454
 9710SOL    HW130029   4.986   5.143   4.477
 9710SOL    HW230030   4.886   5.053   4.384
 9711SOL     OW30031   2.696   0.786   6.636
 9711SOL    HW130032   2.776   0.769   6.579
 9711SOL    HW230033   2.694   0.883   6.662
 9712SOL     OW30034   4.900   0.183   5.581
 9712SOL    HW130035   4.843   0.162   5.660
 9712SOL    HW230036   4.858   0.258   5.529
 9713SOL     OW30037   2.005   0.220   2.579
 9713SOL    HW130038   2.062   0.151   2.535
 9713SOL    HW230039   2.025   0.310   2.541
 9714SOL     OW30040   2.044   3.029   4.292
 9714SOL    HW130041   1.983   3.033   4.213
 9714SOL    HW230042   1.994   2.991   4.370
 9715SOL     OW30043   0.305   2.669   6.581
 9715SOL    HW130044   0.299   2.767   6.603
 9715SOL    HW230045   0.394   2.650   6.540
 9716SOL     OW30046   2.606   6.631   0.635
 9716SOL    HW130047   2.534   6.567   0.609
 9716SOL    HW230048   2.694   6.583   0.640
 9717SOL     OW30049   3.807   2.710   5.822
 9717SOL    HW130050   3.808   2.610   5.815
 9717SOL    HW230051   3.814   2.737   5.918
 9718SOL     OW30052   3.925   2.488   6.906
 9718SOL    HW130053   3.989   2.556   6.944
 9718SOL    HW230054   3.906   2.510   6.810
 9719SOL     OW30055   4.399   0.518   5.924
 9719SOL    HW130056   4.435   0.481   5.838
 9719SOL    HW230057   4.299   0.525   5.918
 9720SOL     OW30058   2.027   2.127   2.534
 9720SOL    HW130059   2.088   2.111   2.612
 9720SOL    HW230060   2.051   2.213   2.490
 9721SOL     OW30061   0.740   1.744   1.301
 9721SOL    HW130062   0.801   1.666   1.285
 9721SOL    HW230063   0.782   1.806   1.367
 9722SOL     OW30064   4.238   2.629   5.453
 9722SOL    HW130065   4.187   2.621   5.367
 9722SOL    HW230066   4.175   2.651   5.528
 9723SOL     OW30067   6.032   0.385   4.917
 9723SOL    HW130068   5.971   0.387   4.838
 9723SOL    HW230069   6.005   0.456   4.982
 9724SOL     OW30070   1.427   4.322   1.263
 9724SOL    HW130071   1.412   4.224   1.274
 9724SOL    HW230072   1.523   4.338   1.239
 9725SOL     OW30073   5.484   5.654   3.890
 9725SOL    HW130074   5.533   5.583   3.940
 9725SOL    HW230075   5.434   5.613   3.813
 9726SOL     OW30076   6.648   0.039   3.063
 9726SOL    HW130077   6.692   0.038   2.973
 9726SOL    HW230078   6.591   0.121   3.072
 9727SOL     OW30079   5.959   2.748   1.610
 9727SOL    HW130080   6.013   2.688   1.670
 9727SOL    HW230081   5.945   2.703   1.522
 9728SOL     OW30082   5.118   2.044   4.631
 9728SOL    HW130083   5.021   2.022   4.622
 9728SOL    HW230084   5.140   2.121   4.570
 9729SOL     OW30085   0.445   3.534   2.697
 9729SOL    HW130086   0.400   3.499   2.614
 9729SOL    HW230087   0.540   3.505   2.697
 9730SOL     OW30088   0.893   5.379   3.231
 9730SOL    HW130089   0.855   5.452   3.287
 9730SOL    HW230090   0.862   5.389   3.137
 9731SOL     OW30091   6.297   2.681   1.524
 9731SOL    HW130092   6.290   2.727   1.612
 9731SOL    HW230093   6.248   2.735   1.455
 9732SOL     OW30094   1.586   3.199   2.780
 9732SOL    HW130095   1.672   3.174   2.736
 9732SOL    HW230096   1.587   3.168   2.875
 9733SOL     OW30097   6.270   5.200   2.089
 9733SOL    HW130098   6.172   5.189   2.107
 9733SOL    HW230099   6.287   5.289   2.048
 9734SOL     OW30100   4.224   5.105   6.694
 9734SOL    HW130101   4.153   5.164   6.657
 9734SOL    HW230102   4.225   5.018   6.645
 9735SOL     OW30103   0.371   1.794   0.053
 9735SOL    HW130104   0.341   1.744   6.996
 9735SOL    HW230105   0.461   1.762   0.081
 9736SOL     OW30106   5.231   2.569   5.261
 9736SOL    HW130107   5.148   2.559   5.207
 9736SOL    HW230108   5.295   2.496   5.238
 9737SOL     OW30109   5.464   2.885   4.758
 9737SOL    HW130110   5.460   2.938   4.842
 9737SOL    HW230111   5.377   2.837   4.743
 9738SOL     OW30112   2.499   6.451   1.221
 9738SOL    HW130113   2.585   6.452   1.171
 9738SOL    HW230114   2.517   6.439   1.319
 9739SOL     OW30115   5.790   6.987   0.332
 9739SOL    HW130116   5.786   6.930   0.414
 9739SOL    HW230117   5.875   0.016   0.333
 9740SOL     OW30118   6.519   0.657   1.701
 9740SOL    HW130119   6.601   0.608   1.730
 9740SOL    HW230120   6.524   0.675   1.602
 9741SOL     OW30121   2.652   2.392   3.081
 9741SOL    HW130122   2.655   2.396   2.981
 9741SOL    HW230123   2.602   2.471   3.116
 9742SOL     OW30124   4.034   1.985   6.196
 9742SOL    HW130125   4.006   2.042   6.273
 9742SOL    HW230126   3.955   1.968   6.137
 9743SOL     OW30127   6.725   3.651   4.302
 9743SOL    HW130128   6.753   3.630   4.395
 9743SOL    HW230129   6.781   3.727   4.267
 9744SOL     OW30130   1.856   1.682   2.503
 9744SOL    HW130131   1.863   1.583   2.497
 9744SOL    HW230132   1.772   1.708   2.551
 9745SOL     OW30133   0.380   0.171   5.715
 9745SOL    HW130134   0.370   0.095   5.651
 9745SOL    HW230135   0.411   0.136   5.803
 9746SOL     OW30136   3.186   6.270   5.595
 9746SOL    HW130137   3.260   6.324   5.555
 9746SOL    HW230138   3.104   6.280   5.540
 9747SOL     OW30139   3.593   1.653   3.716
 9747SOL    HW130140   3.532   1.574   3.716
 9747SOL    HW230141   3.682   1.628   3.755
 9748SOL     OW30142   0.192   1.598   2.177
 9748SOL    HW130143   0.120   1.615   2.245
 9748SOL    HW230144   0.214   1.500   2.177
 9749SOL     OW30145   6.802   0.827   1.864
 9749SOL    HW130146   6.779   0.742   1.913
 9749SOL    HW230147   6.897   0.824   1.835
 9750SOL     OW30148   5.648   2.829   5.750
 9750SOL    HW130149   5.560   2.782   5.759
 9750SOL    HW230150   5.632   2.926   5.730
 9751SOL     OW30151   3.015   6.722   1.203
 9751SOL    HW130152   2.948   6.781   1.159
 9751SOL    HW230153   2.999   6.722   1.302
 9752SOL     OW30154   3.235   3.056   0.492
 9752SOL    HW130155   3.249   3.073   0.394
 9752SOL    HW230156   3.282   3.127   0.545
 9753SOL     OW30157   6.794   5.843   3.759
 9753SOL    HW130158   6.876   5.843   3.701
 9753SOL    HW230159   6.761   5.749   3.769
 9754SOL     OW30160   3.295   0.862   1.979
 9754SOL    HW130161   3.351   0.867   2.062
 9754SOL    HW230162   3.248   0.774   1.976
 9755SOL     OW30163   3.744   3.673   6.994
 9755SOL    HW130164   3.750   3.689   0.069
 9755SOL    HW230165   3.667   3.723   6.956
 9756SOL     OW30166   5.632   0.509   6.167
 9756SOL    HW130167   5.678   0.444   6.106
 9756SOL    HW230168   5.585   0.458   6.240
 9757SOL     OW30169   5.636   3.650   4.344
 9757SOL    HW130170   5.648   3.744   4.375
 9757SOL    HW230171   5.585   3.649   4.257
 9758SOL     OW30172   2.562   0.433   2.189
 9758SOL    HW130173   2.496   0.496   2.148
 9758SOL    HW230174   2.514   0.358   2.235
 9759SOL     OW30175   6.700   2.222   1.430
 9759SOL    HW130176   6.787   2.176   1.412
 9759SOL    HW230177   6.645   2.222   1.347
 9760SOL     OW30178   4.745   0.495   6.418
 9760SOL    HW130179   4.737   0.493   6.318
 9760SOL    HW230180   4.840   0.514   6.443
 9761SOL     OW30181   0.910   2.510   1.169
 9761SOL    HW130182   0.972   2.530   1.093
 9761SOL    HW230183   0.842   2.442   1.140
 9762SOL     OW30184   3.172   0.846   5.592
 9762SOL    HW130185   3.175   0.766   5.652
 9762SOL    HW230186   3.133   0.923   5.642
 9763SOL     OW30187   6.499   2.842   1.257
 9763SOL    HW130188   6.472   2.885   1.343
 9763SOL    HW230189   6.421   2.795   1.217
 9764SOL     OW30190   0.807   2.748   2.906
 9764SOL    HW130191   0.876   2.693   2.954
 9764SOL    HW230192   0.849   2.789   2.825
 9765SOL     OW30193   6.634   1.524   1.260
 9765SOL    HW130194   6.681   1.572   1.335
 9765SOL    HW230195   6.575   1.589   1.212
 9766SOL     OW30196   0.443   2.822   3.144
 9766SOL    HW130197   0.497   2.904   3.163
 9766SOL    HW230198   0.347   2.840   3.166
 9767SOL     OW30199   3.243   1.622   5.129
 9767SOL    HW130200   3.214   1.617   5.224
 9767SOL    HW230201   3.178   1.678   5.076
 9768SOL     OW30202   4.984   2.532   0.194
 9768SOL    HW130203   5.042   2.452   0.212
 9768SOL    HW230204   5.034   2.615   0.217
 9769SOL     OW30205   3.366   1.669   5.730
 9769SOL    HW130206   3.320   1.721   5.802
 9769SOL    HW230207   3.319   1.684   5.643
 9770SOL     OW30208   1.855   2.673   5.312
 9770SOL    HW130209   1.825   2.658   5.218
 9770SOL    HW230210   1.810   2.755   5.348
 9771SOL     OW30211   3.576   1.060   1.502
 9771SOL    HW130212   3.507   1.004   1.548
 9771SOL    HW230213   3.534   1.142   1.465
 9772SOL     OW30214   0.852   0.573   1.245
 9772SOL    HW130215   0.806   0.661   1.231
 9772SOL    HW230216   0.814   0.505   1.183
 9773SOL     OW30217   5.900   6.007   2.023
 9773SOL    HW130218   5.895   5.924   1.968
 9773SOL    HW230219   5.815   6.058   2.013
 9774SOL     OW30220   2.287   5.055   4.320
 9774SOL    HW130221   2.317   5.082   4.411
 9774SOL    HW230222   2.196   5.092   4.303
 9775SOL     OW30223   1.460   1.241   2.518
 9775SOL    HW130224   1.504   1.153   2.537
 9775SOL    HW230225   1.517   1.315   2.552
 9776SOL     OW30226   2.221   5.553   1.070
 9776SOL    HW130227   2.174   5.574   1.155
 9776SOL    HW230228   2.159   5.565   0.993
 9777SOL     OW30229   4.466   2.240   5.309
 9777SOL    HW130230   4.485   2.212   5.402
 9777SOL    HW230231   4.513   2.180   5.245
 9778SOL     OW30232   1.368   3.864   2.994
 9778SOL    HW130233   1.279   3.903   2.971
 9778SOL    HW230234   1.356   3.788   3.058
 9779SOL     OW30235   3.040   0.370   3.597
 9779SOL    HW130236   3.001   0.309   3.666
 9779SOL    HW230237   3.086   0.315   3.527
 9780SOL     OW30238   0.622   1.548   0.382
 9780SOL    HW130239   0.552   1.562   0.452
 9780SOL    HW230240   0.712   1.541   0.425
 9781SOL     OW30241   0.967   1.377   2.218
 9781SOL    HW130242   0.978   1.379   2.119
 9781SOL    HW230243   1.032   1.439   2.261
 9782SOL     OW30244   0.652   2.495   0.451
 9782SOL    HW130245   0.630   2.563   0.381
 9782SOL    HW230246   0.676   2.541   0.536
 9783SOL     OW30247   4.481   1.054   2.613
 9783SOL    HW130248   4.440   1.113   2.543
 9783SOL    HW230249   4.568   1.092   2.643
 9784SOL     OW30250   1.571   1.430   6.696
 9784SOL    HW130251   1.622   1.367   6.637
 9784SOL    HW230252   1.636   1.481   6.753
 9785SOL     OW30253   0.849   3.818   4.557
 9785SOL    HW130254   0.766   3.769   4.582
 9785SOL    HW230255   0.862   3.815   4.458
 9786SOL     OW30256   2.568   4.128   6.283
 9786SOL    HW130257   2.653   4.173   6.307
 9786SOL    HW230258   2.493   4.164   6.339
 9787SOL     OW30259   3.093   3.637   1.971
 9787SOL    HW130260   3.125   3.572   1.902
 9787SOL    HW230261   3.087   3.592   2.059
 9788SOL     OW30262   3.066   6.861   2.642
 9788SOL    HW130263   3.152   6.822   2.609
 9788SOL    HW230264   3.051   6.832   2.736
 9789SOL     OW30265   3.419   1.023   0.393
 9789SOL    HW130266   3.490   0.962   0.359
 9789SOL    HW230267   3.353   1.041   0.320
 9790SOL     OW30268   4.385   5.516   5.141
 9790SOL    HW130269   4.328   5.522   5.223
 9790SOL    HW230270   4.473   5.474   5.164
 9791SOL     OW30271   0.482   0.548   1.034
 9791SOL    HW130272   0.427   0.618   1.079
 9791SOL    HW230273   0.427   0.466   1.021
 9792SOL     OW30274   3.690   4.456   0.471
 9792SOL    HW130275   3.734   4.541   0.444
 9792SOL    HW230276   3.611   4.475   0.528
 9793SOL     OW30277   5.972   0.834   3.419
 9793SOL    HW130278   5.980   0.736   3.438
 9793SOL    HW230279   5.946   0.847   3.324
 9794SOL     OW30280   4.079   5.194   4.131
 9794SOL    HW130281   4.160   5.135   4.129
 9794SOL    HW230282   4.105   5.287   4.106
 9795SOL     OW30283   1.132   3.461   3.520
 9795SOL    HW130284   1.217   3.411   3.536
 9795SOL    HW230285   1.121   3.480   3.423
 9796SOL     OW30286   2.872   3.486   4.183
 9796SOL    HW130287   2.918   3.562   4.136
 9796SOL    HW230288   2.870   3.504   4.281
 9797SOL     OW30289   3.425   5.644   6.664
 9797SOL    HW130290   3.522   5.632   6.684
 9797SOL    HW230291   3.385   5.709   6.729
 9798SOL     OW30292   6.884   4.342   6.461
 9798SOL    HW130293   6.878   4.288   6.545
 9798SOL    HW230294   6.901   4.281   6.383
 9799SOL     OW30295   3.409   6.826   6.983
 9799SOL    HW130296   3.360   6.879   6.913
 9799SOL    HW230297   3.506   6.824   6.961
 9800SOL     OW30298   6.333   3.920   4.578
 9800SOL    HW130299   6.297   3.912   4.485
 9800SOL    HW230300   6.386   3.838   4.600
 9801SOL     OW30301   4.589   6.296   1.342
 9801SOL    HW130302   4.637   6.330   1.423
 9801SOL    HW230303   4.550   6.206   1.361
 9802SOL     OW30304   3.807   3.761   0.242
 9802SOL    HW130305   3.896   3.716   0.242
 9802SOL    HW230306   3.797   3.814   0.326
 9803SOL     OW30307   1.098   3.704   6.439
 9803SOL    HW130308   1.057   3.769   6.502
 9803SOL    HW230309   1.105   3.745   6.348
 9804SOL     OW30310   0.914   4.408   3.299
 9804SOL    HW130311   0.980   4.405   3.224
 9804SOL    HW230312   0.959   4.441   3.382
 9805SOL     OW30313   0.109   5.774   4.658
 9805SOL    HW130314   0.065   5.696   4.612
 9805SOL    HW230315   0.108   5.853   4.598
 9806SOL     OW30316   3.734   1.687   0.299
 9806SOL    HW130317   3.748   1.588   0.306
 9806SOL    HW230318   3.694   1.709   0.210
 9807SOL     OW30319   4.077   3.364   3.285
 9807SOL    HW130320   4.096   3.380   3.188
 9807SOL    HW230321   4.138   3.421   3.340
 9808SOL     OW30322   3.607   5.525   2.103
 9808SOL    HW130323   3.645   5.495   2.016
 9808SOL    HW230324   3.513   5.491   2.112
 9809SOL     OW30325   6.313   2.601   0.723
 9809SOL    HW130326   6.227   2.651   0.725
 9809SOL    HW230327   6.356   2.612   0.634
 9810SOL     OW30328   2.476   2.472   0.899
 9810SOL    HW130329   2.414   2.419   0.955
 9810SOL    HW230330   2.509   2.416   0.823
 9811SOL     OW30331   5.663   3.855   4.511
 9811SOL    HW130332   5.754   3.863   4.551
 9811SOL    HW230333   5.621   3.946   4.503
 9812SOL     OW30334   3.287   5.616   5.600
 9812SOL    HW130335   3.283   5.697   5.541
 9812SOL    HW230336   3.314   5.643   5.692
 9813SOL     OW30337   4.778   0.576   2.322
 9813SOL    HW130338   4.877   0.589   2.319
 9813SOL    HW230339   4.749   0.521   2.244
 9814SOL     OW30340   0.164   1.710   6.164
 9814SOL    HW130341   0.237   1.661   6.115
 9814SOL    HW230342   0.195   1.731   6.257
 9815SOL     OW30343   4.052   2.160   4.324
 9815SOL    HW130344   3.954   2.141   4.316
 9815SOL    HW230345   4.100   2.078   4.354
 9816SOL     OW30346   2.720   1.337   1.183
 9816SOL    HW130347   2.731   1.429   1.147
 9816SOL    HW230348   2.632   1.299   1.153
 9817SOL     OW30349   6.157   0.322   1.712
 9817SOL    HW130350   6.106   0.252   1.763
 9817SOL    HW230351   6.218   0.277   1.646
 9818SOL     OW30352   4.213   2.956   5.564
 9818SOL    HW130353   4.248   3.029   5.507
 9818SOL    HW230354   4.167   2.888   5.507
 9819SOL     OW30355   3.654   0.802   1.816
 9819SOL    HW130356   3.622   0.744   1.891
 9819SOL    HW230357   3.576   0.852   1.777
 9820SOL     OW30358   3.878   2.760   0.238
 9820SOL    HW130359   3.911   2.812   0.317
 9820SOL    HW230360   3.799   2.805   0.199
 9821SOL     OW30361   0.153   5.191   0.079
 9821SOL    HW130362   0.130   5.283   0.111
 9821SOL    HW230363   0.095   5.124   0.126
 9822SOL     OW30364   0.733   0.602   2.971
 9822SOL    HW130365   0.829   0.590   2.947
 9822SOL    HW230366   0.726   0.653   3.056
 9823SOL     OW30367   3.432   6.710   1.646
 9823SOL    HW130368   3.493   6.675   1.717
 9823SOL    HW230369   3.486   6.756   1.576
 9824SOL     OW30370   1.526   3.846   6.379
 9824SOL    HW130371   1.614   3.854   6.332
 9824SOL    HW230372   1.521   3.916   6.451
 9825SOL     OW30373   3.990   5.225   5.558
 9825SOL    HW130374   3.909   5.279   5.579
 9825SOL    HW230375   3.965   5.129   5.545
 9826SOL     OW30376   5.064   0.304   5.820
 9826SOL    HW130377   5.095   0.333   5.729
 9826SOL    HW230378   4.995   0.232   5.811
 9827SOL     OW30379   0.958   4.257   4.085
 9827SOL    HW130380   0.976   4.188   4.155
 9827SOL    HW230381   0.940   4.211   3.998
 9828SOL     OW30382   3.045   2.628   6.584
 9828SOL    HW130383   3.004   2.680   6.658
 9828SOL    HW230384   2.974   2.579   6.534
 9829SOL     OW30385   2.820   4.396   0.912
 9829SOL    HW130386   2.728   4.369   0.882
 9829SOL    HW230387   2.851   4.473   0.856
 9830SOL     OW30388   6.506   0.990   0.430
 9830SOL    HW130389   6.584   0.930   0.410
 9830SOL    HW230390   6.493   1.054   0.355
 9831SOL     OW30391   5.632   0.122   0.621
 9831SOL    HW130392   5.562   0.170   0.568
 9831SOL    HW230393   5.666   0.183   0.694
 9832SOL     OW30394   3.951   4.938   1.141
 9832SOL    HW130395   3.924   5.011   1.079
 9832SOL    HW230396   3.896   4.943   1.224
 9833SOL     OW30397   4.634   4.364   5.613
 9833SOL    HW130398   4.561   4.418   5.572
 9833SOL    HW230399   4.666   4.408   5.696
 9834SOL     OW30400   2.157   2.065   3.827
 9834SOL    HW130401   2.110   2.131   3.886
 9834SOL    HW230402   2.255   2.088   3.825
 9835SOL     OW30403   4.559   1.713   4.738
 9835SOL    HW130404   4.549   1.732   4.640
 9835SOL    HW230405   4.604   1.625   4.751
 9836SOL     OW30406   5.344   4.991   2.298
 9836SOL    HW130407   5.247   5.006   2.317
 9836SOL    HW230408   5.356   4.903   2.253
 9837SOL     OW30409   1.399   6.573   4.657
 9837SOL    HW130410   1.475   6.510   4.642
 9837SOL    HW230411   1.348   6.545   4.739
 9838SOL     OW30412   6.524   5.164   5.192
 9838SOL    HW130413   6.567   5.219   5.120
 9838SOL    HW230414   6.584   5.160   5.272
 9839SOL     OW30415   0.072   2.252   2.516
 9839SOL    HW130416   0.007   2.177   2.524
 9839SOL    HW230417   0.037   2.332   2.565
 9840SOL     OW30418   6.286   0.515   1.121
 9840SOL    HW130419   6.307   0.559   1.208
 9840SOL    HW230420   6.262   0.419   1.137
 9841SOL     OW30421   1.824   3.539   4.351
 9841SOL    HW130422   1.815   3.546   4.450
 9841SOL    HW230423   1.912   3.497   4.329
 9842SOL     OW30424   3.031   3.412   3.265
 9842SOL    HW130425   3.065   3.495   3.310
 9842SOL    HW230426   2.958   3.372   3.320
 9843SOL     OW30427   6.039   3.601   3.092
 9843SOL    HW130428   6.086   3.525   3.046
 9843SOL    HW230429   5.960   3.566   3.142
 9844SOL     OW30430   5.250   0.484   2.585
 9844SOL    HW130431   5.344   0.466   2.614
 9844SOL    HW230432   5.217   0.569   2.628
 9845SOL     OW30433   1.097   2.154   3.477
 9845SOL    HW130434   1.080   2.073   3.422
 9845SOL    HW230435   1.128   2.229   3.418
 9846SOL     OW30436   3.317   3.402   3.049
 9846SOL    HW130437   3.340   3.449   3.135
 9846SOL    HW230438   3.232   3.441   3.013
 9847SOL     OW30439   2.355   4.502   4.901
 9847SOL    HW130440   2.340   4.404   4.888
 9847SOL    HW230441   2.329   4.528   4.993
 9848SOL     OW30442   5.497   3.602   0.503
 9848SOL    HW130443   5.539   3.644   0.584
 9848SOL    HW230444   5.429   3.664   0.464
 9849SOL     OW30445   0.016   0.065   5.520
 9849SOL    HW130446   6.986   7.006   5.501
 9849SOL    HW230447   0.073   0.087   5.441
 9850SOL     OW30448   4.458   6.775   2.700
 9850SOL    HW130449   4.547   6.817   2.718
 9850SOL    HW230450   4.388   6.846   2.692
 9851SOL     OW30451   5.382   3.016   5.048
 9851SOL    HW130452   5.335   3.104   5.039
 9851SOL    HW230453   5.436   3.016   5.132
 9852SOL     OW30454   4.734   2.315   4.073
 9852SOL    HW130455   4.779   2.318   4.162
 9852SOL    HW230456   4.646   2.363   4.078
 9853SOL     OW30457   0.416   3.884   1.246
 9853SOL    HW130458   0.508   3.923   1.248
 9853SOL    HW230459   0.420   3.789   1.215
 9854SOL     OW30460   4.662   6.034   3.377
 9854SOL    HW130461   4.672   6.130   3.403
 9854SOL    HW230462   4.655   6.027   3.277
 9855SOL     OW30463   1.813   3.456   0.794
 9855SOL    HW130464   1.796   3.358   0.804
 9855SOL    HW230465   1.819   3.497   0.885
 9856SOL     OW30466   3.854   2.396   1.000
 9856SOL    HW130467   3.818   2.389   1.093
 9856SOL    HW230468   3.786   2.364   0.935
 9857SOL     OW30469   6.320   4.142   3.264
 9857SOL    HW130470   6.229   4.182   3.268
 9857SOL    HW230471   6.367   4.174   3.181
 9858SOL     OW30472   4.163   1.755   1.214
 9858SOL    HW130473   4.195   1.789   1.303
 9858SOL    HW230474   4.198   1.814   1.141
 9859SOL     OW30475   6.446   0.314   1.562
 9859SOL    HW130476   6.533   0.359   1.542
 9859SOL    HW230477   6.435   0.235   1.502
 9860SOL     OW30478   0.235   1.344   2.228
 9860SOL    HW130479   0.258   1.345   2.326
 9860SOL    HW230480   0.148   1.296   2.215
 9861SOL     OW30481   3.368   6.809   5.244
 9861SOL    HW130482   3.399   6.736   5.184
 9861SOL    HW230483   3.394   6.788   5.339
 9862SOL     OW30484   0.938   2.479   0.718
 9862SOL    HW130485   0.868   2.548   0.702
 9862SOL    HW230486   0.976   2.491   0.810
 9863SOL     OW30487   2.961   0.174   0.587
 9863SOL    HW130488   3.048   0.216   0.562
 9863SOL    HW230489   2.957   0.162   0.686
 9864SOL     OW30490   4.449   5.943   2.880
 9864SOL    HW130491   4.356   5.965   2.850
 9864SOL    HW230492   4.513   6.006   2.836
 9865SOL     OW30493   1.191   2.951   4.955
 9865SOL    HW130494   1.153   2.983   4.868
 9865SOL    HW230495   1.117   2.924   5.016
 9866SOL     OW30496   4.276   4.805   3.017
 9866SOL    HW130497   4.317   4.723   3.057
 9866SOL    HW230498   4.273   4.795   2.917
 9867SOL     OW30499   4.054   0.635   6.277
 9867SOL    HW130500   4.039   0.734   6.277
 9867SOL    HW230501   4.152   0.616   6.275
 9868SOL     OW30502   0.298   5.168   6.527
 9868SOL    HW130503   0.215   5.181   6.474
 9868SOL    HW230504   0.282   5.194   6.623
 9869SOL     OW30505   1.758   3.697   3.781
 9869SOL    HW130506   1.779   3.677   3.877
 9869SOL    HW230507   1.805   3.782   3.754
 9870SOL     OW30508   5.090   4.381   2.578
 9870SOL    HW130509   5.152   4.360   2.503
 9870SOL    HW230510   5.137   4.368   2.666
 9871SOL     OW30511   1.433   1.593   5.455
 9871SOL    HW130512   1.515   1.650   5.463
 9871SOL    HW230513   1.400   1.595   5.361
 9872SOL     OW30514   1.409   4.884   3.720
 9872SOL    HW130515   1.504   4.915   3.730
 9872SOL    HW230516   1.359   4.949   3.663
 9873SOL     OW30517   1.131   2.669   0.613
 9873SOL    HW130518   1.119   2.616   0.697
 9873SOL    HW230519   1.154   2.607   0.537
 9874SOL     OW30520   0.746   2.988   3.664
 9874SOL    HW130521   0.759   3.071   3.718
 9874SOL    HW230522   0.650   2.982   3.635
 9875SOL     OW30523   0.993   0.783   3.180
 9875SOL    HW130524   0.976   0.745   3.089
 9875SOL    HW230525   0.992   0.709   3.247
 9876SOL     OW30526   0.023   5.854   2.797
 9876SOL    HW130527   0.035   5.756   2.786
 9876SOL    HW230528   0.077   5.902   2.728
 9877SOL     OW30529   3.495   0.051   1.836
 9877SOL    HW130530   3.555   0.034   1.758
 9877SOL    HW230531   3.530   0.003   1.916
 9878SOL     OW30532   0.503   0.351   5.479
 9878SOL    HW130533   0.580   0.410   5.455
 9878SOL    HW230534   0.433   0.405   5.526
 9879SOL     OW30535   5.541   6.014   5.961
 9879SOL    HW130536   5.508   5.931   6.005
 9879SOL    HW230537   5.573   5.993   5.869
 9880SOL     OW30538   1.888   1.612   4.768
 9880SOL    HW130539   1.974   1.618   4.719
 9880SOL    HW230540   1.834   1.694   4.753
 9881SOL     OW30541   6.973   1.994   6.483
 9881SOL    HW130542   6.928   2.083   6.475
 9881SOL    HW230543   0.027   2.002   6.546
 9882SOL     OW30544   1.461   1.725   2.585
 9882SOL    HW130545   1.441   1.769   2.672
 9882SOL    HW230546   1.376   1.705   2.537
 9883SOL     OW30547   1.970   0.690   1.851
 9883SOL    HW130548   2.009   0.598   1.848
 9883SOL    HW230549   1.967   0.722   1.946
 9884SOL     OW30550   3.774   0.707   4.127
 9884SOL    HW130551   3.756   0.610   4.113
 9884SOL    HW230552   3.868   0.728   4.101
 9885SOL     OW30553   6.198   4.629   3.746
 9885SOL    HW130554   6.113   4.669   3.713
 9885SOL    HW230555   6.181   4.580   3.832
 9886SOL     OW30556   1.297   3.594   2.392
 9886SOL    HW130557   1.321   3.502   2.363
 9886SOL    HW230558   1.280   3.651   2.312
 9887SOL     OW30559   4.079   0.500   5.953
 9887SOL    HW130560   4.041   0.592   5.940
 9887SOL    HW230561   4.035   0.456   6.031
 9888SOL     OW30562   0.225   4.509   0.388
 9888SOL    HW130563   0.160   4.506   0.312
 9888SOL    HW230564   0.211   4.593   0.441
 9889SOL     OW30565   0.742   4.959   0.354
 9889SOL    HW130566   0.797   4.975   0.273
 9889SOL    HW230567   0.727   4.861   0.366
 9890SOL     OW30568   1.243   3.170   0.810
 9890SOL    HW130569   1.284   3.138   0.895
 9890SOL    HW230570   1.264   3.106   0.736
 9891SOL     OW30571   5.012   1.337   1.776
 9891SOL    HW130572   5.059   1.396   1.711
 9891SOL    HW230573   5.009   1.381   1.866
 9892SOL     OW30574   0.026   5.762   6.775
 9892SOL    HW130575   6.966   5.763   6.721
 9892SOL    HW230576   0.105   5.759   6.714
 9893SOL     OW30577   2.199   1.423   1.334
 9893SOL    HW130578   2.197   1.474   1.421
 9893SOL    HW230579   2.272   1.460   1.276
 9894SOL     OW30580   1.246   1.537   1.024
 9894SOL    HW130581   1.323   1.601   1.031
 9894SOL    HW230582   1.249   1.492   0.935
 9895SOL     OW30583   4.600   3.800   5.997
 9895SOL    HW130584   4.575   3.721   6.053
 9895SOL    HW230585   4.549   3.798   5.912
 9896SOL     OW30586   6.212   6.705   6.561
 9896SOL    HW130587   6.283   6.766   6.525
 9896SOL    HW230588   6.137   6.759   6.599
 9897SOL     OW30589   5.545   5.151   3.967
 9897SOL    HW130590   5.628   5.098   3.983
 9897SOL    HW230591   5.466   5.089   3.966
 9898SOL     OW30592   2.958   6.313   5.164
 9898SOL    HW130593   2.899   6.352   5.093
 9898SOL    HW230594   3.029   6.378   5.189
 9899SOL     OW30595   0.094   5.451   0.135
 9899SOL    HW130596   0.112   5.507   0.054
 9899SOL    HW230597   0.003   5.471   0.170
 9900SOL     OW30598   2.102   3.611   3.426
 9900SOL    HW130599   2.122   3.601   3.524
 9900SOL    HW230600   2.135   3.700   3.394
 9901SOL     OW30601   2.070   2.530   5.379
 9901SOL    HW130602   1.992   2.590   5.362
 9901SOL    HW230603   2.147   2.585   5.414
 9902SOL     OW30604   2.498   3.958   6.748
 9902SOL    HW130605   2.497   3.883   6.683
 9902SOL    HW230606   2.529   4.042   6.702
 9903SOL     OW30607   5.922   0.466   3.830
 9903SOL    HW130608   5.840   0.478   3.886
 9903SOL    HW230609   5.910   0.385   3.772
 9904SOL     OW30610   6.889   2.531   0.019
 9904SOL    HW130611   6.841   2.615   7.016
 9904SOL    HW230612   6.847   2.494   0.102
 9905SOL     OW30613   4.501   1.340   0.052
 9905SOL    HW130614   4.516   1.338   6.977
 9905SOL    HW230615   4.581   1.300   0.098
 9906SOL     OW30616   4.098   3.329   4.486
 9906SOL    HW130617   4.066   3.285   4.402
 9906SOL    HW230618   4.069   3.275   4.565
 9907SOL     OW30619   0.802   0.425   1.559
 9907SOL    HW130620   0.879   0.441   1.498
 9907SOL    HW230621   0.756   0.512   1.579
 9908SOL     OW30622   4.883   3.257   3.140
 9908SOL    HW130623   4.891   3.232   3.236
 9908SOL    HW230624   4.860   3.354   3.132
 9909SOL     OW30625   2.035   6.977   5.182
 9909SOL    HW130626   2.072   6.993   5.273
 9909SOL    HW230627   1.968   6.902   5.186
 9910SOL     OW30628   0.621   4.383   3.324
 9910SOL    HW130629   0.579   4.353   3.238
 9910SOL    HW230630   0.720   4.394   3.311
 9911SOL     OW30631   2.735   6.209   2.226
 9911SOL    HW130632   2.808   6.165   2.278
 9911SOL    HW230633   2.661   6.235   2.288
 9912SOL     OW30634   4.999   0.714   6.680
 9912SOL    HW130635   5.014   0.648   6.606
 9912SOL    HW230636   4.929   0.780   6.652
 9913SOL     OW30637   5.247   3.152   6.625
 9913SOL    HW130638   5.151   3.124   6.637
 9913SOL    HW230639   5.307   3.088   6.673
 9914SOL     OW30640   0.064   3.432   4.881
 9914SOL    HW130641   0.098   3.494   4.951
 9914SOL    HW230642   6.988   3.433   4.881
 9915SOL     OW30643   5.563   0.807   3.807
 9915SOL    HW130644   5.529   0.856   3.888
 9915SOL    HW230645   5.640   0.857   3.768
 9916SOL     OW30646   2.200   2.382   1.381
 9916SOL    HW130647   2.112   2.414   1.344
 9916SOL    HW230648   2.257   2.461   1.404
 9917SOL     OW30649   6.242   4.280   4.923
 9917SOL    HW130650   6.283   4.352   4.978
 9917SOL    HW230651   6.302   4.257   4.846
 9918SOL     OW30652   4.291   2.343   2.720
 9918SOL    HW130653   4.381   2.302   2.738
 9918SOL    HW230654   4.266   2.403   2.795
 9919SOL     OW30655   6.696   6.433   0.578
 9919SOL    HW130656   6.782   6.382   0.579
 9919SOL    HW230657   6.713   6.526   0.544
 9920SOL     OW30658   4.836   1.571   2.177
 9920SOL    HW130659   4.778   1.510   2.233
 9920SOL    HW230660   4.892   1.516   2.115
 9921SOL     OW30661   3.317   5.754   5.857
 9921SOL    HW130662   3.371   5.831   5.822
 9921SOL    HW230663   3.284   5.776   5.948
 9922SOL     OW30664   0.548   5.118   0.511
 9922SOL    HW130665   0.619   5.060   0.472
 9922SOL    HW230666   0.499   5.164   0.437
 9923SOL     OW30667   5.255   4.714   0.939
 9923SOL    HW130668   5.336   4.656   0.931
 9923SOL    HW230669   5.212   4.700   1.028
 9924SOL     OW30670   0.644   3.819   4.815
 9924SOL    HW130671   0.716   3.816   4.884
 9924SOL    HW230672   0.555   3.805   4.859
 9925SOL     OW30673   5.315   2.791   4.054
 9925SOL    HW130674   5.404   2.749   4.074
 9925SOL    HW230675   5.328   2.865   3.987
 9926SOL     OW30676   2.422   5.021   6.876
 9926SOL    HW130677   2.366   4.952   6.924
 9926SOL    HW230678   2.500   4.976   6.832
 9927SOL     OW30679   6.089   0.042   2.869
 9927SOL    HW130680   6.085   6.967   2.850
 9927SOL    HW230681   6.023   0.064   2.941
 9928SOL     OW30682   4.854   4.426   1.672
 9928SOL    HW130683   4.831   4.373   1.754
 9928SOL    HW230684   4.786   4.498   1.659
 9929SOL     OW30685   1.683   4.350   2.788
 9929SOL    HW130686   1.640   4.293   2.858
 9929SOL    HW230687   1.682   4.446   2.817
 9930SOL     OW30688   6.877   0.248   3.960
 9930SOL    HW130689   6.780   0.269   3.948
 9930SOL    HW230690   6.887   0.173   4.025
 9931SOL     OW30691   0.658   4.907   5.675
 9931SOL    HW130692   0.581   4.895   5.738
 9931SOL    HW230693   0.738   4.941   5.726
 9932SOL     OW30694   1.147   6.622   5.203
 9932SOL    HW130695   1.137   6.525   5.183
 9932SOL    HW230696   1.115   6.676   5.125
 9933SOL     OW30697   0.067   5.969   1.985
 9933SOL    HW130698   0.122   6.050   1.970
 9933SOL    HW230699   6.999   5.996   2.014
 9934SOL     OW30700   6.530   2.470   6.502
 9934SOL    HW130701   6.607   2.412   6.475
 9934SOL    HW230702   6.455   2.412   6.535
 9935SOL     OW30703   3.328   0.786   6.118
 9935SOL    HW130704   3.392   0.790   6.194
 9935SOL    HW230705   3.371   0.822   6.035
 9936SOL     OW30706   0.747   4.620   4.048
 9936SOL    HW130707   0.739   4.716   4.022
 9936SOL    HW230708   0.656   4.582   4.064
 9937SOL     OW30709   6.556   2.441   6.784
 9937SOL    HW130710   6.530   2.496   6.705
 9937SOL    HW230711   6.552   2.497   6.867
 9938SOL     OW30712   6.610   6.273   2.530
 9938SOL    HW130713   6.608   6.176   2.505
 9938SOL    HW230714   6.682   6.319   2.479
 9939SOL     OW30715   3.461   2.884   2.483
 9939SOL    HW130716   3.545   2.903   2.432
 9939SOL    HW230717   3.417   2.802   2.445
 9940SOL     OW30718   6.949   1.068   0.331
 9940SOL    HW130719   6.993   0.984   0.301
 9940SOL    HW230720   6.914   1.118   0.252
 9941SOL     OW30721   2.760   5.012   5.646
 9941SOL    HW130722   2.841   4.990   5.592
 9941SOL    HW230723   2.788   5.052   5.734
 9942SOL     OW30724   2.698   5.418   3.517
 9942SOL    HW130725   2.672   5.323   3.534
 9942SOL    HW230726   2.667   5.445   3.426
 9943SOL     OW30727   1.109   6.825   4.905
 9943SOL    HW130728   1.033   6.889   4.893
 9943SOL    HW230729   1.186   6.872   4.949
 9944SOL     OW30730   0.784   3.810   0.163
 9944SOL    HW130731   0.783   3.769   0.072
 9944SOL    HW230732   0.771   3.738   0.232
 9945SOL     OW30733   6.624   5.539   6.947
 9945SOL    HW130734   6.579   5.517   6.860
 9945SOL    HW230735   6.673   5.626   6.938
 9946SOL     OW30736   5.116   1.252   4.848
 9946SOL    HW130737   5.129   1.253   4.748
 9946SOL    HW230738   5.089   1.343   4.879
 9947SOL     OW30739   5.936   4.768   3.668
 9947SOL    HW130740   5.929   4.822   3.584
 9947SOL    HW230741   5.844   4.748   3.702
 9948SOL     OW30742   5.270   4.185   4.311
 9948SOL    HW130743   5.306   4.092   4.309
 9948SOL    HW230744   5.191   4.191   4.250
 9949SOL     OW30745   5.740   5.407   2.814
 9949SOL    HW130746   5.785   5.319   2.795
 9949SOL    HW230747   5.809   5.477   2.830
 9950SOL     OW30748   3.489   6.040   5.471
 9950SOL    HW130749   3.498   6.110   5.399
 9950SOL    HW230750   3.517   6.079   5.558
 9951SOL     OW30751   5.977   2.206   3.095
 9951SOL    HW130752   5.947   2.274   3.163
 9951SOL    HW230753   5.899   2.149   3.069
 9952SOL     OW30754   0.462   5.236   0.257
 9952SOL    HW130755   0.546   5.271   0.216
 9952SOL    HW230756   0.396   5.311   0.266
 9953SOL     OW30757   6.579   2.477   3.976
 9953SOL    HW130758   6.602   2.514   4.066
 9953SOL    HW230759   6.542   2.384   3.987
 9954SOL     OW30760   4.486   0.479   5.647
 9954SOL    HW130761   4.536   0.531   5.577
 9954SOL    HW230762   4.531   0.391   5.662
 9955SOL     OW30763   0.750   4.561   4.455
 9955SOL    HW130764   0.810   4.628   4.411
 9955SOL    HW230765   0.739   4.481   4.396
 9956SOL     OW30766   0.879   6.132   0.742
 9956SOL    HW130767   0.966   6.124   0.790
 9956SOL    HW230768   0.805   6.103   0.802
 9957SOL     OW30769   6.540   4.700   2.620
 9957SOL    HW130770   6.526   4.797   2.599
 9957SOL    HW230771   6.503   4.644   2.545
 9958SOL     OW30772   2.091   4.264   0.863
 9958SOL    HW130773   2.154   4.230   0.793
 9958SOL    HW230774   2.142   4.303   0.939
 9959SOL     OW30775   3.648   3.382   1.143
 9959SOL    HW130776   3.728   3.442   1.149
 9959SOL    HW230777   3.641   3.328   1.227
 9960SOL     OW30778   0.664   1.488   2.155
 9960SOL    HW130779   0.574   1.489   2.110
 9960SOL    HW230780   0.732   1.449   2.093
 9961SOL     OW30781   2.244   4.589   4.631
 9961SOL    HW130782   2.334   4.630   4.618
 9961SOL    HW230783   2.254   4.492   4.652
 9962SOL     OW30784   5.503   6.197   4.786
 9962SOL    HW130785   5.588   6.250   4.787
 9962SOL    HW230786   5.496   6.142   4.870
 9963SOL     OW30787   3.334   0.641   0.645
 9963SOL    HW130788   3.390   0.723   0.650
 9963SOL    HW230789   3.384   0.564   0.685
 9964SOL     OW30790   4.905   5.794   5.137
 9964SOL    HW130791   4.821   5.756   5.098
 9964SOL    HW230792   4.892   5.891   5.156
 9965SOL     OW30793   4.197   0.340   0.052
 9965SOL    HW130794   4.158   0.398   7.004
 9965SOL    HW230795   4.212   0.248   0.015
 9966SOL     OW30796   6.972   6.952   2.934
 9966SOL    HW130797   6.882   6.978   2.900
 9966SOL    HW230798   6.965   6.864   2.982
 9967SOL     OW30799   1.242   5.253   0.252
 9967SOL    HW130800   1.311   5.202   0.304
 9967SOL    HW230801   1.198   5.192   0.186
 9968SOL     OW30802   3.206   3.205   2.557
 9968SOL    HW130803   3.128   3.180   2.500
 9968SOL    HW230804   3.193   3.298   2.592
 9969SOL     OW30805   1.670   3.219   1.757
 9969SOL    HW130806   1.696   3.181   1.668
 9969SOL    HW230807   1.575   3.250   1.752
 9970SOL     OW30808   5.796   4.806   1.603
 9970SOL    HW130809   5.817   4.804   1.701
 9970SOL    HW230810   5.697   4.805   1.591
 9971SOL     OW30811   2.381   5.988   0.235
 9971SOL    HW130812   2.326   6.026   0.160
 9971SOL    HW230813   2.447   6.056   0.266
 9972SOL     OW30814   7.007   4.607   1.488
 9972SOL    HW130815   0.056   4.590   1.554
 9972SOL    HW230816   7.009   4.536   1.417
 9973SOL     OW30817   5.517   7.016   4.209
 9973SOL    HW130818   5.550   6.947   4.275
 9973SOL    HW230819   5.535   6.984   4.116
 9974SOL     OW30820   2.381   0.855   4.063
 9974SOL    HW130821   2.395   0.870   4.160
 9974SOL    HW230822   2.298   0.903   4.033
 9975SOL     OW30823   6.852   3.554   0.644
 9975SOL    HW130824   6.782   3.583   0.709
 9975SOL    HW230825   6.860   3.455   0.645
 9976SOL     OW30826   2.147   0.001   5.433
 9976SOL    HW130827   2.241   0.012   5.465
 9976SOL    HW230828   2.102   6.954   5.486
 9977SOL     OW30829   6.609   4.313   4.291
 9977SOL    HW130830   6.527   4.354   4.253
 9977SOL    HW230831   6.659   4.264   4.219
 9978SOL     OW30832   0.161   2.683   4.607
 9978SOL    HW130833   0.172   2.596   4.557
 9978SOL    HW230834   0.133   2.664   4.701
 9979SOL     OW30835   1.009   4.079   5.270
 9979SOL    HW130836   1.104   4.049   5.265
 9979SOL    HW230837   0.973   4.061   5.361
 9980SOL     OW30838   3.109   6.870   5.170
 9980SOL    HW130839   3.055   6.798   5.127
 9980SOL    HW230840   3.198   6.834   5.196
 9981SOL     OW30841   3.264   1.946   4.218
 9981SOL    HW130842   3.189   1.995   4.262
 9981SOL    HW230843   3.274   1.856   4.260
 9982SOL     OW30844   6.402   6.072   2.799
 9982SOL    HW130845   6.321   6.034   2.845
 9982SOL    HW230846   6.396   6.054   2.701
 9983SOL     OW30847   0.032   1.344   1.273
 9983SOL    HW130848   0.033   1.272   1.343
 9983SOL    HW230849   6.998   1.316   1.197
 9984SOL     OW30850   2.628   0.894   0.393
 9984SOL    HW130851   2.619   0.925   0.299
 9984SOL    HW230852   2.556   0.828   0.414
 9985SOL     OW30853   1.067   1.300   1.942
 9985SOL    HW130854   1.071   1.208   1.981
 9985SOL    HW230855   1.156   1.325   1.906
 9986SOL     OW30856   5.111   4.266   4.935
 9986SOL    HW130857   5.123   4.296   4.841
 9986SOL    HW230858   5.061   4.179   4.936
 9987SOL     OW30859   7.023   4.700   6.123
 9987SOL    HW130860   6.989   4.626   6.065
 9987SOL    HW230861   0.012   4.666   6.216
 9988SOL     OW30862   6.735   0.044   4.664
 9988SOL    HW130863   6.705   7.003   4.594
 9988SOL    HW230864   6.667   0.047   4.737
 9989SOL     OW30865   1.057   3.004   4.698
 9989SOL    HW130866   1.011   2.916   4.683
 9989SOL    HW230867   1.141   3.007   4.643
 9990SOL     OW30868   1.207   5.196   1.992
 9990SOL    HW130869   1.276   5.218   2.061
 9990SOL    HW230870   1.159   5.112   2.018
 9991SOL     OW30871   4.059   2.239   3.353
 9991SOL    HW130872   4.054   2.267   3.258
 9991SOL    HW230873   4.136   2.283   3.398
 9992SOL     OW30874   6.696   5.712   6.172
 9992SOL    HW130875   6.727   5.794   6.220
 9992SOL    HW230876   6.768   5.681   6.110
 9993SOL     OW30877   0.849   0.872   1.983
 9993SOL    HW130878   0.801   0.900   1.899
 9993SOL    HW230879   0.939   0.916   1.986
 9994SOL     OW30880   6.035   4.865   3.017
 9994SOL    HW130881   5.935   4.861   3.015
 9994SOL    HW230882   6.064   4.926   3.091
 9995SOL     OW30883   4.901   1.462   4.351
 9995SOL    HW130884   4.915   1.511   4.437
 9995SOL    HW230885   4.810   1.419   4.352
 9996SOL     OW30886   2.511   3.049   6.963
 9996SOL    HW130887   2.511   3.034   6.864
 9996SOL    HW230888   2.417   3.059   6.995
 9997SOL     OW30889   2.805   0.143   4.649
 9997SOL    HW130890   2.845   0.069   4.702
 9997SOL    HW230891   2.731   0.107   4.591
 9998SOL     OW30892   5.784   6.507   5.584
 9998SOL    HW130893   5.737   6.554   5.659
 9998SOL    HW230894   5.718   6.455   5.530
 9999SOL     OW30895   6.894   2.580   4.814
 9999SOL    HW130896   6.809   2.558   4.766
 9999SOL    HW230897   6.882   2.666   4.864
10000SOL     OW30898   6.830   4.359   0.100
10000SOL    HW130899   6.765   4.374   0.175
10000SOL    HW230900   6.883   4.276   0.118
10001SOL     OW30901   3.890   0.190   3.275
10001SOL    HW130902   3.973   0.135   3.267
10001SOL    HW230903   3.887   0.235   3.363
10002SOL     OW30904   1.241   1.588   1.861
10002SOL    HW130905   1.182   1.586   1.780
10002SOL    HW230906   1.186   1.598   1.943
10003SOL     OW30907   5.485   2.811   3.751
10003SOL    HW130908   5.528   2.901   3.758
10003SOL    HW230909   5.495   2.776   3.658
10004SOL     OW30910   0.341   2.234   2.565
10004SOL    HW130911   0.366   2.160   2.628
10004SOL    HW230912   0.247   2.218   2.532
10005SOL     OW30913   5.340   6.864   4.503
10005SOL    HW130914   5.280   6.908   4.437
10005SOL    HW230915   5.331   6.765   4.498
10006SOL     OW30916   4.429   1.406   4.667
10006SOL    HW130917   4.451   1.361   4.580
10006SOL    HW230918   4.357   1.473   4.653
10007SOL     OW30919   6.220   3.639   4.017
10007SOL    HW130920   6.228   3.540   4.008
10007SOL    HW230921   6.309   3.678   4.040
10008SOL     OW30922   3.767   6.735   4.262
10008SOL    HW130923   3.773   6.636   4.274
10008SOL    HW230924   3.801   6.760   4.171
10009SOL     OW30925   1.265   4.118   1.659
10009SOL    HW130926   1.226   4.137   1.569
10009SOL    HW230927   1.238   4.191   1.723
10010SOL     OW30928   6.410   1.662   6.249
10010SOL    HW130929   6.425   1.761   6.256
10010SOL    HW230930   6.312   1.643   6.250
10011SOL     OW30931   0.055   6.864   4.444
10011SOL    HW130932   0.050   6.952   4.490
10011SOL    HW230933   0.149   6.848   4.414
10012SOL     OW30934   5.695   0.653   4.611
10012SOL    HW130935   5.650   0.623   4.527
10012SOL    HW230936   5.649   0.734   4.646
10013SOL     OW30937   1.419   0.956   1.935
10013SOL    HW130938   1.490   0.987   1.999
10013SOL    HW230939   1.403   0.858   1.948
10014SOL     OW30940   1.708   5.079   6.041
10014SOL    HW130941   1.721   5.010   5.969
10014SOL    HW230942   1.787   5.078   6.102
10015SOL     OW30943   2.419   4.566   6.767
10015SOL    HW130944   2.325   4.598   6.778
10015SOL    HW230945   2.421   4.486   6.707
10016SOL     OW30946   2.722   0.477   5.221
10016SOL    HW130947   2.726   0.577   5.211
10016SOL    HW230948   2.667   0.439   5.146
10017SOL     OW30949   0.677   2.180   4.099
10017SOL    HW130950   0.732   2.168   4.182
10017SOL    HW230951   0.737   2.176   4.019
10018SOL     OW30952   4.818   6.663   5.897
10018SOL    HW130953   4.851   6.744   5.945
10018SOL    HW230954   4.812   6.683   5.799
10019SOL     OW30955   1.780   1.251   2.301
10019SOL    HW130956   1.748   1.341   2.330
10019SOL    HW230957   1.832   1.261   2.216
10020SOL     OW30958   0.163   3.085   0.013
10020SOL    HW130959   0.184   3.183   0.017
10020SOL    HW230960   0.082   3.066   0.069
10021SOL     OW30961   5.425   3.269   1.904
10021SOL    HW130962   5.357   3.339   1.924
10021SOL    HW230963   5.386   3.201   1.843
10022SOL     OW30964   1.568   0.562   6.322
10022SOL    HW130965   1.545   0.643   6.376
10022SOL    HW230966   1.664   0.566   6.295
10023SOL     OW30967   0.512   3.218   1.095
10023SOL    HW130968   0.536   3.185   1.004
10023SOL    HW230969   0.453   3.152   1.141
10024SOL     OW30970   1.386   4.508   3.389
10024SOL    HW130971   1.342   4.422   3.416
10024SOL    HW230972   1.410   4.560   3.471
10025SOL     OW30973   1.057   1.042   0.598
10025SOL    HW130974   1.028   1.078   0.509
10025SOL    HW230975   1.003   0.960   0.619
10026SOL     OW30976   6.985   0.451   4.116
10026SOL    HW130977   0.057   0.421   4.112
10026SOL    HW230978   6.933   0.405   4.043
10027SOL     OW30979   5.446   2.509   6.043
10027SOL    HW130980   5.426   2.446   5.968
10027SOL    HW230981   5.402   2.476   6.126
10028SOL     OW30982   1.769   0.701   1.354
10028SOL    HW130983   1.727   0.613   1.330
10028SOL    HW230984   1.698   0.765   1.383
10029SOL     OW30985   4.666   1.308   4.306
10029SOL    HW130986   4.677   1.362   4.222
10029SOL    HW230987   4.692   1.213   4.288
10030SOL     OW30988   1.296   0.690   3.108
10030SOL    HW130989   1.296   0.771   3.167
10030SOL    HW230990   1.327   0.715   3.016
10031SOL     OW30991   6.742   4.538   4.092
10031SOL    HW130992   6.720   4.592   4.173
10031SOL    HW230993   6.835   4.502   4.100
10032SOL     OW30994   3.258   1.105   4.915
10032SOL    HW130995   3.230   1.196   4.884
10032SOL    HW230996   3.293   1.110   5.008
10033SOL     OW30997   5.014   3.049   4.536
10033SOL    HW130998   5.088   3.043   4.602
10033SOL    HW230999   4.952   2.972   4.547
10034SOL     OW31000   4.105   0.176   6.169
10034SOL    HW131001   4.183   0.184   6.232
10034SOL    HW231002   4.136   0.134   6.084
10035SOL     OW31003   0.134   6.462   3.380
10035SOL    HW131004   0.213   6.401   3.373
10035SOL    HW231005   0.050   6.408   3.380
10036SOL     OW31006   6.667   0.527   0.171
10036SOL    HW131007   6.651   0.453   0.236
10036SOL    HW231008   6.615   0.608   0.199
10037SOL     OW31009   6.997   6.737   1.138
10037SOL    HW131010   6.975   6.791   1.219
10037SOL    HW231011   6.933   6.760   1.064
10038SOL     OW31012   6.251   0.419   0.709
10038SOL    HW131013   6.242   0.507   0.756
10038SOL    HW231014   6.200   0.349   0.758
10039SOL     OW31015   3.766   0.804   3.046
10039SOL    HW131016   3.847   0.812   3.103
10039SOL    HW231017   3.694   0.865   3.081
10040SOL     OW31018   0.317   2.330   0.960
10040SOL    HW131019   0.329   2.421   0.922
10040SOL    HW231020   0.231   2.291   0.926
10041SOL     OW31021   1.393   6.103   0.559
10041SOL    HW131022   1.364   6.015   0.595
10041SOL    HW231023   1.315   6.148   0.514
10042SOL     OW31024   5.968   2.065   3.487
10042SOL    HW131025   5.935   2.152   3.450
10042SOL    HW231026   6.068   2.065   3.491
10043SOL     OW31027   0.964   3.354   5.240
10043SOL    HW131028   0.949   3.445   5.202
10043SOL    HW231029   1.061   3.331   5.234
10044SOL     OW31030   4.302   2.024   6.226
10044SOL    HW131031   4.205   2.000   6.216
10044SOL    HW231032   4.324   2.033   6.323
10045SOL     OW31033   2.443   0.897   0.811
10045SOL    HW131034   2.358   0.899   0.864
10045SOL    HW231035   2.514   0.947   0.860
10046SOL     OW31036   1.027   5.117   1.104
10046SOL    HW131037   1.009   5.126   1.006
10046SOL    HW231038   0.982   5.191   1.153
10047SOL     OW31039   1.248   3.530   0.355
10047SOL    HW131040   1.336   3.540   0.309
10047SOL    HW231041   1.177   3.514   0.287
10048SOL     OW31042   5.627   4.839   2.173
10048SOL    HW131043   5.651   4.921   2.120
10048SOL    HW231044   5.531   4.817   2.159
10049SOL     OW31045   5.544   1.572   5.010
10049SOL    HW131046   5.520   1.513   4.933
10049SOL    HW231047   5.491   1.657   5.004
10050SOL     OW31048   6.956   3.085   5.751
10050SOL    HW131049   0.022   3.079   5.795
10050SOL    HW231050   6.925   3.180   5.751
10051SOL     OW31051   2.231   1.387   4.498
10051SOL    HW131052   2.197   1.298   4.528
10051SOL    HW231053   2.287   1.427   4.570
10052SOL     OW31054   1.280   0.353   3.657
10052SOL    HW131055   1.238   0.346   3.747
10052SOL    HW231056   1.377   0.375   3.668
10053SOL     OW31057   6.028   5.207   3.101
10053SOL    HW131058   5.986   5.294   3.076
10053SOL    HW231059   6.118   5.224   3.142
10054SOL     OW31060   6.853   3.882   4.209
10054SOL    HW131061   6.848   3.869   4.110
10054SOL    HW231062   6.765   3.913   4.243
10055SOL     OW31063   1.476   1.921   6.529
10055SOL    HW131064   1.495   1.950   6.435
10055SOL    HW231065   1.562   1.900   6.575
10056SOL     OW31066   6.168   2.358   4.554
10056SOL    HW131067   6.197   2.320   4.641
10056SOL    HW231068   6.247   2.395   4.505
10057SOL     OW31069   5.213   4.996   5.718
10057SOL    HW131070   5.221   4.930   5.794
10057SOL    HW231071   5.122   4.986   5.676
10058SOL     OW31072   0.097   4.002   4.844
10058SOL    HW131073   0.102   4.005   4.944
10058SOL    HW231074   0.148   3.922   4.811
10059SOL     OW31075   5.341   6.584   6.597
10059SOL    HW131076   5.385   6.503   6.636
10059SOL    HW231077   5.357   6.585   6.498
10060SOL     OW31078   3.020   1.604   1.723
10060SOL    HW131079   3.070   1.687   1.698
10060SOL    HW231080   3.029   1.587   1.821
10061SOL     OW31081   3.191   0.202   2.324
10061SOL    HW131082   3.237   0.156   2.248
10061SOL    HW231083   3.213   0.156   2.409
10062SOL     OW31084   6.859   0.074   4.989
10062SOL    HW131085   6.770   0.052   4.949
10062SOL    HW231086   6.895   7.017   5.036
10063SOL     OW31087   2.860   2.315   4.351
10063SOL    HW131088   2.825   2.241   4.407
10063SOL    HW231089   2.819   2.402   4.380
10064SOL     OW31090   2.832   0.388   2.146
10064SOL    HW131091   2.736   0.413   2.159
10064SOL    HW231092   2.847   0.361   2.051
10065SOL     OW31093   0.188   1.982   1.556
10065SOL    HW131094   0.111   2.016   1.502
10065SOL    HW231095   0.270   1.980   1.499
10066SOL     OW31096   6.612   4.694   3.535
10066SOL    HW131097   6.697   4.647   3.511
10066SOL    HW231098   6.557   4.635   3.594
10067SOL     OW31099   6.797   3.697   4.826
10067SOL    HW131100   6.804   3.785   4.872
10067SOL    HW231101   6.753   3.631   4.888
10068SOL     OW31102   1.704   2.727   2.379
10068SOL    HW131103   1.736   2.702   2.288
10068SOL    HW231104   1.610   2.695   2.391
10069SOL     OW31105   3.297   4.903   1.243
10069SOL    HW131106   3.364   4.879   1.172
10069SOL    HW231107   3.233   4.971   1.207
10070SOL     OW31108   5.435   0.343   0.606
10070SOL    HW131109   5.467   0.437   0.619
10070SOL    HW231110   5.344   0.333   0.645
10071SOL     OW31111   5.233   0.900   5.437
10071SOL    HW131112   5.326   0.866   5.423
10071SOL    HW231113   5.187   0.845   5.508
10072SOL     OW31114   6.304   2.986   2.029
10072SOL    HW131115   6.220   2.933   2.044
10072SOL    HW231116   6.315   3.051   2.104
10073SOL     OW31117   5.613   5.610   5.018
10073SOL    HW131118   5.673   5.689   5.012
10073SOL    HW231119   5.666   5.530   5.047
10074SOL     OW31120   2.180   4.797   0.485
10074SOL    HW131121   2.171   4.763   0.391
10074SOL    HW231122   2.213   4.724   0.544
10075SOL     OW31123   1.387   2.878   1.628
10075SOL    HW131124   1.290   2.860   1.615
10075SOL    HW231125   1.419   2.943   1.559
10076SOL     OW31126   5.598   4.284   4.111
10076SOL    HW131127   5.598   4.189   4.078
10076SOL    HW231128   5.692   4.318   4.113
10077SOL     OW31129   4.325   3.677   6.699
10077SOL    HW131130   4.423   3.669   6.679
10077SOL    HW231131   4.302   3.773   6.714
10078SOL     OW31132   6.044   5.198   4.785
10078SOL    HW131133   5.950   5.165   4.792
10078SOL    HW231134   6.102   5.150   4.850
10079SOL     OW31135   5.442   4.413   3.429
10079SOL    HW131136   5.408   4.319   3.437
10079SOL    HW231137   5.381   4.464   3.368
10080SOL     OW31138   5.042   1.800   5.580
10080SOL    HW131139   5.111   1.822   5.648
10080SOL    HW231140   4.997   1.885   5.549
10081SOL     OW31141   1.196   4.794   6.754
10081SOL    HW131142   1.189   4.893   6.747
10081SOL    HW231143   1.289   4.769   6.782
10082SOL     OW31144   1.520   4.640   0.992
10082SOL    HW131145   1.501   4.562   0.932
10082SOL    HW231146   1.601   4.620   1.047
10083SOL     OW31147   2.900   6.056   2.392
10083SOL    HW131148   2.958   6.135   2.375
10083SOL    HW231149   2.842   6.073   2.472
10084SOL     OW31150   1.952   2.742   4.151
10084SOL    HW131151   1.962   2.794   4.236
10084SOL    HW231152   1.855   2.737   4.127
10085SOL     OW31153   4.762   0.083   1.995
10085SOL    HW131154   4.858   0.060   1.979
10085SOL    HW231155   4.712   0.001   2.023
10086SOL     OW31156   4.105   6.963   2.965
10086SOL    HW131157   4.037   0.004   2.933
10086SOL    HW231158   4.088   6.941   3.061
10087SOL     OW31159   1.492   6.159   4.989
10087SOL    HW131160   1.588   6.185   5.003
10087SOL    HW231161   1.488   6.067   4.949
10088SOL     OW31162   6.272   2.726   1.114
10088SOL    HW131163   6.327   2.682   1.043
10088SOL    HW231164   6.207   2.659   1.151
10089SOL     OW31165   4.223   6.981   2.012
10089SOL    HW131166   4.152   6.937   2.067
10089SOL    HW231167   4.301   7.003   2.070
10090SOL     OW31168   1.459   5.964   2.838
10090SOL    HW131169   1.464   6.004   2.930
10090SOL    HW231170   1.454   6.038   2.771
10091SOL     OW31171   5.159   5.156   4.460
10091SOL    HW131172   5.142   5.103   4.377
10091SOL    HW231173   5.251   5.136   4.494
10092SOL     OW31174   0.588   1.623   2.561
10092SOL    HW131175   0.666   1.633   2.499
10092SOL    HW231176   0.600   1.541   2.616
10093SOL     OW31177   4.231   4.060   6.424
10093SOL    HW131178   4.285   4.039   6.343
10093SOL    HW231179   4.284   4.119   6.485
10094SOL     OW31180   3.678   2.090   0.480
10094SOL    HW131181   3.641   2.034   0.406
10094SOL    HW231182   3.776   2.069   0.492
10095SOL     OW31183   4.206   3.479   5.515
10095SOL    HW131184   4.252   3.454   5.430
10095SOL    HW231185   4.140   3.552   5.498
10096SOL     OW31186   6.667   3.833   2.347
10096SOL    HW131187   6.603   3.850   2.422
10096SOL    HW231188   6.761   3.841   2.380
10097SOL     OW31189   0.975   1.606   1.054
10097SOL    HW131190   0.956   1.608   1.152
10097SOL    HW231191   1.072   1.583   1.039
10098SOL     OW31192   3.369   6.149   5.074
10098SOL    HW131193   3.305   6.072   5.076
10098SOL    HW231194   3.322   6.233   5.101
10099SOL     OW31195   0.207   5.144   3.627
10099SOL    HW131196   0.162   5.206   3.563
10099SOL    HW231197   0.160   5.056   3.626
10100SOL     OW31198   4.841   4.643   4.045
10100SOL    HW131199   4.915   4.598   3.995
10100SOL    HW231200   4.756   4.590   4.034
10101SOL     OW31201   6.907   2.749   0.264
10101SOL    HW131202   6.867   2.810   0.332
10101SOL    HW231203   6.836   2.689   0.228
10102SOL     OW31204   6.492   4.820   3.329
10102SOL    HW131205   6.399   4.852   3.349
10102SOL    HW231206   6.534   4.784   3.412
10103SOL     OW31207   0.223   6.610   6.732
10103SOL    HW131208   0.200   6.555   6.651
10103SOL    HW231209   0.311   6.655   6.718
10104SOL     OW31210   3.173   0.508   4.530
10104SOL    HW131211   3.118   0.579   4.573
10104SOL    HW231212   3.130   0.419   4.545
10105SOL     OW31213   3.008   1.395   3.574
10105SOL    HW131214   2.913   1.391   3.604
10105SOL    HW231215   3.068   1.392   3.654
10106SOL     OW31216   5.785   4.154   1.721
10106SOL    HW131217   5.825   4.068   1.691
10106SOL    HW231218   5.815   4.228   1.661
10107SOL     OW31219   5.459   5.516   6.177
10107SOL    HW131220   5.551   5.512   6.216
10107SOL    HW231221   5.446   5.604   6.132
10108SOL     OW31222   2.503   2.547   4.910
10108SOL    HW131223   2.495   2.579   4.815
10108SOL    HW231224   2.464   2.615   4.972
10109SOL     OW31225   1.317   3.431   1.047
10109SOL    HW131226   1.357   3.347   1.082
10109SOL    HW231227   1.369   3.510   1.080
10110SOL     OW31228   6.373   6.063   1.950
10110SOL    HW131229   6.368   6.006   1.868
10110SOL    HW231230   6.464   6.054   1.991
10111SOL     OW31231   6.130   2.616   1.803
10111SOL    HW131232   6.150   2.518   1.798
10111SOL    HW231233   6.215   2.668   1.802
10112SOL     OW31234   7.015   2.808   4.083
10112SOL    HW131235   0.048   2.890   4.094
10112SOL    HW231236   6.952   2.820   4.007
10113SOL     OW31237   6.708   6.236   5.752
10113SOL    HW131238   6.647   6.201   5.681
10113SOL    HW231239   6.654   6.260   5.833
10114SOL     OW31240   5.246   3.529   1.975
10114SOL    HW131241   5.288   3.620   1.965
10114SOL    HW231242   5.221   3.514   2.071
10115SOL     OW31243   3.652   2.895   6.372
10115SOL    HW131244   3.613   2.954   6.302
10115SOL    HW231245   3.579   2.860   6.431
10116SOL     OW31246   0.422   0.266   6.269
10116SOL    HW131247   0.456   0.360   6.256
10116SOL    HW231248   0.346   0.249   6.206
10117SOL     OW31249   6.990   4.404   1.300
10117SOL    HW131250   0.064   4.381   1.305
10117SOL    HW231251   6.964   4.420   1.205
10118SOL     OW31252   4.061   4.861   3.720
10118SOL    HW131253   4.006   4.853   3.803
10118SOL    HW231254   4.033   4.943   3.670
10119SOL     OW31255   5.848   6.205   6.872
10119SOL    HW131256   5.935   6.195   6.920
10119SOL    HW231257   5.835   6.301   6.846
10120SOL     OW31258   2.342   2.386   2.626
10120SOL    HW131259   2.407   2.312   2.642
10120SOL    HW231260   2.392   2.469   2.598
10121SOL     OW31261   6.507   5.318   1.739
10121SOL    HW131262   6.536   5.385   1.670
10121SOL    HW231263   6.434   5.357   1.794
10122SOL     OW31264   1.845   0.257   3.353
10122SOL    HW131265   1.809   0.284   3.264
10122SOL    HW231266   1.909   0.327   3.385
10123SOL     OW31267   6.102   6.235   6.295
10123SOL    HW131268   6.070   6.141   6.285
10123SOL    HW231269   6.202   6.235   6.301
10124SOL     OW31270   2.730   5.273   2.069
10124SOL    HW131271   2.777   5.361   2.071
10124SOL    HW231272   2.645   5.281   2.016
10125SOL     OW31273   1.546   0.969   5.122
10125SOL    HW131274   1.524   1.005   5.031
10125SOL    HW231275   1.644   0.979   5.138
10126SOL     OW31276   6.784   6.231   5.095
10126SOL    HW131277   6.853   6.162   5.074
10126SOL    HW231278   6.820   6.296   5.162
10127SOL     OW31279   2.396   6.870   5.851
10127SOL    HW131280   2.460   6.795   5.834
10127SOL    HW231281   2.432   6.955   5.812
10128SOL     OW31282   2.450   1.913   7.000
10128SOL    HW131283   2.534   1.962   7.022
10128SOL    HW231284   2.457   1.874   6.908
10129SOL     OW31285   6.674   2.317   4.907
10129SOL    HW131286   6.731   2.351   4.981
10129SOL    HW231287   6.685   2.375   4.827
10130SOL     OW31288   1.657   2.392   3.388
10130SOL    HW131289   1.705   2.475   3.360
10130SOL    HW231290   1.713   2.312   3.367
10131SOL     OW31291   1.745   0.395   5.152
10131SOL    HW131292   1.767   0.304   5.117
10131SOL    HW231293   1.646   0.402   5.167
10132SOL     OW31294   5.653   0.771   2.544
10132SOL    HW131295   5.646   0.740   2.639
10132SOL    HW231296   5.571   0.823   2.520
10133SOL     OW31297   4.318   5.855   1.343
10133SOL    HW131298   4.389   5.824   1.406
10133SOL    HW231299   4.289   5.778   1.285
10134SOL     OW31300   7.010   6.248   3.251
10134SOL    HW131301   6.948   6.315   3.208
10134SOL    HW231302   0.031   6.194   3.180
10135SOL     OW31303   6.538   6.520   3.606
10135SOL    HW131304   6.611   6.548   3.670
10135SOL    HW231305   6.456   6.496   3.658
10136SOL     OW31306   4.722   0.919   3.795
10136SOL    HW131307   4.700   0.996   3.855
10136SOL    HW231308   4.720   0.834   3.848
10137SOL     OW31309   0.069   5.659   4.343
10137SOL    HW131310   0.001   5.721   4.382
10137SOL    HW231311   0.043   5.635   4.249
10138SOL     OW31312   0.147   2.433   1.646
10138SOL    HW131313   0.112   2.380   1.723
10138SOL    HW231314   0.247   2.436   1.651
10139SOL     OW31315   4.396   2.990   0.151
10139SOL    HW131316   4.438   3.039   0.075
10139SOL    HW231317   4.460   2.989   0.228
10140SOL     OW31318   6.455   5.763   5.283
10140SOL    HW131319   6.384   5.820   5.324
10140SOL    HW231320   6.544   5.806   5.299
10141SOL     OW31321   1.754   1.950   5.080
10141SOL    HW131322   1.680   1.941   5.014
10141SOL    HW231323   1.790   1.860   5.103
10142SOL     OW31324   4.813   5.580   2.235
10142SOL    HW131325   4.761   5.503   2.198
10142SOL    HW231326   4.769   5.613   2.318
10143SOL     OW31327   5.776   3.449   6.066
10143SOL    HW131328   5.784   3.349   6.064
10143SOL    HW231329   5.679   3.474   6.062
10144SOL     OW31330   3.505   0.495   0.777
10144SOL    HW131331   3.515   0.587   0.815
10144SOL    HW231332   3.592   0.446   0.785
10145SOL     OW31333   6.337   0.088   5.199
10145SOL    HW131334   6.349   0.165   5.261
10145SOL    HW231335   6.351   0.118   5.105
10146SOL     OW31336   1.749   2.744   5.613
10146SOL    HW131337   1.713   2.685   5.541
10146SOL    HW231338   1.805   2.690   5.676
10147SOL     OW31339   3.638   5.432   0.390
10147SOL    HW131340   3.603   5.427   0.296
10147SOL    HW231341   3.575   5.485   0.446
10148SOL     OW31342   0.575   5.299   6.521
10148SOL    HW131343   0.482   5.264   6.514
10148SOL    HW231344   0.587   5.346   6.608
10149SOL     OW31345   3.614   2.969   2.821
10149SOL    HW131346   3.688   2.975   2.754
10149SOL    HW231347   3.529   2.998   2.779
10150SOL     OW31348   4.818   4.208   1.531
10150SOL    HW131349   4.835   4.293   1.581
10150SOL    HW231350   4.762   4.229   1.450
10151SOL     OW31351   0.159   1.130   6.176
10151SOL    HW131352   0.064   1.160   6.161
10151SOL    HW231353   0.221   1.193   6.129
10152SOL     OW31354   3.929   6.409   3.466
10152SOL    HW131355   4.025   6.430   3.483
10152SOL    HW231356   3.922   6.335   3.398
10153SOL     OW31357   4.949   3.491   1.533
10153SOL    HW131358   4.989   3.473   1.623
10153SOL    HW231359   4.981   3.579   1.499
10154SOL     OW31360   4.209   5.206   5.385
10154SOL    HW131361   4.164   5.205   5.296
10154SOL    HW231362   4.147   5.244   5.453
10155SOL     OW31363   4.221   1.938   4.299
10155SOL    HW131364   4.288   2.001   4.259
10155SOL    HW231365   4.252   1.844   4.287
10156SOL     OW31366   3.932   2.114   6.407
10156SOL    HW131367   3.866   2.160   6.349
10156SOL    HW231368   3.982   2.181   6.462
10157SOL     OW31369   1.088   4.603   0.700
10157SOL    HW131370   1.012   4.614   0.636
10157SOL    HW231371   1.057   4.624   0.792
10158SOL     OW31372   5.242   4.961   0.080
10158SOL    HW131373   5.249   4.934   7.008
10158SOL    HW231374   5.281   5.052   0.092
10159SOL     OW31375   3.840   2.906   1.939
10159SOL    HW131376   3.795   2.851   1.870
10159SOL    HW231377   3.872   2.847   2.013
10160SOL     OW31378   0.307   4.100   2.345
10160SOL    HW131379   0.397   4.080   2.384
10160SOL    HW231380   0.305   4.073   2.249
10161SOL     OW31381   5.981   3.329   6.249
10161SOL    HW131382   5.962   3.368   6.339
10161SOL    HW231383   5.925   3.377   6.180
10162SOL     OW31384   1.434   2.145   2.553
10162SOL    HW131385   1.454   2.239   2.525
10162SOL    HW231386   1.384   2.146   2.640
10163SOL     OW31387   3.474   4.939   4.697
10163SOL    HW131388   3.437   4.935   4.790
10163SOL    HW231389   3.535   4.861   4.683
10164SOL     OW31390   0.320   1.303   3.995
10164SOL    HW131391   0.272   1.216   3.991
10164SOL    HW231392   0.419   1.287   3.992
10165SOL     OW31393   1.528   3.377   3.936
10165SOL    HW131394   1.608   3.365   3.876
10165SOL    HW231395   1.455   3.423   3.885
10166SOL     OW31396   3.389   6.166   3.262
10166SOL    HW131397   3.399   6.098   3.190
10166SOL    HW231398   3.462   6.234   3.254
10167SOL     OW31399   3.306   2.032   6.612
10167SOL    HW131400   3.362   2.112   6.591
10167SOL    HW231401   3.354   1.949   6.582
10168SOL     OW31402   0.942   1.234   6.079
10168SOL    HW131403   0.960   1.136   6.070
10168SOL    HW231404   0.874   1.249   6.150
10169SOL     OW31405   4.577   5.493   3.255
10169SOL    HW131406   4.490   5.533   3.284
10169SOL    HW231407   4.633   5.563   3.211
10170SOL     OW31408   4.796   6.939   0.757
10170SOL    HW131409   4.893   6.925   0.738
10170SOL    HW231410   4.748   6.963   0.672
10171SOL     OW31411   1.550   4.455   3.786
10171SOL    HW131412   1.638   4.476   3.827
10171SOL    HW231413   1.545   4.358   3.764
10172SOL     OW31414   0.389   0.728   2.479
10172SOL    HW131415   0.420   0.657   2.543
10172SOL    HW231416   0.375   0.689   2.389
10173SOL     OW31417   4.127   3.430   5.170
10173SOL    HW131418   4.057   3.502   5.172
10173SOL    HW231419   4.084   3.343   5.146
10174SOL     OW31420   5.079   4.528   1.495
10174SOL    HW131421   5.093   4.619   1.532
10174SOL    HW231422   5.028   4.472   1.561
10175SOL     OW31423   6.652   0.037   4.084
10175SOL    HW131424   6.567   0.087   4.064
10175SOL    HW231425   6.640   6.964   4.061
10176SOL     OW31426   0.170   1.116   4.735
10176SOL    HW131427   0.220   1.197   4.764
10176SOL    HW231428   0.117   1.137   4.653
10177SOL     OW31429   3.038   1.429   3.913
10177SOL    HW131430   3.058   1.526   3.899
10177SOL    HW231431   2.981   1.418   3.994
10178SOL     OW31432   0.303   1.472   1.828
10178SOL    HW131433   0.352   1.418   1.759
10178SOL    HW231434   0.274   1.559   1.789
10179SOL     OW31435   0.056   5.867   1.022
10179SOL    HW131436   0.070   5.849   0.925
10179SOL    HW231437   0.061   5.781   1.073
10180SOL     OW31438   3.008   6.656   5.987
10180SOL    HW131439   3.062   6.575   5.963
10180SOL    HW231440   3.064   6.738   5.975
10181SOL     OW31441   0.084   3.351   2.391
10181SOL    HW131442   0.009   3.349   2.324
10181SOL    HW231443   0.079   3.269   2.449
10182SOL     OW31444   4.065   0.391   0.322
10182SOL    HW131445   4.078   0.363   0.227
10182SOL    HW231446   4.131   0.463   0.345
10183SOL     OW31447   3.893   6.076   5.708
10183SOL    HW131448   3.827   6.123   5.650
10183SOL    HW231449   3.913   6.133   5.788
10184SOL     OW31450   5.264   2.774   5.069
10184SOL    HW131451   5.295   2.869   5.075
10184SOL    HW231452   5.273   2.730   5.158
10185SOL     OW31453   2.749   4.672   2.444
10185SOL    HW131454   2.741   4.735   2.367
10185SOL    HW231455   2.839   4.681   2.487
10186SOL     OW31456   3.257   2.905   0.816
10186SOL    HW131457   3.181   2.923   0.754
10186SOL    HW231458   3.326   2.850   0.769
10187SOL     OW31459   2.195   3.956   5.787
10187SOL    HW131460   2.212   4.054   5.770
10187SOL    HW231461   2.113   3.928   5.738
10188SOL     OW31462   2.064   6.754   7.015
10188SOL    HW131463   2.046   6.846   0.025
10188SOL    HW231464   2.056   6.753   6.915
10189SOL     OW31465   2.331   1.712   5.095
10189SOL    HW131466   2.404   1.685   5.157
10189SOL    HW231467   2.367   1.775   5.026
10190SOL     OW31468   3.998   3.744   1.012
10190SOL    HW131469   4.059   3.800   0.956
10190SOL    HW231470   4.005   3.649   0.983
10191SOL     OW31471   5.645   0.584   0.227
10191SOL    HW131472   5.666   0.626   0.138
10191SOL    HW231473   5.550   0.554   0.228
10192SOL     OW31474   2.128   0.957   4.066
10192SOL    HW131475   2.034   0.925   4.051
10192SOL    HW231476   2.125   1.041   4.122
10193SOL     OW31477   3.323   3.844   3.931
10193SOL    HW131478   3.269   3.926   3.915
10193SOL    HW231479   3.317   3.818   4.028
10194SOL     OW31480   3.006   6.070   3.063
10194SOL    HW131481   2.954   6.100   3.142
10194SOL    HW231482   3.082   6.133   3.047
10195SOL     OW31483   5.055   0.598   2.860
10195SOL    HW131484   5.102   0.565   2.942
10195SOL    HW231485   5.120   0.650   2.804
10196SOL     OW31486   5.043   4.184   4.188
10196SOL    HW131487   4.985   4.113   4.149
10196SOL    HW231488   4.990   4.240   4.251
10197SOL     OW31489   4.716   1.653   2.668
10197SOL    HW131490   4.677   1.651   2.760
10197SOL    HW231491   4.721   1.748   2.637
10198SOL     OW31492   3.349   1.465   1.687
10198SOL    HW131493   3.357   1.534   1.759
10198SOL    HW231494   3.327   1.376   1.729
10199SOL     OW31495   0.950   1.664   6.937
10199SOL    HW131496   1.002   1.654   6.851
10199SOL    HW231497   0.910   1.576   6.962
10200SOL     OW31498   5.936   6.257   4.327
10200SOL    HW131499   5.851   6.220   4.291
10200SOL    HW231500   5.948   6.351   4.296
10201SOL     OW31501   1.615   4.616   2.915
10201SOL    HW131502   1.676   4.694   2.926
10201SOL    HW231503   1.522   4.642   2.941
10202SOL     OW31504   0.626   1.861   2.996
10202SOL    HW131505   0.604   1.771   2.958
10202SOL    HW231506   0.713   1.893   2.957
10203SOL     OW31507   0.504   1.896   0.973
10203SOL    HW131508   0.576   1.965   0.974
10203SOL    HW231509   0.444   1.911   0.895
10204SOL     OW31510   2.572   6.012   4.116
10204SOL    HW131511   2.615   6.000   4.026
10204SOL    HW231512   2.507   5.939   4.132
10205SOL     OW31513   3.506   0.226   1.062
10205SOL    HW131514   3.502   0.298   1.132
10205SOL    HW231515   3.569   0.253   0.989
10206SOL     OW31516   5.633   6.554   6.749
10206SOL    HW131517   5.601   6.515   6.835
10206SOL    HW231518   5.707   6.497   6.713
10207SOL     OW31519   4.117   1.328   2.869
10207SOL    HW131520   4.089   1.302   2.777
10207SOL    HW231521   4.140   1.425   2.871
10208SOL     OW31522   0.041   3.393   6.276
10208SOL    HW131523   7.006   3.468   6.248
10208SOL    HW231524   0.033   3.379   6.375
10209SOL     OW31525   4.002   6.144   0.125
10209SOL    HW131526   3.992   6.138   0.026
10209SOL    HW231527   3.962   6.229   0.158
10210SOL     OW31528   5.479   5.071   0.269
10210SOL    HW131529   5.513   5.063   0.363
10210SOL    HW231530   5.550   5.041   0.206
10211SOL     OW31531   3.721   5.791   5.584
10211SOL    HW131532   3.810   5.811   5.627
10211SOL    HW231533   3.724   5.816   5.487
10212SOL     OW31534   6.013   6.443   6.143
10212SOL    HW131535   6.024   6.348   6.170
10212SOL    HW231536   6.102   6.488   6.140
10213SOL     OW31537   4.291   0.546   4.480
10213SOL    HW131538   4.260   0.594   4.561
10213SOL    HW231539   4.348   0.607   4.425
10214SOL     OW31540   0.667   0.524   6.946
10214SOL    HW131541   0.648   0.428   6.967
10214SOL    HW231542   0.581   0.573   6.934
10215SOL     OW31543   4.260   2.556   0.456
10215SOL    HW131544   4.348   2.598   0.434
10215SOL    HW231545   4.214   2.529   0.372
10216SOL     OW31546   5.074   0.171   2.865
10216SOL    HW131547   5.066   0.196   2.769
10216SOL    HW231548   5.165   0.131   2.881
10217SOL     OW31549   3.480   2.364   5.689
10217SOL    HW131550   3.417   2.345   5.614
10217SOL    HW231551   3.433   2.351   5.776
10218SOL     OW31552   3.715   1.579   6.461
10218SOL    HW131553   3.650   1.515   6.420
10218SOL    HW231554   3.674   1.621   6.542
10219SOL     OW31555   1.520   5.403   0.028
10219SOL    HW131556   1.556   5.316   0.061
10219SOL    HW231557   1.440   5.430   0.081
10220SOL     OW31558   4.039   2.297   0.180
10220SOL    HW131559   4.070   2.386   0.146
10220SOL    HW231560   3.943   2.284   0.155
10221SOL     OW31561   2.729   0.911   4.153
10221SOL    HW131562   2.664   0.879   4.222
10221SOL    HW231563   2.736   0.844   4.080
10222SOL     OW31564   1.976   4.361   5.198
10222SOL    HW131565   1.932   4.271   5.195
10222SOL    HW231566   2.042   4.363   5.272
10223SOL     OW31567   0.853   4.320   6.258
10223SOL    HW131568   0.755   4.304   6.250
10223SOL    HW231569   0.884   4.292   6.350
10224SOL     OW31570   2.775   6.918   4.826
10224SOL    HW131571   2.755   6.840   4.767
10224SOL    HW231572   2.873   6.937   4.825
10225SOL     OW31573   5.061   6.075   4.864
10225SOL    HW131574   5.128   6.040   4.799
10225SOL    HW231575   5.071   6.028   4.951
10226SOL     OW31576   6.568   2.797   6.215
10226SOL    HW131577   6.624   2.759   6.289
10226SOL    HW231578   6.522   2.879   6.248
10227SOL     OW31579   4.588   5.015   5.617
10227SOL    HW131580   4.643   5.092   5.649
10227SOL    HW231581   4.616   4.990   5.524
10228SOL     OW31582   0.901   3.221   1.862
10228SOL    HW131583   0.851   3.147   1.818
10228SOL    HW231584   0.924   3.196   1.956
10229SOL     OW31585   2.378   0.477   1.577
10229SOL    HW131586   2.328   0.560   1.552
10229SOL    HW231587   2.445   0.456   1.506
10230SOL     OW31588   6.074   6.387   3.485
10230SOL    HW131589   6.058   6.309   3.424
10230SOL    HW231590   6.064   6.472   3.433
10231SOL     OW31591   4.608   6.614   4.461
10231SOL    HW131592   4.621   6.608   4.560
10231SOL    HW231593   4.650   6.534   4.417
10232SOL     OW31594   3.798   2.105   3.704
10232SOL    HW131595   3.808   2.112   3.605
10232SOL    HW231596   3.707   2.135   3.731
10233SOL     OW31597   4.817   0.027   5.229
10233SOL    HW131598   4.840   0.051   5.323
10233SOL    HW231599   4.834   0.105   5.169
10234SOL     OW31600   4.531   5.366   1.370
10234SOL    HW131601   4.531   5.385   1.272
10234SOL    HW231602   4.438   5.345   1.400
10235SOL     OW31603   5.221   0.970   0.254
10235SOL    HW131604   5.190   0.941   0.163
10235SOL    HW231605   5.320   0.963   0.259
10236SOL     OW31606   1.469   5.872   1.366
10236SOL    HW131607   1.555   5.896   1.410
10236SOL    HW231608   1.451   5.774   1.378
10237SOL     OW31609   5.660   2.486   3.233
10237SOL    HW131610   5.658   2.484   3.333
10237SOL    HW231611   5.621   2.402   3.197
10238SOL     OW31612   4.392   5.932   5.253
10238SOL    HW131613   4.319   5.899   5.314
10238SOL    HW231614   4.399   6.031   5.261
10239SOL     OW31615   5.700   3.093   4.822
10239SOL    HW131616   5.705   3.096   4.922
10239SOL    HW231617   5.650   3.012   4.794
10240SOL     OW31618   4.947   3.624   3.532
10240SOL    HW131619   4.915   3.666   3.447
10240SOL    HW231620   5.018   3.682   3.573
10241SOL     OW31621   1.608   2.055   3.191
10241SOL    HW131622   1.674   2.129   3.199
10241SOL    HW231623   1.529   2.086   3.139
10242SOL     OW31624   1.130   5.340   5.887
10242SOL    HW131625   1.204   5.284   5.926
10242SOL    HW231626   1.074   5.377   5.961
10243SOL     OW31627   0.845   6.359   2.793
10243SOL    HW131628   0.855   6.310   2.706
10243SOL    HW231629   0.862   6.457   2.777
10244SOL     OW31630   1.182   5.888   0.299
10244SOL    HW131631   1.163   5.873   0.202
10244SOL    HW231632   1.224   5.806   0.338
10245SOL     OW31633   2.231   2.566   0.595
10245SOL    HW131634   2.314   2.511   0.598
10245SOL    HW231635   2.184   2.552   0.508
10246SOL     OW31636   2.891   3.433   4.462
10246SOL    HW131637   2.821   3.364   4.479
10246SOL    HW231638   2.920   3.473   4.550
10247SOL     OW31639   0.860   6.165   6.126
10247SOL    HW131640   0.947   6.145   6.081
10247SOL    HW231641   0.788   6.175   6.057
10248SOL     OW31642   6.137   0.669   3.762
10248SOL    HW131643   6.134   0.722   3.847
10248SOL    HW231644   6.054   0.614   3.754
10249SOL     OW31645   5.061   0.766   6.116
10249SOL    HW131646   5.034   0.826   6.190
10249SOL    HW231647   5.161   0.755   6.116
10250SOL     OW31648   5.041   6.615   0.622
10250SOL    HW131649   4.943   6.606   0.641
10250SOL    HW231650   5.072   6.706   0.651
10251SOL     OW31651   3.668   4.608   1.131
10251SOL    HW131652   3.743   4.585   1.068
10251SOL    HW231653   3.597   4.538   1.124
10252SOL     OW31654   0.591   4.043   0.878
10252SOL    HW131655   0.647   4.122   0.902
10252SOL    HW231656   0.496   4.071   0.867
10253SOL     OW31657   3.696   5.177   0.343
10253SOL    HW131658   3.649   5.121   0.411
10253SOL    HW231659   3.683   5.274   0.365
10254SOL     OW31660   2.330   1.493   4.743
10254SOL    HW131661   2.300   1.461   4.832
10254SOL    HW231662   2.410   1.553   4.754
10255SOL     OW31663   3.040   5.787   3.080
10255SOL    HW131664   3.030   5.886   3.079
10255SOL    HW231665   3.124   5.762   3.127
10256SOL     OW31666   5.666   6.668   0.326
10256SOL    HW131667   5.572   6.684   0.357
10256SOL    HW231668   5.675   6.700   0.232
10257SOL     OW31669   1.629   5.512   5.474
10257SOL    HW131670   1.654   5.487   5.568
10257SOL    HW231671   1.707   5.495   5.414
10258SOL     OW31672   4.282   0.811   2.961
10258SOL    HW131673   4.286   0.910   2.946
10258SOL    HW231674   4.315   0.790   3.053
10259SOL     OW31675   0.415   3.319   3.914
10259SOL    HW131676   0.424   3.418   3.918
10259SOL    HW231677   0.320   3.293   3.930
10260SOL     OW31678   0.276   5.857   2.098
10260SOL    HW131679   0.182   5.870   2.068
10260SOL    HW231680   0.317   5.945   2.120
10261SOL     OW31681   2.039   0.105   1.921
10261SOL    HW131682   2.021   0.013   1.957
10261SOL    HW231683   2.051   0.100   1.822
10262SOL     OW31684   1.507   6.675   3.936
10262SOL    HW131685   1.568   6.660   4.014
10262SOL    HW231686   1.471   6.587   3.904
10263SOL     OW31687   6.364   3.260   5.394
10263SOL    HW131688   6.304   3.180   5.384
10263SOL    HW231689   6.308   3.341   5.414
10264SOL     OW31690   0.551   6.685   0.047
10264SOL    HW131691   0.617   6.622   0.005
10264SOL    HW231692   0.534   6.761   7.008
10265SOL     OW31693   4.392   1.816   3.017
10265SOL    HW131694   4.349   1.904   3.033
10265SOL    HW231695   4.412   1.772   3.104
10266SOL     OW31696   3.933   3.841   6.838
10266SOL    HW131697   3.944   3.935   6.871
10266SOL    HW231698   3.871   3.791   6.898
10267SOL     OW31699   6.388   1.176   6.201
10267SOL    HW131700   6.301   1.179   6.152
10267SOL    HW231701   6.392   1.252   6.266
10268SOL     OW31702   6.581   4.237   0.843
10268SOL    HW131703   6.533   4.320   0.870
10268SOL    HW231704   6.663   4.226   0.900
10269SOL     OW31705   3.850   1.924   6.025
10269SOL    HW131706   3.863   1.913   5.927
10269SOL    HW231707   3.765   1.879   6.053
10270SOL     OW31708   2.647   5.951   2.120
10270SOL    HW131709   2.697   5.874   2.160
10270SOL    HW231710   2.686   6.037   2.153
10271SOL     OW31711   2.389   5.333   1.048
10271SOL    HW131712   2.361   5.252   0.996
10271SOL    HW231713   2.315   5.401   1.047
10272SOL     OW31714   1.815   1.892   4.143
10272SOL    HW131715   1.729   1.942   4.158
10272SOL    HW231716   1.797   1.811   4.087
10273SOL     OW31717   4.427   6.870   4.023
10273SOL    HW131718   4.348   6.861   4.083
10273SOL    HW231719   4.409   6.943   3.956
10274SOL     OW31720   2.651   4.706   6.417
10274SOL    HW131721   2.734   4.745   6.379
10274SOL    HW231722   2.665   4.683   6.513
10275SOL     OW31723   0.860   6.556   1.879
10275SOL    HW131724   0.880   6.654   1.872
10275SOL    HW231725   0.768   6.543   1.915
10276SOL     OW31726   0.968   6.601   7.006
10276SOL    HW131727   0.992   6.685   0.030
10276SOL    HW231728   1.027   6.527   0.014
10277SOL     OW31729   0.550   5.718   1.711
10277SOL    HW131730   0.530   5.812   1.737
10277SOL    HW231731   0.465   5.668   1.698
10278SOL     OW31732   6.637   0.278   5.304
10278SOL    HW131733   6.643   0.179   5.315
10278SOL    HW231734   6.588   0.318   5.382
10279SOL     OW31735   3.762   6.096   5.152
10279SOL    HW131736   3.765   6.099   5.052
10279SOL    HW231737   3.675   6.134   5.184
10280SOL     OW31738   3.660   2.817   7.017
10280SOL    HW131739   3.603   2.750   0.042
10280SOL    HW231740   3.617   2.907   7.022
10281SOL     OW31741   5.058   0.209   4.374
10281SOL    HW131742   5.063   0.168   4.465
10281SOL    HW231743   5.135   0.176   4.319
10282SOL     OW31744   1.527   2.881   4.298
10282SOL    HW131745   1.599   2.828   4.251
10282SOL    HW231746   1.454   2.901   4.233
10283SOL     OW31747   1.741   4.218   5.789
10283SOL    HW131748   1.827   4.267   5.802
10283SOL    HW231749   1.670   4.282   5.761
10284SOL     OW31750   4.941   3.449   6.793
10284SOL    HW131751   5.029   3.445   6.746
10284SOL    HW231752   4.909   3.543   6.796
10285SOL     OW31753   5.311   1.279   0.983
10285SOL    HW131754   5.308   1.321   1.073
10285SOL    HW231755   5.389   1.316   0.931
10286SOL     OW31756   3.967   0.443   3.999
10286SOL    HW131757   4.033   0.436   4.074
10286SOL    HW231758   3.875   0.450   4.035
10287SOL     OW31759   1.621   4.631   2.316
10287SOL    HW131760   1.667   4.719   2.318
10287SOL    HW231761   1.625   4.589   2.406
10288SOL     OW31762   4.387   6.197   4.523
10288SOL    HW131763   4.399   6.281   4.469
10288SOL    HW231764   4.464   6.185   4.585
10289SOL     OW31765   3.208   1.621   1.485
10289SOL    HW131766   3.177   1.705   1.529
10289SOL    HW231767   3.250   1.561   1.554
10290SOL     OW31768   3.130   3.100   2.908
10290SOL    HW131769   3.153   3.041   2.831
10290SOL    HW231770   3.149   3.052   2.994
10291SOL     OW31771   3.971   0.736   5.306
10291SOL    HW131772   3.947   0.752   5.211
10291SOL    HW231773   3.981   0.823   5.353
10292SOL     OW31774   0.774   2.413   4.598
10292SOL    HW131775   0.819   2.500   4.577
10292SOL    HW231776   0.682   2.412   4.559
10293SOL     OW31777   3.019   5.164   2.921
10293SOL    HW131778   2.964   5.081   2.911
10293SOL    HW231779   2.978   5.237   2.867
10294SOL     OW31780   6.291   1.351   3.474
10294SOL    HW131781   6.319   1.272   3.529
10294SOL    HW231782   6.336   1.346   3.384
10295SOL     OW31783   1.588   4.214   4.278
10295SOL    HW131784   1.553   4.303   4.308
10295SOL    HW231785   1.685   4.223   4.253
10296SOL     OW31786   6.557   3.028   1.912
10296SOL    HW131787   6.470   2.989   1.940
10296SOL    HW231788   6.542   3.118   1.870
10297SOL     OW31789   3.115   5.438   5.158
10297SOL    HW131790   3.180   5.514   5.156
10297SOL    HW231791   3.103   5.403   5.065
10298SOL     OW31792   5.961   3.275   3.041
10298SOL    HW131793   5.953   3.188   3.089
10298SOL    HW231794   5.907   3.344   3.088
10299SOL     OW31795   4.885   4.207   2.247
10299SOL    HW131796   4.891   4.129   2.309
10299SOL    HW231797   4.933   4.185   2.162
10300SOL     OW31798   0.803   5.644   1.706
10300SOL    HW131799   0.705   5.656   1.693
10300SOL    HW231800   0.829   5.672   1.798
10301SOL     OW31801   4.367   1.235   1.613
10301SOL    HW131802   4.374   1.167   1.539
10301SOL    HW231803   4.349   1.189   1.699
10302SOL     OW31804   2.327   4.189   3.901
10302SOL    HW131805   2.342   4.204   3.999
10302SOL    HW231806   2.372   4.262   3.849
10303SOL     OW31807   4.518   2.686   1.693
10303SOL    HW131808   4.590   2.690   1.762
10303SOL    HW231809   4.463   2.769   1.698
10304SOL     OW31810   6.253   6.374   3.701
10304SOL    HW131811   6.171   6.376   3.644
10304SOL    HW231812   6.243   6.440   3.776
10305SOL     OW31813   1.835   5.362   1.092
10305SOL    HW131814   1.854   5.364   1.190
10305SOL    HW231815   1.736   5.360   1.077
10306SOL     OW31816   3.957   4.210   1.099
10306SOL    HW131817   3.890   4.205   1.024
10306SOL    HW231818   3.918   4.261   1.175
10307SOL     OW31819   2.749   1.744   5.177
10307SOL    HW131820   2.804   1.826   5.193
10307SOL    HW231821   2.708   1.715   5.263
10308SOL     OW31822   2.687   5.235   3.829
10308SOL    HW131823   2.733   5.177   3.896
10308SOL    HW231824   2.746   5.249   3.750
10309SOL     OW31825   6.928   6.080   3.491
10309SOL    HW131826   6.969   5.988   3.483
10309SOL    HW231827   6.966   6.139   3.420
10310SOL     OW31828   3.473   2.957   4.487
10310SOL    HW131829   3.496   2.977   4.583
10310SOL    HW231830   3.554   2.971   4.430
10311SOL     OW31831   0.641   0.367   0.713
10311SOL    HW131832   0.567   0.434   0.724
10311SOL    HW231833   0.621   0.308   0.635
10312SOL     OW31834   2.571   4.685   0.814
10312SOL    HW131835   2.549   4.777   0.781
10312SOL    HW231836   2.660   4.657   0.778
10313SOL     OW31837   6.640   5.663   3.919
10313SOL    HW131838   6.624   5.761   3.927
10313SOL    HW231839   6.569   5.613   3.967
10314SOL     OW31840   6.509   5.442   5.429
10314SOL    HW131841   6.463   5.461   5.342
10314SOL    HW231842   6.589   5.385   5.413
10315SOL     OW31843   4.573   6.735   5.653
10315SOL    HW131844   4.629   6.804   5.608
10315SOL    HW231845   4.489   6.720   5.602
10316SOL     OW31846   0.165   3.707   3.005
10316SOL    HW131847   0.246   3.648   3.007
10316SOL    HW231848   0.177   3.783   3.068
10317SOL     OW31849   4.980   4.612   0.338
10317SOL    HW131850   4.994   4.587   0.242
10317SOL    HW231851   4.885   4.640   0.353
10318SOL     OW31852   6.029   5.678   2.991
10318SOL    HW131853   6.026   5.629   2.904
10318SOL    HW231854   5.987   5.768   2.980
10319SOL     OW31855   5.360   6.589   4.630
10319SOL    HW131856   5.424   6.570   4.556
10319SOL    HW231857   5.329   6.503   4.670
10320SOL     OW31858   4.280   5.937   2.339
10320SOL    HW131859   4.338   5.990   2.399
10320SOL    HW231860   4.329   5.856   2.307
10321SOL     OW31861   4.120   6.950   4.449
10321SOL    HW131862   4.204   7.001   4.461
10321SOL    HW231863   4.043   7.013   4.442
10322SOL     OW31864   0.976   2.165   0.058
10322SOL    HW131865   0.921   2.154   7.000
10322SOL    HW231866   0.946   2.101   0.128
10323SOL     OW31867   0.791   2.546   5.625
10323SOL    HW131868   0.879   2.593   5.628
10323SOL    HW231869   0.800   2.457   5.671
10324SOL     OW31870   3.669   3.004   4.317
10324SOL    HW131871   3.755   3.001   4.368
10324SOL    HW231872   3.675   2.945   4.237
10325SOL     OW31873   6.787   3.438   3.562
10325SOL    HW131874   6.720   3.366   3.582
10325SOL    HW231875   6.758   3.489   3.481
10326SOL     OW31876   5.729   1.871   1.493
10326SOL    HW131877   5.684   1.787   1.463
10326SOL    HW231878   5.772   1.857   1.582
10327SOL     OW31879   6.060   1.029   3.614
10327SOL    HW131880   6.026   0.973   3.538
10327SOL    HW231881   5.984   1.056   3.673
10328SOL     OW31882   6.326   3.792   2.443
10328SOL    HW131883   6.306   3.808   2.347
10328SOL    HW231884   6.358   3.698   2.455
10329SOL     OW31885   3.445   5.962   3.065
10329SOL    HW131886   3.482   5.872   3.085
10329SOL    HW231887   3.389   5.958   2.982
10330SOL     OW31888   3.333   3.715   1.081
10330SOL    HW131889   3.323   3.813   1.093
10330SOL    HW231890   3.252   3.677   1.036
10331SOL     OW31891   5.080   1.262   4.335
10331SOL    HW131892   5.046   1.197   4.403
10331SOL    HW231893   5.018   1.341   4.330
10332SOL     OW31894   0.983   1.575   5.923
10332SOL    HW131895   1.035   1.491   5.935
10332SOL    HW231896   0.969   1.619   6.012
10333SOL     OW31897   6.553   4.544   5.383
10333SOL    HW131898   6.534   4.599   5.465
10333SOL    HW231899   6.502   4.581   5.305
10334SOL     OW31900   0.709   5.014   5.179
10334SOL    HW131901   0.723   5.006   5.278
10334SOL    HW231902   0.773   4.955   5.131
10335SOL     OW31903   3.551   5.393   2.706
10335SOL    HW131904   3.458   5.401   2.742
10335SOL    HW231905   3.614   5.443   2.764
10336SOL     OW31906   4.877   6.806   2.854
10336SOL    HW131907   4.855   6.878   2.788
10336SOL    HW231908   4.832   6.826   2.941
10337SOL     OW31909   0.531   4.122   5.716
10337SOL    HW131910   0.483   4.158   5.796
10337SOL    HW231911   0.556   4.027   5.733
10338SOL     OW31912   2.677   5.062   2.846
10338SOL    HW131913   2.582   5.063   2.817
10338SOL    HW231914   2.702   5.152   2.881
10339SOL     OW31915   2.584   5.348   0.730
10339SOL    HW131916   2.583   5.275   0.663
10339SOL    HW231917   2.492   5.358   0.770
10340SOL     OW31918   1.571   6.572   0.689
10340SOL    HW131919   1.580   6.472   0.690
10340SOL    HW231920   1.655   6.614   0.723
10341SOL     OW31921   0.891   2.424   1.758
10341SOL    HW131922   0.892   2.370   1.673
10341SOL    HW231923   0.984   2.427   1.796
10342SOL     OW31924   3.691   6.113   4.408
10342SOL    HW131925   3.661   6.021   4.434
10342SOL    HW231926   3.660   6.178   4.477
10343SOL     OW31927   2.441   2.753   3.971
10343SOL    HW131928   2.485   2.811   3.902
10343SOL    HW231929   2.402   2.673   3.926
10344SOL     OW31930   4.588   3.754   1.722
10344SOL    HW131931   4.619   3.846   1.745
10344SOL    HW231932   4.612   3.733   1.627
10345SOL     OW31933   3.211   2.364   6.340
10345SOL    HW131934   3.194   2.279   6.389
10345SOL    HW231935   3.181   2.355   6.245
10346SOL     OW31936   6.139   5.562   0.720
10346SOL    HW131937   6.122   5.621   0.641
10346SOL    HW231938   6.093   5.474   0.707
10347SOL     OW31939   4.478   6.971   1.642
10347SOL    HW131940   4.477   6.888   1.586
10347SOL    HW231941   4.518   0.022   1.589
10348SOL     OW31942   6.910   4.975   5.635
10348SOL    HW131943   6.983   4.950   5.572
10348SOL    HW231944   6.940   4.958   5.729
10349SOL     OW31945   6.786   2.467   0.269
10349SOL    HW131946   6.709   2.497   0.325
10349SOL    HW231947   6.855   2.425   0.328
10350SOL     OW31948   2.136   4.839   4.477
10350SOL    HW131949   2.176   4.752   4.506
10350SOL    HW231950   2.111   4.833   4.381
10351SOL     OW31951   3.786   4.970   4.773
10351SOL    HW131952   3.770   4.938   4.679
10351SOL    HW231953   3.702   4.958   4.826
10352SOL     OW31954   6.813   1.234   0.778
10352SOL    HW131955   6.757   1.299   0.726
10352SOL    HW231956   6.905   1.230   0.740
10353SOL     OW31957   6.302   2.373   4.145
10353SOL    HW131958   6.275   2.343   4.053
10353SOL    HW231959   6.298   2.473   4.150
10354SOL     OW31960   6.677   2.921   1.049
10354SOL    HW131961   6.622   2.885   1.124
10354SOL    HW231962   6.682   3.020   1.055
10355SOL     OW31963   0.736   2.039   0.984
10355SOL    HW131964   0.763   2.106   0.915
10355SOL    HW231965   0.805   1.967   0.990
10356SOL     OW31966   5.868   2.589   6.749
10356SOL    HW131967   5.894   2.539   6.667
10356SOL    HW231968   5.930   2.566   6.824
10357SOL     OW31969   1.209   0.346   6.184
10357SOL    HW131970   1.266   0.285   6.129
10357SOL    HW231971   1.224   0.441   6.156
10358SOL     OW31972   0.600   2.477   2.904
10358SOL    HW131973   0.678   2.540   2.901
10358SOL    HW231974   0.628   2.389   2.865
10359SOL     OW31975   0.788   2.277   1.976
10359SOL    HW131976   0.809   2.339   1.901
10359SOL    HW231977   0.787   2.183   1.943
10360SOL     OW31978   5.959   4.129   1.146
10360SOL    HW131979   5.928   4.182   1.067
10360SOL    HW231980   6.014   4.052   1.115
10361SOL     OW31981   6.534   1.823   2.423
10361SOL    HW131982   6.479   1.751   2.380
10361SOL    HW231983   6.484   1.910   2.417
10362SOL     OW31984   1.285   5.592   1.921
10362SOL    HW131985   1.306   5.512   1.865
10362SOL    HW231986   1.187   5.596   1.939
10363SOL     OW31987   5.611   5.059   6.462
10363SOL    HW131988   5.651   5.037   6.551
10363SOL    HW231989   5.580   5.154   6.463
10364SOL     OW31990   5.653   5.861   2.424
10364SOL    HW131991   5.653   5.807   2.339
10364SOL    HW231992   5.747   5.871   2.457
10365SOL     OW31993   6.163   5.335   0.204
10365SOL    HW131994   6.259   5.321   0.227
10365SOL    HW231995   6.157   5.394   0.123
10366SOL     OW31996   2.755   6.620   4.034
10366SOL    HW131997   2.761   6.720   4.046
10366SOL    HW231998   2.666   6.588   4.067
10367SOL     OW31999   5.391   6.532   1.713
10367SOL    HW132000   5.479   6.572   1.687
10367SOL    HW232001   5.393   6.434   1.693
10368SOL     OW32002   1.024   5.778   1.935
10368SOL    HW132003   0.955   5.851   1.935
10368SOL    HW232004   1.105   5.808   1.985
10369SOL     OW32005   2.455   0.403   5.848
10369SOL    HW132006   2.477   0.327   5.909
10369SOL    HW232007   2.462   0.489   5.899
10370SOL     OW32008   2.095   1.734   5.471
10370SOL    HW132009   2.014   1.687   5.435
10370SOL    HW232010   2.166   1.668   5.491
10371SOL     OW32011   4.324   5.612   3.251
10371SOL    HW132012   4.266   5.607   3.170
10371SOL    HW232013   4.277   5.665   3.323
10372SOL     OW32014   2.368   6.633   1.054
10372SOL    HW132015   2.303   6.570   1.012
10372SOL    HW232016   2.416   6.586   1.129
10373SOL     OW32017   6.102   0.675   6.720
10373SOL    HW132018   6.100   0.774   6.711
10373SOL    HW232019   6.147   0.635   6.641
10374SOL     OW32020   2.899   4.762   3.161
10374SOL    HW132021   2.963   4.701   3.114
10374SOL    HW232022   2.951   4.827   3.217
10375SOL     OW32023   2.445   5.310   0.349
10375SOL    HW132024   2.450   5.321   0.250
10375SOL    HW232025   2.496   5.384   0.393
10376SOL     OW32026   2.212   4.913   3.656
10376SOL    HW132027   2.234   4.830   3.708
10376SOL    HW232028   2.113   4.922   3.648
10377SOL     OW32029   2.163   0.869   2.598
10377SOL    HW132030   2.163   0.836   2.503
10377SOL    HW232031   2.222   0.950   2.604
10378SOL     OW32032   0.631   6.342   5.366
10378SOL    HW132033   0.602   6.395   5.286
10378SOL    HW232034   0.726   6.312   5.353
10379SOL     OW32035   2.291   6.701   3.643
10379SOL    HW132036   2.198   6.677   3.673
10379SOL    HW232037   2.292   6.797   3.615
10380SOL     OW32038   3.385   1.084   3.892
10380SOL    HW132039   3.354   1.179   3.886
10380SOL    HW232040   3.364   1.047   3.983
10381SOL     OW32041   3.866   6.568   2.908
10381SOL    HW132042   3.919   6.630   2.849
10381SOL    HW232043   3.902   6.572   3.001
10382SOL     OW32044   4.213   5.468   2.035
10382SOL    HW132045   4.277   5.461   2.111
10382SOL    HW232046   4.126   5.504   2.068
10383SOL     OW32047   0.546   5.544   6.682
10383SOL    HW132048   0.512   5.605   6.610
10383SOL    HW232049   0.644   5.559   6.695
10384SOL     OW32050   4.726   5.766   1.485
10384SOL    HW132051   4.686   5.697   1.545
10384SOL    HW232052   4.820   5.741   1.463
10385SOL     OW32053   4.351   4.778   0.441
10385SOL    HW132054   4.378   4.865   0.482
10385SOL    HW232055   4.399   4.704   0.487
10386SOL     OW32056   0.056   0.617   1.091
10386SOL    HW132057   0.027   0.526   1.120
10386SOL    HW232058   0.002   0.645   1.011
10387SOL     OW32059   4.894   3.262   2.415
10387SOL    HW132060   4.866   3.290   2.323
10387SOL    HW232061   4.839   3.184   2.445
10388SOL     OW32062   1.856   0.083   4.649
10388SOL    HW132063   1.891   0.027   4.724
10388SOL    HW232064   1.767   0.048   4.620
10389SOL     OW32065   0.723   3.740   6.928
10389SOL    HW132066   0.806   3.694   6.898
10389SOL    HW232067   0.649   3.721   6.863
10390SOL     OW32068   1.789   2.361   2.033
10390SOL    HW132069   1.767   2.316   1.946
10390SOL    HW232070   1.794   2.293   2.106
10391SOL     OW32071   6.229   6.844   3.653
10391SOL    HW132072   6.260   6.861   3.559
10391SOL    HW232073   6.130   6.834   3.653
10392SOL     OW32074   6.621   4.178   4.048
10392SOL    HW132075   6.558   4.208   3.976
10392SOL    HW232076   6.712   4.164   4.009
10393SOL     OW32077   2.080   2.430   2.510
10393SOL    HW132078   2.171   2.419   2.548
10393SOL    HW232079   2.053   2.527   2.515
10394SOL     OW32080   3.189   0.049   4.285
10394SOL    HW132081   3.244   6.990   4.279
10394SOL    HW232082   3.096   0.024   4.314
10395SOL     OW32083   0.719   0.688   0.940
10395SOL    HW132084   0.646   0.627   0.970
10395SOL    HW232085   0.771   0.645   0.867
10396SOL     OW32086   3.246   2.058   4.884
10396SOL    HW132087   3.210   2.064   4.791
10396SOL    HW232088   3.216   2.138   4.936
10397SOL     OW32089   4.939   2.062   4.234
10397SOL    HW132090   5.030   2.024   4.224
10397SOL    HW232091   4.871   2.000   4.195
10398SOL     OW32092   5.760   2.275   2.536
10398SOL    HW132093   5.722   2.184   2.518
10398SOL    HW232094   5.687   2.343   2.528
10399SOL     OW32095   0.762   3.810   2.332
10399SOL    HW132096   0.824   3.777   2.403
10399SOL    HW232097   0.681   3.850   2.374
10400SOL     OW32098   2.206   6.402   0.909
10400SOL    HW132099   2.130   6.337   0.896
10400SOL    HW232100   2.280   6.356   0.959
10401SOL     OW32101   0.223   1.112   5.547
10401SOL    HW132102   0.268   1.037   5.595
10401SOL    HW232103   0.278   1.195   5.556
10402SOL     OW32104   6.945   3.515   5.272
10402SOL    HW132105   6.980   3.570   5.347
10402SOL    HW232106   6.982   3.422   5.278
10403SOL     OW32107   3.055   0.101   0.863
10403SOL    HW132108   3.053   0.153   0.948
10403SOL    HW232109   3.123   0.028   0.870
10404SOL     OW32110   6.417   6.767   6.137
10404SOL    HW132111   6.505   6.780   6.091
10404SOL    HW232112   6.346   6.815   6.086
10405SOL     OW32113   0.709   2.675   6.632
10405SOL    HW132114   0.648   2.624   6.572
10405SOL    HW232115   0.785   2.616   6.661
10406SOL     OW32116   1.728   5.171   1.407
10406SOL    HW132117   1.753   5.176   1.504
10406SOL    HW232118   1.637   5.131   1.398
10407SOL     OW32119   2.067   5.687   5.557
10407SOL    HW132120   2.069   5.723   5.464
10407SOL    HW232121   2.127   5.608   5.564
10408SOL     OW32122   4.235   1.213   0.078
10408SOL    HW132123   4.250   1.297   0.131
10408SOL    HW232124   4.168   1.155   0.125
10409SOL     OW32125   6.418   4.590   1.076
10409SOL    HW132126   6.367   4.521   1.026
10409SOL    HW232127   6.389   4.681   1.046
10410SOL     OW32128   4.619   0.024   0.552
10410SOL    HW132129   4.698   0.058   0.502
10410SOL    HW232130   4.581   0.097   0.607
10411SOL     OW32131   2.245   4.588   4.106
10411SOL    HW132132   2.283   4.676   4.133
10411SOL    HW232133   2.305   4.514   4.136
10412SOL     OW32134   5.301   0.144   0.823
10412SOL    HW132135   5.368   0.073   0.799
10412SOL    HW232136   5.339   0.202   0.896
10413SOL     OW32137   6.462   3.122   2.216
10413SOL    HW132138   6.483   3.025   2.215
10413SOL    HW232139   6.424   3.148   2.305
10414SOL     OW32140   4.698   2.622   4.188
10414SOL    HW132141   4.702   2.563   4.268
10414SOL    HW232142   4.744   2.709   4.209
10415SOL     OW32143   0.152   1.006   6.427
10415SOL    HW132144   0.164   1.039   6.333
10415SOL    HW232145   0.056   1.015   6.453
10416SOL     OW32146   5.457   3.394   4.229
10416SOL    HW132147   5.444   3.302   4.191
10416SOL    HW232148   5.433   3.393   4.326
10417SOL     OW32149   2.517   4.489   3.187
10417SOL    HW132150   2.585   4.532   3.247
10417SOL    HW232151   2.444   4.450   3.243
10418SOL     OW32152   1.722   5.711   5.749
10418SOL    HW132153   1.809   5.701   5.798
10418SOL    HW232154   1.668   5.627   5.760
10419SOL     OW32155   1.190   1.307   0.583
10419SOL    HW132156   1.202   1.320   0.485
10419SOL    HW232157   1.131   1.228   0.599
10420SOL     OW32158   0.493   3.135   3.386
10420SOL    HW132159   0.420   3.068   3.386
10420SOL    HW232160   0.516   3.160   3.480
10421SOL     OW32161   0.258   1.074   3.487
10421SOL    HW132162   0.357   1.070   3.503
10421SOL    HW232163   0.239   1.135   3.410
10422SOL     OW32164   5.454   3.787   5.681
10422SOL    HW132165   5.381   3.747   5.737
10422SOL    HW232166   5.477   3.878   5.717
10423SOL     OW32167   5.344   4.194   2.629
10423SOL    HW132168   5.344   4.251   2.547
10423SOL    HW232169   5.439   4.177   2.658
10424SOL     OW32170   5.008   1.529   6.431
10424SOL    HW132171   5.015   1.432   6.407
10424SOL    HW232172   4.916   1.549   6.463
10425SOL     OW32173   2.144   6.476   1.602
10425SOL    HW132174   2.212   6.509   1.536
10425SOL    HW232175   2.172   6.386   1.635
10426SOL     OW32176   6.435   3.901   0.470
10426SOL    HW132177   6.350   3.950   0.450
10426SOL    HW232178   6.486   3.951   0.540
10427SOL     OW32179   4.515   0.992   1.085
10427SOL    HW132180   4.553   1.085   1.081
10427SOL    HW232181   4.588   0.927   1.106
10428SOL     OW32182   4.378   0.980   3.957
10428SOL    HW132183   4.332   1.044   4.019
10428SOL    HW232184   4.324   0.896   3.949
10429SOL     OW32185   6.057   6.413   1.565
10429SOL    HW132186   5.964   6.388   1.539
10429SOL    HW232187   6.085   6.495   1.515
10430SOL     OW32188   4.049   6.343   3.147
10430SOL    HW132189   4.085   6.375   3.059
10430SOL    HW232190   3.972   6.400   3.174
10431SOL     OW32191   2.167   1.019   5.216
10431SOL    HW132192   2.248   1.053   5.263
10431SOL    HW232193   2.155   0.922   5.236
10432SOL     OW32194   4.840   1.611   4.936
10432SOL    HW132195   4.820   1.709   4.933
10432SOL    HW232196   4.771   1.561   4.883
10433SOL     OW32197   2.682   6.799   1.247
10433SOL    HW132198   2.624   6.863   1.196
10433SOL    HW232199   2.747   6.850   1.303
10434SOL     OW32200   2.468   1.993   4.091
10434SOL    HW132201   2.440   1.910   4.043
10434SOL    HW232202   2.390   2.029   4.143
10435SOL     OW32203   5.901   5.688   6.692
10435SOL    HW132204   5.802   5.678   6.699
10435SOL    HW232205   5.926   5.785   6.703
10436SOL     OW32206   0.950   0.026   2.154
10436SOL    HW132207   1.048   0.029   2.171
10436SOL    HW232208   0.931   0.062   2.062
10437SOL     OW32209   6.658   5.067   5.687
10437SOL    HW132210   6.745   5.033   5.653
10437SOL    HW232211   6.642   5.031   5.779
10438SOL     OW32212   3.741   6.855   6.267
10438SOL    HW132213   3.679   6.824   6.195
10438SOL    HW232214   3.790   6.936   6.236
10439SOL     OW32215   3.946   0.659   5.731
10439SOL    HW132216   4.015   0.604   5.683
10439SOL    HW232217   3.990   0.711   5.804
10440SOL     OW32218   2.215   6.123   0.727
10440SOL    HW132219   2.217   6.041   0.669
10440SOL    HW232220   2.178   6.200   0.675
10441SOL     OW32221   3.729   0.662   6.881
10441SOL    HW132222   3.771   0.623   6.963
10441SOL    HW232223   3.798   0.708   6.827
10442SOL     OW32224   4.335   5.978   5.624
10442SOL    HW132225   4.273   5.952   5.549
10442SOL    HW232226   4.375   5.895   5.664
10443SOL     OW32227   6.166   2.795   5.007
10443SOL    HW132228   6.090   2.837   4.958
10443SOL    HW232229   6.155   2.696   5.007
10444SOL     OW32230   3.642   4.918   4.264
10444SOL    HW132231   3.679   4.972   4.189
10444SOL    HW232232   3.546   4.899   4.247
10445SOL     OW32233   6.184   5.973   3.197
10445SOL    HW132234   6.162   5.910   3.271
10445SOL    HW232235   6.247   6.043   3.230
10446SOL     OW32236   0.865   6.507   6.587
10446SOL    HW132237   0.933   6.579   6.602
10446SOL    HW232238   0.778   6.535   6.629
10447SOL     OW32239   6.281   2.103   0.864
10447SOL    HW132240   6.215   2.042   0.820
10447SOL    HW232241   6.254   2.198   0.850
10448SOL     OW32242   3.344   3.857   2.418
10448SOL    HW132243   3.292   3.779   2.383
10448SOL    HW232244   3.428   3.825   2.462
10449SOL     OW32245   1.502   5.170   4.595
10449SOL    HW132246   1.564   5.213   4.661
10449SOL    HW232247   1.416   5.148   4.640
10450SOL     OW32248   0.150   2.762   0.377
10450SOL    HW132249   0.230   2.716   0.341
10450SOL    HW232250   0.068   2.710   0.354
10451SOL     OW32251   2.407   4.342   2.480
10451SOL    HW132252   2.477   4.396   2.434
10451SOL    HW232253   2.405   4.364   2.577
10452SOL     OW32254   1.076   3.610   4.708
10452SOL    HW132255   1.019   3.658   4.642
10452SOL    HW232256   1.125   3.536   4.662
10453SOL     OW32257   5.169   0.562   1.449
10453SOL    HW132258   5.195   0.624   1.376
10453SOL    HW232259   5.109   0.491   1.412
10454SOL     OW32260   4.913   3.447   2.596
10454SOL    HW132261   4.921   3.393   2.679
10454SOL    HW232262   4.894   3.387   2.519
10455SOL     OW32263   6.969   4.608   2.938
10455SOL    HW132264   7.004   4.541   3.003
10455SOL    HW232265   6.967   4.569   2.846
10456SOL     OW32266   3.663   6.005   1.603
10456SOL    HW132267   3.569   5.977   1.584
10456SOL    HW232268   3.665   6.062   1.686
10457SOL     OW32269   3.677   3.392   4.059
10457SOL    HW132270   3.696   3.316   3.997
10457SOL    HW232271   3.763   3.429   4.094
10458SOL     OW32272   6.508   6.835   1.561
10458SOL    HW132273   6.449   6.824   1.482
10458SOL    HW232274   6.602   6.812   1.537
10459SOL     OW32275   6.668   4.484   2.724
10459SOL    HW132276   6.612   4.560   2.690
10459SOL    HW232277   6.660   4.478   2.823
10460SOL     OW32278   1.885   4.693   2.041
10460SOL    HW132279   1.893   4.792   2.039
10460SOL    HW232280   1.795   4.667   2.076
10461SOL     OW32281   2.383   1.264   6.454
10461SOL    HW132282   2.433   1.178   6.458
10461SOL    HW232283   2.372   1.301   6.547
10462SOL     OW32284   5.244   0.121   1.279
10462SOL    HW132285   5.172   0.158   1.338
10462SOL    HW232286   5.264   0.026   1.305
10463SOL     OW32287   3.185   3.742   1.337
10463SOL    HW132288   3.265   3.759   1.395
10463SOL    HW232289   3.195   3.653   1.292
10464SOL     OW32290   5.223   6.846   1.338
10464SOL    HW132291   5.151   6.793   1.384
10464SOL    HW232292   5.237   6.811   1.246
10465SOL     OW32293   6.820   5.056   5.065
10465SOL    HW132294   6.752   4.994   5.026
10465SOL    HW232295   6.902   5.057   5.008
10466SOL     OW32296   4.920   6.252   6.813
10466SOL    HW132297   5.011   6.295   6.811
10466SOL    HW232298   4.927   6.159   6.779
10467SOL     OW32299   4.478   1.159   3.729
10467SOL    HW132300   4.563   1.205   3.757
10467SOL    HW232301   4.452   1.093   3.800
10468SOL     OW32302   3.242   5.702   3.221
10468SOL    HW132303   3.286   5.616   3.197
10468SOL    HW232304   3.311   5.768   3.249
10469SOL     OW32305   1.466   5.050   7.000
10469SOL    HW132306   1.451   5.142   0.013
10469SOL    HW232307   1.561   5.022   7.017
10470SOL     OW32308   3.121   1.594   4.144
10470SOL    HW132309   3.195   1.640   4.192
10470SOL    HW232310   3.086   1.654   4.072
10471SOL     OW32311   4.233   4.155   0.502
10471SOL    HW132312   4.224   4.063   0.464
10471SOL    HW232313   4.317   4.161   0.557
10472SOL     OW32314   4.591   1.546   3.330
10472SOL    HW132315   4.690   1.548   3.344
10472SOL    HW232316   4.547   1.614   3.389
10473SOL     OW32317   5.003   5.306   7.007
10473SOL    HW132318   4.964   5.387   6.963
10473SOL    HW232319   4.936   5.268   0.048
10474SOL     OW32320   5.404   1.218   4.133
10474SOL    HW132321   5.449   1.194   4.219
10474SOL    HW232322   5.388   1.317   4.131
10475SOL     OW32323   4.837   6.268   1.942
10475SOL    HW132324   4.863   6.321   1.861
10475SOL    HW232325   4.828   6.172   1.918
10476SOL     OW32326   0.224   4.511   7.005
10476SOL    HW132327   0.301   4.562   0.019
10476SOL    HW232328   0.194   4.554   6.920
10477SOL     OW32329   4.595   4.786   4.999
10477SOL    HW132330   4.693   4.793   4.976
10477SOL    HW232331   4.543   4.843   4.936
10478SOL     OW32332   0.433   6.144   2.820
10478SOL    HW132333   0.385   6.231   2.827
10478SOL    HW232334   0.454   6.125   2.724
10479SOL     OW32335   1.634   5.116   2.463
10479SOL    HW132336   1.564   5.097   2.532
10479SOL    HW232337   1.713   5.158   2.506
10480SOL     OW32338   5.659   0.216   1.716
10480SOL    HW132339   5.588   0.202   1.786
10480SOL    HW232340   5.727   0.143   1.723
10481SOL     OW32341   2.789   1.108   4.874
10481SOL    HW132342   2.803   1.009   4.883
10481SOL    HW232343   2.801   1.134   4.778
10482SOL     OW32344   1.091   5.812   6.306
10482SOL    HW132345   1.145   5.894   6.290
10482SOL    HW232346   1.079   5.763   6.219
10483SOL     OW32347   6.677   5.240   0.566
10483SOL    HW132348   6.604   5.281   0.621
10483SOL    HW232349   6.654   5.145   0.546
10484SOL     OW32350   6.071   2.143   1.217
10484SOL    HW132351   6.126   2.224   1.241
10484SOL    HW232352   5.995   2.134   1.282
10485SOL     OW32353   3.330   4.139   3.766
10485SOL    HW132354   3.417   4.183   3.791
10485SOL    HW232355   3.266   4.147   3.843
10486SOL     OW32356   5.877   5.280   5.278
10486SOL    HW132357   5.944   5.280   5.352
10486SOL    HW232358   5.786   5.262   5.315
10487SOL     OW32359   5.122   2.966   3.220
10487SOL    HW132360   5.025   2.951   3.235
10487SOL    HW232361   5.162   2.887   3.174
10488SOL     OW32362   0.387   2.429   5.140
10488SOL    HW132363   0.340   2.382   5.215
10488SOL    HW232364   0.387   2.370   5.059
10489SOL     OW32365   5.741   4.237   4.462
10489SOL    HW132366   5.753   4.300   4.386
10489SOL    HW232367   5.828   4.223   4.508
10490SOL     OW32368   5.713   6.300   6.487
10490SOL    HW132369   5.807   6.282   6.516
10490SOL    HW232370   5.714   6.364   6.410
10491SOL     OW32371   1.876   3.149   5.620
10491SOL    HW132372   1.922   3.113   5.539
10491SOL    HW232373   1.923   3.117   5.702
10492SOL     OW32374   2.865   5.817   0.666
10492SOL    HW132375   2.783   5.834   0.611
10492SOL    HW232376   2.944   5.810   0.606
10493SOL     OW32377   4.013   5.402   1.668
10493SOL    HW132378   3.931   5.377   1.616
10493SOL    HW232379   4.051   5.487   1.632
10494SOL     OW32380   0.724   4.911   4.320
10494SOL    HW132381   0.653   4.936   4.386
10494SOL    HW232382   0.796   4.858   4.366
10495SOL     OW32383   0.030   6.591   0.442
10495SOL    HW132384   0.087   6.522   0.486
10495SOL    HW232385   0.047   6.590   0.344
10496SOL     OW32386   0.334   4.901   6.409
10496SOL    HW132387   0.269   4.921   6.335
10496SOL    HW232388   0.317   4.962   6.486
10497SOL     OW32389   3.227   0.034   1.457
10497SOL    HW132390   3.258   7.019   1.544
10497SOL    HW232391   3.254   6.998   1.382
10498SOL     OW32392   3.925   3.626   6.660
10498SOL    HW132393   3.914   3.692   6.735
10498SOL    HW232394   3.996   3.659   6.598
10499SOL     OW32395   4.869   3.765   2.585
10499SOL    HW132396   4.850   3.708   2.665
10499SOL    HW232397   4.809   3.739   2.510
10500SOL     OW32398   1.274   3.020   5.306
10500SOL    HW132399   1.307   2.995   5.215
10500SOL    HW232400   1.287   2.943   5.368
10501SOL     OW32401   3.970   5.020   3.155
10501SOL    HW132402   3.934   5.110   3.131
10501SOL    HW232403   3.945   4.954   3.083
10502SOL     OW32404   3.291   3.529   2.745
10502SOL    HW132405   3.309   3.470   2.667
10502SOL    HW232406   3.378   3.560   2.784
10503SOL     OW32407   6.897   1.589   6.438
10503SOL    HW132408   6.968   1.536   6.392
10503SOL    HW232409   6.905   1.575   6.537
10504SOL     OW32410   1.208   3.801   5.884
10504SOL    HW132411   1.172   3.891   5.859
10504SOL    HW232412   1.200   3.739   5.806
10505SOL     OW32413   6.419   0.266   0.573
10505SOL    HW132414   6.401   0.316   0.488
10505SOL    HW232415   6.366   0.305   0.647
10506SOL     OW32416   1.600   4.596   5.846
10506SOL    HW132417   1.660   4.591   5.766
10506SOL    HW232418   1.522   4.535   5.833
10507SOL     OW32419   0.916   6.515   6.107
10507SOL    HW132420   0.839   6.454   6.087
10507SOL    HW232421   0.895   6.607   6.072
10508SOL     OW32422   1.665   5.893   6.713
10508SOL    HW132423   1.597   5.924   6.647
10508SOL    HW232424   1.696   5.802   6.689
10509SOL     OW32425   4.596   2.557   3.191
10509SOL    HW132426   4.589   2.638   3.249
10509SOL    HW232427   4.537   2.485   3.228
10510SOL     OW32428   5.813   5.901   3.381
10510SOL    HW132429   5.743   5.861   3.440
10510SOL    HW232430   5.783   5.895   3.285
10511SOL     OW32431   4.498   1.764   1.183
10511SOL    HW132432   4.447   1.814   1.113
10511SOL    HW232433   4.589   1.741   1.148
10512SOL     OW32434   3.924   1.639   5.920
10512SOL    HW132435   3.827   1.663   5.929
10512SOL    HW232436   3.936   1.582   5.839
10513SOL     OW32437   3.716   3.127   0.789
10513SOL    HW132438   3.684   3.040   0.752
10513SOL    HW232439   3.705   3.126   0.889
10514SOL     OW32440   1.422   5.179   1.618
10514SOL    HW132441   1.394   5.208   1.527
10514SOL    HW232442   1.432   5.079   1.620
10515SOL     OW32443   2.240   3.088   4.522
10515SOL    HW132444   2.243   3.181   4.559
10515SOL    HW232445   2.178   3.086   4.443
10516SOL     OW32446   5.638   1.869   2.246
10516SOL    HW132447   5.588   1.866   2.332
10516SOL    HW232448   5.661   1.964   2.224
10517SOL     OW32449   0.853   2.869   2.097
10517SOL    HW132450   0.788   2.882   2.172
10517SOL    HW232451   0.939   2.834   2.133
10518SOL     OW32452   0.594   5.567   2.005
10518SOL    HW132453   0.572   5.533   1.914
10518SOL    HW232454   0.608   5.666   2.001
10519SOL     OW32455   3.294   0.011   1.039
10519SOL    HW132456   3.355   0.086   1.065
10519SOL    HW232457   3.291   6.967   1.113
10520SOL     OW32458   1.825   2.152   6.228
10520SOL    HW132459   1.836   2.202   6.142
10520SOL    HW232460   1.910   2.104   6.249
10521SOL     OW32461   6.396   2.608   3.221
10521SOL    HW132462   6.398   2.616   3.122
10521SOL    HW232463   6.305   2.575   3.250
10522SOL     OW32464   5.412   1.507   4.033
10522SOL    HW132465   5.320   1.504   3.994
10522SOL    HW232466   5.407   1.547   4.125
10523SOL     OW32467   1.071   4.452   1.896
10523SOL    HW132468   1.099   4.360   1.923
10523SOL    HW232469   1.111   4.475   1.808
10524SOL     OW32470   6.735   5.909   4.648
10524SOL    HW132471   6.769   5.989   4.697
10524SOL    HW232472   6.765   5.826   4.694
10525SOL     OW32473   5.074   1.061   4.152
10525SOL    HW132474   5.079   1.145   4.206
10525SOL    HW232475   5.063   1.084   4.056
10526SOL     OW32476   1.496   5.778   6.300
10526SOL    HW132477   1.453   5.694   6.265
10526SOL    HW232478   1.468   5.792   6.395
10527SOL     OW32479   6.971   6.180   5.521
10527SOL    HW132480   6.930   6.117   5.587
10527SOL    HW232481   6.945   6.274   5.545
10528SOL     OW32482   2.029   5.213   5.103
10528SOL    HW132483   1.967   5.154   5.154
10528SOL    HW232484   2.124   5.185   5.121
10529SOL     OW32485   0.174   5.079   0.924
10529SOL    HW132486   0.212   5.066   1.016
10529SOL    HW232487   0.145   5.174   0.913
10530SOL     OW32488   0.036   0.040   0.833
10530SOL    HW132489   0.004   0.007   0.744
10530SOL    HW232490   6.984   0.038   0.899
10531SOL     OW32491   3.744   2.304   5.688
10531SOL    HW132492   3.647   2.328   5.684
10531SOL    HW232493   3.756   2.210   5.659
10532SOL     OW32494   4.417   5.980   5.938
10532SOL    HW132495   4.374   6.049   5.880
10532SOL    HW232496   4.407   5.890   5.895
10533SOL     OW32497   4.043   6.889   3.214
10533SOL    HW132498   4.027   6.926   3.306
10533SOL    HW232499   4.046   6.789   3.218
10534SOL     OW32500   1.801   6.155   3.852
10534SOL    HW132501   1.788   6.066   3.895
10534SOL    HW232502   1.755   6.156   3.763
10535SOL     OW32503   3.696   2.001   2.453
10535SOL    HW132504   3.621   2.025   2.391
10535SOL    HW232505   3.766   1.951   2.403
10536SOL     OW32506   5.749   3.988   5.082
10536SOL    HW132507   5.787   3.989   5.175
10536SOL    HW232508   5.805   3.929   5.024
10537SOL     OW32509   3.962   1.413   3.750
10537SOL    HW132510   3.894   1.362   3.697
10537SOL    HW232511   4.021   1.465   3.688
10538SOL     OW32512   6.644   2.574   3.305
10538SOL    HW132513   6.547   2.598   3.296
10538SOL    HW232514   6.658   2.481   3.270
10539SOL     OW32515   6.864   6.583   2.839
10539SOL    HW132516   6.864   6.666   2.896
10539SOL    HW232517   6.783   6.584   2.780
10540SOL     OW32518   1.715   4.195   6.915
10540SOL    HW132519   1.708   4.095   6.921
10540SOL    HW232520   1.717   4.222   6.819
10541SOL     OW32521   2.826   2.833   5.417
10541SOL    HW132522   2.915   2.823   5.373
10541SOL    HW232523   2.771   2.900   5.367
10542SOL     OW32524   4.785   6.548   2.885
10542SOL    HW132525   4.768   6.542   2.983
10542SOL    HW232526   4.815   6.640   2.861
10543SOL     OW32527   2.296   2.902   4.143
10543SOL    HW132528   2.281   2.883   4.240
10543SOL    HW232529   2.350   2.828   4.103
10544SOL     OW32530   2.698   1.455   2.548
10544SOL    HW132531   2.662   1.529   2.604
10544SOL    HW232532   2.793   1.475   2.522
10545SOL     OW32533   2.126   3.066   2.050
10545SOL    HW132534   2.126   3.022   2.140
10545SOL    HW232535   2.084   3.157   2.058
10546SOL     OW32536   2.723   6.711   6.451
10546SOL    HW132537   2.649   6.699   6.384
10546SOL    HW232538   2.804   6.662   6.420
10547SOL     OW32539   3.742   6.199   5.535
10547SOL    HW132540   3.701   6.272   5.589
10547SOL    HW232541   3.723   6.215   5.438
10548SOL     OW32542   0.650   6.546   3.438
10548SOL    HW132543   0.572   6.581   3.490
10548SOL    HW232544   0.734   6.562   3.490
10549SOL     OW32545   0.027   0.996   2.702
10549SOL    HW132546   0.109   0.954   2.662
10549SOL    HW232547   0.008   1.082   2.656
10550SOL     OW32548   5.331   5.783   3.099
10550SOL    HW132549   5.316   5.685   3.108
10550SOL    HW232550   5.243   5.830   3.091
10551SOL     OW32551   3.859   0.836   5.060
10551SOL    HW132552   3.771   0.871   5.091
10551SOL    HW232553   3.866   0.848   4.961
10552SOL     OW32554   3.108   0.256   3.342
10552SOL    HW132555   3.205   0.234   3.332
10552SOL    HW232556   3.053   0.181   3.306
10553SOL     OW32557   5.912   5.860   1.057
10553SOL    HW132558   5.975   5.841   1.132
10553SOL    HW232559   5.855   5.939   1.081
10554SOL     OW32560   6.131   6.429   1.821
10554SOL    HW132561   6.099   6.422   1.726
10554SOL    HW232562   6.194   6.506   1.829
10555SOL     OW32563   3.376   2.945   1.602
10555SOL    HW132564   3.438   2.918   1.530
10555SOL    HW232565   3.285   2.964   1.563
10556SOL     OW32566   2.411   1.804   1.902
10556SOL    HW132567   2.455   1.729   1.952
10556SOL    HW232568   2.476   1.845   1.839
10557SOL     OW32569   1.786   4.056   3.070
10557SOL    HW132570   1.845   4.044   2.990
10557SOL    HW232571   1.837   4.031   3.153
10558SOL     OW32572   4.116   4.836   4.571
10558SOL    HW132573   4.063   4.899   4.627
10558SOL    HW232574   4.179   4.785   4.629
10559SOL     OW32575   3.787   6.492   1.646
10559SOL    HW132576   3.854   6.457   1.711
10559SOL    HW232577   3.791   6.439   1.561
10560SOL     OW32578   5.622   6.889   3.419
10560SOL    HW132579   5.607   6.814   3.484
10560SOL    HW232580   5.629   6.851   3.326
10561SOL     OW32581   0.691   4.973   6.428
10561SOL    HW132582   0.626   4.945   6.357
10561SOL    HW232583   0.648   5.043   6.486
10562SOL     OW32584   4.209   5.804   2.615
10562SOL    HW132585   4.233   5.710   2.637
10562SOL    HW232586   4.223   5.820   2.517
10563SOL     OW32587   1.172   6.456   2.753
10563SOL    HW132588   1.117   6.507   2.819
10563SOL    HW232589   1.172   6.359   2.777
10564SOL     OW32590   5.226   4.176   3.042
10564SOL    HW132591   5.161   4.242   3.080
10564SOL    HW232592   5.207   4.162   2.945
10565SOL     OW32593   0.209   1.313   5.181
10565SOL    HW132594   0.206   1.379   5.256
10565SOL    HW232595   0.115   1.288   5.155
10566SOL     OW32596   3.277   1.878   0.939
10566SOL    HW132597   3.251   1.785   0.965
10566SOL    HW232598   3.211   1.914   0.872
10567SOL     OW32599   2.323   2.065   6.292
10567SOL    HW132600   2.390   2.100   6.357
10567SOL    HW232601   2.349   2.092   6.199
10568SOL     OW32602   4.936   1.906   5.870
10568SOL    HW132603   4.862   1.898   5.804
10568SOL    HW232604   5.005   1.970   5.835
10569SOL     OW32605   5.667   0.758   0.521
10569SOL    HW132606   5.680   0.732   0.425
10569SOL    HW232607   5.751   0.797   0.557
10570SOL     OW32608   1.687   3.387   3.498
10570SOL    HW132609   1.787   3.382   3.502
10570SOL    HW232610   1.656   3.365   3.405
10571SOL     OW32611   6.984   4.111   5.425
10571SOL    HW132612   6.918   4.117   5.350
10571SOL    HW232613   0.014   4.196   5.429
10572SOL     OW32614   6.365   4.453   0.841
10572SOL    HW132615   6.313   4.373   0.813
10572SOL    HW232616   6.332   4.534   0.791
10573SOL     OW32617   6.942   2.103   3.194
10573SOL    HW132618   6.873   2.134   3.128
10573SOL    HW232619   6.917   2.012   3.227
10574SOL     OW32620   6.163   2.303   2.896
10574SOL    HW132621   6.110   2.363   2.837
10574SOL    HW232622   6.108   2.280   2.977
10575SOL     OW32623   5.392   6.962   2.406
10575SOL    HW132624   5.335   0.005   2.454
10575SOL    HW232625   5.424   6.893   2.470
10576SOL     OW32626   1.229   3.957   4.535
10576SOL    HW132627   1.258   3.875   4.485
10576SOL    HW232628   1.296   4.030   4.522
10577SOL     OW32629   4.120   4.194   0.752
10577SOL    HW132630   4.025   4.213   0.774
10577SOL    HW232631   4.137   4.214   0.656
10578SOL     OW32632   0.839   3.559   2.202
10578SOL    HW132633   0.836   3.656   2.229
10578SOL    HW232634   0.875   3.505   2.278
10579SOL     OW32635   0.279   3.383   0.128
10579SOL    HW132636   0.217   3.390   0.050
10579SOL    HW232637   0.366   3.344   0.098
10580SOL     OW32638   5.449   6.838   6.523
10580SOL    HW132639   5.402   6.763   6.571
10580SOL    HW232640   5.527   6.869   6.578
10581SOL     OW32641   4.348   0.914   3.613
10581SOL    HW132642   4.312   0.997   3.656
10581SOL    HW232643   4.397   0.938   3.529
10582SOL     OW32644   6.404   3.019   6.293
10582SOL    HW132645   6.471   3.078   6.337
10582SOL    HW232646   6.342   2.981   6.361
10583SOL     OW32647   3.709   1.969   5.556
10583SOL    HW132648   3.782   1.914   5.516
10583SOL    HW232649   3.637   1.984   5.488
10584SOL     OW32650   0.615   0.513   3.318
10584SOL    HW132651   0.521   0.505   3.285
10584SOL    HW232652   0.631   0.448   3.392
10585SOL     OW32653   1.600   0.875   5.482
10585SOL    HW132654   1.689   0.872   5.528
10585SOL    HW232655   1.547   0.793   5.507
10586SOL     OW32656   4.635   4.186   5.355
10586SOL    HW132657   4.538   4.175   5.334
10586SOL    HW232658   4.646   4.257   5.424
10587SOL     OW32659   2.403   4.971   5.520
10587SOL    HW132660   2.492   5.010   5.498
10587SOL    HW232661   2.331   5.036   5.496
10588SOL     OW32662   1.858   4.111   3.885
10588SOL    HW132663   1.778   4.055   3.906
10588SOL    HW232664   1.905   4.073   3.806
10589SOL     OW32665   6.032   6.743   3.858
10589SOL    HW132666   6.002   6.652   3.888
10589SOL    HW232667   6.128   6.756   3.884
10590SOL     OW32668   0.952   4.922   2.664
10590SOL    HW132669   0.976   4.910   2.760
10590SOL    HW232670   0.857   4.894   2.650
10591SOL     OW32671   0.136   3.811   2.323
10591SOL    HW132672   0.217   3.765   2.287
10591SOL    HW232673   0.127   3.902   2.281
10592SOL     OW32674   0.511   2.815   4.511
10592SOL    HW132675   0.507   2.727   4.464
10592SOL    HW232676   0.555   2.802   4.600
10593SOL     OW32677   2.810   5.880   3.398
10593SOL    HW132678   2.821   5.865   3.496
10593SOL    HW232679   2.881   5.830   3.348
10594SOL     OW32680   3.476   5.659   3.544
10594SOL    HW132681   3.404   5.694   3.605
10594SOL    HW232682   3.501   5.730   3.478
10595SOL     OW32683   4.832   6.600   1.008
10595SOL    HW132684   4.751   6.638   0.963
10595SOL    HW232685   4.813   6.506   1.038
10596SOL     OW32686   5.263   3.768   0.451
10596SOL    HW132687   5.225   3.692   0.397
10596SOL    HW232688   5.189   3.830   0.477
10597SOL     OW32689   1.997   6.589   4.999
10597SOL    HW132690   2.062   6.590   5.074
10597SOL    HW232691   2.043   6.564   4.914
10598SOL     OW32692   3.111   0.739   0.183
10598SOL    HW132693   3.051   0.683   0.126
10598SOL    HW232694   3.195   0.759   0.134
10599SOL     OW32695   1.302   2.457   0.731
10599SOL    HW132696   1.280   2.362   0.752
10599SOL    HW232697   1.323   2.506   0.816
10600SOL     OW32698   3.868   1.383   1.696
10600SOL    HW132699   3.794   1.325   1.730
10600SOL    HW232700   3.955   1.334   1.703
10601SOL     OW32701   2.031   1.114   4.648
10601SOL    HW132702   1.933   1.133   4.635
10601SOL    HW232703   2.054   1.123   4.745
10602SOL     OW32704   6.390   0.110   1.394
10602SOL    HW132705   6.459   0.040   1.375
10602SOL    HW232706   6.301   0.067   1.408
10603SOL     OW32707   5.880   0.511   2.844
10603SOL    HW132708   5.905   0.420   2.811
10603SOL    HW232709   5.942   0.579   2.803
10604SOL     OW32710   4.725   1.890   4.890
10604SOL    HW132711   4.647   1.832   4.868
10604SOL    HW232712   4.753   1.941   4.809
10605SOL     OW32713   3.543   1.898   0.973
10605SOL    HW132714   3.572   1.889   1.069
10605SOL    HW232715   3.444   1.910   0.969
10606SOL     OW32716   6.547   1.173   0.237
10606SOL    HW132717   6.449   1.171   0.216
10606SOL    HW232718   6.572   1.266   0.265
10607SOL     OW32719   3.119   4.141   0.615
10607SOL    HW132720   3.146   4.046   0.599
10607SOL    HW232721   3.112   4.158   0.713
10608SOL     OW32722   5.420   4.314   3.878
10608SOL    HW132723   5.490   4.383   3.863
10608SOL    HW232724   5.445   4.257   3.957
10609SOL     OW32725   5.681   0.051   6.416
10609SOL    HW132726   5.758   0.034   6.354
10609SOL    HW232727   5.603   7.020   6.387
10610SOL     OW32728   0.680   1.495   3.332
10610SOL    HW132729   0.706   1.399   3.319
10610SOL    HW232730   0.672   1.540   3.242
10611SOL     OW32731   4.084   5.206   5.137
10611SOL    HW132732   4.158   5.213   5.070
10611SOL    HW232733   4.022   5.131   5.111
10612SOL     OW32734   6.300   2.595   3.881
10612SOL    HW132735   6.333   2.651   3.957
10612SOL    HW232736   6.336   2.503   3.889
10613SOL     OW32737   4.877   6.012   4.424
10613SOL    HW132738   4.859   6.075   4.348
10613SOL    HW232739   4.944   5.943   4.394
10614SOL     OW32740   3.944   2.365   6.222
10614SOL    HW132741   3.868   2.428   6.208
10614SOL    HW232742   4.030   2.414   6.215
10615SOL     OW32743   2.481   2.556   5.276
10615SOL    HW132744   2.576   2.578   5.296
10615SOL    HW232745   2.448   2.615   5.202
10616SOL     OW32746   1.517   5.841   0.208
10616SOL    HW132747   1.480   5.817   0.119
10616SOL    HW232748   1.585   5.773   0.236
10617SOL     OW32749   1.680   3.035   0.985
10617SOL    HW132750   1.647   3.067   1.074
10617SOL    HW232751   1.605   2.992   0.935
10618SOL     OW32752   1.009   5.123   4.570
10618SOL    HW132753   1.014   5.208   4.519
10618SOL    HW232754   1.039   5.047   4.512
10619SOL     OW32755   0.947   2.940   1.755
10619SOL    HW132756   0.890   2.964   1.676
10619SOL    HW232757   0.907   2.861   1.802
10620SOL     OW32758   3.354   0.841   5.847
10620SOL    HW132759   3.377   0.782   5.770
10620SOL    HW232760   3.373   0.936   5.824
10621SOL     OW32761   0.749   4.057   2.966
10621SOL    HW132762   0.807   4.125   2.922
10621SOL    HW232763   0.776   4.046   3.062
10622SOL     OW32764   4.735   2.359   0.221
10622SOL    HW132765   4.695   2.434   0.274
10622SOL    HW232766   4.834   2.373   0.212
10623SOL     OW32767   5.029   5.610   5.708
10623SOL    HW132768   5.011   5.688   5.768
10623SOL    HW232769   5.067   5.643   5.621
10624SOL     OW32770   0.198   2.193   6.804
10624SOL    HW132771   0.283   2.241   6.828
10624SOL    HW232772   0.148   2.171   6.887
10625SOL     OW32773   6.866   5.792   0.739
10625SOL    HW132774   6.832   5.763   0.649
10625SOL    HW232775   6.917   5.716   0.781
10626SOL     OW32776   5.919   3.019   2.002
10626SOL    HW132777   5.933   2.922   2.020
10626SOL    HW232778   5.868   3.030   1.917
10627SOL     OW32779   5.780   4.710   5.512
10627SOL    HW132780   5.729   4.774   5.455
10627SOL    HW232781   5.770   4.617   5.476
10628SOL     OW32782   2.700   6.237   0.470
10628SOL    HW132783   2.663   6.246   0.562
10628SOL    HW232784   2.721   6.328   0.433
10629SOL     OW32785   4.578   5.431   4.124
10629SOL    HW132786   4.596   5.493   4.200
10629SOL    HW232787   4.566   5.338   4.158
10630SOL     OW32788   4.072   1.206   1.446
10630SOL    HW132789   4.001   1.205   1.376
10630SOL    HW232790   4.100   1.301   1.463
10631SOL     OW32791   3.351   5.423   2.201
10631SOL    HW132792   3.372   5.421   2.299
10631SOL    HW232793   3.383   5.339   2.158
10632SOL     OW32794   5.652   6.856   4.440
10632SOL    HW132795   5.562   6.832   4.476
10632SOL    HW232796   5.712   6.776   4.444
10633SOL     OW32797   2.542   3.188   0.185
10633SOL    HW132798   2.597   3.265   0.218
10633SOL    HW232799   2.572   3.161   0.094
10634SOL     OW32800   6.882   4.145   6.649
10634SOL    HW132801   6.968   4.094   6.650
10634SOL    HW232802   6.810   4.090   6.690
10635SOL     OW32803   3.031   5.945   6.435
10635SOL    HW132804   3.101   5.993   6.487
10635SOL    HW232805   3.070   5.861   6.397
10636SOL     OW32806   6.316   2.830   0.259
10636SOL    HW132807   6.245   2.806   0.193
10636SOL    HW232808   6.297   2.921   0.296
10637SOL     OW32809   2.534   0.521   6.440
10637SOL    HW132810   2.592   0.470   6.376
10637SOL    HW232811   2.585   0.538   6.525
10638SOL     OW32812   4.841   5.382   0.734
10638SOL    HW132813   4.921   5.335   0.770
10638SOL    HW232814   4.869   5.454   0.670
10639SOL     OW32815   6.941   4.915   1.458
10639SOL    HW132816   6.926   4.823   1.495
10639SOL    HW232817   0.014   4.925   1.434
10640SOL     OW32818   4.136   6.136   3.803
10640SOL    HW132819   4.188   6.136   3.717
10640SOL    HW232820   4.038   6.139   3.784
10641SOL     OW32821   1.017   1.464   2.641
10641SOL    HW132822   1.072   1.514   2.708
10641SOL    HW232823   1.074   1.394   2.597
10642SOL     OW32824   6.956   2.263   6.382
10642SOL    HW132825   6.990   2.276   6.475
10642SOL    HW232826   0.002   2.291   6.317
10643SOL     OW32827   2.334   5.016   5.907
10643SOL    HW132828   2.273   4.974   5.840
10643SOL    HW232829   2.392   4.946   5.948
10644SOL     OW32830   0.147   3.121   3.189
10644SOL    HW132831   0.066   3.122   3.130
10644SOL    HW232832   0.229   3.118   3.132
10645SOL     OW32833   2.327   2.332   2.936
10645SOL    HW132834   2.373   2.304   3.020
10645SOL    HW232835   2.386   2.394   2.884
10646SOL     OW32836   5.458   0.327   3.842
10646SOL    HW132837   5.415   0.318   3.753
10646SOL    HW232838   5.545   0.277   3.843
10647SOL     OW32839   3.751   5.435   5.062
10647SOL    HW132840   3.758   5.374   4.983
10647SOL    HW232841   3.782   5.526   5.037
10648SOL     OW32842   4.868   4.444   5.496
10648SOL    HW132843   4.845   4.501   5.417
10648SOL    HW232844   4.783   4.413   5.540
10649SOL     OW32845   6.219   3.147   3.149
10649SOL    HW132846   6.309   3.170   3.113
10649SOL    HW232847   6.170   3.231   3.173
10650SOL     OW32848   0.492   0.404   2.325
10650SOL    HW132849   0.495   0.306   2.341
10650SOL    HW232850   0.558   0.450   2.385
10651SOL     OW32851   2.927   5.316   5.848
10651SOL    HW132852   3.004   5.369   5.813
10651SOL    HW232853   2.849   5.327   5.786
10652SOL     OW32854   1.923   0.430   6.603
10652SOL    HW132855   1.997   0.425   6.669
10652SOL    HW232856   1.946   0.496   6.531
10653SOL     OW32857   5.448   5.709   4.400
10653SOL    HW132858   5.406   5.792   4.363
10653SOL    HW232859   5.514   5.733   4.471
10654SOL     OW32860   6.513   2.188   3.978
10654SOL    HW132861   6.548   2.116   3.917
10654SOL    HW232862   6.473   2.146   4.060
10655SOL     OW32863   6.952   4.903   0.854
10655SOL    HW132864   6.923   4.839   0.925
10655SOL    HW232865   0.018   4.940   0.878
10656SOL     OW32866   5.320   1.969   4.814
10656SOL    HW132867   5.331   2.009   4.905
10656SOL    HW232868   5.233   1.999   4.775
10657SOL     OW32869   5.230   0.597   5.421
10657SOL    HW132870   5.145   0.574   5.375
10657SOL    HW232871   5.211   0.620   5.517
10658SOL     OW32872   1.205   1.988   5.341
10658SOL    HW132873   1.241   1.911   5.290
10658SOL    HW232874   1.245   2.073   5.307
10659SOL     OW32875   0.163   5.788   0.788
10659SOL    HW132876   0.109   5.776   0.705
10659SOL    HW232877   0.238   5.722   0.789
10660SOL     OW32878   5.774   3.166   6.038
10660SOL    HW132879   5.688   3.126   6.069
10660SOL    HW232880   5.815   3.107   5.968
10661SOL     OW32881   3.457   5.150   5.050
10661SOL    HW132882   3.378   5.101   5.014
10661SOL    HW232883   3.430   5.203   5.131
10662SOL     OW32884   3.182   1.456   1.243
10662SOL    HW132885   3.125   1.378   1.269
10662SOL    HW232886   3.192   1.518   1.322
10663SOL     OW32887   0.573   2.288   3.483
10663SOL    HW132888   0.611   2.299   3.391
10663SOL    HW232889   0.533   2.375   3.512
10664SOL     OW32890   1.432   5.614   4.489
10664SOL    HW132891   1.484   5.640   4.571
10664SOL    HW232892   1.477   5.537   4.444
10665SOL     OW32893   3.641   3.009   0.379
10665SOL    HW132894   3.714   3.076   0.369
10665SOL    HW232895   3.557   3.045   0.337
10666SOL     OW32896   4.022   3.484   1.415
10666SOL    HW132897   3.980   3.393   1.424
10666SOL    HW232898   4.121   3.475   1.411
10667SOL     OW32899   5.657   2.756   4.489
10667SOL    HW132900   5.575   2.809   4.468
10667SOL    HW232901   5.632   2.660   4.504
10668SOL     OW32902   3.442   2.762   5.978
10668SOL    HW132903   3.452   2.731   6.073
10668SOL    HW232904   3.366   2.713   5.935
10669SOL     OW32905   6.364   1.933   1.362
10669SOL    HW132906   6.410   1.956   1.276
10669SOL    HW232907   6.268   1.910   1.344
10670SOL     OW32908   4.894   3.956   4.184
10670SOL    HW132909   4.834   4.035   4.172
10670SOL    HW232910   4.884   3.921   4.277
10671SOL     OW32911   1.520   3.628   4.928
10671SOL    HW132912   1.467   3.685   4.865
10671SOL    HW232913   1.512   3.532   4.901
10672SOL     OW32914   6.061   4.028   2.262
10672SOL    HW132915   5.965   4.011   2.240
10672SOL    HW232916   6.110   3.941   2.262
10673SOL     OW32917   2.433   1.503   1.207
10673SOL    HW132918   2.493   1.523   1.284
10673SOL    HW232919   2.444   1.407   1.181
10674SOL     OW32920   3.534   3.621   4.110
10674SOL    HW132921   3.558   3.687   4.038
10674SOL    HW232922   3.571   3.531   4.086
10675SOL     OW32923   3.502   6.793   5.498
10675SOL    HW132924   3.518   6.749   5.586
10675SOL    HW232925   3.505   6.892   5.508
10676SOL     OW32926   1.353   0.231   5.735
10676SOL    HW132927   1.268   0.178   5.738
10676SOL    HW232928   1.368   0.264   5.642
10677SOL     OW32929   0.630   2.095   6.920
10677SOL    HW132930   0.685   2.126   6.842
10677SOL    HW232931   0.677   2.020   6.966
10678SOL     OW32932   4.179   5.497   2.388
10678SOL    HW132933   4.223   5.556   2.456
10678SOL    HW232934   4.118   5.433   2.434
10679SOL     OW32935   4.659   4.178   0.292
10679SOL    HW132936   4.723   4.174   0.215
10679SOL    HW232937   4.657   4.089   0.338
10680SOL     OW32938   4.175   1.601   5.579
10680SOL    HW132939   4.121   1.579   5.497
10680SOL    HW232940   4.139   1.549   5.657
10681SOL     OW32941   2.381   3.258   5.321
10681SOL    HW132942   2.311   3.328   5.303
10681SOL    HW232943   2.373   3.186   5.252
10682SOL     OW32944   4.951   4.076   6.611
10682SOL    HW132945   4.908   3.986   6.613
10682SOL    HW232946   4.889   4.141   6.566
10683SOL     OW32947   2.792   0.390   3.501
10683SOL    HW132948   2.793   0.464   3.434
10683SOL    HW232949   2.884   0.381   3.542
10684SOL     OW32950   4.560   4.484   1.751
10684SOL    HW132951   4.582   4.552   1.821
10684SOL    HW232952   4.512   4.407   1.793
10685SOL     OW32953   0.815   6.637   2.297
10685SOL    HW132954   0.827   6.718   2.354
10685SOL    HW232955   0.882   6.568   2.323
10686SOL     OW32956   2.537   0.666   6.840
10686SOL    HW132957   2.444   0.688   6.870
10686SOL    HW232958   2.571   0.739   6.781
10687SOL     OW32959   0.726   3.390   3.579
10687SOL    HW132960   0.808   3.403   3.634
10687SOL    HW232961   0.752   3.364   3.486
10688SOL     OW32962   5.066   1.020   2.748
10688SOL    HW132963   5.024   1.110   2.761
10688SOL    HW232964   5.062   0.995   2.651
10689SOL     OW32965   0.837   6.921   2.402
10689SOL    HW132966   0.862   6.961   2.313
10689SOL    HW232967   0.898   6.957   2.472
10690SOL     OW32968   0.852   6.530   4.036
10690SOL    HW132969   0.855   6.447   4.091
10690SOL    HW232970   0.925   6.529   3.969
10691SOL     OW32971   3.861   6.952   2.345
10691SOL    HW132972   3.932   6.978   2.411
10691SOL    HW232973   3.772   6.981   2.378
10692SOL     OW32974   2.651   1.422   4.674
10692SOL    HW132975   2.656   1.449   4.578
10692SOL    HW232976   2.603   1.494   4.725
10693SOL     OW32977   1.470   5.624   6.777
10693SOL    HW132978   1.376   5.615   6.810
10693SOL    HW232979   1.530   5.647   6.854
10694SOL     OW32980   4.796   0.599   4.957
10694SOL    HW132981   4.847   0.669   4.906
10694SOL    HW232982   4.771   0.635   5.047
10695SOL     OW32983   5.383   4.717   2.075
10695SOL    HW132984   5.458   4.708   2.010
10695SOL    HW232985   5.363   4.628   2.115
10696SOL     OW32986   6.318   4.728   4.124
10696SOL    HW132987   6.255   4.754   4.197
10696SOL    HW232988   6.402   4.782   4.130
10697SOL     OW32989   2.669   5.275   4.999
10697SOL    HW132990   2.618   5.360   5.009
10697SOL    HW232991   2.604   5.198   4.995
10698SOL     OW32992   3.493   3.580   0.095
10698SOL    HW132993   3.508   3.669   0.139
10698SOL    HW232994   3.480   3.510   0.164
10699SOL     OW32995   3.639   2.607   0.573
10699SOL    HW132996   3.624   2.513   0.542
10699SOL    HW232997   3.729   2.614   0.616
10700SOL     OW32998   4.650   0.871   1.410
10700SOL    HW132999   4.647   0.939   1.483
10700SOL    HW233000   4.714   0.798   1.435
10701SOL     OW33001   3.315   7.007   6.541
10701SOL    HW133002   3.262   0.062   6.508
10701SOL    HW233003   3.398   6.998   6.487
10702SOL     OW33004   5.994   2.274   1.515
10702SOL    HW133005   6.044   2.346   1.563
10702SOL    HW233006   6.010   2.186   1.560
10703SOL     OW33007   0.499   2.460   5.798
10703SOL    HW133008   0.422   2.437   5.857
10703SOL    HW233009   0.485   2.419   5.707
10704SOL     OW33010   4.771   6.649   2.197
10704SOL    HW133011   4.676   6.668   2.223
10704SOL    HW233012   4.832   6.684   2.267
10705SOL     OW33013   5.622   3.814   1.002
10705SOL    HW133014   5.633   3.840   1.097
10705SOL    HW233015   5.665   3.725   0.986
10706SOL     OW33016   3.615   0.643   1.172
10706SOL    HW133017   3.704   0.658   1.214
10706SOL    HW233018   3.594   0.545   1.172
10707SOL     OW33019   5.263   0.026   3.919
10707SOL    HW133020   5.205   0.101   3.887
10707SOL    HW233021   5.277   6.984   3.845
10708SOL     OW33022   4.048   1.604   2.196
10708SOL    HW133023   4.092   1.596   2.106
10708SOL    HW233024   3.981   1.678   2.193
10709SOL     OW33025   5.852   4.883   3.421
10709SOL    HW133026   5.892   4.970   3.393
10709SOL    HW233027   5.825   4.830   3.341
10710SOL     OW33028   4.746   2.150   3.862
10710SOL    HW133029   4.802   2.070   3.878
10710SOL    HW233030   4.748   2.209   3.943
10711SOL     OW33031   3.611   6.900   2.043
10711SOL    HW133032   3.695   6.859   2.008
10711SOL    HW233033   3.561   6.832   2.098
10712SOL     OW33034   5.543   0.072   3.078
10712SOL    HW133035   5.515   0.088   3.172
10712SOL    HW233036   5.613   0.001   3.074
10713SOL     OW33037   1.546   4.195   1.578
10713SOL    HW133038   1.588   4.125   1.520
10713SOL    HW233039   1.451   4.171   1.597
10714SOL     OW33040   3.188   4.059   5.128
10714SOL    HW133041   3.102   4.059   5.180
10714SOL    HW233042   3.262   4.094   5.185
10715SOL     OW33043   6.065   0.733   1.778
10715SOL    HW133044   6.138   0.791   1.741
10715SOL    HW233045   6.098   0.639   1.786
10716SOL     OW33046   4.913   1.280   3.214
10716SOL    HW133047   5.013   1.275   3.216
10716SOL    HW233048   4.875   1.188   3.206
10717SOL     OW33049   2.206   2.395   6.804
10717SOL    HW133050   2.225   2.432   6.714
10717SOL    HW233051   2.278   2.330   6.830
10718SOL     OW33052   2.006   5.353   5.455
10718SOL    HW133053   2.039   5.409   5.530
10718SOL    HW233054   1.944   5.406   5.398
10719SOL     OW33055   6.699   5.804   4.216
10719SOL    HW133056   6.714   5.722   4.160
10719SOL    HW233057   6.736   5.884   4.169
10720SOL     OW33058   6.881   5.120   3.695
10720SOL    HW133059   6.866   5.061   3.616
10720SOL    HW233060   6.811   5.191   3.697
10721SOL     OW33061   5.554   3.528   5.530
10721SOL    HW133062   5.518   3.596   5.594
10721SOL    HW233063   5.640   3.491   5.565
10722SOL     OW33064   6.882   4.147   5.743
10722SOL    HW133065   6.877   4.247   5.731
10722SOL    HW233066   6.978   4.121   5.757
10723SOL     OW33067   6.160   0.235   0.902
10723SOL    HW133068   6.219   0.271   0.975
10723SOL    HW233069   6.069   0.277   0.909
10724SOL     OW33070   6.436   6.413   7.010
10724SOL    HW133071   6.504   6.356   6.964
10724SOL    HW233072   6.478   6.457   0.065
10725SOL     OW33073   2.280   5.943   5.537
10725SOL    HW133074   2.270   6.042   5.536
10725SOL    HW233075   2.191   5.901   5.555
10726SOL     OW33076   4.962   1.591   4.131
10726SOL    HW133077   4.931   1.686   4.137
10726SOL    HW233078   4.942   1.543   4.216
10727SOL     OW33079   1.683   6.320   5.308
10727SOL    HW133080   1.587   6.314   5.277
10727SOL    HW233081   1.716   6.228   5.328
10728SOL     OW33082   5.457   6.712   0.586
10728SOL    HW133083   5.474   6.810   0.595
10728SOL    HW233084   5.469   6.667   0.674
10729SOL     OW33085   6.414   2.978   1.507
10729SOL    HW133086   6.401   3.077   1.511
10729SOL    HW233087   6.325   2.933   1.493
10730SOL     OW33088   4.803   7.013   2.689
10730SOL    HW133089   4.875   0.022   2.628
10730SOL    HW233090   4.764   0.067   2.739
10731SOL     OW33091   4.496   0.379   1.113
10731SOL    HW133092   4.545   0.381   1.200
10731SOL    HW233093   4.525   0.456   1.056
10732SOL     OW33094   0.645   4.673   5.479
10732SOL    HW133095   0.626   4.747   5.545
10732SOL    HW233096   0.619   4.703   5.387
10733SOL     OW33097   6.741   3.144   6.982
10733SOL    HW133098   6.704   3.121   6.892
10733SOL    HW233099   6.668   3.136   0.027
10734SOL     OW33100   7.004   2.604   1.766
10734SOL    HW133101   0.050   2.547   1.722
10734SOL    HW233102   6.986   2.684   1.709
10735SOL     OW33103   0.244   4.019   2.850
10735SOL    HW133104   0.191   4.045   2.770
10735SOL    HW233105   0.189   4.033   2.933
10736SOL     OW33106   2.409   0.506   3.299
10736SOL    HW133107   2.342   0.467   3.235
10736SOL    HW233108   2.361   0.540   3.380
10737SOL     OW33109   6.893   2.171   1.625
10737SOL    HW133110   6.811   2.221   1.599
10737SOL    HW233111   6.938   2.136   1.543
10738SOL     OW33112   4.158   0.267   3.660
10738SOL    HW133113   4.163   0.234   3.566
10738SOL    HW233114   4.217   0.210   3.718
10739SOL     OW33115   1.920   1.751   1.467
10739SOL    HW133116   1.869   1.786   1.545
10739SOL    HW233117   2.007   1.800   1.459
10740SOL     OW33118   5.183   4.956   3.166
10740SOL    HW133119   5.085   4.937   3.177
10740SOL    HW233120   5.231   4.872   3.142
10741SOL     OW33121   3.940   0.875   3.259
10741SOL    HW133122   4.008   0.804   3.275
10741SOL    HW233123   3.979   0.964   3.283
10742SOL     OW33124   6.981   5.488   0.773
10742SOL    HW133125   6.914   5.418   0.798
10742SOL    HW233126   0.026   5.448   0.713
10743SOL     OW33127   2.544   1.660   4.782
10743SOL    HW133128   2.544   1.726   4.857
10743SOL    HW233129   2.547   1.709   4.695
10744SOL     OW33130   4.250   1.633   0.918
10744SOL    HW133131   4.294   1.701   0.977
10744SOL    HW233132   4.281   1.542   0.943
10745SOL     OW33133   6.956   5.600   6.071
10745SOL    HW133134   6.983   5.636   6.160
10745SOL    HW233135   7.023   5.628   6.002
10746SOL     OW33136   0.432   4.252   5.955
10746SOL    HW133137   0.456   4.179   6.019
10746SOL    HW233138   0.342   4.289   5.979
10747SOL     OW33139   3.318   1.587   4.563
10747SOL    HW133140   3.222   1.566   4.543
10747SOL    HW233141   3.322   1.662   4.629
10748SOL     OW33142   5.092   1.233   2.500
10748SOL    HW133143   5.116   1.183   2.417
10748SOL    HW233144   5.030   1.307   2.477
10749SOL     OW33145   2.351   6.595   6.004
10749SOL    HW133146   2.264   6.590   6.053
10749SOL    HW233147   2.415   6.651   6.057
10750SOL     OW33148   3.967   0.757   6.699
10750SOL    HW133149   3.991   0.853   6.716
10750SOL    HW233150   4.032   0.698   6.748
10751SOL     OW33151   2.721   4.960   3.939
10751SOL    HW133152   2.627   4.994   3.930
10751SOL    HW233153   2.726   4.896   4.016
10752SOL     OW33154   4.782   5.342   3.981
10752SOL    HW133155   4.844   5.387   4.045
10752SOL    HW233156   4.687   5.352   4.014
10753SOL     OW33157   6.751   3.281   4.804
10753SOL    HW133158   6.732   3.322   4.715
10753SOL    HW233159   6.812   3.203   4.793
10754SOL     OW33160   1.852   0.140   2.285
10754SOL    HW133161   1.948   0.169   2.278
10754SOL    HW233162   1.827   0.088   2.203
10755SOL     OW33163   6.455   5.726   1.896
10755SOL    HW133164   6.492   5.636   1.921
10755SOL    HW233165   6.527   5.795   1.902
10756SOL     OW33166   0.162   0.064   5.304
10756SOL    HW133167   0.166   0.140   5.239
10756SOL    HW233168   0.230   7.019   5.278
10757SOL     OW33169   2.727   3.280   1.215
10757SOL    HW133170   2.758   3.207   1.276
10757SOL    HW233171   2.802   3.344   1.199
10758SOL     OW33172   0.960   5.545   4.641
10758SOL    HW133173   1.020   5.465   4.644
10758SOL    HW233174   0.866   5.516   4.660
10759SOL     OW33175   0.156   2.864   6.871
10759SOL    HW133176   0.175   2.937   6.935
10759SOL    HW233177   0.121   2.902   6.785
10760SOL     OW33178   6.164   1.042   3.871
10760SOL    HW133179   6.122   0.980   3.937
10760SOL    HW233180   6.144   1.012   3.778
10761SOL     OW33181   2.975   4.947   5.473
10761SOL    HW133182   2.984   4.847   5.476
10761SOL    HW233183   2.926   4.974   5.390
10762SOL     OW33184   3.560   0.742   4.505
10762SOL    HW133185   3.504   0.667   4.541
10762SOL    HW233186   3.570   0.813   4.574
10763SOL     OW33187   4.196   6.403   3.591
10763SOL    HW133188   4.222   6.307   3.581
10763SOL    HW233189   4.256   6.447   3.658
10764SOL     OW33190   5.883   0.427   4.703
10764SOL    HW133191   5.800   0.484   4.704
10764SOL    HW233192   5.942   0.456   4.627
10765SOL     OW33193   5.307   3.681   1.052
10765SOL    HW133194   5.370   3.741   1.101
10765SOL    HW233195   5.341   3.587   1.056
10766SOL     OW33196   4.120   2.908   1.642
10766SOL    HW133197   4.217   2.915   1.665
10766SOL    HW233198   4.106   2.829   1.582
10767SOL     OW33199   3.533   1.218   2.062
10767SOL    HW133200   3.447   1.172   2.041
10767SOL    HW233201   3.543   1.226   2.161
10768SOL     OW33202   6.821   4.986   0.323
10768SOL    HW133203   6.732   4.979   0.369
10768SOL    HW233204   6.854   4.895   0.299
10769SOL     OW33205   1.706   4.011   5.967
10769SOL    HW133206   1.633   3.949   5.995
10769SOL    HW233207   1.674   4.068   5.891
10770SOL     OW33208   4.474   6.346   3.356
10770SOL    HW133209   4.546   6.300   3.408
10770SOL    HW233210   4.492   6.444   3.354
10771SOL     OW33211   2.572   1.101   3.459
10771SOL    HW133212   2.669   1.081   3.446
10771SOL    HW233213   2.549   1.092   3.556
10772SOL     OW33214   5.646   5.356   3.822
10772SOL    HW133215   5.705   5.423   3.867
10772SOL    HW233216   5.598   5.302   3.891
10773SOL     OW33217   5.095   4.948   3.809
10773SOL    HW133218   5.162   4.956   3.735
10773SOL    HW233219   5.142   4.925   3.894
10774SOL     OW33220   0.953   0.848   3.828
10774SOL    HW133221   0.910   0.894   3.750
10774SOL    HW233222   1.052   0.860   3.824
10775SOL     OW33223   0.838   3.909   1.981
10775SOL    HW133224   0.794   3.834   1.933
10775SOL    HW233225   0.936   3.910   1.960
10776SOL     OW33226   1.569   0.305   6.443
10776SOL    HW133227   1.586   0.244   6.366
10776SOL    HW233228   1.567   0.400   6.411
10777SOL     OW33229   2.969   6.188   1.447
10777SOL    HW133230   2.942   6.106   1.396
10777SOL    HW233231   2.962   6.268   1.388
10778SOL     OW33232   6.541   5.712   2.894
10778SOL    HW133233   6.500   5.764   2.968
10778SOL    HW233234   6.641   5.709   2.906
10779SOL     OW33235   5.440   2.651   3.534
10779SOL    HW133236   5.407   2.570   3.581
10779SOL    HW233237   5.386   2.667   3.452
10780SOL     OW33238   0.367   1.067   2.824
10780SOL    HW133239   0.328   0.999   2.762
10780SOL    HW233240   0.345   1.043   2.918
10781SOL     OW33241   3.860   0.193   4.545
10781SOL    HW133242   3.761   0.185   4.543
10781SOL    HW233243   3.887   0.288   4.528
10782SOL     OW33244   6.419   5.548   4.101
10782SOL    HW133245   6.444   5.547   4.198
10782SOL    HW233246   6.369   5.464   4.079
10783SOL     OW33247   6.409   1.874   3.050
10783SOL    HW133248   6.375   1.881   3.144
10783SOL    HW233249   6.401   1.963   3.005
10784SOL     OW33250   2.895   1.067   4.301
10784SOL    HW133251   2.845   1.154   4.304
10784SOL    HW233252   2.842   1.001   4.246
10785SOL     OW33253   0.985   3.900   6.612
10785SOL    HW133254   1.021   3.870   6.701
10785SOL    HW233255   0.888   3.879   6.606
10786SOL     OW33256   0.436   5.142   3.170
10786SOL    HW133257   0.484   5.135   3.083
10786SOL    HW233258   0.352   5.088   3.166
10787SOL     OW33259   1.812   2.348   5.739
10787SOL    HW133260   1.890   2.292   5.712
10787SOL    HW233261   1.839   2.444   5.745
10788SOL     OW33262   5.670   3.985   6.741
10788SOL    HW133263   5.753   4.017   6.786
10788SOL    HW233264   5.685   3.981   6.642
10789SOL     OW33265   6.159   1.562   0.195
10789SOL    HW133266   6.112   1.645   0.167
10789SOL    HW233267   6.171   1.502   0.116
10790SOL     OW33268   6.942   6.433   3.072
10790SOL    HW133269   7.015   6.384   3.023
10790SOL    HW233270   6.894   6.493   3.008
10791SOL     OW33271   0.372   6.465   2.996
10791SOL    HW133272   0.341   6.447   2.903
10791SOL    HW233273   0.463   6.504   2.994
10792SOL     OW33274   3.723   4.187   5.314
10792SOL    HW133275   3.695   4.283   5.316
10792SOL    HW233276   3.708   4.147   5.405
10793SOL     OW33277   5.593   3.499   4.804
10793SOL    HW133278   5.621   3.438   4.730
10793SOL    HW233279   5.539   3.575   4.766
10794SOL     OW33280   3.157   3.623   3.437
10794SOL    HW133281   3.215   3.569   3.497
10794SOL    HW233282   3.084   3.666   3.490
10795SOL     OW33283   0.564   4.651   3.389
10795SOL    HW133284   0.590   4.577   3.327
10795SOL    HW233285   0.574   4.739   3.342
10796SOL     OW33286   1.936   6.265   4.795
10796SOL    HW133287   2.036   6.263   4.784
10796SOL    HW233288   1.897   6.326   4.726
10797SOL     OW33289   3.971   2.839   0.508
10797SOL    HW133290   3.927   2.764   0.556
10797SOL    HW233291   3.939   2.926   0.545
10798SOL     OW33292   7.010   1.904   0.356
10798SOL    HW133293   7.001   1.888   0.454
10798SOL    HW233294   0.075   1.870   0.324
10799SOL     OW33295   3.878   1.648   1.756
10799SOL    HW133296   3.867   1.714   1.681
10799SOL    HW233297   3.902   1.559   1.718
10800SOL     OW33298   1.141   0.148   1.674
10800SOL    HW133299   1.211   0.076   1.668
10800SOL    HW233300   1.186   0.237   1.683
10801SOL     OW33301   1.434   0.780   1.191
10801SOL    HW133302   1.457   0.827   1.106
10801SOL    HW233303   1.389   0.693   1.170
10802SOL     OW33304   6.672   0.206   3.427
10802SOL    HW133305   6.640   0.119   3.463
10802SOL    HW233306   6.683   0.271   3.502
10803SOL     OW33307   2.610   5.290   6.342
10803SOL    HW133308   2.634   5.250   6.254
10803SOL    HW233309   2.617   5.220   6.413
10804SOL     OW33310   0.080   3.791   4.346
10804SOL    HW133311   7.014   3.821   4.313
10804SOL    HW233312   0.147   3.863   4.329
10805SOL     OW33313   6.700   1.604   5.606
10805SOL    HW133314   6.696   1.557   5.694
10805SOL    HW233315   6.656   1.693   5.614
10806SOL     OW33316   1.963   4.451   7.005
10806SOL    HW133317   1.997   4.364   6.970
10806SOL    HW233318   1.949   4.444   0.080
10807SOL     OW33319   3.351   6.798   4.682
10807SOL    HW133320   3.406   6.857   4.741
10807SOL    HW233321   3.387   6.705   4.683
10808SOL     OW33322   0.457   3.497   6.177
10808SOL    HW133323   0.453   3.420   6.114
10808SOL    HW233324   0.552   3.512   6.206
10809SOL     OW33325   2.052   6.518   4.595
10809SOL    HW133326   2.091   6.543   4.684
10809SOL    HW233327   1.958   6.487   4.606
10810SOL     OW33328   7.003   0.083   4.570
10810SOL    HW133329   7.007   0.177   4.605
10810SOL    HW233330   6.915   0.043   4.593
10811SOL     OW33331   4.885   4.881   4.640
10811SOL    HW133332   4.912   4.952   4.706
10811SOL    HW233333   4.843   4.924   4.561
10812SOL     OW33334   6.100   2.802   0.121
10812SOL    HW133335   6.046   2.847   0.049
10812SOL    HW233336   6.043   2.734   0.167
10813SOL     OW33337   6.992   4.055   6.032
10813SOL    HW133338   6.952   4.116   6.101
10813SOL    HW233339   6.919   4.011   5.980
10814SOL     OW33340   2.786   0.933   1.146
10814SOL    HW133341   2.810   0.909   1.240
10814SOL    HW233342   2.793   0.852   1.088
10815SOL     OW33343   5.375   0.902   4.952
10815SOL    HW133344   5.440   0.920   4.879
10815SOL    HW233345   5.359   0.804   4.960
10816SOL     OW33346   4.033   3.385   3.614
10816SOL    HW133347   4.053   3.377   3.711
10816SOL    HW233348   4.058   3.476   3.582
10817SOL     OW33349   2.112   6.263   3.337
10817SOL    HW133350   2.198   6.286   3.291
10817SOL    HW233351   2.120   6.283   3.435
10818SOL     OW33352   3.954   4.835   6.718
10818SOL    HW133353   3.970   4.807   6.813
10818SOL    HW233354   4.042   4.838   6.670
10819SOL     OW33355   6.428   6.043   5.848
10819SOL    HW133356   6.467   6.116   5.903
10819SOL    HW233357   6.453   6.056   5.752
10820SOL     OW33358   2.319   4.239   6.041
10820SOL    HW133359   2.315   4.167   6.110
10820SOL    HW233360   2.397   4.299   6.059
10821SOL     OW33361   4.962   5.583   2.955
10821SOL    HW133362   5.042   5.530   2.929
10821SOL    HW233363   4.923   5.546   3.039
10822SOL     OW33364   5.199   1.496   2.379
10822SOL    HW133365   5.165   1.559   2.309
10822SOL    HW233366   5.296   1.478   2.363
10823SOL     OW33367   5.840   6.663   1.829
10823SOL    HW133368   5.850   6.577   1.880
10823SOL    HW233369   5.777   6.723   1.877
10824SOL     OW33370   0.978   2.586   3.617
10824SOL    HW133371   1.047   2.544   3.675
10824SOL    HW233372   0.933   2.661   3.667
10825SOL     OW33373   0.830   2.086   0.468
10825SOL    HW133374   0.861   2.043   0.383
10825SOL    HW233375   0.740   2.127   0.453
10826SOL     OW33376   0.776   3.113   2.957
10826SOL    HW133377   0.733   3.201   2.976
10826SOL    HW233378   0.768   3.054   3.038
10827SOL     OW33379   6.367   3.432   4.723
10827SOL    HW133380   6.324   3.506   4.774
10827SOL    HW233381   6.430   3.470   4.655
10828SOL     OW33382   6.212   4.891   5.557
10828SOL    HW133383   6.215   4.828   5.480
10828SOL    HW233384   6.123   4.883   5.603
10829SOL     OW33385   3.931   3.088   5.287
10829SOL    HW133386   3.968   2.995   5.300
10829SOL    HW233387   3.920   3.132   5.376
10830SOL     OW33388   3.830   2.117   3.445
10830SOL    HW133389   3.915   2.161   3.417
10830SOL    HW233390   3.790   2.069   3.367
10831SOL     OW33391   4.090   0.758   3.548
10831SOL    HW133392   4.185   0.761   3.516
10831SOL    HW233393   4.073   0.672   3.595
10832SOL     OW33394   6.500   3.642   0.527
10832SOL    HW133395   6.482   3.735   0.495
10832SOL    HW233396   6.530   3.646   0.623
10833SOL     OW33397   0.358   1.231   6.370
10833SOL    HW133398   0.267   1.203   6.340
10833SOL    HW233399   0.396   1.160   6.430
10834SOL     OW33400   7.001   6.830   1.421
10834SOL    HW133401   0.029   6.747   1.440
10834SOL    HW233402   6.906   6.806   1.401
10835SOL     OW33403   0.117   2.129   5.556
10835SOL    HW133404   0.119   2.225   5.583
10835SOL    HW233405   0.201   2.106   5.507
10836SOL     OW33406   6.919   1.181   4.140
10836SOL    HW133407   6.899   1.165   4.043
10836SOL    HW233408   6.945   1.277   4.153
10837SOL     OW33409   0.878   3.001   2.530
10837SOL    HW133410   0.812   3.032   2.598
10837SOL    HW233411   0.912   2.910   2.555
10838SOL     OW33412   0.393   5.422   2.311
10838SOL    HW133413   0.398   5.322   2.308
10838SOL    HW233414   0.485   5.460   2.314
10839SOL     OW33415   5.169   2.560   1.254
10839SOL    HW133416   5.151   2.576   1.157
10839SOL    HW233417   5.266   2.539   1.266
10840SOL     OW33418   2.541   0.313   1.420
10840SOL    HW133419   2.637   0.310   1.393
10840SOL    HW233420   2.484   0.288   1.342
10841SOL     OW33421   2.024   5.308   4.498
10841SOL    HW133422   2.092   5.361   4.548
10841SOL    HW233423   1.995   5.230   4.553
10842SOL     OW33424   5.281   4.387   1.178
10842SOL    HW133425   5.222   4.467   1.186
10842SOL    HW233426   5.362   4.410   1.123
10843SOL     OW33427   2.292   2.113   1.403
10843SOL    HW133428   2.339   2.087   1.488
10843SOL    HW233429   2.260   2.208   1.411
10844SOL     OW33430   1.569   5.144   4.880
10844SOL    HW133431   1.659   5.172   4.914
10844SOL    HW233432   1.574   5.049   4.848
10845SOL     OW33433   4.329   0.408   5.130
10845SOL    HW133434   4.301   0.479   5.196
10845SOL    HW233435   4.277   0.421   5.045
10846SOL     OW33436   5.198   0.034   6.743
10846SOL    HW133437   5.256   7.000   6.801
10846SOL    HW233438   5.155   7.002   6.672
10847SOL     OW33439   2.782   1.150   6.266
10847SOL    HW133440   2.741   1.062   6.245
10847SOL    HW233441   2.881   1.140   6.278
10848SOL     OW33442   1.486   4.977   2.075
10848SOL    HW133443   1.527   4.975   1.984
10848SOL    HW233444   1.480   5.071   2.107
10849SOL     OW33445   2.366   6.706   4.263
10849SOL    HW133446   2.322   6.727   4.350
10849SOL    HW233447   2.341   6.775   4.195
10850SOL     OW33448   3.689   4.893   0.725
10850SOL    HW133449   3.728   4.846   0.804
10850SOL    HW233450   3.590   4.874   0.721
10851SOL     OW33451   1.818   4.823   0.350
10851SOL    HW133452   1.726   4.786   0.361
10851SOL    HW233453   1.864   4.774   0.275
10852SOL     OW33454   2.344   1.370   2.179
10852SOL    HW133455   2.255   1.413   2.192
10852SOL    HW233456   2.387   1.353   2.268
10853SOL     OW33457   2.999   1.572   6.110
10853SOL    HW133458   3.078   1.597   6.054
10853SOL    HW233459   2.970   1.651   6.164
10854SOL     OW33460   3.019   6.643   5.050
10854SOL    HW133461   2.924   6.672   5.048
10854SOL    HW233462   3.049   6.620   4.957
10855SOL     OW33463   3.517   1.441   6.807
10855SOL    HW133464   3.458   1.508   6.852
10855SOL    HW233465   3.474   1.410   6.722
10856SOL     OW33466   0.226   0.853   0.299
10856SOL    HW133467   0.254   0.854   0.203
10856SOL    HW233468   0.128   0.830   0.305
10857SOL     OW33469   6.534   2.379   2.344
10857SOL    HW133470   6.535   2.451   2.414
10857SOL    HW233471   6.444   2.376   2.301
10858SOL     OW33472   2.499   6.256   1.701
10858SOL    HW133473   2.547   6.183   1.750
10858SOL    HW233474   2.410   6.222   1.670
10859SOL     OW33475   1.568   5.493   3.411
10859SOL    HW133476   1.506   5.464   3.338
10859SOL    HW233477   1.587   5.591   3.403
10860SOL     OW33478   6.914   3.046   3.110
10860SOL    HW133479   6.862   3.112   3.056
10860SOL    HW233480   6.853   2.976   3.147
10861SOL     OW33481   3.898   3.203   5.035
10861SOL    HW133482   3.915   3.144   5.113
10861SOL    HW233483   3.802   3.233   5.036
10862SOL     OW33484   0.953   1.178   4.490
10862SOL    HW133485   0.992   1.267   4.510
10862SOL    HW233486   0.883   1.156   4.558
10863SOL     OW33487   3.264   6.391   4.404
10863SOL    HW133488   3.319   6.308   4.400
10863SOL    HW233489   3.310   6.464   4.353
10864SOL     OW33490   3.543   5.767   3.222
10864SOL    HW133491   3.642   5.784   3.228
10864SOL    HW233492   3.527   5.679   3.179
10865SOL     OW33493   6.312   1.727   5.776
10865SOL    HW133494   6.228   1.694   5.733
10865SOL    HW233495   6.344   1.658   5.842
10866SOL     OW33496   5.145   5.229   0.971
10866SOL    HW133497   5.211   5.166   0.929
10866SOL    HW233498   5.170   5.323   0.947
10867SOL     OW33499   3.203   2.010   0.142
10867SOL    HW133500   3.291   2.055   0.155
10867SOL    HW233501   3.178   2.011   0.046
10868SOL     OW33502   2.322   1.763   2.628
10868SOL    HW133503   2.288   1.725   2.713
10868SOL    HW233504   2.254   1.824   2.588
10869NA      NA33505   6.444   2.665   6.012
10870NA      NA33506   4.485   4.637   5.137
10871NA      NA33507   2.504   3.430   1.721
10872NA      NA33508   4.946   3.665   5.178
10873NA      NA33509   4.325   2.426   5.301
10874NA      NA33510   3.682   4.725   1.675
10875NA      NA33511   6.610   6.097   4.948
10876NA      NA33512   3.759   4.022   5.147
10877NA      NA33513   4.434   0.020   0.067
10878NA      NA33514   3.453   0.167   4.995
10879NA      NA33515   6.975   5.123   2.835
10880NA      NA33516   2.855   0.616   2.768
10881NA      NA33517   3.734   3.832   1.255
10882NA      NA33518   3.684   3.434   2.903
   7.02379   7.02379   7.02379
