Generated by trjconv : CNT in water t=  62.00000
33518
    1C        C    1   2.846   2.769   4.747
    1C        C    2   2.902   2.725   4.869
    1C        C    3   2.851   2.779   4.988
    1C        C    4   2.844   2.769   4.257
    1C        C    5   2.899   2.726   4.380
    1C        C    6   2.846   2.771   4.503
    1C        C    7   3.015   2.642   4.627
    1C        C    8   2.898   2.721   4.625
    1C        C    9   3.081   2.609   4.747
    1C        C   10   3.013   2.637   4.868
    1C        C   11   3.184   2.492   4.978
    1C        C   12   3.062   2.561   4.975
    1C        C   13   2.854   2.781   3.771
    1C        C   14   2.899   2.723   3.892
    1C        C   15   2.846   2.770   4.014
    1C        C   16   3.020   2.649   4.138
    1C        C   17   2.900   2.723   4.136
    1C        C   18   3.082   2.619   4.261
    1C        C   19   3.020   2.653   4.384
    1C        C   20   3.208   2.556   4.503
    1C        C   21   3.076   2.607   4.505
    1C        C   22   3.277   2.534   4.624
    1C        C   23   3.211   2.551   4.747
    1C        C   24   3.414   2.481   4.865
    1C        C   25   3.273   2.505   4.867
    1C        C   26   3.492   2.480   4.982
    1C        C   27   2.850   2.770   3.283
    1C        C   28   2.905   2.730   3.407
    1C        C   29   2.851   2.775   3.529
    1C        C   30   3.022   2.648   3.649
    1C        C   31   2.907   2.730   3.651
    1C        C   32   3.081   2.612   3.773
    1C        C   33   3.016   2.644   3.894
    1C        C   34   3.211   2.557   4.015
    1C        C   35   3.083   2.615   4.016
    1C        C   36   3.279   2.536   4.138
    1C        C   37   3.209   2.558   4.259
    1C        C   38   3.415   2.513   4.381
    1C        C   39   3.276   2.535   4.381
    1C        C   40   3.489   2.503   4.501
    1C        C   41   3.416   2.506   4.622
    1C        C   42   3.628   2.484   4.744
    1C        C   43   3.486   2.486   4.743
    1C        C   44   3.707   2.485   4.861
    1C        C   45   3.631   2.482   4.978
    1C        C   46   2.839   2.756   2.793
    1C        C   47   2.900   2.718   2.915
    1C        C   48   2.851   2.769   3.037
    1C        C   49   3.021   2.645   3.163
    1C        C   50   2.904   2.726   3.160
    1C        C   51   3.082   2.611   3.285
    1C        C   52   3.019   2.647   3.407
    1C        C   53   3.210   2.548   3.527
    1C        C   54   3.081   2.608   3.527
    1C        C   55   3.277   2.528   3.649
    1C        C   56   3.210   2.554   3.771
    1C        C   57   3.416   2.509   3.893
    1C        C   58   3.277   2.533   3.893
    1C        C   59   3.488   2.501   4.015
    1C        C   60   3.418   2.510   4.137
    1C        C   61   3.628   2.499   4.258
    1C        C   62   3.487   2.500   4.260
    1C        C   63   3.701   2.504   4.379
    1C        C   64   3.630   2.499   4.501
    1C        C   65   3.833   2.550   4.619
    1C        C   66   3.700   2.504   4.624
    1C        C   67   3.905   2.561   4.740
    1C        C   68   3.844   2.519   4.861
    1C        C   69   4.052   2.586   4.976
    1C        C   70   3.925   2.525   4.975
    1C        C   71   2.826   2.738   2.306
    1C        C   72   2.884   2.697   2.428
    1C        C   73   2.832   2.747   2.550
    1C        C   74   3.011   2.631   2.673
    1C        C   75   2.892   2.708   2.671
    1C        C   76   3.076   2.602   2.795
    1C        C   77   3.014   2.635   2.917
    1C        C   78   3.205   2.545   3.037
    1C        C   79   3.076   2.603   3.040
    1C        C   80   3.274   2.529   3.160
    1C        C   81   3.210   2.551   3.284
    1C        C   82   3.415   2.499   3.403
    1C        C   83   3.276   2.522   3.405
    1C        C   84   3.485   2.492   3.526
    1C        C   85   3.416   2.502   3.648
    1C        C   86   3.627   2.497   3.768
    1C        C   87   3.486   2.497   3.771
    1C        C   88   3.695   2.518   3.890
    1C        C   89   3.629   2.504   4.014
    1C        C   90   3.834   2.554   4.134
    1C        C   91   3.699   2.510   4.137
    1C        C   92   3.903   2.577   4.255
    1C        C   93   3.836   2.544   4.375
    1C        C   94   4.028   2.635   4.498
    1C        C   95   3.902   2.571   4.497
    1C        C   96   4.089   2.674   4.620
    1C        C   97   4.030   2.628   4.740
    1C        C   98   4.190   2.767   4.860
    1C        C   99   4.099   2.657   4.861
    1C        C  100   4.209   2.847   4.973
    1C        C  101   2.817   2.723   2.067
    1C        C  102   2.993   2.596   2.190
    1C        C  103   2.877   2.681   2.186
    1C        C  104   3.065   2.578   2.311
    1C        C  105   3.003   2.621   2.430
    1C        C  106   3.198   2.534   2.552
    1C        C  107   3.067   2.587   2.551
    1C        C  108   3.270   2.514   2.672
    1C        C  109   3.203   2.539   2.794
    1C        C  110   3.410   2.492   2.914
    1C        C  111   3.271   2.518   2.915
    1C        C  112   3.482   2.494   3.035
    1C        C  113   3.413   2.506   3.158
    1C        C  114   3.625   2.501   3.280
    1C        C  115   3.484   2.497   3.279
    1C        C  116   3.695   2.508   3.402
    1C        C  117   3.627   2.498   3.526
    1C        C  118   3.835   2.544   3.642
    1C        C  119   3.699   2.506   3.647
    1C        C  120   3.896   2.576   3.765
    1C        C  121   3.832   2.555   3.889
    1C        C  122   4.023   2.644   4.010
    1C        C  123   3.900   2.575   4.011
    1C        C  124   4.087   2.676   4.132
    1C        C  125   4.030   2.639   4.255
    1C        C  126   4.200   2.764   4.375
    1C        C  127   4.087   2.679   4.378
    1C        C  128   4.246   2.820   4.497
    1C        C  129   4.194   2.768   4.618
    1C        C  130   4.331   2.933   4.742
    1C        C  131   4.244   2.820   4.739
    1C        C  132   4.366   3.001   4.860
    1C        C  133   4.291   2.960   4.971
    1C        C  134   3.172   2.471   2.082
    1C        C  135   3.038   2.513   2.083
    1C        C  136   3.259   2.484   2.191
    1C        C  137   3.195   2.519   2.312
    1C        C  138   3.405   2.480   2.432
    1C        C  139   3.265   2.500   2.433
    1C        C  140   3.481   2.479   2.550
    1C        C  141   3.410   2.491   2.672
    1C        C  142   3.624   2.490   2.792
    1C        C  143   3.482   2.486   2.793
    1C        C  144   3.695   2.502   2.913
    1C        C  145   3.623   2.494   3.035
    1C        C  146   3.832   2.533   3.153
    1C        C  147   3.695   2.499   3.157
    1C        C  148   3.900   2.562   3.273
    1C        C  149   3.831   2.544   3.395
    1C        C  150   4.024   2.630   3.520
    1C        C  151   3.897   2.568   3.518
    1C        C  152   4.084   2.668   3.641
    1C        C  153   4.021   2.643   3.765
    1C        C  154   4.194   2.767   3.889
    1C        C  155   4.081   2.683   3.887
    1C        C  156   4.249   2.815   4.011
    1C        C  157   4.200   2.761   4.132
    1C        C  158   4.342   2.921   4.254
    1C        C  159   4.254   2.810   4.253
    1C        C  160   4.379   2.984   4.375
    1C        C  161   4.333   2.931   4.497
    1C        C  162   4.447   3.110   4.616
    1C        C  163   4.373   2.990   4.619
    1C        C  164   4.475   3.181   4.735
    1C        C  165   4.443   3.119   4.858
    1C        C  166   4.519   3.316   4.976
    1C        C  167   4.482   3.182   4.977
    1C        C  168   3.470   2.430   2.075
    1C        C  169   3.397   2.458   2.191
    1C        C  170   3.616   2.465   2.308
    1C        C  171   3.474   2.464   2.310
    1C        C  172   3.693   2.489   2.425
    1C        C  173   3.622   2.483   2.547
    1C        C  174   3.827   2.539   2.667
    1C        C  175   3.692   2.497   2.669
    1C        C  176   3.897   2.564   2.787
    1C        C  177   3.831   2.540   2.909
    1C        C  178   4.024   2.628   3.031
    1C        C  179   3.897   2.565   3.031
    1C        C  180   4.085   2.665   3.153
    1C        C  181   4.025   2.628   3.275
    1C        C  182   4.198   2.750   3.399
    1C        C  183   4.085   2.666   3.397
    1C        C  184   4.247   2.804   3.521
    1C        C  185   4.195   2.756   3.643
    1C        C  186   4.336   2.917   3.764
    1C        C  187   4.245   2.809   3.764
    1C        C  188   4.377   2.978   3.885
    1C        C  189   4.336   2.926   4.010
    1C        C  190   4.441   3.109   4.130
    1C        C  191   4.376   2.983   4.132
    1C        C  192   4.470   3.176   4.252
    1C        C  193   4.441   3.111   4.374
    1C        C  194   4.510   3.313   4.494
    1C        C  195   4.473   3.177   4.495
    1C        C  196   4.531   3.385   4.614
    1C        C  197   4.519   3.316   4.736
    1C        C  198   4.556   3.530   4.850
    1C        C  199   4.532   3.389   4.858
    1C        C  200   4.586   3.617   4.959
    1C        C  201   3.610   2.420   2.077
    1C        C  202   3.824   2.515   2.184
    1C        C  203   3.690   2.463   2.187
    1C        C  204   3.897   2.547   2.302
    1C        C  205   3.830   2.524   2.424
    1C        C  206   4.021   2.621   2.545
    1C        C  207   3.895   2.557   2.544
    1C        C  208   4.085   2.661   2.665
    1C        C  209   4.024   2.627   2.787
    1C        C  210   4.199   2.748   2.908
    1C        C  211   4.085   2.665   2.909
    1C        C  212   4.249   2.797   3.031
    1C        C  213   4.195   2.754   3.154
    1C        C  214   4.335   2.911   3.273
    1C        C  215   4.247   2.800   3.276
    1C        C  216   4.370   2.972   3.395
    1C        C  217   4.332   2.917   3.520
    1C        C  218   4.440   3.099   3.638
    1C        C  219   4.377   2.973   3.641
    1C        C  220   4.464   3.167   3.760
    1C        C  221   4.441   3.104   3.884
    1C        C  222   4.498   3.308   4.007
    1C        C  223   4.469   3.170   4.006
    1C        C  224   4.516   3.379   4.128
    1C        C  225   4.509   3.311   4.252
    1C        C  226   4.526   3.526   4.368
    1C        C  227   4.518   3.385   4.372
    1C        C  228   4.519   3.599   4.489
    1C        C  229   4.530   3.526   4.610
    1C        C  230   4.503   3.742   4.729
    1C        C  231   4.532   3.602   4.729
    1C        C  232   4.492   3.819   4.847
    1C        C  233   4.550   3.752   4.956
    1C        C  234   4.012   2.612   2.063
    1C        C  235   3.892   2.542   2.065
    1C        C  236   4.083   2.646   2.179
    1C        C  237   4.028   2.602   2.301
    1C        C  238   4.199   2.734   2.416
    1C        C  239   4.084   2.650   2.422
    1C        C  240   4.255   2.782   2.537
    1C        C  241   4.197   2.747   2.661
    1C        C  242   4.337   2.904   2.782
    1C        C  243   4.247   2.794   2.784
    1C        C  244   4.378   2.961   2.904
    1C        C  245   4.337   2.908   3.029
    1C        C  246   4.440   3.094   3.147
    1C        C  247   4.377   2.968   3.151
    1C        C  248   4.461   3.161   3.270
    1C        C  249   4.433   3.099   3.394
    1C        C  250   4.498   3.302   3.515
    1C        C  251   4.461   3.165   3.515
    1C        C  252   4.505   3.373   3.637
    1C        C  253   4.499   3.304   3.761
    1C        C  254   4.518   3.516   3.879
    1C        C  255   4.512   3.375   3.883
    1C        C  256   4.519   3.588   4.000
    1C        C  257   4.519   3.520   4.124
    1C        C  258   4.494   3.733   4.239
    1C        C  259   4.517   3.594   4.245
    1C        C  260   4.476   3.802   4.361
    1C        C  261   4.493   3.737   4.485
    1C        C  262   4.430   3.940   4.603
    1C        C  263   4.482   3.809   4.607
    1C        C  264   4.401   4.011   4.722
    1C        C  265   4.433   3.947   4.844
    1C        C  266   4.320   4.132   4.959
    1C        C  267   4.380   4.007   4.959
    1C        C  268   4.260   2.775   2.061
    1C        C  269   4.192   2.735   2.178
    1C        C  270   4.348   2.890   2.299
    1C        C  271   4.253   2.783   2.296
    1C        C  272   4.388   2.951   2.419
    1C        C  273   4.346   2.890   2.540
    1C        C  274   4.448   3.081   2.659
    1C        C  275   4.383   2.956   2.659
    1C        C  276   4.469   3.152   2.779
    1C        C  277   4.444   3.086   2.902
    1C        C  278   4.496   3.294   3.023
    1C        C  279   4.466   3.156   3.022
    1C        C  280   4.511   3.362   3.146
    1C        C  281   4.504   3.295   3.270
    1C        C  282   4.515   3.509   3.390
    1C        C  283   4.514   3.367   3.391
    1C        C  284   4.512   3.583   3.510
    1C        C  285   4.515   3.514   3.633
    1C        C  286   4.493   3.723   3.755
    1C        C  287   4.516   3.584   3.755
    1C        C  288   4.470   3.794   3.875
    1C        C  289   4.495   3.727   3.997
    1C        C  290   4.426   3.933   4.114
    1C        C  291   4.474   3.801   4.116
    1C        C  292   4.398   3.998   4.237
    1C        C  293   4.425   3.934   4.359
    1C        C  294   4.328   4.124   4.480
    1C        C  295   4.401   4.003   4.480
    1C        C  296   4.288   4.190   4.598
    1C        C  297   4.329   4.133   4.721
    1C        C  298   4.199   4.312   4.840
    1C        C  299   4.281   4.195   4.840
    1C        C  300   4.174   4.405   4.946
    1C        C  301   4.349   2.881   2.062
    1C        C  302   4.472   3.068   2.173
    1C        C  303   4.396   2.946   2.177
    1C        C  304   4.477   3.142   2.295
    1C        C  305   4.450   3.078   2.418
    1C        C  306   4.512   3.284   2.534
    1C        C  307   4.477   3.147   2.538
    1C        C  308   4.518   3.356   2.656
    1C        C  309   4.505   3.289   2.779
    1C        C  310   4.521   3.503   2.899
    1C        C  311   4.511   3.362   2.900
    1C        C  312   4.518   3.573   3.022
    1C        C  313   4.515   3.504   3.145
    1C        C  314   4.489   3.716   3.262
    1C        C  315   4.513   3.577   3.266
    1C        C  316   4.475   3.788   3.383
    1C        C  317   4.491   3.723   3.507
    1C        C  318   4.428   3.922   3.628
    1C        C  319   4.475   3.789   3.631
    1C        C  320   4.391   3.988   3.747
    1C        C  321   4.415   3.924   3.871
    1C        C  322   4.317   4.114   3.992
    1C        C  323   4.390   3.993   3.992
    1C        C  324   4.280   4.175   4.114
    1C        C  325   4.326   4.120   4.236
    1C        C  326   4.189   4.282   4.353
    1C        C  327   4.286   4.180   4.357
    1C        C  328   4.138   4.337   4.473
    1C        C  329   4.192   4.293   4.596
    1C        C  330   4.027   4.436   4.717
    1C        C  331   4.141   4.350   4.715
    1C        C  332   3.970   4.490   4.834
    1C        C  333   4.055   4.480   4.944
    1C        C  334   4.551   3.266   2.061
    1C        C  335   4.531   3.128   2.058
    1C        C  336   4.542   3.350   2.173
    1C        C  337   4.513   3.279   2.292
    1C        C  338   4.519   3.494   2.410
    1C        C  339   4.524   3.353   2.412
    1C        C  340   4.516   3.565   2.532
    1C        C  341   4.516   3.497   2.656
    1C        C  342   4.499   3.712   2.774
    1C        C  343   4.517   3.572   2.776
    1C        C  344   4.482   3.782   2.895
    1C        C  345   4.495   3.712   3.017
    1C        C  346   4.426   3.915   3.139
    1C        C  347   4.472   3.782   3.138
    1C        C  348   4.397   3.981   3.261
    1C        C  349   4.429   3.922   3.385
    1C        C  350   4.321   4.105   3.503
    1C        C  351   4.397   3.986   3.506
    1C        C  352   4.273   4.163   3.623
    1C        C  353   4.321   4.111   3.745
    1C        C  354   4.175   4.265   3.867
    1C        C  355   4.276   4.166   3.867
    1C        C  356   4.122   4.313   3.989
    1C        C  357   4.176   4.271   4.112
    1C        C  358   4.010   4.403   4.230
    1C        C  359   4.128   4.325   4.233
    1C        C  360   3.954   4.446   4.352
    1C        C  361   4.021   4.416   4.473
    1C        C  362   3.830   4.511   4.594
    1C        C  363   3.961   4.457   4.594
    1C        C  364   3.762   4.543   4.713
    1C        C  365   3.838   4.540   4.833
    1C        C  366   3.631   4.595   4.946
    1C        C  367   3.769   4.582   4.947
    1C        C  368   4.511   3.566   2.051
    1C        C  369   4.526   3.490   2.168
    1C        C  370   4.498   3.704   2.286
    1C        C  371   4.516   3.564   2.288
    1C        C  372   4.482   3.775   2.408
    1C        C  373   4.496   3.705   2.530
    1C        C  374   4.418   3.905   2.647
    1C        C  375   4.478   3.777   2.650
    1C        C  376   4.388   3.970   2.769
    1C        C  377   4.423   3.911   2.893
    1C        C  378   4.320   4.095   3.011
    1C        C  379   4.392   3.974   3.015
    1C        C  380   4.275   4.150   3.133
    1C        C  381   4.315   4.096   3.257
    1C        C  382   4.177   4.257   3.377
    1C        C  383   4.277   4.157   3.379
    1C        C  384   4.123   4.307   3.497
    1C        C  385   4.174   4.263   3.621
    1C        C  386   4.002   4.385   3.742
    1C        C  387   4.121   4.309   3.744
    1C        C  388   3.943   4.425   3.864
    1C        C  389   4.006   4.394   3.987
    1C        C  390   3.818   4.493   4.108
    1C        C  391   3.947   4.436   4.108
    1C        C  392   3.752   4.520   4.231
    1C        C  393   3.824   4.502   4.351
    1C        C  394   3.621   4.555   4.475
    1C        C  395   3.761   4.533   4.473
    1C        C  396   3.548   4.563   4.596
    1C        C  397   3.623   4.566   4.715
    1C        C  398   3.409   4.556   4.838
    1C        C  399   3.548   4.582   4.833
    1C        C  400   3.344   4.515   4.955
    1C        C  401   4.501   3.704   2.053
    1C        C  402   4.453   3.918   2.167
    1C        C  403   4.491   3.782   2.169
    1C        C  404   4.412   3.977   2.288
    1C        C  405   4.437   3.909   2.409
    1C        C  406   4.330   4.100   2.527
    1C        C  407   4.398   3.976   2.527
    1C        C  408   4.281   4.155   2.648
    1C        C  409   4.313   4.090   2.769
    1C        C  410   4.172   4.250   2.891
    1C        C  411   4.273   4.151   2.890
    1C        C  412   4.122   4.299   3.013
    1C        C  413   4.176   4.251   3.135
    1C        C  414   4.001   4.377   3.253
    1C        C  415   4.119   4.299   3.255
    1C        C  416   3.943   4.416   3.376
    1C        C  417   4.003   4.381   3.499
    1C        C  418   3.812   4.479   3.619
    1C        C  419   3.941   4.420   3.620
    1C        C  420   3.748   4.505   3.742
    1C        C  421   3.816   4.485   3.865
    1C        C  422   3.610   4.536   3.988
    1C        C  423   3.749   4.514   3.986
    1C        C  424   3.543   4.547   4.112
    1C        C  425   3.613   4.543   4.234
    1C        C  426   3.403   4.551   4.357
    1C        C  427   3.544   4.554   4.357
    1C        C  428   3.331   4.549   4.478
    1C        C  429   3.406   4.557   4.597
    1C        C  430   3.195   4.519   4.721
    1C        C  431   3.334   4.547   4.718
    1C        C  432   3.125   4.497   4.843
    1C        C  433   3.207   4.490   4.956
    1C        C  434   4.384   4.123   2.053
    1C        C  435   4.446   3.997   2.051
    1C        C  436   4.299   4.158   2.163
    1C        C  437   4.331   4.094   2.286
    1C        C  438   4.178   4.246   2.401
    1C        C  439   4.286   4.155   2.405
    1C        C  440   4.124   4.293   2.523
    1C        C  441   4.178   4.252   2.646
    1C        C  442   4.004   4.375   2.764
    1C        C  443   4.124   4.300   2.768
    1C        C  444   3.944   4.412   2.886
    1C        C  445   4.006   4.380   3.009
    1C        C  446   3.811   4.467   3.131
    1C        C  447   3.942   4.414   3.130
    1C        C  448   3.746   4.491   3.254
    1C        C  449   3.813   4.473   3.377
    1C        C  450   3.607   4.532   3.497
    1C        C  451   3.745   4.500   3.497
    1C        C  452   3.540   4.543   3.620
    1C        C  453   3.610   4.537   3.742
    1C        C  454   3.399   4.541   3.865
    1C        C  455   3.540   4.541   3.865
    1C        C  456   3.331   4.533   3.989
    1C        C  457   3.401   4.547   4.111
    1C        C  458   3.197   4.503   4.236
    1C        C  459   3.333   4.538   4.234
    1C        C  460   3.130   4.481   4.359
    1C        C  461   3.195   4.510   4.481
    1C        C  462   2.997   4.430   4.605
    1C        C  463   3.125   4.490   4.602
    1C        C  464   2.932   4.395   4.726
    1C        C  465   2.992   4.443   4.846
    1C        C  466   2.806   4.339   4.959
    1C        C  467   2.905   4.439   4.959
    1C        C  468   4.124   4.287   2.040
    1C        C  469   4.183   4.242   2.159
    1C        C  470   4.007   4.372   2.277
    1C        C  471   4.123   4.290   2.279
    1C        C  472   3.942   4.398   2.400
    1C        C  473   4.004   4.368   2.523
    1C        C  474   3.811   4.465   2.642
    1C        C  475   3.938   4.405   2.643
    1C        C  476   3.746   4.490   2.765
    1C        C  477   3.814   4.466   2.886
    1C        C  478   3.607   4.519   3.009
    1C        C  479   3.745   4.488   3.007
    1C        C  480   3.537   4.527   3.131
    1C        C  481   3.608   4.521   3.253
    1C        C  482   3.396   4.535   3.375
    1C        C  483   3.537   4.538   3.374
    1C        C  484   3.328   4.535   3.499
    1C        C  485   3.398   4.547   3.621
    1C        C  486   3.193   4.497   3.743
    1C        C  487   3.328   4.537   3.743
    1C        C  488   3.130   4.471   3.867
    1C        C  489   3.195   4.497   3.990
    1C        C  490   3.007   4.407   4.117
    1C        C  491   3.130   4.476   4.114
    1C        C  492   2.947   4.371   4.240
    1C        C  493   3.004   4.417   4.361
    1C        C  494   2.826   4.304   4.483
    1C        C  495   2.938   4.391   4.483
    1C        C  496   2.772   4.256   4.604
    1C        C  497   2.820   4.308   4.727
    1C        C  498   2.670   4.159   4.847
    1C        C  499   2.759   4.269   4.848
    1C        C  500   2.594   4.119   4.958
    1C        C  501   4.003   4.355   2.040
    1C        C  502   3.813   4.463   2.154
    1C        C  503   3.939   4.398   2.156
    1C        C  504   3.743   4.478   2.276
    1C        C  505   3.811   4.452   2.397
    1C        C  506   3.607   4.512   2.522
    1C        C  507   3.745   4.482   2.518
    1C        C  508   3.536   4.523   2.643
    1C        C  509   3.608   4.520   2.765
    1C        C  510   3.395   4.532   2.886
    1C        C  511   3.537   4.527   2.887
    1C        C  512   3.324   4.529   3.008
    1C        C  513   3.396   4.531   3.129
    1C        C  514   3.190   4.492   3.258
    1C        C  515   3.326   4.528   3.253
    1C        C  516   3.124   4.466   3.380
    1C        C  517   3.191   4.498   3.500
    1C        C  518   3.001   4.406   3.625
    1C        C  519   3.124   4.476   3.622
    1C        C  520   2.944   4.367   3.749
    1C        C  521   3.006   4.403   3.870
    1C        C  522   2.834   4.285   3.995
    1C        C  523   2.948   4.369   3.994
    1C        C  524   2.788   4.233   4.118
    1C        C  525   2.837   4.283   4.240
    1C        C  526   2.699   4.128   4.364
    1C        C  527   2.781   4.243   4.364
    1C        C  528   2.653   4.076   4.487
    1C        C  529   2.692   4.140   4.606
    1C        C  530   2.583   3.959   4.732
    1C        C  531   2.646   4.086   4.729
    1C        C  532   2.535   3.902   4.853
    1C        C  533   2.532   3.993   4.963
    1C        C  534   3.617   4.560   2.041
    1C        C  535   3.751   4.521   2.043
    1C        C  536   3.536   4.533   2.156
    1C        C  537   3.606   4.514   2.278
    1C        C  538   3.395   4.519   2.401
    1C        C  539   3.536   4.522   2.400
    1C        C  540   3.324   4.509   2.523
    1C        C  541   3.395   4.519   2.645
    1C        C  542   3.186   4.484   2.767
    1C        C  543   3.322   4.521   2.766
    1C        C  544   3.122   4.463   2.891
    1C        C  545   3.187   4.493   3.013
    1C        C  546   3.000   4.399   3.134
    1C        C  547   3.123   4.468   3.136
    1C        C  548   2.940   4.363   3.257
    1C        C  549   2.998   4.401   3.380
    1C        C  550   2.833   4.275   3.507
    1C        C  551   2.941   4.366   3.504
    1C        C  552   2.785   4.225   3.630
    1C        C  553   2.835   4.278   3.751
    1C        C  554   2.706   4.114   3.876
    1C        C  555   2.785   4.231   3.874
    1C        C  556   2.663   4.061   3.999
    1C        C  557   2.696   4.126   4.121
    1C        C  558   2.597   3.940   4.246
    1C        C  559   2.658   4.067   4.243
    1C        C  560   2.568   3.879   4.371
    1C        C  561   2.593   3.948   4.491
    1C        C  562   2.530   3.747   4.619
    1C        C  563   2.569   3.883   4.614
    1C        C  564   2.509   3.678   4.741
    1C        C  565   2.524   3.759   4.857
    1C        C  566   2.542   3.547   4.981
    1C        C  567   2.531   3.686   4.976
    1C        C  568   3.329   4.476   2.045
    1C        C  569   3.394   4.520   2.160
    1C        C  570   3.181   4.479   2.281
    1C        C  571   3.320   4.509   2.281
    1C        C  572   3.116   4.457   2.404
    1C        C  573   3.186   4.482   2.525
    1C        C  574   2.987   4.405   2.648
    1C        C  575   3.116   4.461   2.646
    1C        C  576   2.932   4.362   2.771
    1C        C  577   2.998   4.396   2.891
    1C        C  578   2.826   4.271   3.017
    1C        C  579   2.938   4.357   3.014
    1C        C  580   2.780   4.220   3.140
    1C        C  581   2.832   4.272   3.261
    1C        C  582   2.696   4.114   3.382
    1C        C  583   2.783   4.225   3.385
    1C        C  584   2.660   4.055   3.506
    1C        C  585   2.698   4.114   3.629
    1C        C  586   2.602   3.930   3.756
    1C        C  587   2.663   4.057   3.754
    1C        C  588   2.577   3.869   3.881
    1C        C  589   2.601   3.934   4.004
    1C        C  590   2.531   3.734   4.127
    1C        C  591   2.573   3.869   4.126
    1C        C  592   2.519   3.669   4.252
    1C        C  593   2.531   3.742   4.373
    1C        C  594   2.518   3.535   4.503
    1C        C  595   2.526   3.676   4.497
    1C        C  596   2.514   3.462   4.623
    1C        C  597   2.514   3.536   4.744
    1C        C  598   2.540   3.327   4.867
    1C        C  599   2.529   3.467   4.866
    1C        C  600   2.530   3.249   4.983
    1C        C  601   3.197   4.436   2.044
    1C        C  602   2.982   4.396   2.161
    1C        C  603   3.117   4.444   2.159
    1C        C  604   2.922   4.363   2.285
    1C        C  605   2.988   4.397   2.405
    1C        C  606   2.818   4.274   2.528
    1C        C  607   2.924   4.367   2.527
    1C        C  608   2.775   4.219   2.651
    1C        C  609   2.825   4.270   2.773
    1C        C  610   2.691   4.107   2.896
    1C        C  611   2.774   4.221   2.895
    1C        C  612   2.653   4.050   3.020
    1C        C  613   2.688   4.113   3.142
    1C        C  614   2.591   3.923   3.266
    1C        C  615   2.650   4.052   3.263
    1C        C  616   2.569   3.864   3.392
    1C        C  617   2.596   3.930   3.514
    1C        C  618   2.527   3.730   3.642
    1C        C  619   2.564   3.866   3.636
    1C        C  620   2.507   3.662   3.765
    1C        C  621   2.524   3.738   3.883
    1C        C  622   2.507   3.525   4.011
    1C        C  623   2.516   3.666   4.004
    1C        C  624   2.507   3.457   4.135
    1C        C  625   2.509   3.529   4.257
    1C        C  626   2.535   3.322   4.384
    1C        C  627   2.515   3.462   4.382
    1C        C  628   2.553   3.249   4.503
    1C        C  629   2.533   3.322   4.623
    1C        C  630   2.596   3.120   4.745
    1C        C  631   2.553   3.255   4.746
    1C        C  632   2.619   3.049   4.866
    1C        C  633   2.562   3.113   4.981
    1C        C  634   2.787   4.297   2.053
    1C        C  635   2.892   4.390   2.050
    1C        C  636   2.754   4.226   2.168
    1C        C  637   2.813   4.272   2.288
    1C        C  638   2.673   4.111   2.411
    1C        C  639   2.765   4.218   2.410
    1C        C  640   2.642   4.047   2.533
    1C        C  641   2.690   4.106   2.651
    1C        C  642   2.588   3.921   2.776
    1C        C  643   2.655   4.046   2.774
    1C        C  644   2.558   3.858   2.899
    1C        C  645   2.589   3.924   3.020
    1C        C  646   2.523   3.724   3.149
    1C        C  647   2.568   3.858   3.143
    1C        C  648   2.513   3.659   3.274
    1C        C  649   2.526   3.729   3.396
    1C        C  650   2.511   3.520   3.518
    1C        C  651   2.516   3.661   3.520
    1C        C  652   2.515   3.452   3.642
    1C        C  653   2.505   3.521   3.765
    1C        C  654   2.531   3.314   3.893
    1C        C  655   2.509   3.454   3.889
    1C        C  656   2.552   3.251   4.017
    1C        C  657   2.537   3.320   4.139
    1C        C  658   2.607   3.121   4.259
    1C        C  659   2.553   3.252   4.262
    1C        C  660   2.634   3.054   4.381
    1C        C  661   2.602   3.117   4.503
    1C        C  662   2.709   2.934   4.625
    1C        C  663   2.631   3.052   4.626
    1C        C  664   2.753   2.877   4.747
    1C        C  665   2.700   2.931   4.867
    1C        C  666   2.746   2.869   4.984
    1C        C  667   2.682   4.021   2.055
    1C        C  668   2.685   4.102   2.169
    1C        C  669   2.596   3.909   2.293
    1C        C  670   2.646   4.042   2.291
    1C        C  671   2.562   3.845   2.414
    1C        C  672   2.581   3.919   2.533
    1C        C  673   2.528   3.715   2.661
    1C        C  674   2.558   3.853   2.655
    1C        C  675   2.510   3.648   2.784
    1C        C  676   2.521   3.722   2.904
    1C        C  677   2.501   3.513   3.031
    1C        C  678   2.511   3.654   3.027
    1C        C  679   2.505   3.444   3.154
    1C        C  680   2.506   3.518   3.274
    1C        C  681   2.540   3.310   3.401
    1C        C  682   2.512   3.448   3.396
    1C        C  683   2.550   3.241   3.523
    1C        C  684   2.530   3.311   3.644
    1C        C  685   2.606   3.119   3.775
    1C        C  686   2.551   3.249   3.769
    1C        C  687   2.637   3.053   3.896
    1C        C  688   2.602   3.118   4.016
    1C        C  689   2.704   2.932   4.141
    1C        C  690   2.635   3.054   4.138
    1C        C  691   2.754   2.878   4.262
    1C        C  692   2.713   2.937   4.384
    1C        C  693   2.752   2.876   4.505
    1C        C  694   2.628   3.892   2.057
    1C        C  695   2.530   3.701   2.174
    1C        C  696   2.582   3.832   2.175
    1C        C  697   2.507   3.637   2.297
    1C        C  698   2.519   3.710   2.417
    1C        C  699   2.484   3.504   2.542
    1C        C  700   2.506   3.644   2.541
    1C        C  701   2.496   3.436   2.665
    1C        C  702   2.496   3.507   2.787
    1C        C  703   2.528   3.300   2.911
    1C        C  704   2.501   3.438   2.911
    1C        C  705   2.545   3.233   3.034
    1C        C  706   2.525   3.304   3.155
    1C        C  707   2.601   3.109   3.280
    1C        C  708   2.546   3.239   3.279
    1C        C  709   2.630   3.046   3.403
    1C        C  710   2.602   3.109   3.526
    1C        C  711   2.717   2.939   3.650
    1C        C  712   2.636   3.055   3.652
    1C        C  713   2.766   2.892   3.773
    1C        C  714   2.717   2.936   3.898
    1C        C  715   2.751   2.875   4.020
    1C        C  716   2.451   3.495   2.060
    1C        C  717   2.495   3.627   2.059
    1C        C  718   2.459   3.422   2.183
    1C        C  719   2.480   3.497   2.302
    1C        C  720   2.507   3.288   2.424
    1C        C  721   2.484   3.427   2.424
    1C        C  722   2.536   3.222   2.546
    1C        C  723   2.521   3.297   2.665
    1C        C  724   2.587   3.098   2.791
    1C        C  725   2.535   3.230   2.788
    1C        C  726   2.622   3.037   2.914
    1C        C  727   2.591   3.099   3.037
    1C        C  728   2.713   2.928   3.158
    1C        C  729   2.627   3.040   3.160
    1C        C  730   2.758   2.877   3.282
    1C        C  731   2.713   2.932   3.404
    1C        C  732   2.755   2.878   3.528
    1C        C  733   2.492   3.197   2.072
    1C        C  734   2.483   3.280   2.184
    1C        C  735   2.583   3.087   2.305
    1C        C  736   2.518   3.213   2.305
    1C        C  737   2.620   3.024   2.426
    1C        C  738   2.597   3.095   2.546
    1C        C  739   2.696   2.913   2.670
    1C        C  740   2.622   3.033   2.670
    1C        C  741   2.744   2.860   2.792
    1C        C  742   2.703   2.921   2.913
    1C        C  743   2.753   2.870   3.035
    1C        C  744   2.551   3.071   2.070
    1C        C  745   2.688   2.900   2.183
    1C        C  746   2.613   3.020   2.184
    1C        C  747   2.732   2.844   2.304
    1C        C  748   2.687   2.899   2.426
    1C        C  749   2.737   2.851   2.550
    1C        C  750   2.739   2.838   2.068
    1C        C  751   3.653   2.306   1.993
    1C        O  752   3.663   2.187   2.033
    1C        O  753   3.665   2.289   1.854
    1C        C  754   4.643   3.063   1.986
    1C        O  755   4.639   3.060   1.861
    1C        O  756   4.728   2.968   2.045
    1C        C  757   4.418   4.207   1.936
    1C        O  758   4.504   4.299   1.941
    1C        O  759   4.409   4.163   1.803
    1C        C  760   3.603   4.694   1.979
    1C        O  761   3.613   4.801   2.044
    1C        O  762   3.616   4.716   1.841
    1C        C  763   2.868   4.511   1.969
    1C        O  764   2.896   4.501   1.846
    1C        O  765   2.769   4.602   2.005
    1C        C  766   2.348   3.476   1.955
    1C        O  767   2.377   3.422   1.845
    1C        O  768   2.223   3.536   1.969
    1C        C  769   4.701   3.585   5.047
    1C        O  770   4.686   3.508   5.147
    1C        O  771   4.834   3.614   5.018
    1C        C  772   4.282   4.469   5.024
    1C        O  773   4.284   4.448   5.148
    1C        O  774   4.382   4.554   4.974
    1C        C  775   4.152   2.532   5.071
    1C        O  776   4.187   2.412   5.052
    1C        O  777   4.157   2.563   5.207
    1C        C  778   2.871   4.557   5.042
    1C        O  779   2.798   4.649   4.996
    1C        O  780   2.955   4.602   5.145
    1C        C  781   2.479   3.029   5.071
    1C        O  782   2.369   2.988   5.026
    1C        O  783   2.475   3.065   5.205
    1C        C  784   2.450   3.976   5.085
    1C        O  785   2.325   3.989   5.075
    1C        O  786   2.503   3.940   5.209
    1C        C  787   2.942   2.440   1.998
    1C        O  788   2.976   2.402   1.883
    1C        O  789   2.846   2.355   2.052
    1C        C  790   3.194   2.366   5.055
    1C        O  791   3.143   2.257   5.020
    1C        O  792   3.204   2.364   5.195
    1C        H  793   4.282   3.018   5.060
    1C        H  794   4.198   2.800   5.069
    1C        H  795   4.473   3.139   5.075
    1C        H  796   4.486   3.370   5.063
    1C        H  797   4.543   3.804   5.049
    1C        H  798   4.389   3.956   5.053
    1C        H  799   4.281   4.161   5.054
    1C        H  800   4.012   4.514   5.036
    1C        H  801   3.817   4.631   5.029
    1C        H  802   3.587   4.616   5.041
    1C        H  803   3.387   4.508   5.052
    1C        H  804   3.167   4.454   5.049
    1C        H  805   3.886   2.505   5.073
    1C        H  806   3.674   2.529   5.064
    1C        H  807   2.986   2.528   5.043
    1C        H  808   3.450   2.466   5.079
    1C        H  809   2.909   2.784   5.078
    1C        H  810   2.694   2.883   5.077
    1C        H  811   2.506   3.296   5.076
    1C        H  812   2.604   3.505   5.058
    1C        H  813   2.456   3.717   5.045
    1C        H  814   2.536   4.199   4.999
    1C        H  815   2.782   4.308   5.059
    1C        H  816   2.791   2.908   2.006
    1C        H  817   2.792   2.654   1.989
    1C        H  818   3.204   2.428   1.989
    1C        H  819   3.427   2.433   1.977
    1C        H  820   3.840   2.537   1.971
    1C        H  821   4.066   2.592   1.973
    1C        H  822   4.270   2.702   1.983
    1C        H  823   4.396   2.912   1.971
    1C        H  824   4.591   3.315   1.974
    1C        H  825   4.534   3.521   1.956
    1C        H  826   4.476   3.755   1.962
    1C        H  827   3.795   4.511   1.946
    1C        H  828   3.982   4.411   1.951
    1C        H  829   4.162   4.258   1.945
    1C        H  830   4.479   3.962   1.956
    1C        H  831   2.598   3.852   1.963
    1C        H  832   2.728   4.047   1.962
    1C        H  833   2.712   4.304   1.977
    1C        H  834   3.388   4.429   1.969
    1C        H  835   3.169   4.381   1.956
    1C        H  836   2.526   3.000   1.994
    1C        H  837   2.431   3.225   1.989
    1C        H  838   2.542   3.660   1.969
    2V3OU   H29  839   2.802   3.547   1.075
    2V3OU   C27  840   2.779   3.501   1.174
    2V3OU   H27  841   2.728   3.576   1.240
    2V3OU   H28  842   2.720   3.406   1.163
    2V3OU   O11  843   2.902   3.468   1.240
    2V3OU   C15  844   2.922   3.396   1.356
    2V3OU   C13  845   3.049   3.374   1.412
    2V3OU   C14  846   3.074   3.270   1.503
    2V3OU   C16  847   2.968   3.188   1.540
    2V3OU    H6  848   2.990   3.098   1.600
    2V3OU   C12  849   3.214   3.229   1.529
    2V3OU    O2  850   3.240   3.119   1.583
    2V3OU   C10  851   3.325   3.312   1.482
    2V3OU    C8  852   3.458   3.272   1.487
    2V3OU   O10  853   3.490   3.145   1.525
    2V3OU   H26  854   3.406   3.108   1.557
    2V3OU    C6  855   3.566   3.350   1.435
    2V3OU    C5  856   3.534   3.469   1.371
    2V3OU    C4  857   3.704   3.293   1.425
    2V3OU    H4  858   3.721   3.228   1.516
    2V3OU    H5  859   3.712   3.228   1.333
    2V3OU    C2  860   3.816   3.397   1.431
    2V3OU    O6  861   3.809   3.470   1.554
    2V3OU   H21  862   3.772   3.551   1.515
    2V3OU    C3  863   3.783   3.496   1.319
    2V3OU    H2  864   3.863   3.574   1.311
    2V3OU    H3  865   3.780   3.441   1.222
    2V3OU   C25  866   3.948   3.322   1.422
    2V3OU    O7  867   4.000   3.291   1.314
    2V3OU   C26  868   4.026   3.287   1.547
    2V3OU   H22  869   4.059   3.385   1.590
    2V3OU   H23  870   4.116   3.225   1.521
    2V3OU    O8  871   3.962   3.204   1.642
    2V3OU   H24  872   3.931   3.265   1.711
    2V3OU    C1  873   3.648   3.562   1.338
    2V3OU    H1  874   3.622   3.619   1.244
    2V3OU    O3  875   3.654   3.656   1.446
    2V3OU   C19  876   3.619   3.794   1.437
    2V3OU    H9  877   3.519   3.802   1.386
    2V3OU    O4  878   3.717   3.851   1.354
    2V3OU   C20  879   3.850   3.872   1.404
    2V3OU   H10  880   3.899   3.772   1.422
    2V3OU   C24  881   3.604   3.858   1.576
    2V3OU   H16  882   3.544   3.797   1.648
    2V3OU   H17  883   3.566   3.963   1.571
    2V3OU   C23  884   3.747   3.877   1.626
    2V3OU   H15  885   3.789   3.772   1.645
    2V3OU    N1  886   3.739   3.954   1.749
    2V3OU   H19  887   3.806   3.929   1.818
    2V3OU   H20  888   3.649   3.935   1.787
    2V3OU   C21  889   3.852   3.949   1.536
    2V3OU   H11  890   3.955   3.934   1.580
    2V3OU    O5  891   3.828   4.089   1.527
    2V3OU   H18  892   3.779   4.108   1.610
    2V3OU   C22  893   3.911   3.951   1.290
    2V3OU   H12  894   3.865   4.053   1.285
    2V3OU   H13  895   3.903   3.892   1.195
    2V3OU   H14  896   4.022   3.958   1.304
    2V3OU   C11  897   3.156   3.470   1.381
    2V3OU    O1  898   3.131   3.585   1.339
    2V3OU    C9  899   3.295   3.429   1.408
    2V3OU    C7  900   3.397   3.505   1.351
    2V3OU    O9  901   3.379   3.621   1.279
    2V3OU   H25  902   3.283   3.629   1.283
    2V3OU   C17  903   2.819   3.313   1.405
    2V3OU    H7  904   2.715   3.343   1.387
    2V3OU   C18  905   2.838   3.209   1.496
    2V3OU    H8  906   2.761   3.138   1.527
    3SOL     OW  907   0.786   3.141   0.811
    3SOL    HW1  908   0.723   3.191   0.870
    3SOL    HW2  909   0.766   3.162   0.715
    4SOL     OW  910   5.560   0.648   1.929
    4SOL    HW1  911   5.651   0.668   1.966
    4SOL    HW2  912   5.563   0.652   1.829
    5SOL     OW  913   3.623   3.041   0.913
    5SOL    HW1  914   3.548   3.026   0.978
    5SOL    HW2  915   3.652   3.136   0.916
    6SOL     OW  916   2.679   1.888   1.342
    6SOL    HW1  917   2.623   1.808   1.323
    6SOL    HW2  918   2.751   1.896   1.273
    7SOL     OW  919   6.211   0.809   1.582
    7SOL    HW1  920   6.131   0.869   1.589
    7SOL    HW2  921   6.248   0.793   1.674
    8SOL     OW  922   2.412   1.729   3.935
    8SOL    HW1  923   2.361   1.814   3.928
    8SOL    HW2  924   2.475   1.734   4.012
    9SOL     OW  925   1.071   3.832   5.788
    9SOL    HW1  926   1.089   3.825   5.887
    9SOL    HW2  927   1.096   3.924   5.757
   10SOL     OW  928   0.305   4.281   0.158
   10SOL    HW1  929   0.232   4.226   0.199
   10SOL    HW2  930   0.384   4.222   0.140
   11SOL     OW  931   4.236   6.513   6.828
   11SOL    HW1  932   4.145   6.476   6.812
   11SOL    HW2  933   4.285   6.454   6.893
   12SOL     OW  934   5.656   6.107   2.347
   12SOL    HW1  935   5.622   6.200   2.357
   12SOL    HW2  936   5.672   6.067   2.438
   13SOL     OW  937   2.219   6.859   3.430
   13SOL    HW1  938   2.314   6.887   3.417
   13SOL    HW2  939   2.160   6.939   3.421
   14SOL     OW  940   3.058   6.700   1.691
   14SOL    HW1  941   3.050   6.602   1.712
   14SOL    HW2  942   3.074   6.711   1.593
   15SOL     OW  943   1.366   6.461   6.319
   15SOL    HW1  944   1.296   6.483   6.251
   15SOL    HW2  945   1.332   6.390   6.380
   16SOL     OW  946   6.298   1.526   6.055
   16SOL    HW1  947   6.335   1.547   5.964
   16SOL    HW2  948   6.199   1.519   6.050
   17SOL     OW  949   4.988   6.079   3.743
   17SOL    HW1  950   5.015   6.150   3.808
   17SOL    HW2  951   5.025   6.102   3.652
   18SOL     OW  952   1.742   1.524   6.684
   18SOL    HW1  953   1.776   1.560   6.771
   18SOL    HW2  954   1.679   1.449   6.702
   19SOL     OW  955   0.598   0.250   2.059
   19SOL    HW1  956   0.595   0.346   2.031
   19SOL    HW2  957   0.659   0.200   1.998
   20SOL     OW  958   3.087   1.539   4.565
   20SOL    HW1  959   3.070   1.539   4.467
   20SOL    HW2  960   3.000   1.545   4.614
   21SOL     OW  961   2.832   2.356   0.788
   21SOL    HW1  962   2.778   2.300   0.726
   21SOL    HW2  963   2.927   2.359   0.756
   22SOL     OW  964   0.972   0.465   6.063
   22SOL    HW1  965   1.032   0.511   5.998
   22SOL    HW2  966   1.024   0.400   6.118
   23SOL     OW  967   4.010   6.333   4.386
   23SOL    HW1  968   3.966   6.247   4.362
   23SOL    HW2  969   3.970   6.407   4.333
   24SOL     OW  970   4.135   1.451   4.552
   24SOL    HW1  971   4.225   1.421   4.583
   24SOL    HW2  972   4.145   1.513   4.474
   25SOL     OW  973   2.938   5.154   0.857
   25SOL    HW1  974   2.994   5.199   0.926
   25SOL    HW2  975   2.952   5.198   0.768
   26SOL     OW  976   6.266   1.709   2.498
   26SOL    HW1  977   6.193   1.720   2.431
   26SOL    HW2  978   6.354   1.722   2.453
   27SOL     OW  979   6.258   6.208   2.234
   27SOL    HW1  980   6.299   6.299   2.235
   27SOL    HW2  981   6.160   6.215   2.212
   28SOL     OW  982   3.124   0.376   0.427
   28SOL    HW1  983   3.040   0.322   0.437
   28SOL    HW2  984   3.100   0.468   0.395
   29SOL     OW  985   4.006   2.419   1.787
   29SOL    HW1  986   4.100   2.418   1.820
   29SOL    HW2  987   4.006   2.440   1.689
   30SOL     OW  988   3.900   0.862   4.572
   30SOL    HW1  989   3.874   0.925   4.500
   30SOL    HW2  990   3.889   0.906   4.661
   31SOL     OW  991   0.542   0.778   5.480
   31SOL    HW1  992   0.612   0.831   5.527
   31SOL    HW2  993   0.566   0.681   5.481
   32SOL     OW  994   7.015   2.359   1.894
   32SOL    HW1  995   6.943   2.345   1.826
   32SOL    HW2  996   0.047   2.277   1.902
   33SOL     OW  997   1.342   1.884   5.439
   33SOL    HW1  998   1.434   1.848   5.455
   33SOL    HW2  999   1.316   1.869   5.344
   34SOL     OW 1000   0.980   0.493   4.762
   34SOL    HW1 1001   1.054   0.507   4.829
   34SOL    HW2 1002   0.981   0.398   4.731
   35SOL     OW 1003   4.384   1.449   6.217
   35SOL    HW1 1004   4.387   1.448   6.317
   35SOL    HW2 1005   4.474   1.474   6.182
   36SOL     OW 1006   1.570   1.449   5.751
   36SOL    HW1 1007   1.602   1.521   5.690
   36SOL    HW2 1008   1.647   1.393   5.781
   37SOL     OW 1009   2.510   6.628   1.355
   37SOL    HW1 1010   2.508   6.566   1.433
   37SOL    HW2 1011   2.604   6.654   1.335
   38SOL     OW 1012   0.278   5.880   2.850
   38SOL    HW1 1013   0.193   5.849   2.891
   38SOL    HW2 1014   0.300   5.823   2.771
   39SOL     OW 1015   6.814   3.343   5.654
   39SOL    HW1 1016   6.749   3.300   5.591
   39SOL    HW2 1017   6.873   3.272   5.693
   40SOL     OW 1018   6.795   0.763   1.559
   40SOL    HW1 1019   6.768   0.807   1.645
   40SOL    HW2 1020   6.801   0.831   1.487
   41SOL     OW 1021   1.118   6.870   5.543
   41SOL    HW1 1022   1.185   6.822   5.600
   41SOL    HW2 1023   1.164   6.913   5.466
   42SOL     OW 1024   3.541   0.623   0.152
   42SOL    HW1 1025   3.631   0.613   0.195
   42SOL    HW2 1026   3.474   0.566   0.199
   43SOL     OW 1027   5.357   5.496   5.158
   43SOL    HW1 1028   5.346   5.397   5.148
   43SOL    HW2 1029   5.308   5.527   5.239
   44SOL     OW 1030   0.877   3.486   6.360
   44SOL    HW1 1031   0.858   3.539   6.278
   44SOL    HW2 1032   0.901   3.549   6.435
   45SOL     OW 1033   3.197   0.432   1.927
   45SOL    HW1 1034   3.296   0.436   1.938
   45SOL    HW2 1035   3.169   0.484   1.846
   46SOL     OW 1036   1.584   4.523   3.881
   46SOL    HW1 1037   1.530   4.604   3.859
   46SOL    HW2 1038   1.679   4.550   3.899
   47SOL     OW 1039   6.487   4.631   3.301
   47SOL    HW1 1040   6.429   4.562   3.258
   47SOL    HW2 1041   6.514   4.699   3.233
   48SOL     OW 1042   1.031   2.193   5.520
   48SOL    HW1 1043   1.028   2.206   5.620
   48SOL    HW2 1044   1.124   2.169   5.493
   49SOL     OW 1045   5.000   2.327   0.480
   49SOL    HW1 1046   5.071   2.322   0.551
   49SOL    HW2 1047   4.999   2.419   0.440
   50SOL     OW 1048   6.452   3.948   4.365
   50SOL    HW1 1049   6.496   4.000   4.438
   50SOL    HW2 1050   6.510   3.871   4.340
   51SOL     OW 1051   3.345   5.296   2.738
   51SOL    HW1 1052   3.345   5.364   2.665
   51SOL    HW2 1053   3.253   5.258   2.748
   52SOL     OW 1054   1.285   2.398   1.446
   52SOL    HW1 1055   1.338   2.340   1.508
   52SOL    HW2 1056   1.200   2.351   1.421
   53SOL     OW 1057   5.044   6.791   4.075
   53SOL    HW1 1058   5.013   6.797   4.170
   53SOL    HW2 1059   5.132   6.745   4.071
   54SOL     OW 1060   4.041   5.685   5.944
   54SOL    HW1 1061   4.038   5.784   5.929
   54SOL    HW2 1062   3.954   5.644   5.915
   55SOL     OW 1063   4.127   2.612   0.372
   55SOL    HW1 1064   4.067   2.560   0.433
   55SOL    HW2 1065   4.161   2.693   0.420
   56SOL     OW 1066   0.793   0.054   1.958
   56SOL    HW1 1067   0.753   7.012   1.894
   56SOL    HW2 1068   0.844   0.006   2.028
   57SOL     OW 1069   5.826   0.643   0.859
   57SOL    HW1 1070   5.821   0.714   0.788
   57SOL    HW2 1071   5.919   0.640   0.896
   58SOL     OW 1072   6.741   6.422   6.847
   58SOL    HW1 1073   6.765   6.443   6.942
   58SOL    HW2 1074   6.808   6.464   6.786
   59SOL     OW 1075   1.097   0.067   4.917
   59SOL    HW1 1076   1.107   0.125   4.998
   59SOL    HW2 1077   1.187   0.034   4.888
   60SOL     OW 1078   4.810   6.661   4.768
   60SOL    HW1 1079   4.897   6.701   4.795
   60SOL    HW2 1080   4.751   6.733   4.731
   61SOL     OW 1081   4.191   0.118   4.584
   61SOL    HW1 1082   4.122   0.046   4.594
   61SOL    HW2 1083   4.146   0.204   4.562
   62SOL     OW 1084   2.124   1.266   4.609
   62SOL    HW1 1085   2.165   1.328   4.541
   62SOL    HW2 1086   2.158   1.174   4.595
   63SOL     OW 1087   6.493   3.350   3.271
   63SOL    HW1 1088   6.533   3.363   3.180
   63SOL    HW2 1089   6.452   3.259   3.277
   64SOL     OW 1090   6.775   2.585   5.569
   64SOL    HW1 1091   6.825   2.536   5.640
   64SOL    HW2 1092   6.708   2.646   5.612
   65SOL     OW 1093   6.980   4.725   6.307
   65SOL    HW1 1094   6.985   4.626   6.302
   65SOL    HW2 1095   7.002   4.755   6.400
   66SOL     OW 1096   2.789   1.436   0.562
   66SOL    HW1 1097   2.786   1.345   0.522
   66SOL    HW2 1098   2.696   1.469   0.578
   67SOL     OW 1099   5.251   5.992   4.259
   67SOL    HW1 1100   5.302   6.000   4.345
   67SOL    HW2 1101   5.205   6.079   4.240
   68SOL     OW 1102   5.605   2.520   6.116
   68SOL    HW1 1103   5.698   2.495   6.141
   68SOL    HW2 1104   5.604   2.612   6.076
   69SOL     OW 1105   2.962   3.346   6.156
   69SOL    HW1 1106   2.982   3.347   6.254
   69SOL    HW2 1107   2.866   3.371   6.142
   70SOL     OW 1108   0.181   5.104   1.972
   70SOL    HW1 1109   0.201   5.132   1.878
   70SOL    HW2 1110   0.119   5.025   1.971
   71SOL     OW 1111   1.457   2.528   3.130
   71SOL    HW1 1112   1.508   2.608   3.163
   71SOL    HW2 1113   1.475   2.515   3.033
   72SOL     OW 1114   3.549   5.943   4.153
   72SOL    HW1 1115   3.477   5.964   4.087
   72SOL    HW2 1116   3.627   6.004   4.139
   73SOL     OW 1117   4.511   2.685   0.157
   73SOL    HW1 1118   4.444   2.612   0.148
   73SOL    HW2 1119   4.555   2.680   0.247
   74SOL     OW 1120   5.327   5.555   5.858
   74SOL    HW1 1121   5.237   5.510   5.855
   74SOL    HW2 1122   5.321   5.636   5.917
   75SOL     OW 1123   3.953   5.246   5.843
   75SOL    HW1 1124   3.861   5.253   5.806
   75SOL    HW2 1125   3.957   5.296   5.930
   76SOL     OW 1126   2.627   2.876   1.351
   76SOL    HW1 1127   2.540   2.842   1.386
   76SOL    HW2 1128   2.619   2.973   1.329
   77SOL     OW 1129   5.682   5.141   6.455
   77SOL    HW1 1130   5.711   5.183   6.541
   77SOL    HW2 1131   5.730   5.054   6.443
   78SOL     OW 1132   6.543   6.595   6.291
   78SOL    HW1 1133   6.458   6.546   6.309
   78SOL    HW2 1134   6.535   6.644   6.204
   79SOL     OW 1135   2.992   0.253   0.114
   79SOL    HW1 1136   2.898   0.270   0.144
   79SOL    HW2 1137   3.004   0.287   0.021
   80SOL     OW 1138   0.356   1.657   4.166
   80SOL    HW1 1139   0.271   1.649   4.113
   80SOL    HW2 1140   0.401   1.567   4.169
   81SOL     OW 1141   0.988   0.306   3.904
   81SOL    HW1 1142   0.982   0.258   3.817
   81SOL    HW2 1143   0.907   0.363   3.916
   82SOL     OW 1144   0.425   4.506   5.175
   82SOL    HW1 1145   0.437   4.421   5.124
   82SOL    HW2 1146   0.376   4.487   5.260
   83SOL     OW 1147   6.939   6.868   0.035
   83SOL    HW1 1148   6.850   6.914   0.041
   83SOL    HW2 1149   6.952   6.835   6.966
   84SOL     OW 1150   6.043   3.756   1.674
   84SOL    HW1 1151   5.992   3.711   1.600
   84SOL    HW2 1152   6.137   3.724   1.674
   85SOL     OW 1153   0.193   2.797   5.772
   85SOL    HW1 1154   0.093   2.795   5.771
   85SOL    HW2 1155   0.224   2.868   5.835
   86SOL     OW 1156   0.973   0.848   5.789
   86SOL    HW1 1157   0.911   0.847   5.868
   86SOL    HW2 1158   1.015   0.939   5.782
   87SOL     OW 1159   4.113   0.853   1.209
   87SOL    HW1 1160   4.177   0.926   1.233
   87SOL    HW2 1161   4.163   0.769   1.188
   88SOL     OW 1162   5.039   0.406   0.872
   88SOL    HW1 1163   5.002   0.364   0.955
   88SOL    HW2 1164   5.048   0.505   0.886
   89SOL     OW 1165   1.607   2.328   5.880
   89SOL    HW1 1166   1.545   2.364   5.811
   89SOL    HW2 1167   1.629   2.400   5.946
   90SOL     OW 1168   6.200   6.531   3.375
   90SOL    HW1 1169   6.138   6.552   3.299
   90SOL    HW2 1170   6.295   6.542   3.345
   91SOL     OW 1171   4.801   4.766   4.700
   91SOL    HW1 1172   4.766   4.675   4.722
   91SOL    HW2 1173   4.794   4.782   4.601
   92SOL     OW 1174   3.033   5.703   1.087
   92SOL    HW1 1175   3.093   5.692   1.007
   92SOL    HW2 1176   2.993   5.795   1.085
   93SOL     OW 1177   3.544   5.269   5.863
   93SOL    HW1 1178   3.559   5.222   5.951
   93SOL    HW2 1179   3.616   5.243   5.799
   94SOL     OW 1180   2.366   6.077   0.655
   94SOL    HW1 1181   2.450   6.024   0.647
   94SOL    HW2 1182   2.347   6.124   0.569
   95SOL     OW 1183   6.665   0.564   4.703
   95SOL    HW1 1184   6.610   0.645   4.724
   95SOL    HW2 1185   6.745   0.561   4.763
   96SOL     OW 1186   1.752   0.383   5.246
   96SOL    HW1 1187   1.706   0.472   5.257
   96SOL    HW2 1188   1.830   0.394   5.186
   97SOL     OW 1189   6.323   3.426   5.423
   97SOL    HW1 1190   6.288   3.336   5.395
   97SOL    HW2 1191   6.402   3.450   5.367
   98SOL     OW 1192   5.903   2.580   6.158
   98SOL    HW1 1193   5.977   2.521   6.127
   98SOL    HW2 1194   5.882   2.559   6.254
   99SOL     OW 1195   4.295   2.044   1.180
   99SOL    HW1 1196   4.212   2.007   1.222
   99SOL    HW2 1197   4.277   2.064   1.083
  100SOL     OW 1198   6.597   5.329   6.099
  100SOL    HW1 1199   6.553   5.298   6.014
  100SOL    HW2 1200   6.639   5.418   6.084
  101SOL     OW 1201   0.905   6.244   3.618
  101SOL    HW1 1202   0.976   6.315   3.619
  101SOL    HW2 1203   0.878   6.224   3.712
  102SOL     OW 1204   5.043   7.015   3.570
  102SOL    HW1 1205   4.969   0.056   3.589
  102SOL    HW2 1206   5.018   6.957   3.492
  103SOL     OW 1207   3.869   1.614   1.021
  103SOL    HW1 1208   3.940   1.685   1.019
  103SOL    HW2 1209   3.784   1.653   1.054
  104SOL     OW 1210   0.280   5.826   1.926
  104SOL    HW1 1211   0.327   5.879   1.997
  104SOL    HW2 1212   0.187   5.804   1.958
  105SOL     OW 1213   4.933   1.266   5.554
  105SOL    HW1 1214   4.960   1.283   5.648
  105SOL    HW2 1215   4.995   1.200   5.512
  106SOL     OW 1216   2.838   6.302   6.960
  106SOL    HW1 1217   2.837   6.299   0.037
  106SOL    HW2 1218   2.750   6.336   6.927
  107SOL     OW 1219   2.387   3.599   1.101
  107SOL    HW1 1220   2.357   3.600   1.196
  107SOL    HW2 1221   2.480   3.637   1.094
  108SOL     OW 1222   4.883   4.575   5.672
  108SOL    HW1 1223   4.917   4.515   5.745
  108SOL    HW2 1224   4.909   4.670   5.693
  109SOL     OW 1225   6.395   1.029   1.175
  109SOL    HW1 1226   6.346   0.962   1.231
  109SOL    HW2 1227   6.482   1.052   1.218
  110SOL     OW 1228   4.299   5.840   5.679
  110SOL    HW1 1229   4.228   5.894   5.723
  110SOL    HW2 1230   4.336   5.891   5.601
  111SOL     OW 1231   3.860   1.048   3.561
  111SOL    HW1 1232   3.864   1.115   3.487
  111SOL    HW2 1233   3.799   0.973   3.536
  112SOL     OW 1234   0.673   0.672   6.285
  112SOL    HW1 1235   0.622   0.756   6.300
  112SOL    HW2 1236   0.762   0.678   6.331
  113SOL     OW 1237   0.333   5.164   3.815
  113SOL    HW1 1238   0.333   5.249   3.762
  113SOL    HW2 1239   0.375   5.091   3.761
  114SOL     OW 1240   0.384   6.780   6.825
  114SOL    HW1 1241   0.483   6.782   6.840
  114SOL    HW2 1242   0.338   6.827   6.901
  115SOL     OW 1243   5.149   1.046   4.927
  115SOL    HW1 1244   5.246   1.058   4.946
  115SOL    HW2 1245   5.119   0.957   4.962
  116SOL     OW 1246   6.046   4.543   2.212
  116SOL    HW1 1247   6.076   4.558   2.306
  116SOL    HW2 1248   6.119   4.573   2.149
  117SOL     OW 1249   1.410   6.969   6.733
  117SOL    HW1 1250   1.397   6.897   6.665
  117SOL    HW2 1251   1.445   0.027   6.689
  118SOL     OW 1252   1.331   0.648   2.414
  118SOL    HW1 1253   1.272   0.584   2.363
  118SOL    HW2 1254   1.372   0.713   2.350
  119SOL     OW 1255   6.860   3.162   6.218
  119SOL    HW1 1256   6.820   3.162   6.310
  119SOL    HW2 1257   6.835   3.248   6.172
  120SOL     OW 1258   5.814   6.457   1.209
  120SOL    HW1 1259   5.718   6.430   1.202
  120SOL    HW2 1260   5.844   6.501   1.125
  121SOL     OW 1261   2.564   3.325   5.859
  121SOL    HW1 1262   2.648   3.374   5.837
  121SOL    HW2 1263   2.586   3.237   5.900
  122SOL     OW 1264   0.445   3.215   4.547
  122SOL    HW1 1265   0.447   3.166   4.634
  122SOL    HW2 1266   0.441   3.314   4.565
  123SOL     OW 1267   0.943   1.799   1.566
  123SOL    HW1 1268   0.935   1.780   1.664
  123SOL    HW2 1269   1.038   1.824   1.545
  124SOL     OW 1270   4.916   3.073   0.896
  124SOL    HW1 1271   4.993   3.026   0.937
  124SOL    HW2 1272   4.847   3.093   0.966
  125SOL     OW 1273   2.119   3.313   1.775
  125SOL    HW1 1274   2.189   3.365   1.823
  125SOL    HW2 1275   2.137   3.215   1.785
  126SOL     OW 1276   3.205   4.853   1.655
  126SOL    HW1 1277   3.132   4.819   1.714
  126SOL    HW2 1278   3.192   4.951   1.639
  127SOL     OW 1279   0.565   6.044   6.089
  127SOL    HW1 1280   0.585   6.083   5.999
  127SOL    HW2 1281   0.497   5.972   6.080
  128SOL     OW 1282   4.389   2.429   1.540
  128SOL    HW1 1283   4.391   2.363   1.464
  128SOL    HW2 1284   4.387   2.522   1.503
  129SOL     OW 1285   2.672   3.782   6.497
  129SOL    HW1 1286   2.653   3.728   6.579
  129SOL    HW2 1287   2.768   3.811   6.498
  130SOL     OW 1288   1.541   2.007   4.661
  130SOL    HW1 1289   1.539   2.102   4.628
  130SOL    HW2 1290   1.453   1.963   4.642
  131SOL     OW 1291   5.142   1.738   2.926
  131SOL    HW1 1292   5.175   1.793   2.849
  131SOL    HW2 1293   5.061   1.687   2.898
  132SOL     OW 1294   0.734   2.239   0.618
  132SOL    HW1 1295   0.783   2.326   0.611
  132SOL    HW2 1296   0.637   2.252   0.597
  133SOL     OW 1297   6.629   5.286   2.359
  133SOL    HW1 1298   6.543   5.292   2.309
  133SOL    HW2 1299   6.630   5.203   2.415
  134SOL     OW 1300   0.399   3.381   2.958
  134SOL    HW1 1301   0.316   3.436   2.957
  134SOL    HW2 1302   0.394   3.315   3.032
  135SOL     OW 1303   4.915   1.371   4.297
  135SOL    HW1 1304   4.880   1.360   4.204
  135SOL    HW2 1305   4.858   1.437   4.346
  136SOL     OW 1306   5.952   4.750   5.216
  136SOL    HW1 1307   6.035   4.717   5.171
  136SOL    HW2 1308   5.875   4.691   5.192
  137SOL     OW 1309   4.173   0.334   5.765
  137SOL    HW1 1310   4.220   0.328   5.677
  137SOL    HW2 1311   4.085   0.379   5.754
  138SOL     OW 1312   6.937   5.155   4.712
  138SOL    HW1 1313   6.874   5.167   4.788
  138SOL    HW2 1314   6.885   5.134   4.629
  139SOL     OW 1315   3.650   5.425   5.445
  139SOL    HW1 1316   3.628   5.507   5.498
  139SOL    HW2 1317   3.714   5.448   5.372
  140SOL     OW 1318   6.069   4.275   4.391
  140SOL    HW1 1319   6.031   4.205   4.451
  140SOL    HW2 1320   6.147   4.238   4.342
  141SOL     OW 1321   1.591   2.038   3.737
  141SOL    HW1 1322   1.499   2.005   3.715
  141SOL    HW2 1323   1.596   2.136   3.717
  142SOL     OW 1324   1.619   5.267   1.457
  142SOL    HW1 1325   1.590   5.225   1.371
  142SOL    HW2 1326   1.605   5.202   1.533
  143SOL     OW 1327   5.592   4.193   1.651
  143SOL    HW1 1328   5.499   4.192   1.688
  143SOL    HW2 1329   5.656   4.222   1.721
  144SOL     OW 1330   2.669   6.760   6.995
  144SOL    HW1 1331   2.699   6.837   0.029
  144SOL    HW2 1332   2.747   6.724   6.945
  145SOL     OW 1333   7.004   5.780   0.718
  145SOL    HW1 1334   7.023   5.738   0.629
  145SOL    HW2 1335   6.906   5.794   0.728
  146SOL     OW 1336   5.890   5.101   0.933
  146SOL    HW1 1337   5.921   5.025   0.990
  146SOL    HW2 1338   5.968   5.161   0.912
  147SOL     OW 1339   6.197   2.097   0.954
  147SOL    HW1 1340   6.116   2.060   0.999
  147SOL    HW2 1341   6.192   2.197   0.953
  148SOL     OW 1342   1.118   5.173   5.446
  148SOL    HW1 1343   1.183   5.244   5.474
  148SOL    HW2 1344   1.050   5.160   5.518
  149SOL     OW 1345   3.100   1.043   5.468
  149SOL    HW1 1346   3.144   0.969   5.520
  149SOL    HW2 1347   3.002   1.024   5.460
  150SOL     OW 1348   7.008   5.276   6.486
  150SOL    HW1 1349   6.922   5.269   6.436
  150SOL    HW2 1350   6.990   5.293   6.582
  151SOL     OW 1351   4.076   1.425   1.501
  151SOL    HW1 1352   3.993   1.377   1.472
  151SOL    HW2 1353   4.126   1.369   1.567
  152SOL     OW 1354   3.532   1.269   4.448
  152SOL    HW1 1355   3.491   1.296   4.360
  152SOL    HW2 1356   3.594   1.193   4.434
  153SOL     OW 1357   2.478   1.091   3.193
  153SOL    HW1 1358   2.550   1.093   3.262
  153SOL    HW2 1359   2.516   1.119   3.105
  154SOL     OW 1360   0.149   2.171   2.694
  154SOL    HW1 1361   0.073   2.108   2.712
  154SOL    HW2 1362   0.221   2.158   2.762
  155SOL     OW 1363   0.296   1.033   3.371
  155SOL    HW1 1364   0.244   0.968   3.315
  155SOL    HW2 1365   0.232   1.093   3.420
  156SOL     OW 1366   6.468   2.022   0.924
  156SOL    HW1 1367   6.465   1.941   0.864
  156SOL    HW2 1368   6.380   2.032   0.970
  157SOL     OW 1369   5.686   3.561   2.622
  157SOL    HW1 1370   5.623   3.521   2.688
  157SOL    HW2 1371   5.635   3.607   2.550
  158SOL     OW 1372   1.563   1.289   3.316
  158SOL    HW1 1373   1.526   1.313   3.226
  158SOL    HW2 1374   1.589   1.372   3.364
  159SOL     OW 1375   5.043   3.842   2.066
  159SOL    HW1 1376   4.947   3.865   2.054
  159SOL    HW2 1377   5.096   3.926   2.079
  160SOL     OW 1378   6.616   4.324   5.822
  160SOL    HW1 1379   6.675   4.255   5.864
  160SOL    HW2 1380   6.523   4.289   5.816
  161SOL     OW 1381   3.130   4.903   4.841
  161SOL    HW1 1382   3.114   4.849   4.923
  161SOL    HW2 1383   3.127   5.001   4.865
  162SOL     OW 1384   4.611   5.936   1.395
  162SOL    HW1 1385   4.642   5.847   1.359
  162SOL    HW2 1386   4.581   5.925   1.490
  163SOL     OW 1387   4.587   0.940   2.205
  163SOL    HW1 1388   4.604   1.039   2.206
  163SOL    HW2 1389   4.583   0.908   2.110
  164SOL     OW 1390   5.753   3.160   1.144
  164SOL    HW1 1391   5.732   3.254   1.170
  164SOL    HW2 1392   5.764   3.105   1.227
  165SOL     OW 1393   5.027   4.024   6.524
  165SOL    HW1 1394   5.002   4.120   6.517
  165SOL    HW2 1395   5.022   3.995   6.619
  166SOL     OW 1396   1.145   0.322   1.796
  166SOL    HW1 1397   1.147   0.420   1.773
  166SOL    HW2 1398   1.062   0.302   1.847
  167SOL     OW 1399   6.581   3.096   0.404
  167SOL    HW1 1400   6.627   3.085   0.316
  167SOL    HW2 1401   6.498   3.041   0.405
  168SOL     OW 1402   2.196   5.643   1.042
  168SOL    HW1 1403   2.214   5.721   0.983
  168SOL    HW2 1404   2.162   5.674   1.131
  169SOL     OW 1405   1.741   6.584   1.666
  169SOL    HW1 1406   1.745   6.569   1.765
  169SOL    HW2 1407   1.806   6.655   1.640
  170SOL     OW 1408   0.310   1.777   3.311
  170SOL    HW1 1409   0.223   1.754   3.354
  170SOL    HW2 1410   0.336   1.871   3.334
  171SOL     OW 1411   3.451   3.414   6.806
  171SOL    HW1 1412   3.498   3.345   6.861
  171SOL    HW2 1413   3.511   3.492   6.792
  172SOL     OW 1414   0.457   2.928   6.364
  172SOL    HW1 1415   0.435   2.875   6.282
  172SOL    HW2 1416   0.458   3.025   6.341
  173SOL     OW 1417   0.529   6.054   5.797
  173SOL    HW1 1418   0.577   6.061   5.710
  173SOL    HW2 1419   0.447   6.112   5.795
  174SOL     OW 1420   2.734   5.056   3.612
  174SOL    HW1 1421   2.737   5.114   3.693
  174SOL    HW2 1422   2.639   5.040   3.586
  175SOL     OW 1423   1.024   5.649   2.718
  175SOL    HW1 1424   0.977   5.571   2.677
  175SOL    HW2 1425   0.959   5.722   2.736
  176SOL     OW 1426   2.425   5.136   0.956
  176SOL    HW1 1427   2.443   5.135   1.055
  176SOL    HW2 1428   2.334   5.099   0.939
  177SOL     OW 1429   4.753   1.801   2.421
  177SOL    HW1 1430   4.783   1.749   2.341
  177SOL    HW2 1431   4.832   1.827   2.476
  178SOL     OW 1432   5.845   4.925   6.440
  178SOL    HW1 1433   5.770   4.873   6.482
  178SOL    HW2 1434   5.930   4.907   6.490
  179SOL     OW 1435   2.634   0.052   0.638
  179SOL    HW1 1436   2.591   0.140   0.656
  179SOL    HW2 1437   2.566   7.003   0.645
  180SOL     OW 1438   0.995   2.237   6.808
  180SOL    HW1 1439   1.071   2.299   6.824
  180SOL    HW2 1440   0.937   2.234   6.889
  181SOL     OW 1441   3.192   2.781   5.230
  181SOL    HW1 1442   3.251   2.801   5.152
  181SOL    HW2 1443   3.096   2.793   5.203
  182SOL     OW 1444   4.397   2.366   4.904
  182SOL    HW1 1445   4.440   2.295   4.960
  182SOL    HW2 1446   4.303   2.381   4.936
  183SOL     OW 1447   5.195   1.482   2.111
  183SOL    HW1 1448   5.096   1.473   2.103
  183SOL    HW2 1449   5.239   1.398   2.078
  184SOL     OW 1450   0.561   4.565   2.797
  184SOL    HW1 1451   0.529   4.659   2.807
  184SOL    HW2 1452   0.485   4.502   2.813
  185SOL     OW 1453   2.101   4.030   6.352
  185SOL    HW1 1454   2.066   4.064   6.264
  185SOL    HW2 1455   2.128   3.935   6.342
  186SOL     OW 1456   5.943   6.896   3.116
  186SOL    HW1 1457   5.911   6.875   3.209
  186SOL    HW2 1458   6.007   6.973   3.121
  187SOL     OW 1459   5.494   0.985   3.673
  187SOL    HW1 1460   5.544   0.969   3.588
  187SOL    HW2 1461   5.559   1.007   3.746
  188SOL     OW 1462   6.430   2.285   3.900
  188SOL    HW1 1463   6.373   2.218   3.853
  188SOL    HW2 1464   6.448   2.254   3.993
  189SOL     OW 1465   2.406   4.382   2.841
  189SOL    HW1 1466   2.427   4.381   2.743
  189SOL    HW2 1467   2.417   4.290   2.878
  190SOL     OW 1468   3.514   1.105   5.579
  190SOL    HW1 1469   3.543   1.197   5.607
  190SOL    HW2 1470   3.455   1.111   5.498
  191SOL     OW 1471   4.695   5.949   6.374
  191SOL    HW1 1472   4.787   5.922   6.403
  191SOL    HW2 1473   4.683   5.927   6.277
  192SOL     OW 1474   6.616   0.364   1.335
  192SOL    HW1 1475   6.593   0.435   1.402
  192SOL    HW2 1476   6.692   0.395   1.277
  193SOL     OW 1477   5.529   4.485   6.805
  193SOL    HW1 1478   5.621   4.459   6.778
  193SOL    HW2 1479   5.497   4.425   6.879
  194SOL     OW 1480   3.789   0.492   3.815
  194SOL    HW1 1481   3.694   0.478   3.843
  194SOL    HW2 1482   3.812   0.429   3.741
  195SOL     OW 1483   0.279   5.855   3.547
  195SOL    HW1 1484   0.376   5.859   3.520
  195SOL    HW2 1485   0.224   5.904   3.480
  196SOL     OW 1486   0.738   1.534   0.682
  196SOL    HW1 1487   0.699   1.496   0.766
  196SOL    HW2 1488   0.791   1.616   0.704
  197SOL     OW 1489   1.713   1.009   0.961
  197SOL    HW1 1490   1.682   0.944   1.030
  197SOL    HW2 1491   1.705   1.102   0.997
  198SOL     OW 1492   3.123   1.768   3.739
  198SOL    HW1 1493   3.161   1.789   3.829
  198SOL    HW2 1494   3.197   1.739   3.678
  199SOL     OW 1495   0.980   2.412   4.197
  199SOL    HW1 1496   0.890   2.369   4.203
  199SOL    HW2 1497   0.992   2.450   4.105
  200SOL     OW 1498   6.800   2.701   0.129
  200SOL    HW1 1499   6.882   2.657   0.165
  200SOL    HW2 1500   6.774   2.658   0.042
  201SOL     OW 1501   0.909   0.968   6.555
  201SOL    HW1 1502   0.940   0.983   6.649
  201SOL    HW2 1503   0.824   1.018   6.540
  202SOL     OW 1504   4.213   6.693   0.716
  202SOL    HW1 1505   4.302   6.733   0.693
  202SOL    HW2 1506   4.140   6.757   0.691
  203SOL     OW 1507   6.104   3.083   6.177
  203SOL    HW1 1508   6.194   3.097   6.137
  203SOL    HW2 1509   6.041   3.048   6.107
  204SOL     OW 1510   6.411   1.196   5.461
  204SOL    HW1 1511   6.429   1.101   5.434
  204SOL    HW2 1512   6.482   1.227   5.524
  205SOL     OW 1513   1.580   3.262   2.820
  205SOL    HW1 1514   1.671   3.302   2.830
  205SOL    HW2 1515   1.537   3.297   2.736
  206SOL     OW 1516   0.653   3.615   0.324
  206SOL    HW1 1517   0.704   3.696   0.353
  206SOL    HW2 1518   0.573   3.602   0.383
  207SOL     OW 1519   5.818   2.612   4.571
  207SOL    HW1 1520   5.731   2.619   4.522
  207SOL    HW2 1521   5.809   2.651   4.662
  208SOL     OW 1522   1.299   4.013   4.486
  208SOL    HW1 1523   1.234   4.039   4.557
  208SOL    HW2 1524   1.271   4.055   4.399
  209SOL     OW 1525   6.495   4.425   2.978
  209SOL    HW1 1526   6.424   4.496   2.976
  209SOL    HW2 1527   6.462   4.347   3.030
  210SOL     OW 1528   4.570   3.106   0.398
  210SOL    HW1 1529   4.636   3.034   0.418
  210SOL    HW2 1530   4.491   3.095   0.457
  211SOL     OW 1531   7.010   1.423   2.909
  211SOL    HW1 1532   6.913   1.405   2.928
  211SOL    HW2 1533   0.029   1.463   2.990
  212SOL     OW 1534   2.109   3.740   2.411
  212SOL    HW1 1535   2.068   3.692   2.334
  212SOL    HW2 1536   2.181   3.683   2.451
  213SOL     OW 1537   1.346   5.408   1.453
  213SOL    HW1 1538   1.413   5.356   1.400
  213SOL    HW2 1539   1.323   5.493   1.405
  214SOL     OW 1540   5.027   6.178   1.727
  214SOL    HW1 1541   5.011   6.269   1.765
  214SOL    HW2 1542   5.073   6.186   1.638
  215SOL     OW 1543   2.703   5.293   3.305
  215SOL    HW1 1544   2.762   5.212   3.298
  215SOL    HW2 1545   2.744   5.357   3.370
  216SOL     OW 1546   0.985   6.894   2.481
  216SOL    HW1 1547   0.935   6.878   2.396
  216SOL    HW2 1548   0.922   6.889   2.558
  217SOL     OW 1549   1.706   4.516   6.027
  217SOL    HW1 1550   1.770   4.523   5.951
  217SOL    HW2 1551   1.627   4.576   6.011
  218SOL     OW 1552   1.530   1.688   5.125
  218SOL    HW1 1553   1.597   1.756   5.098
  218SOL    HW2 1554   1.539   1.667   5.222
  219SOL     OW 1555   4.185   1.966   0.892
  219SOL    HW1 1556   4.147   1.906   0.962
  219SOL    HW2 1557   4.281   1.941   0.875
  220SOL     OW 1558   2.855   6.904   0.698
  220SOL    HW1 1559   2.784   6.972   0.675
  220SOL    HW2 1560   2.839   6.820   0.645
  221SOL     OW 1561   5.524   4.966   2.052
  221SOL    HW1 1562   5.522   5.012   1.963
  221SOL    HW2 1563   5.533   4.868   2.039
  222SOL     OW 1564   2.221   5.129   6.622
  222SOL    HW1 1565   2.163   5.104   6.544
  222SOL    HW2 1566   2.209   5.226   6.643
  223SOL     OW 1567   5.950   2.928   5.070
  223SOL    HW1 1568   5.921   2.837   5.040
  223SOL    HW2 1569   6.047   2.939   5.053
  224SOL     OW 1570   2.447   1.251   6.371
  224SOL    HW1 1571   2.509   1.275   6.445
  224SOL    HW2 1572   2.491   1.185   6.311
  225SOL     OW 1573   4.194   6.113   5.913
  225SOL    HW1 1574   4.229   6.186   5.855
  225SOL    HW2 1575   4.111   6.075   5.873
  226SOL     OW 1576   1.025   2.474   0.048
  226SOL    HW1 1577   0.939   2.491   7.024
  226SOL    HW2 1578   1.099   2.464   7.006
  227SOL     OW 1579   1.624   3.841   1.575
  227SOL    HW1 1580   1.539   3.890   1.555
  227SOL    HW2 1581   1.645   3.778   1.500
  228SOL     OW 1582   1.441   0.322   2.385
  228SOL    HW1 1583   1.343   0.340   2.389
  228SOL    HW2 1584   1.486   0.361   2.466
  229SOL     OW 1585   4.281   6.251   6.119
  229SOL    HW1 1586   4.203   6.274   6.177
  229SOL    HW2 1587   4.249   6.203   6.037
  230SOL     OW 1588   5.318   5.730   5.360
  230SOL    HW1 1589   5.372   5.803   5.404
  230SOL    HW2 1590   5.238   5.770   5.316
  231SOL     OW 1591   5.010   1.713   6.723
  231SOL    HW1 1592   5.017   1.625   6.676
  231SOL    HW2 1593   5.077   1.716   6.797
  232SOL     OW 1594   1.407   1.759   5.747
  232SOL    HW1 1595   1.489   1.801   5.709
  232SOL    HW2 1596   1.419   1.745   5.846
  233SOL     OW 1597   3.333   1.775   3.140
  233SOL    HW1 1598   3.316   1.870   3.111
  233SOL    HW2 1599   3.316   1.714   3.063
  234SOL     OW 1600   4.346   1.009   0.111
  234SOL    HW1 1601   4.441   0.999   0.079
  234SOL    HW2 1602   4.285   0.959   0.049
  235SOL     OW 1603   4.860   3.156   3.366
  235SOL    HW1 1604   4.957   3.133   3.367
  235SOL    HW2 1605   4.806   3.072   3.376
  236SOL     OW 1606   4.524   5.042   6.117
  236SOL    HW1 1607   4.510   5.125   6.064
  236SOL    HW2 1608   4.549   5.066   6.211
  237SOL     OW 1609   6.301   3.265   2.651
  237SOL    HW1 1610   6.211   3.232   2.681
  237SOL    HW2 1611   6.299   3.282   2.553
  238SOL     OW 1612   6.473   1.724   0.687
  238SOL    HW1 1613   6.384   1.726   0.732
  238SOL    HW2 1614   6.461   1.737   0.589
  239SOL     OW 1615   1.412   3.496   0.487
  239SOL    HW1 1616   1.343   3.443   0.437
  239SOL    HW2 1617   1.451   3.439   0.560
  240SOL     OW 1618   5.509   3.279   3.345
  240SOL    HW1 1619   5.555   3.257   3.432
  240SOL    HW2 1620   5.517   3.377   3.328
  241SOL     OW 1621   3.238   1.715   4.020
  241SOL    HW1 1622   3.257   1.762   4.105
  241SOL    HW2 1623   3.320   1.668   3.987
  242SOL     OW 1624   3.405   3.637   2.830
  242SOL    HW1 1625   3.398   3.731   2.863
  242SOL    HW2 1626   3.470   3.587   2.888
  243SOL     OW 1627   4.150   2.585   6.036
  243SOL    HW1 1628   4.068   2.530   6.021
  243SOL    HW2 1629   4.216   2.568   5.962
  244SOL     OW 1630   4.940   3.498   5.265
  244SOL    HW1 1631   4.962   3.547   5.349
  244SOL    HW2 1632   4.860   3.541   5.222
  245SOL     OW 1633   3.987   1.650   3.027
  245SOL    HW1 1634   3.919   1.710   2.987
  245SOL    HW2 1635   4.051   1.618   2.956
  246SOL     OW 1636   6.639   1.784   2.203
  246SOL    HW1 1637   6.598   1.758   2.290
  246SOL    HW2 1638   6.606   1.874   2.176
  247SOL     OW 1639   1.595   1.102   1.436
  247SOL    HW1 1640   1.554   1.066   1.520
  247SOL    HW2 1641   1.626   1.195   1.451
  248SOL     OW 1642   1.728   2.479   2.045
  248SOL    HW1 1643   1.660   2.452   1.977
  248SOL    HW2 1644   1.789   2.402   2.064
  249SOL     OW 1645   5.025   5.615   5.258
  249SOL    HW1 1646   5.006   5.563   5.342
  249SOL    HW2 1647   5.040   5.711   5.281
  250SOL     OW 1648   4.246   2.670   0.858
  250SOL    HW1 1649   4.272   2.628   0.945
  250SOL    HW2 1650   4.234   2.768   0.870
  251SOL     OW 1651   4.007   4.146   5.784
  251SOL    HW1 1652   4.091   4.165   5.733
  251SOL    HW2 1653   3.931   4.197   5.742
  252SOL     OW 1654   6.628   6.425   5.303
  252SOL    HW1 1655   6.608   6.392   5.396
  252SOL    HW2 1656   6.588   6.362   5.236
  253SOL     OW 1657   3.581   6.321   6.549
  253SOL    HW1 1658   3.494   6.368   6.539
  253SOL    HW2 1659   3.589   6.250   6.479
  254SOL     OW 1660   5.584   2.489   4.908
  254SOL    HW1 1661   5.632   2.424   4.966
  254SOL    HW2 1662   5.493   2.507   4.946
  255SOL     OW 1663   1.530   4.094   5.987
  255SOL    HW1 1664   1.538   4.015   5.926
  255SOL    HW2 1665   1.492   4.063   6.075
  256SOL     OW 1666   5.131   2.370   4.947
  256SOL    HW1 1667   5.183   2.431   5.007
  256SOL    HW2 1668   5.183   2.355   4.862
  257SOL     OW 1669   4.896   0.003   2.743
  257SOL    HW1 1670   4.820   0.067   2.729
  257SOL    HW2 1671   4.982   0.054   2.750
  258SOL     OW 1672   1.726   2.874   5.436
  258SOL    HW1 1673   1.651   2.838   5.492
  258SOL    HW2 1674   1.808   2.819   5.450
  259SOL     OW 1675   3.597   0.279   4.042
  259SOL    HW1 1676   3.609   0.243   4.135
  259SOL    HW2 1677   3.651   0.223   3.979
  260SOL     OW 1678   3.751   5.541   3.710
  260SOL    HW1 1679   3.836   5.557   3.661
  260SOL    HW2 1680   3.673   5.555   3.649
  261SOL     OW 1681   3.980   4.909   0.397
  261SOL    HW1 1682   4.020   4.987   0.446
  261SOL    HW2 1683   4.006   4.913   0.301
  262SOL     OW 1684   1.774   4.002   6.336
  262SOL    HW1 1685   1.794   4.100   6.343
  262SOL    HW2 1686   1.676   3.990   6.317
  263SOL     OW 1687   1.102   6.236   3.995
  263SOL    HW1 1688   1.168   6.224   3.920
  263SOL    HW2 1689   1.133   6.186   4.075
  264SOL     OW 1690   6.767   3.568   6.725
  264SOL    HW1 1691   6.678   3.608   6.704
  264SOL    HW2 1692   6.786   3.578   6.823
  265SOL     OW 1693   6.530   6.871   4.085
  265SOL    HW1 1694   6.605   6.818   4.125
  265SOL    HW2 1695   6.514   6.840   3.991
  266SOL     OW 1696   3.721   0.779   5.557
  266SOL    HW1 1697   3.660   0.808   5.631
  266SOL    HW2 1698   3.807   0.747   5.596
  267SOL     OW 1699   1.825   1.038   4.267
  267SOL    HW1 1700   1.836   0.943   4.239
  267SOL    HW2 1701   1.747   1.078   4.219
  268SOL     OW 1702   3.246   1.728   1.190
  268SOL    HW1 1703   3.220   1.815   1.147
  268SOL    HW2 1704   3.214   1.727   1.285
  269SOL     OW 1705   4.471   1.817   0.177
  269SOL    HW1 1706   4.537   1.890   0.196
  269SOL    HW2 1707   4.500   1.767   0.096
  270SOL     OW 1708   5.646   0.135   0.266
  270SOL    HW1 1709   5.687   0.215   0.309
  270SOL    HW2 1710   5.575   0.164   0.202
  271SOL     OW 1711   1.217   3.416   6.343
  271SOL    HW1 1712   1.206   3.317   6.336
  271SOL    HW2 1713   1.245   3.440   6.436
  272SOL     OW 1714   3.032   6.530   4.076
  272SOL    HW1 1715   3.081   6.600   4.024
  272SOL    HW2 1716   2.934   6.551   4.075
  273SOL     OW 1717   1.722   4.940   6.409
  273SOL    HW1 1718   1.769   4.865   6.362
  273SOL    HW2 1719   1.681   4.907   6.493
  274SOL     OW 1720   4.871   1.872   3.626
  274SOL    HW1 1721   4.908   1.896   3.536
  274SOL    HW2 1722   4.771   1.882   3.625
  275SOL     OW 1723   6.575   6.305   2.143
  275SOL    HW1 1724   6.509   6.365   2.188
  275SOL    HW2 1725   6.530   6.222   2.113
  276SOL     OW 1726   0.582   1.333   4.688
  276SOL    HW1 1727   0.518   1.407   4.709
  276SOL    HW2 1728   0.640   1.316   4.768
  277SOL     OW 1729   1.714   3.997   1.285
  277SOL    HW1 1730   1.784   4.012   1.216
  277SOL    HW2 1731   1.743   4.036   1.372
  278SOL     OW 1732   0.138   2.763   2.230
  278SOL    HW1 1733   0.159   2.667   2.249
  278SOL    HW2 1734   0.180   2.790   2.143
  279SOL     OW 1735   6.039   1.902   4.104
  279SOL    HW1 1736   6.129   1.945   4.109
  279SOL    HW2 1737   5.987   1.940   4.027
  280SOL     OW 1738   1.992   4.252   2.034
  280SOL    HW1 1739   2.038   4.168   2.062
  280SOL    HW2 1740   1.954   4.298   2.113
  281SOL     OW 1741   2.324   4.541   1.346
  281SOL    HW1 1742   2.251   4.596   1.386
  281SOL    HW2 1743   2.371   4.490   1.419
  282SOL     OW 1744   2.981   2.256   5.940
  282SOL    HW1 1745   2.972   2.295   6.031
  282SOL    HW2 1746   3.037   2.316   5.883
  283SOL     OW 1747   4.374   2.596   5.871
  283SOL    HW1 1748   4.360   2.584   5.773
  283SOL    HW2 1749   4.418   2.514   5.909
  284SOL     OW 1750   1.318   3.515   4.067
  284SOL    HW1 1751   1.232   3.505   4.117
  284SOL    HW2 1752   1.314   3.462   3.983
  285SOL     OW 1753   5.611   4.769   4.619
  285SOL    HW1 1754   5.539   4.759   4.550
  285SOL    HW2 1755   5.600   4.698   4.688
  286SOL     OW 1756   2.975   3.572   6.654
  286SOL    HW1 1757   2.977   3.565   6.754
  286SOL    HW2 1758   2.964   3.668   6.628
  287SOL     OW 1759   1.861   3.514   0.298
  287SOL    HW1 1760   1.883   3.601   0.254
  287SOL    HW2 1761   1.856   3.527   0.397
  288SOL     OW 1762   4.965   3.046   0.118
  288SOL    HW1 1763   4.995   3.141   0.123
  288SOL    HW2 1764   4.891   3.037   0.052
  289SOL     OW 1765   3.016   4.829   6.345
  289SOL    HW1 1766   2.965   4.786   6.420
  289SOL    HW2 1767   3.055   4.758   6.286
  290SOL     OW 1768   0.572   1.369   5.056
  290SOL    HW1 1769   0.657   1.413   5.029
  290SOL    HW2 1770   0.495   1.419   5.015
  291SOL     OW 1771   0.153   2.520   2.815
  291SOL    HW1 1772   0.196   2.599   2.859
  291SOL    HW2 1773   0.055   2.520   2.834
  292SOL     OW 1774   2.325   6.940   4.215
  292SOL    HW1 1775   2.303   6.847   4.186
  292SOL    HW2 1776   2.240   6.992   4.230
  293SOL     OW 1777   3.692   4.870   3.472
  293SOL    HW1 1778   3.792   4.873   3.461
  293SOL    HW2 1779   3.649   4.866   3.382
  294SOL     OW 1780   4.698   0.024   6.690
  294SOL    HW1 1781   4.648   6.963   6.671
  294SOL    HW2 1782   4.650   0.101   6.649
  295SOL     OW 1783   5.242   6.926   3.865
  295SOL    HW1 1784   5.273   6.873   3.944
  295SOL    HW2 1785   5.254   6.872   3.781
  296SOL     OW 1786   2.305   1.526   3.362
  296SOL    HW1 1787   2.238   1.578   3.309
  296SOL    HW2 1788   2.291   1.428   3.346
  297SOL     OW 1789   2.036   4.405   3.266
  297SOL    HW1 1790   2.078   4.314   3.259
  297SOL    HW2 1791   2.016   4.425   3.362
  298SOL     OW 1792   6.047   5.369   0.327
  298SOL    HW1 1793   6.120   5.334   0.267
  298SOL    HW2 1794   6.074   5.356   0.422
  299SOL     OW 1795   6.294   2.505   4.310
  299SOL    HW1 1796   6.266   2.600   4.313
  299SOL    HW2 1797   6.391   2.499   4.285
  300SOL     OW 1798   6.390   0.174   2.152
  300SOL    HW1 1799   6.326   0.237   2.196
  300SOL    HW2 1800   6.339   0.109   2.095
  301SOL     OW 1801   5.137   3.620   6.083
  301SOL    HW1 1802   5.130   3.720   6.088
  301SOL    HW2 1803   5.098   3.580   6.166
  302SOL     OW 1804   1.210   6.993   3.665
  302SOL    HW1 1805   1.166   6.972   3.578
  302SOL    HW2 1806   1.310   6.992   3.653
  303SOL     OW 1807   6.103   6.586   3.090
  303SOL    HW1 1808   6.104   6.494   3.051
  303SOL    HW2 1809   6.008   6.616   3.101
  304SOL     OW 1810   3.219   6.865   3.194
  304SOL    HW1 1811   3.257   6.910   3.113
  304SOL    HW2 1812   3.292   6.851   3.261
  305SOL     OW 1813   1.256   3.815   2.078
  305SOL    HW1 1814   1.237   3.732   2.131
  305SOL    HW2 1815   1.289   3.887   2.140
  306SOL     OW 1816   2.712   0.390   3.203
  306SOL    HW1 1817   2.786   0.454   3.182
  306SOL    HW2 1818   2.627   0.423   3.163
  307SOL     OW 1819   3.547   0.074   1.143
  307SOL    HW1 1820   3.481   0.147   1.161
  307SOL    HW2 1821   3.633   0.095   1.190
  308SOL     OW 1822   0.672   4.892   4.575
  308SOL    HW1 1823   0.650   4.948   4.655
  308SOL    HW2 1824   0.731   4.817   4.602
  309SOL     OW 1825   3.956   5.099   5.392
  309SOL    HW1 1826   3.946   5.197   5.376
  309SOL    HW2 1827   4.053   5.076   5.401
  310SOL     OW 1828   0.913   6.697   6.191
  310SOL    HW1 1829   0.895   6.791   6.218
  310SOL    HW2 1830   1.011   6.680   6.193
  311SOL     OW 1831   0.593   0.126   1.478
  311SOL    HW1 1832   0.652   0.045   1.485
  311SOL    HW2 1833   0.510   0.111   1.533
  312SOL     OW 1834   3.789   1.871   4.478
  312SOL    HW1 1835   3.782   1.860   4.379
  312SOL    HW2 1836   3.827   1.787   4.518
  313SOL     OW 1837   0.240   4.754   1.317
  313SOL    HW1 1838   0.292   4.708   1.389
  313SOL    HW2 1839   0.220   4.688   1.244
  314SOL     OW 1840   3.005   6.260   1.191
  314SOL    HW1 1841   3.082   6.247   1.128
  314SOL    HW2 1842   2.978   6.356   1.191
  315SOL     OW 1843   0.893   3.179   2.893
  315SOL    HW1 1844   0.854   3.218   2.976
  315SOL    HW2 1845   0.861   3.230   2.814
  316SOL     OW 1846   2.145   3.074   4.246
  316SOL    HW1 1847   2.183   2.988   4.279
  316SOL    HW2 1848   2.047   3.077   4.265
  317SOL     OW 1849   6.490   1.517   0.155
  317SOL    HW1 1850   6.429   1.591   0.126
  317SOL    HW2 1851   6.461   1.431   0.112
  318SOL     OW 1852   2.212   4.924   1.229
  318SOL    HW1 1853   2.300   4.949   1.270
  318SOL    HW2 1854   2.199   4.975   1.144
  319SOL     OW 1855   1.438   0.366   0.288
  319SOL    HW1 1856   1.529   0.373   0.329
  319SOL    HW2 1857   1.389   0.452   0.303
  320SOL     OW 1858   5.176   3.742   0.701
  320SOL    HW1 1859   5.129   3.753   0.613
  320SOL    HW2 1860   5.274   3.726   0.684
  321SOL     OW 1861   1.902   1.704   1.250
  321SOL    HW1 1862   1.854   1.786   1.219
  321SOL    HW2 1863   1.865   1.623   1.205
  322SOL     OW 1864   3.189   2.997   4.929
  322SOL    HW1 1865   3.124   2.999   4.854
  322SOL    HW2 1866   3.190   3.085   4.976
  323SOL     OW 1867   0.468   3.983   2.092
  323SOL    HW1 1868   0.554   4.009   2.138
  323SOL    HW2 1869   0.391   4.005   2.151
  324SOL     OW 1870   0.643   3.201   4.339
  324SOL    HW1 1871   0.596   3.215   4.426
  324SOL    HW2 1872   0.732   3.246   4.342
  325SOL     OW 1873   2.383   2.565   3.306
  325SOL    HW1 1874   2.342   2.502   3.240
  325SOL    HW2 1875   2.310   2.612   3.357
  326SOL     OW 1876   2.445   4.541   5.710
  326SOL    HW1 1877   2.502   4.622   5.698
  326SOL    HW2 1878   2.352   4.561   5.679
  327SOL     OW 1879   6.593   5.216   5.586
  327SOL    HW1 1880   6.543   5.238   5.503
  327SOL    HW2 1881   6.692   5.223   5.569
  328SOL     OW 1882   2.936   5.631   1.904
  328SOL    HW1 1883   3.013   5.585   1.948
  328SOL    HW2 1884   2.853   5.616   1.959
  329SOL     OW 1885   3.180   3.190   2.358
  329SOL    HW1 1886   3.082   3.192   2.376
  329SOL    HW2 1887   3.212   3.283   2.336
  330SOL     OW 1888   3.561   1.149   1.884
  330SOL    HW1 1889   3.557   1.193   1.795
  330SOL    HW2 1890   3.506   1.200   1.950
  331SOL     OW 1891   5.891   5.080   5.985
  331SOL    HW1 1892   5.945   5.042   5.910
  331SOL    HW2 1893   5.796   5.090   5.956
  332SOL     OW 1894   4.460   1.881   3.162
  332SOL    HW1 1895   4.459   1.924   3.072
  332SOL    HW2 1896   4.545   1.829   3.174
  333SOL     OW 1897   4.114   6.428   0.186
  333SOL    HW1 1898   4.182   6.490   0.226
  333SOL    HW2 1899   4.161   6.356   0.134
  334SOL     OW 1900   4.548   6.678   2.801
  334SOL    HW1 1901   4.593   6.704   2.716
  334SOL    HW2 1902   4.572   6.584   2.825
  335SOL     OW 1903   3.574   6.622   3.036
  335SOL    HW1 1904   3.661   6.671   3.034
  335SOL    HW2 1905   3.541   6.616   3.130
  336SOL     OW 1906   3.073   0.518   5.103
  336SOL    HW1 1907   3.077   0.511   5.003
  336SOL    HW2 1908   3.165   0.509   5.140
  337SOL     OW 1909   0.525   4.185   1.241
  337SOL    HW1 1910   0.609   4.225   1.205
  337SOL    HW2 1911   0.465   4.160   1.166
  338SOL     OW 1912   2.765   2.326   1.680
  338SOL    HW1 1913   2.846   2.344   1.735
  338SOL    HW2 1914   2.722   2.412   1.653
  339SOL     OW 1915   4.233   0.680   3.082
  339SOL    HW1 1916   4.255   0.639   2.994
  339SOL    HW2 1917   4.313   0.726   3.119
  340SOL     OW 1918   4.897   3.696   4.507
  340SOL    HW1 1919   4.882   3.598   4.521
  340SOL    HW2 1920   4.810   3.742   4.495
  341SOL     OW 1921   5.190   4.950   5.208
  341SOL    HW1 1922   5.282   4.972   5.241
  341SOL    HW2 1923   5.142   5.034   5.184
  342SOL     OW 1924   5.350   3.576   0.453
  342SOL    HW1 1925   5.386   3.618   0.536
  342SOL    HW2 1926   5.365   3.478   0.456
  343SOL     OW 1927   2.692   0.804   2.990
  343SOL    HW1 1928   2.684   0.720   2.936
  343SOL    HW2 1929   2.606   0.821   3.039
  344SOL     OW 1930   3.426   5.124   6.946
  344SOL    HW1 1931   3.516   5.162   6.928
  344SOL    HW2 1932   3.427   5.025   6.929
  345SOL     OW 1933   0.958   6.710   5.875
  345SOL    HW1 1934   0.899   6.688   5.953
  345SOL    HW2 1935   0.901   6.735   5.797
  346SOL     OW 1936   2.983   0.371   4.332
  346SOL    HW1 1937   3.036   0.447   4.371
  346SOL    HW2 1938   2.950   0.397   4.241
  347SOL     OW 1939   4.776   6.267   6.018
  347SOL    HW1 1940   4.704   6.201   5.996
  347SOL    HW2 1941   4.746   6.325   6.093
  348SOL     OW 1942   2.997   5.774   2.556
  348SOL    HW1 1943   2.914   5.794   2.607
  348SOL    HW2 1944   3.009   5.674   2.551
  349SOL     OW 1945   2.212   4.994   1.836
  349SOL    HW1 1946   2.218   4.901   1.802
  349SOL    HW2 1947   2.117   5.026   1.829
  350SOL     OW 1948   4.254   2.888   1.151
  350SOL    HW1 1949   4.174   2.849   1.105
  350SOL    HW2 1950   4.233   2.981   1.181
  351SOL     OW 1951   3.266   1.981   0.471
  351SOL    HW1 1952   3.302   2.072   0.488
  351SOL    HW2 1953   3.252   1.934   0.558
  352SOL     OW 1954   4.053   1.420   6.245
  352SOL    HW1 1955   4.084   1.325   6.254
  352SOL    HW2 1956   4.099   1.462   6.167
  353SOL     OW 1957   1.926   0.204   1.302
  353SOL    HW1 1958   1.931   0.187   1.203
  353SOL    HW2 1959   1.931   0.302   1.319
  354SOL     OW 1960   4.897   1.475   2.078
  354SOL    HW1 1961   4.845   1.518   2.004
  354SOL    HW2 1962   4.866   1.381   2.091
  355SOL     OW 1963   1.675   1.513   1.694
  355SOL    HW1 1964   1.669   1.414   1.700
  355SOL    HW2 1965   1.604   1.555   1.751
  356SOL     OW 1966   3.881   6.108   2.774
  356SOL    HW1 1967   3.894   6.126   2.676
  356SOL    HW2 1968   3.970   6.087   2.815
  357SOL     OW 1969   1.859   4.570   5.795
  357SOL    HW1 1970   1.928   4.596   5.863
  357SOL    HW2 1971   1.881   4.612   5.707
  358SOL     OW 1972   5.342   1.530   2.333
  358SOL    HW1 1973   5.303   1.507   2.244
  358SOL    HW2 1974   5.382   1.622   2.330
  359SOL     OW 1975   1.521   2.199   1.261
  359SOL    HW1 1976   1.570   2.150   1.188
  359SOL    HW2 1977   1.534   2.151   1.348
  360SOL     OW 1978   4.282   6.230   1.081
  360SOL    HW1 1979   4.360   6.203   1.137
  360SOL    HW2 1980   4.245   6.317   1.115
  361SOL     OW 1981   3.780   0.483   3.210
  361SOL    HW1 1982   3.858   0.493   3.273
  361SOL    HW2 1983   3.740   0.573   3.191
  362SOL     OW 1984   2.998   3.657   0.774
  362SOL    HW1 1985   3.000   3.752   0.803
  362SOL    HW2 1986   3.053   3.646   0.691
  363SOL     OW 1987   4.315   4.761   3.952
  363SOL    HW1 1988   4.308   4.734   4.048
  363SOL    HW2 1989   4.232   4.811   3.925
  364SOL     OW 1990   1.596   6.157   5.852
  364SOL    HW1 1991   1.599   6.252   5.882
  364SOL    HW2 1992   1.605   6.153   5.753
  365SOL     OW 1993   4.985   6.768   2.822
  365SOL    HW1 1994   4.992   6.747   2.725
  365SOL    HW2 1995   4.960   6.864   2.834
  366SOL     OW 1996   4.953   6.847   0.523
  366SOL    HW1 1997   4.956   6.754   0.561
  366SOL    HW2 1998   5.028   6.859   0.459
  367SOL     OW 1999   4.778   1.828   1.436
  367SOL    HW1 2000   4.854   1.874   1.391
  367SOL    HW2 2001   4.753   1.877   1.519
  368SOL     OW 2002   1.828   5.098   5.647
  368SOL    HW1 2003   1.892   5.131   5.716
  368SOL    HW2 2004   1.878   5.074   5.564
  369SOL     OW 2005   0.280   3.580   1.374
  369SOL    HW1 2006   0.276   3.486   1.339
  369SOL    HW2 2007   0.293   3.577   1.473
  370SOL     OW 2008   3.636   1.438   6.379
  370SOL    HW1 2009   3.707   1.463   6.313
  370SOL    HW2 2010   3.608   1.519   6.430
  371SOL     OW 2011   4.240   2.845   6.120
  371SOL    HW1 2012   4.191   2.854   6.207
  371SOL    HW2 2013   4.188   2.785   6.059
  372SOL     OW 2014   1.433   5.326   6.886
  372SOL    HW1 2015   1.369   5.293   6.955
  372SOL    HW2 2016   1.527   5.306   6.915
  373SOL     OW 2017   6.874   6.772   0.820
  373SOL    HW1 2018   6.821   6.838   0.874
  373SOL    HW2 2019   6.924   6.711   0.881
  374SOL     OW 2020   3.864   0.941   1.138
  374SOL    HW1 2021   3.835   0.903   1.050
  374SOL    HW2 2022   3.960   0.917   1.154
  375SOL     OW 2023   6.789   4.339   1.879
  375SOL    HW1 2024   6.740   4.339   1.792
  375SOL    HW2 2025   6.805   4.434   1.908
  376SOL     OW 2026   2.155   3.267   4.614
  376SOL    HW1 2027   2.139   3.314   4.700
  376SOL    HW2 2028   2.129   3.171   4.622
  377SOL     OW 2029   4.456   1.825   4.630
  377SOL    HW1 2030   4.421   1.860   4.717
  377SOL    HW2 2031   4.554   1.808   4.638
  378SOL     OW 2032   4.695   2.679   3.983
  378SOL    HW1 2033   4.650   2.765   4.007
  378SOL    HW2 2034   4.669   2.609   4.049
  379SOL     OW 2035   6.965   2.805   1.337
  379SOL    HW1 2036   7.020   2.887   1.322
  379SOL    HW2 2037   7.016   2.741   1.394
  380SOL     OW 2038   1.369   2.029   0.238
  380SOL    HW1 2039   1.465   2.004   0.250
  380SOL    HW2 2040   1.364   2.120   0.196
  381SOL     OW 2041   3.513   4.341   0.493
  381SOL    HW1 2042   3.485   4.391   0.410
  381SOL    HW2 2043   3.580   4.271   0.468
  382SOL     OW 2044   1.917   5.143   0.673
  382SOL    HW1 2045   1.881   5.102   0.757
  382SOL    HW2 2046   1.847   5.138   0.602
  383SOL     OW 2047   6.408   2.144   0.280
  383SOL    HW1 2048   6.505   2.145   0.256
  383SOL    HW2 2049   6.363   2.224   0.240
  384SOL     OW 2050   2.041   5.084   5.016
  384SOL    HW1 2051   2.021   5.069   4.919
  384SOL    HW2 2052   1.956   5.098   5.066
  385SOL     OW 2053   4.976   5.449   1.281
  385SOL    HW1 2054   4.908   5.502   1.231
  385SOL    HW2 2055   4.941   5.356   1.296
  386SOL     OW 2056   2.842   6.437   4.928
  386SOL    HW1 2057   2.924   6.390   4.961
  386SOL    HW2 2058   2.784   6.372   4.880
  387SOL     OW 2059   6.858   6.942   5.913
  387SOL    HW1 2060   6.884   0.007   5.876
  387SOL    HW2 2061   6.759   6.930   5.905
  388SOL     OW 2062   0.181   2.290   4.824
  388SOL    HW1 2063   0.241   2.243   4.759
  388SOL    HW2 2064   0.119   2.351   4.775
  389SOL     OW 2065   5.341   4.667   1.781
  389SOL    HW1 2066   5.336   4.765   1.765
  389SOL    HW2 2067   5.402   4.648   1.858
  390SOL     OW 2068   3.831   2.614   0.035
  390SOL    HW1 2069   3.822   2.614   6.959
  390SOL    HW2 2070   3.898   2.683   0.062
  391SOL     OW 2071   3.742   4.079   3.887
  391SOL    HW1 2072   3.687   3.996   3.875
  391SOL    HW2 2073   3.809   4.063   3.959
  392SOL     OW 2074   1.503   3.754   1.810
  392SOL    HW1 2075   1.511   3.838   1.864
  392SOL    HW2 2076   1.557   3.763   1.726
  393SOL     OW 2077   1.326   5.666   1.333
  393SOL    HW1 2078   1.375   5.645   1.249
  393SOL    HW2 2079   1.228   5.676   1.314
  394SOL     OW 2080   6.073   1.034   6.669
  394SOL    HW1 2081   6.026   1.121   6.687
  394SOL    HW2 2082   6.172   1.048   6.672
  395SOL     OW 2083   5.907   4.610   0.424
  395SOL    HW1 2084   6.002   4.636   0.440
  395SOL    HW2 2085   5.852   4.691   0.404
  396SOL     OW 2086   1.396   0.306   1.494
  396SOL    HW1 2087   1.410   0.329   1.397
  396SOL    HW2 2088   1.443   0.374   1.551
  397SOL     OW 2089   4.239   2.155   4.633
  397SOL    HW1 2090   4.195   2.174   4.720
  397SOL    HW2 2091   4.179   2.181   4.558
  398SOL     OW 2092   0.246   0.774   3.143
  398SOL    HW1 2093   0.228   0.677   3.159
  398SOL    HW2 2094   0.345   0.790   3.142
  399SOL     OW 2095   5.959   5.894   3.792
  399SOL    HW1 2096   5.893   5.937   3.731
  399SOL    HW2 2097   5.910   5.848   3.867
  400SOL     OW 2098   6.376   6.813   3.418
  400SOL    HW1 2099   6.329   6.756   3.486
  400SOL    HW2 2100   6.453   6.761   3.379
  401SOL     OW 2101   0.869   5.328   5.105
  401SOL    HW1 2102   0.833   5.418   5.128
  401SOL    HW2 2103   0.807   5.257   5.140
  402SOL     OW 2104   5.758   1.752   4.013
  402SOL    HW1 2105   5.812   1.681   4.060
  402SOL    HW2 2106   5.663   1.746   4.043
  403SOL     OW 2107   2.751   1.803   5.409
  403SOL    HW1 2108   2.678   1.805   5.341
  403SOL    HW2 2109   2.743   1.882   5.469
  404SOL     OW 2110   3.311   5.816   3.603
  404SOL    HW1 2111   3.319   5.723   3.638
  404SOL    HW2 2112   3.360   5.823   3.516
  405SOL     OW 2113   2.721   5.006   4.237
  405SOL    HW1 2114   2.678   4.984   4.150
  405SOL    HW2 2115   2.781   4.932   4.265
  406SOL     OW 2116   0.294   0.480   6.282
  406SOL    HW1 2117   0.356   0.542   6.234
  406SOL    HW2 2118   0.304   0.388   6.244
  407SOL     OW 2119   2.192   3.150   3.982
  407SOL    HW1 2120   2.115   3.213   3.973
  407SOL    HW2 2121   2.198   3.119   4.077
  408SOL     OW 2122   2.111   2.414   2.681
  408SOL    HW1 2123   2.062   2.412   2.768
  408SOL    HW2 2124   2.154   2.503   2.669
  409SOL     OW 2125   0.322   2.719   2.956
  409SOL    HW1 2126   0.318   2.815   2.930
  409SOL    HW2 2127   0.394   2.673   2.903
  410SOL     OW 2128   1.770   2.600   1.308
  410SOL    HW1 2129   1.788   2.696   1.331
  410SOL    HW2 2130   1.854   2.547   1.321
  411SOL     OW 2131   6.472   2.079   0.610
  411SOL    HW1 2132   6.477   2.051   0.514
  411SOL    HW2 2133   6.376   2.079   0.640
  412SOL     OW 2134   1.833   5.284   2.984
  412SOL    HW1 2135   1.886   5.259   2.903
  412SOL    HW2 2136   1.791   5.373   2.969
  413SOL     OW 2137   6.351   5.018   1.925
  413SOL    HW1 2138   6.336   4.951   1.852
  413SOL    HW2 2139   6.375   5.106   1.884
  414SOL     OW 2140   2.389   0.071   3.659
  414SOL    HW1 2141   2.325   0.140   3.623
  414SOL    HW2 2142   2.392   0.078   3.759
  415SOL     OW 2143   5.480   1.631   6.542
  415SOL    HW1 2144   5.493   1.708   6.605
  415SOL    HW2 2145   5.563   1.618   6.488
  416SOL     OW 2146   5.936   3.057   5.701
  416SOL    HW1 2147   5.969   2.992   5.769
  416SOL    HW2 2148   5.930   3.148   5.742
  417SOL     OW 2149   2.160   2.296   6.294
  417SOL    HW1 2150   2.077   2.352   6.293
  417SOL    HW2 2151   2.237   2.351   6.261
  418SOL     OW 2152   3.546   6.827   5.255
  418SOL    HW1 2153   3.502   6.737   5.245
  418SOL    HW2 2154   3.476   6.897   5.261
  419SOL     OW 2155   5.818   0.606   0.435
  419SOL    HW1 2156   5.876   0.565   0.505
  419SOL    HW2 2157   5.854   0.696   0.411
  420SOL     OW 2158   3.540   6.439   0.805
  420SOL    HW1 2159   3.554   6.532   0.838
  420SOL    HW2 2160   3.465   6.437   0.739
  421SOL     OW 2161   4.822   4.062   2.176
  421SOL    HW1 2162   4.774   4.136   2.129
  421SOL    HW2 2163   4.896   4.101   2.231
  422SOL     OW 2164   4.712   1.951   1.686
  422SOL    HW1 2165   4.632   1.989   1.639
  422SOL    HW2 2166   4.713   1.982   1.781
  423SOL     OW 2167   3.190   1.054   6.091
  423SOL    HW1 2168   3.177   0.969   6.142
  423SOL    HW2 2169   3.138   1.128   6.133
  424SOL     OW 2170   1.983   4.121   4.407
  424SOL    HW1 2171   1.919   4.052   4.373
  424SOL    HW2 2172   2.005   4.102   4.503
  425SOL     OW 2173   3.600   1.246   0.133
  425SOL    HW1 2174   3.669   1.317   0.142
  425SOL    HW2 2175   3.517   1.285   0.093
  426SOL     OW 2176   2.899   1.881   4.464
  426SOL    HW1 2177   2.917   1.862   4.560
  426SOL    HW2 2178   2.804   1.909   4.452
  427SOL     OW 2179   5.098   2.084   3.390
  427SOL    HW1 2180   5.042   2.123   3.462
  427SOL    HW2 2181   5.177   2.036   3.430
  428SOL     OW 2182   2.749   2.236   6.594
  428SOL    HW1 2183   2.678   2.213   6.527
  428SOL    HW2 2184   2.787   2.325   6.571
  429SOL     OW 2185   0.580   6.060   3.702
  429SOL    HW1 2186   0.497   6.030   3.748
  429SOL    HW2 2187   0.563   6.070   3.604
  430SOL     OW 2188   1.957   0.163   4.631
  430SOL    HW1 2189   1.934   0.080   4.580
  430SOL    HW2 2190   1.877   0.224   4.633
  431SOL     OW 2191   2.795   1.367   0.982
  431SOL    HW1 2192   2.795   1.320   0.893
  431SOL    HW2 2193   2.831   1.459   0.971
  432SOL     OW 2194   4.900   1.468   1.300
  432SOL    HW1 2195   4.906   1.482   1.398
  432SOL    HW2 2196   4.805   1.449   1.275
  433SOL     OW 2197   1.899   4.480   0.695
  433SOL    HW1 2198   1.850   4.511   0.614
  433SOL    HW2 2199   1.994   4.463   0.671
  434SOL     OW 2200   4.340   5.206   3.075
  434SOL    HW1 2201   4.397   5.127   3.055
  434SOL    HW2 2202   4.380   5.288   3.035
  435SOL     OW 2203   3.707   2.864   5.939
  435SOL    HW1 2204   3.747   2.846   6.029
  435SOL    HW2 2205   3.780   2.876   5.872
  436SOL     OW 2206   5.410   5.857   1.600
  436SOL    HW1 2207   5.413   5.923   1.675
  436SOL    HW2 2208   5.360   5.776   1.629
  437SOL     OW 2209   6.752   1.371   5.213
  437SOL    HW1 2210   6.850   1.364   5.229
  437SOL    HW2 2211   6.732   1.458   5.167
  438SOL     OW 2212   0.712   4.410   2.632
  438SOL    HW1 2213   0.664   4.472   2.693
  438SOL    HW2 2214   0.733   4.456   2.546
  439SOL     OW 2215   0.180   0.498   5.504
  439SOL    HW1 2216   0.104   0.515   5.566
  439SOL    HW2 2217   0.257   0.460   5.556
  440SOL     OW 2218   4.443   1.866   0.825
  440SOL    HW1 2219   4.503   1.827   0.755
  440SOL    HW2 2220   4.445   1.807   0.907
  441SOL     OW 2221   0.128   4.612   2.334
  441SOL    HW1 2222   0.074   4.691   2.306
  441SOL    HW2 2223   0.173   4.631   2.421
  442SOL     OW 2224   4.115   3.516   5.211
  442SOL    HW1 2225   4.176   3.584   5.251
  442SOL    HW2 2226   4.083   3.454   5.283
  443SOL     OW 2227   4.845   2.853   3.207
  443SOL    HW1 2228   4.909   2.777   3.218
  443SOL    HW2 2229   4.837   2.876   3.110
  444SOL     OW 2230   3.698   2.214   1.571
  444SOL    HW1 2231   3.699   2.118   1.541
  444SOL    HW2 2232   3.685   2.217   1.670
  445SOL     OW 2233   2.461   5.513   2.964
  445SOL    HW1 2234   2.412   5.426   2.964
  445SOL    HW2 2235   2.399   5.586   2.991
  446SOL     OW 2236   6.567   6.760   1.881
  446SOL    HW1 2237   6.615   6.817   1.948
  446SOL    HW2 2238   6.588   6.793   1.789
  447SOL     OW 2239   5.865   3.959   0.417
  447SOL    HW1 2240   5.803   4.005   0.479
  447SOL    HW2 2241   5.960   3.979   0.443
  448SOL     OW 2242   3.336   6.309   3.845
  448SOL    HW1 2243   3.390   6.385   3.809
  448SOL    HW2 2244   3.315   6.245   3.771
  449SOL     OW 2245   1.018   3.856   4.262
  449SOL    HW1 2246   1.109   3.817   4.270
  449SOL    HW2 2247   0.998   3.873   4.165
  450SOL     OW 2248   6.773   4.189   3.153
  450SOL    HW1 2249   6.753   4.244   3.234
  450SOL    HW2 2250   6.855   4.133   3.169
  451SOL     OW 2251   1.298   1.977   0.521
  451SOL    HW1 2252   1.313   2.018   0.431
  451SOL    HW2 2253   1.380   1.989   0.577
  452SOL     OW 2254   4.175   5.483   2.071
  452SOL    HW1 2255   4.261   5.482   2.123
  452SOL    HW2 2256   4.114   5.552   2.108
  453SOL     OW 2257   3.996   1.311   0.004
  453SOL    HW1 2258   3.913   1.361   0.027
  453SOL    HW2 2259   3.997   1.224   0.054
  454SOL     OW 2260   0.358   3.469   4.608
  454SOL    HW1 2261   0.290   3.465   4.535
  454SOL    HW2 2262   0.322   3.523   4.684
  455SOL     OW 2263   5.358   5.165   5.922
  455SOL    HW1 2264   5.402   5.253   5.942
  455SOL    HW2 2265   5.259   5.175   5.923
  456SOL     OW 2266   2.126   0.667   2.971
  456SOL    HW1 2267   2.178   0.691   2.888
  456SOL    HW2 2268   2.189   0.631   3.040
  457SOL     OW 2269   2.319   6.426   6.986
  457SOL    HW1 2270   2.411   6.460   7.007
  457SOL    HW2 2271   2.272   6.493   6.929
  458SOL     OW 2272   4.090   1.433   3.148
  458SOL    HW1 2273   4.114   1.443   3.245
  458SOL    HW2 2274   4.032   1.510   3.120
  459SOL     OW 2275   3.344   0.593   3.119
  459SOL    HW1 2276   3.347   0.535   3.200
  459SOL    HW2 2277   3.413   0.666   3.127
  460SOL     OW 2278   0.711   1.657   6.047
  460SOL    HW1 2279   0.688   1.754   6.054
  460SOL    HW2 2280   0.760   1.641   5.961
  461SOL     OW 2281   1.385   6.317   5.397
  461SOL    HW1 2282   1.368   6.272   5.309
  461SOL    HW2 2283   1.362   6.253   5.471
  462SOL     OW 2284   3.227   4.137   4.767
  462SOL    HW1 2285   3.151   4.199   4.744
  462SOL    HW2 2286   3.204   4.044   4.738
  463SOL     OW 2287   5.781   5.892   3.250
  463SOL    HW1 2288   5.713   5.963   3.230
  463SOL    HW2 2289   5.857   5.899   3.186
  464SOL     OW 2290   4.212   5.414   5.276
  464SOL    HW1 2291   4.278   5.383   5.344
  464SOL    HW2 2292   4.240   5.502   5.240
  465SOL     OW 2293   0.428   4.865   0.043
  465SOL    HW1 2294   0.471   4.870   6.977
  465SOL    HW2 2295   0.345   4.809   0.037
  466SOL     OW 2296   4.009   5.189   4.156
  466SOL    HW1 2297   3.918   5.200   4.116
  466SOL    HW2 2298   4.069   5.262   4.122
  467SOL     OW 2299   6.610   0.583   1.882
  467SOL    HW1 2300   6.609   0.493   1.837
  467SOL    HW2 2301   6.607   0.571   1.981
  468SOL     OW 2302   2.665   6.022   6.031
  468SOL    HW1 2303   2.704   5.966   6.105
  468SOL    HW2 2304   2.567   6.004   6.023
  469SOL     OW 2305   3.075   4.832   5.107
  469SOL    HW1 2306   3.051   4.912   5.161
  469SOL    HW2 2307   3.015   4.756   5.133
  470SOL     OW 2308   1.943   4.946   3.307
  470SOL    HW1 2309   1.937   4.953   3.208
  470SOL    HW2 2310   1.889   4.868   3.339
  471SOL     OW 2311   1.778   1.872   3.673
  471SOL    HW1 2312   1.704   1.933   3.701
  471SOL    HW2 2313   1.744   1.807   3.605
  472SOL     OW 2314   5.345   4.157   6.725
  472SOL    HW1 2315   5.350   4.103   6.642
  472SOL    HW2 2316   5.313   4.250   6.703
  473SOL     OW 2317   5.142   3.442   2.409
  473SOL    HW1 2318   5.146   3.530   2.455
  473SOL    HW2 2319   5.073   3.444   2.337
  474SOL     OW 2320   4.952   5.439   3.863
  474SOL    HW1 2321   4.950   5.403   3.770
  474SOL    HW2 2322   5.035   5.495   3.875
  475SOL     OW 2323   5.963   1.599   0.961
  475SOL    HW1 2324   6.007   1.686   0.985
  475SOL    HW2 2325   5.867   1.615   0.942
  476SOL     OW 2326   1.195   3.972   0.099
  476SOL    HW1 2327   1.134   3.897   0.124
  476SOL    HW2 2328   1.179   4.050   0.159
  477SOL     OW 2329   0.304   5.420   2.837
  477SOL    HW1 2330   0.357   5.337   2.851
  477SOL    HW2 2331   0.245   5.437   2.916
  478SOL     OW 2332   6.238   5.977   2.812
  478SOL    HW1 2333   6.235   5.895   2.869
  478SOL    HW2 2334   6.227   6.058   2.869
  479SOL     OW 2335   2.970   3.459   2.873
  479SOL    HW1 2336   3.057   3.465   2.824
  479SOL    HW2 2337   2.901   3.514   2.824
  480SOL     OW 2338   0.887   0.793   2.199
  480SOL    HW1 2339   0.924   0.885   2.184
  480SOL    HW2 2340   0.931   0.752   2.279
  481SOL     OW 2341   5.689   6.986   0.984
  481SOL    HW1 2342   5.775   0.003   0.954
  481SOL    HW2 2343   5.613   0.020   0.955
  482SOL     OW 2344   3.907   4.859   2.791
  482SOL    HW1 2345   3.881   4.867   2.695
  482SOL    HW2 2346   3.844   4.797   2.838
  483SOL     OW 2347   5.884   1.158   3.970
  483SOL    HW1 2348   5.930   1.073   3.945
  483SOL    HW2 2349   5.847   1.150   4.063
  484SOL     OW 2350   1.800   5.077   3.518
  484SOL    HW1 2351   1.825   5.032   3.432
  484SOL    HW2 2352   1.701   5.080   3.527
  485SOL     OW 2353   5.243   1.977   0.924
  485SOL    HW1 2354   5.208   2.001   1.015
  485SOL    HW2 2355   5.171   1.929   0.873
  486SOL     OW 2356   5.987   0.114   5.875
  486SOL    HW1 2357   5.938   0.098   5.789
  486SOL    HW2 2358   6.010   0.211   5.883
  487SOL     OW 2359   0.359   0.959   6.614
  487SOL    HW1 2360   0.291   0.979   6.684
  487SOL    HW2 2361   0.423   0.890   6.649
  488SOL     OW 2362   2.073   5.845   3.654
  488SOL    HW1 2363   2.011   5.787   3.600
  488SOL    HW2 2364   2.046   5.941   3.644
  489SOL     OW 2365   3.076   5.068   5.279
  489SOL    HW1 2366   3.165   5.088   5.237
  489SOL    HW2 2367   3.080   4.979   5.324
  490SOL     OW 2368   1.505   3.482   4.689
  490SOL    HW1 2369   1.536   3.530   4.607
  490SOL    HW2 2370   1.513   3.544   4.768
  491SOL     OW 2371   6.011   2.902   0.950
  491SOL    HW1 2372   5.930   2.881   1.005
  491SOL    HW2 2373   5.990   2.888   0.853
  492SOL     OW 2374   1.469   2.446   5.686
  492SOL    HW1 2375   1.494   2.410   5.596
  492SOL    HW2 2376   1.374   2.476   5.685
  493SOL     OW 2377   1.802   5.755   4.288
  493SOL    HW1 2378   1.831   5.683   4.225
  493SOL    HW2 2379   1.872   5.826   4.291
  494SOL     OW 2380   2.949   1.016   4.566
  494SOL    HW1 2381   2.994   1.101   4.594
  494SOL    HW2 2382   2.850   1.030   4.566
  495SOL     OW 2383   3.866   4.399   6.991
  495SOL    HW1 2384   3.958   4.366   7.015
  495SOL    HW2 2385   3.802   4.323   6.991
  496SOL     OW 2386   5.074   0.965   3.275
  496SOL    HW1 2387   5.120   1.045   3.314
  496SOL    HW2 2388   5.137   0.918   3.213
  497SOL     OW 2389   4.450   2.114   0.753
  497SOL    HW1 2390   4.436   2.171   0.833
  497SOL    HW2 2391   4.420   2.021   0.772
  498SOL     OW 2392   0.286   0.755   1.266
  498SOL    HW1 2393   0.317   0.823   1.201
  498SOL    HW2 2394   0.264   0.799   1.353
  499SOL     OW 2395   3.108   6.206   0.124
  499SOL    HW1 2396   3.175   6.248   0.064
  499SOL    HW2 2397   3.029   6.267   0.135
  500SOL     OW 2398   5.645   1.963   6.116
  500SOL    HW1 2399   5.660   1.932   6.210
  500SOL    HW2 2400   5.559   2.015   6.111
  501SOL     OW 2401   2.002   1.607   4.774
  501SOL    HW1 2402   2.080   1.663   4.748
  501SOL    HW2 2403   2.008   1.519   4.728
  502SOL     OW 2404   2.599   4.139   6.735
  502SOL    HW1 2405   2.540   4.096   6.667
  502SOL    HW2 2406   2.543   4.179   6.808
  503SOL     OW 2407   3.238   4.983   1.280
  503SOL    HW1 2408   3.266   5.047   1.352
  503SOL    HW2 2409   3.139   4.981   1.275
  504SOL     OW 2410   5.825   6.536   0.361
  504SOL    HW1 2411   5.899   6.599   0.335
  504SOL    HW2 2412   5.860   6.442   0.359
  505SOL     OW 2413   5.883   4.942   5.381
  505SOL    HW1 2414   5.797   4.932   5.431
  505SOL    HW2 2415   5.899   4.859   5.327
  506SOL     OW 2416   3.099   4.913   2.653
  506SOL    HW1 2417   3.199   4.909   2.658
  506SOL    HW2 2418   3.069   5.007   2.672
  507SOL     OW 2419   3.747   0.465   1.938
  507SOL    HW1 2420   3.779   0.488   2.029
  507SOL    HW2 2421   3.767   0.369   1.918
  508SOL     OW 2422   0.558   4.681   3.464
  508SOL    HW1 2423   0.524   4.588   3.477
  508SOL    HW2 2424   0.598   4.714   3.550
  509SOL     OW 2425   4.142   0.226   6.324
  509SOL    HW1 2426   4.242   0.228   6.325
  509SOL    HW2 2427   4.106   0.314   6.353
  510SOL     OW 2428   6.646   4.453   0.375
  510SOL    HW1 2429   6.660   4.441   0.277
  510SOL    HW2 2430   6.731   4.485   0.417
  511SOL     OW 2431   0.815   1.431   6.878
  511SOL    HW1 2432   0.869   1.430   6.963
  511SOL    HW2 2433   0.747   1.504   6.883
  512SOL     OW 2434   0.355   2.761   4.081
  512SOL    HW1 2435   0.345   2.791   3.986
  512SOL    HW2 2436   0.326   2.665   4.089
  513SOL     OW 2437   5.565   6.812   2.895
  513SOL    HW1 2438   5.566   6.908   2.923
  513SOL    HW2 2439   5.646   6.793   2.840
  514SOL     OW 2440   4.873   1.554   5.015
  514SOL    HW1 2441   4.923   1.470   4.995
  514SOL    HW2 2442   4.900   1.625   4.950
  515SOL     OW 2443   3.408   1.073   6.894
  515SOL    HW1 2444   3.487   1.026   6.854
  515SOL    HW2 2445   3.370   1.018   6.968
  516SOL     OW 2446   1.620   6.003   1.871
  516SOL    HW1 2447   1.551   5.991   1.799
  516SOL    HW2 2448   1.574   6.019   1.958
  517SOL     OW 2449   3.681   5.303   1.685
  517SOL    HW1 2450   3.691   5.313   1.784
  517SOL    HW2 2451   3.589   5.331   1.658
  518SOL     OW 2452   2.131   5.738   4.386
  518SOL    HW1 2453   2.195   5.807   4.351
  518SOL    HW2 2454   2.172   5.647   4.377
  519SOL     OW 2455   6.548   0.358   2.310
  519SOL    HW1 2456   6.543   0.262   2.282
  519SOL    HW2 2457   6.536   0.365   2.409
  520SOL     OW 2458   2.171   5.032   0.993
  520SOL    HW1 2459   2.108   4.975   0.940
  520SOL    HW2 2460   2.130   5.123   1.007
  521SOL     OW 2461   6.087   5.805   5.922
  521SOL    HW1 2462   6.170   5.810   5.978
  521SOL    HW2 2463   6.061   5.897   5.893
  522SOL     OW 2464   3.677   4.143   0.357
  522SOL    HW1 2465   3.639   4.173   0.270
  522SOL    HW2 2466   3.777   4.149   0.354
  523SOL     OW 2467   1.803   6.488   6.413
  523SOL    HW1 2468   1.809   6.455   6.507
  523SOL    HW2 2469   1.725   6.549   6.404
  524SOL     OW 2470   6.971   1.147   0.829
  524SOL    HW1 2471   0.023   1.163   0.766
  524SOL    HW2 2472   6.885   1.160   0.781
  525SOL     OW 2473   0.519   2.905   3.480
  525SOL    HW1 2474   0.502   2.928   3.576
  525SOL    HW2 2475   0.612   2.870   3.469
  526SOL     OW 2476   4.513   0.317   4.162
  526SOL    HW1 2477   4.469   0.286   4.246
  526SOL    HW2 2478   4.582   0.250   4.134
  527SOL     OW 2479   0.657   0.987   1.110
  527SOL    HW1 2480   0.568   0.954   1.077
  527SOL    HW2 2481   0.642   1.059   1.178
  528SOL     OW 2482   0.038   2.546   4.075
  528SOL    HW1 2483   0.130   2.526   4.109
  528SOL    HW2 2484   7.002   2.468   4.092
  529SOL     OW 2485   1.685   0.592   6.077
  529SOL    HW1 2486   1.696   0.579   5.978
  529SOL    HW2 2487   1.722   0.681   6.102
  530SOL     OW 2488   2.941   4.725   1.237
  530SOL    HW1 2489   2.977   4.740   1.145
  530SOL    HW2 2490   3.015   4.735   1.304
  531SOL     OW 2491   1.124   0.367   6.668
  531SOL    HW1 2492   1.143   0.439   6.735
  531SOL    HW2 2493   1.071   0.406   6.592
  532SOL     OW 2494   2.903   0.821   5.951
  532SOL    HW1 2495   2.924   0.866   5.864
  532SOL    HW2 2496   2.970   0.749   5.968
  533SOL     OW 2497   4.123   0.079   4.204
  533SOL    HW1 2498   4.144   0.006   4.269
  533SOL    HW2 2499   4.025   0.098   4.206
  534SOL     OW 2500   1.562   3.959   1.986
  534SOL    HW1 2501   1.603   4.012   2.060
  534SOL    HW2 2502   1.468   3.990   1.972
  535SOL     OW 2503   4.963   4.239   4.393
  535SOL    HW1 2504   4.871   4.213   4.363
  535SOL    HW2 2505   5.031   4.196   4.333
  536SOL     OW 2506   6.545   6.251   1.226
  536SOL    HW1 2507   6.604   6.330   1.242
  536SOL    HW2 2508   6.587   6.170   1.267
  537SOL     OW 2509   2.609   1.890   2.445
  537SOL    HW1 2510   2.652   1.885   2.355
  537SOL    HW2 2511   2.513   1.865   2.438
  538SOL     OW 2512   3.672   4.694   5.350
  538SOL    HW1 2513   3.616   4.741   5.418
  538SOL    HW2 2514   3.673   4.596   5.370
  539SOL     OW 2515   2.216   0.280   6.569
  539SOL    HW1 2516   2.186   0.189   6.599
  539SOL    HW2 2517   2.316   0.282   6.566
  540SOL     OW 2518   1.866   0.697   5.164
  540SOL    HW1 2519   1.941   0.634   5.142
  540SOL    HW2 2520   1.899   0.791   5.155
  541SOL     OW 2521   5.445   6.114   3.694
  541SOL    HW1 2522   5.414   6.044   3.630
  541SOL    HW2 2523   5.476   6.071   3.779
  542SOL     OW 2524   3.787   6.473   6.189
  542SOL    HW1 2525   3.735   6.432   6.115
  542SOL    HW2 2526   3.853   6.539   6.151
  543SOL     OW 2527   5.861   2.870   3.580
  543SOL    HW1 2528   5.895   2.952   3.627
  543SOL    HW2 2529   5.827   2.805   3.647
  544SOL     OW 2530   1.140   3.357   1.071
  544SOL    HW1 2531   1.228   3.345   1.118
  544SOL    HW2 2532   1.155   3.355   0.972
  545SOL     OW 2533   6.758   5.496   0.750
  545SOL    HW1 2534   6.673   5.548   0.761
  545SOL    HW2 2535   6.817   5.511   0.829
  546SOL     OW 2536   0.014   4.197   1.907
  546SOL    HW1 2537   6.947   4.236   1.893
  546SOL    HW2 2538   0.015   4.146   1.993
  547SOL     OW 2539   4.388   0.317   6.564
  547SOL    HW1 2540   4.374   0.259   6.645
  547SOL    HW2 2541   4.354   0.409   6.583
  548SOL     OW 2542   3.890   3.210   0.244
  548SOL    HW1 2543   3.800   3.239   0.277
  548SOL    HW2 2544   3.959   3.278   0.268
  549SOL     OW 2545   5.375   1.962   2.944
  549SOL    HW1 2546   5.441   1.997   2.878
  549SOL    HW2 2547   5.294   2.021   2.945
  550SOL     OW 2548   0.027   5.988   3.901
  550SOL    HW1 2549   6.990   5.931   3.846
  550SOL    HW2 2550   0.108   5.935   3.927
  551SOL     OW 2551   5.462   0.298   0.133
  551SOL    HW1 2552   5.383   0.290   0.193
  551SOL    HW2 2553   5.535   0.348   0.181
  552SOL     OW 2554   0.572   0.079   4.889
  552SOL    HW1 2555   0.572   0.031   4.801
  552SOL    HW2 2556   0.640   0.153   4.887
  553SOL     OW 2557   3.528   2.642   6.206
  553SOL    HW1 2558   3.556   2.627   6.112
  553SOL    HW2 2559   3.572   2.575   6.266
  554SOL     OW 2560   6.607   5.885   0.541
  554SOL    HW1 2561   6.602   5.825   0.461
  554SOL    HW2 2562   6.519   5.931   0.554
  555SOL     OW 2563   2.729   3.447   5.310
  555SOL    HW1 2564   2.635   3.475   5.327
  555SOL    HW2 2565   2.785   3.527   5.288
  556SOL     OW 2566   6.367   6.726   3.052
  556SOL    HW1 2567   6.422   6.657   3.098
  556SOL    HW2 2568   6.270   6.712   3.074
  557SOL     OW 2569   5.314   4.315   6.378
  557SOL    HW1 2570   5.306   4.386   6.449
  557SOL    HW2 2571   5.395   4.332   6.323
  558SOL     OW 2572   3.679   3.730   2.387
  558SOL    HW1 2573   3.730   3.665   2.443
  558SOL    HW2 2574   3.613   3.778   2.444
  559SOL     OW 2575   6.815   0.865   6.657
  559SOL    HW1 2576   6.800   0.791   6.723
  559SOL    HW2 2577   6.846   0.827   6.570
  560SOL     OW 2578   6.959   2.720   4.251
  560SOL    HW1 2579   6.947   2.656   4.328
  560SOL    HW2 2580   6.982   2.669   4.169
  561SOL     OW 2581   0.365   3.952   0.185
  561SOL    HW1 2582   0.309   3.882   0.141
  561SOL    HW2 2583   0.369   3.936   0.283
  562SOL     OW 2584   4.449   6.357   4.032
  562SOL    HW1 2585   4.529   6.301   4.010
  562SOL    HW2 2586   4.446   6.436   3.971
  563SOL     OW 2587   1.345   1.015   4.015
  563SOL    HW1 2588   1.277   1.052   3.952
  563SOL    HW2 2589   1.393   0.939   3.971
  564SOL     OW 2590   6.356   1.908   6.236
  564SOL    HW1 2591   6.278   1.963   6.267
  564SOL    HW2 2592   6.349   1.893   6.137
  565SOL     OW 2593   3.638   3.017   3.494
  565SOL    HW1 2594   3.636   3.109   3.531
  565SOL    HW2 2595   3.666   2.952   3.565
  566SOL     OW 2596   2.447   1.566   3.732
  566SOL    HW1 2597   2.357   1.562   3.688
  566SOL    HW2 2598   2.441   1.621   3.815
  567SOL     OW 2599   2.127   3.144   5.461
  567SOL    HW1 2600   2.086   3.109   5.376
  567SOL    HW2 2601   2.227   3.136   5.455
  568SOL     OW 2602   0.699   6.570   6.867
  568SOL    HW1 2603   0.771   6.518   6.823
  568SOL    HW2 2604   0.612   6.553   6.821
  569SOL     OW 2605   5.843   3.411   6.829
  569SOL    HW1 2606   5.845   3.442   6.733
  569SOL    HW2 2607   5.759   3.359   6.844
  570SOL     OW 2608   3.378   0.308   6.268
  570SOL    HW1 2609   3.395   0.336   6.363
  570SOL    HW2 2610   3.394   0.385   6.207
  571SOL     OW 2611   2.506   4.681   1.767
  571SOL    HW1 2612   2.555   4.753   1.818
  571SOL    HW2 2613   2.572   4.612   1.738
  572SOL     OW 2614   3.042   0.986   4.901
  572SOL    HW1 2615   3.035   1.084   4.883
  572SOL    HW2 2616   3.052   0.970   5.000
  573SOL     OW 2617   0.474   0.663   5.156
  573SOL    HW1 2618   0.495   0.659   5.254
  573SOL    HW2 2619   0.551   0.704   5.108
  574SOL     OW 2620   2.244   0.986   6.064
  574SOL    HW1 2621   2.184   1.042   6.120
  574SOL    HW2 2622   2.297   1.044   6.002
  575SOL     OW 2623   4.093   4.080   6.743
  575SOL    HW1 2624   4.033   4.070   6.823
  575SOL    HW2 2625   4.159   4.005   6.743
  576SOL     OW 2626   1.469   1.117   2.865
  576SOL    HW1 2627   1.520   1.099   2.950
  576SOL    HW2 2628   1.436   1.030   2.828
  577SOL     OW 2629   0.354   0.696   1.914
  577SOL    HW1 2630   0.364   0.686   1.816
  577SOL    HW2 2631   0.362   0.793   1.938
  578SOL     OW 2632   3.317   6.658   6.616
  578SOL    HW1 2633   3.297   6.736   6.674
  578SOL    HW2 2634   3.232   6.623   6.576
  579SOL     OW 2635   1.014   3.513   2.043
  579SOL    HW1 2636   1.086   3.518   2.112
  579SOL    HW2 2637   0.929   3.551   2.081
  580SOL     OW 2638   4.510   4.809   4.588
  580SOL    HW1 2639   4.471   4.901   4.586
  580SOL    HW2 2640   4.606   4.813   4.559
  581SOL     OW 2641   1.965   2.408   4.120
  581SOL    HW1 2642   2.057   2.371   4.136
  581SOL    HW2 2643   1.957   2.497   4.164
  582SOL     OW 2644   5.899   4.314   4.775
  582SOL    HW1 2645   5.821   4.300   4.835
  582SOL    HW2 2646   5.867   4.328   4.681
  583SOL     OW 2647   3.730   6.163   5.796
  583SOL    HW1 2648   3.679   6.104   5.733
  583SOL    HW2 2649   3.755   6.110   5.877
  584SOL     OW 2650   4.023   0.367   5.342
  584SOL    HW1 2651   4.019   0.463   5.314
  584SOL    HW2 2652   4.110   0.349   5.388
  585SOL     OW 2653   3.443   6.704   1.803
  585SOL    HW1 2654   3.504   6.761   1.748
  585SOL    HW2 2655   3.414   6.625   1.749
  586SOL     OW 2656   3.570   0.214   0.631
  586SOL    HW1 2657   3.601   0.299   0.672
  586SOL    HW2 2658   3.530   0.156   0.701
  587SOL     OW 2659   4.575   1.481   2.291
  587SOL    HW1 2660   4.580   1.564   2.235
  587SOL    HW2 2661   4.577   1.506   2.388
  588SOL     OW 2662   1.820   4.682   2.973
  588SOL    HW1 2663   1.803   4.584   2.963
  588SOL    HW2 2664   1.865   4.699   3.061
  589SOL     OW 2665   3.298   5.387   0.864
  589SOL    HW1 2666   3.345   5.349   0.784
  589SOL    HW2 2667   3.308   5.487   0.865
  590SOL     OW 2668   3.086   2.172   6.795
  590SOL    HW1 2669   3.106   2.267   6.819
  590SOL    HW2 2670   3.169   2.128   6.760
  591SOL     OW 2671   2.824   6.846   3.772
  591SOL    HW1 2672   2.898   6.853   3.705
  591SOL    HW2 2673   2.797   6.938   3.801
  592SOL     OW 2674   4.556   2.532   4.159
  592SOL    HW1 2675   4.598   2.452   4.202
  592SOL    HW2 2676   4.467   2.507   4.122
  593SOL     OW 2677   2.170   1.545   6.568
  593SOL    HW1 2678   2.147   1.448   6.560
  593SOL    HW2 2679   2.257   1.563   6.523
  594SOL     OW 2680   4.603   1.411   3.348
  594SOL    HW1 2681   4.576   1.341   3.415
  594SOL    HW2 2682   4.622   1.367   3.260
  595SOL     OW 2683   6.113   4.950   2.936
  595SOL    HW1 2684   6.128   4.962   3.034
  595SOL    HW2 2685   6.074   4.860   2.918
  596SOL     OW 2686   6.631   4.865   4.595
  596SOL    HW1 2687   6.703   4.934   4.596
  596SOL    HW2 2688   6.606   4.844   4.500
  597SOL     OW 2689   3.544   1.674   6.535
  597SOL    HW1 2690   3.608   1.710   6.603
  597SOL    HW2 2691   3.478   1.745   6.510
  598SOL     OW 2692   3.344   3.874   3.305
  598SOL    HW1 2693   3.396   3.951   3.341
  598SOL    HW2 2694   3.317   3.814   3.380
  599SOL     OW 2695   1.527   5.140   1.720
  599SOL    HW1 2696   1.609   5.167   1.770
  599SOL    HW2 2697   1.462   5.215   1.720
  600SOL     OW 2698   6.956   3.567   5.510
  600SOL    HW1 2699   6.972   3.639   5.578
  600SOL    HW2 2700   6.897   3.497   5.549
  601SOL     OW 2701   0.316   6.221   5.765
  601SOL    HW1 2702   0.323   6.222   5.665
  601SOL    HW2 2703   0.299   6.313   5.798
  602SOL     OW 2704   2.011   0.760   3.662
  602SOL    HW1 2705   1.945   0.823   3.704
  602SOL    HW2 2706   1.991   0.666   3.691
  603SOL     OW 2707   1.804   1.614   4.164
  603SOL    HW1 2708   1.902   1.630   4.155
  603SOL    HW2 2709   1.761   1.697   4.201
  604SOL     OW 2710   5.746   2.830   1.070
  604SOL    HW1 2711   5.692   2.752   1.101
  604SOL    HW2 2712   5.728   2.909   1.129
  605SOL     OW 2713   6.341   6.359   1.095
  605SOL    HW1 2714   6.414   6.314   1.146
  605SOL    HW2 2715   6.254   6.346   1.143
  606SOL     OW 2716   3.764   6.821   5.070
  606SOL    HW1 2717   3.681   6.809   5.125
  606SOL    HW2 2718   3.780   6.919   5.056
  607SOL     OW 2719   1.750   2.899   6.207
  607SOL    HW1 2720   1.812   2.866   6.136
  607SOL    HW2 2721   1.656   2.893   6.175
  608SOL     OW 2722   3.315   1.404   6.335
  608SOL    HW1 2723   3.316   1.447   6.244
  608SOL    HW2 2724   3.409   1.379   6.361
  609SOL     OW 2725   3.817   3.211   2.389
  609SOL    HW1 2726   3.727   3.233   2.353
  609SOL    HW2 2727   3.884   3.210   2.314
  610SOL     OW 2728   4.893   3.521   1.574
  610SOL    HW1 2729   4.890   3.426   1.606
  610SOL    HW2 2730   4.869   3.523   1.477
  611SOL     OW 2731   4.338   1.297   2.752
  611SOL    HW1 2732   4.338   1.197   2.745
  611SOL    HW2 2733   4.347   1.324   2.848
  612SOL     OW 2734   5.023   4.962   3.577
  612SOL    HW1 2735   5.105   5.002   3.618
  612SOL    HW2 2736   4.959   4.936   3.649
  613SOL     OW 2737   3.955   4.626   6.192
  613SOL    HW1 2738   4.001   4.582   6.268
  613SOL    HW2 2739   3.967   4.726   6.198
  614SOL     OW 2740   2.412   6.891   6.001
  614SOL    HW1 2741   2.416   6.977   5.950
  614SOL    HW2 2742   2.399   6.910   6.098
  615SOL     OW 2743   0.179   4.489   2.648
  615SOL    HW1 2744   0.233   4.420   2.698
  615SOL    HW2 2745   0.088   4.495   2.688
  616SOL     OW 2746   6.065   3.464   3.622
  616SOL    HW1 2747   6.058   3.555   3.582
  616SOL    HW2 2748   6.154   3.453   3.666
  617SOL     OW 2749   3.466   6.477   5.864
  617SOL    HW1 2750   3.522   6.441   5.938
  617SOL    HW2 2751   3.398   6.409   5.838
  618SOL     OW 2752   1.674   0.707   3.723
  618SOL    HW1 2753   1.730   0.789   3.716
  618SOL    HW2 2754   1.731   0.631   3.754
  619SOL     OW 2755   0.972   2.143   6.404
  619SOL    HW1 2756   1.038   2.218   6.404
  619SOL    HW2 2757   0.909   2.155   6.481
  620SOL     OW 2758   4.130   3.502   0.733
  620SOL    HW1 2759   4.192   3.580   0.745
  620SOL    HW2 2760   4.057   3.508   0.801
  621SOL     OW 2761   0.071   6.056   0.579
  621SOL    HW1 2762   0.118   5.969   0.565
  621SOL    HW2 2763   7.004   6.039   0.616
  622SOL     OW 2764   0.680   0.717   6.595
  622SOL    HW1 2765   0.594   0.695   6.551
  622SOL    HW2 2766   0.700   0.815   6.584
  623SOL     OW 2767   0.238   5.410   4.953
  623SOL    HW1 2768   0.233   5.432   5.050
  623SOL    HW2 2769   0.331   5.380   4.930
  624SOL     OW 2770   0.858   1.614   1.277
  624SOL    HW1 2771   0.819   1.636   1.187
  624SOL    HW2 2772   0.837   1.688   1.341
  625SOL     OW 2773   1.321   1.278   3.022
  625SOL    HW1 2774   1.247   1.289   2.955
  625SOL    HW2 2775   1.404   1.248   2.976
  626SOL     OW 2776   3.136   6.271   4.582
  626SOL    HW1 2777   3.188   6.248   4.500
  626SOL    HW2 2778   3.198   6.272   4.661
  627SOL     OW 2779   5.218   6.812   0.062
  627SOL    HW1 2780   5.312   6.821   0.093
  627SOL    HW2 2781   5.176   6.731   0.102
  628SOL     OW 2782   5.762   4.343   3.114
  628SOL    HW1 2783   5.755   4.367   3.018
  628SOL    HW2 2784   5.728   4.250   3.128
  629SOL     OW 2785   1.251   6.641   1.483
  629SOL    HW1 2786   1.267   6.712   1.415
  629SOL    HW2 2787   1.338   6.604   1.515
  630SOL     OW 2788   2.837   1.696   1.061
  630SOL    HW1 2789   2.880   1.773   1.108
  630SOL    HW2 2790   2.897   1.665   0.987
  631SOL     OW 2791   2.585   0.426   4.751
  631SOL    HW1 2792   2.630   0.488   4.816
  631SOL    HW2 2793   2.553   0.345   4.798
  632SOL     OW 2794   3.146   0.382   1.103
  632SOL    HW1 2795   3.061   0.330   1.104
  632SOL    HW2 2796   3.127   0.479   1.112
  633SOL     OW 2797   2.220   6.744   5.273
  633SOL    HW1 2798   2.165   6.763   5.355
  633SOL    HW2 2799   2.197   6.653   5.238
  634SOL     OW 2800   2.871   5.445   1.655
  634SOL    HW1 2801   2.815   5.412   1.731
  634SOL    HW2 2802   2.957   5.481   1.691
  635SOL     OW 2803   2.808   7.013   3.098
  635SOL    HW1 2804   2.891   0.012   3.047
  635SOL    HW2 2805   2.742   0.064   3.090
  636SOL     OW 2806   4.614   5.384   0.056
  636SOL    HW1 2807   4.552   5.384   0.135
  636SOL    HW2 2808   4.632   5.290   0.028
  637SOL     OW 2809   6.180   4.240   0.111
  637SOL    HW1 2810   6.108   4.302   0.142
  637SOL    HW2 2811   6.139   4.162   0.063
  638SOL     OW 2812   5.526   1.304   3.018
  638SOL    HW1 2813   5.482   1.290   3.107
  638SOL    HW2 2814   5.625   1.311   3.030
  639SOL     OW 2815   4.787   3.915   1.961
  639SOL    HW1 2816   4.804   3.961   2.049
  639SOL    HW2 2817   4.765   3.984   1.891
  640SOL     OW 2818   2.131   3.272   5.767
  640SOL    HW1 2819   2.207   3.233   5.714
  640SOL    HW2 2820   2.084   3.199   5.816
  641SOL     OW 2821   0.216   5.941   5.675
  641SOL    HW1 2822   0.171   5.871   5.731
  641SOL    HW2 2823   0.302   5.967   5.717
  642SOL     OW 2824   1.522   4.842   6.162
  642SOL    HW1 2825   1.490   4.769   6.103
  642SOL    HW2 2826   1.617   4.824   6.189
  643SOL     OW 2827   6.056   6.114   4.954
  643SOL    HW1 2828   6.072   6.029   4.904
  643SOL    HW2 2829   6.139   6.170   4.952
  644SOL     OW 2830   2.156   5.749   1.967
  644SOL    HW1 2831   2.181   5.699   2.050
  644SOL    HW2 2832   2.172   5.847   1.981
  645SOL     OW 2833   6.460   2.221   2.994
  645SOL    HW1 2834   6.464   2.321   2.997
  645SOL    HW2 2835   6.489   2.183   3.082
  646SOL     OW 2836   1.097   2.496   4.598
  646SOL    HW1 2837   1.188   2.491   4.558
  646SOL    HW2 2838   1.088   2.581   4.651
  647SOL     OW 2839   5.311   3.169   0.161
  647SOL    HW1 2840   5.399   3.178   0.209
  647SOL    HW2 2841   5.327   3.133   0.069
  648SOL     OW 2842   4.783   2.239   3.978
  648SOL    HW1 2843   4.842   2.158   3.977
  648SOL    HW2 2844   4.822   2.310   3.919
  649SOL     OW 2845   4.343   4.531   1.892
  649SOL    HW1 2846   4.372   4.479   1.811
  649SOL    HW2 2847   4.333   4.469   1.969
  650SOL     OW 2848   5.133   4.135   0.672
  650SOL    HW1 2849   5.092   4.070   0.737
  650SOL    HW2 2850   5.086   4.223   0.679
  651SOL     OW 2851   0.938   6.454   6.342
  651SOL    HW1 2852   0.907   6.392   6.269
  651SOL    HW2 2853   0.858   6.495   6.386
  652SOL     OW 2854   4.887   1.635   2.898
  652SOL    HW1 2855   4.856   1.592   2.982
  652SOL    HW2 2856   4.832   1.602   2.821
  653SOL     OW 2857   3.361   4.878   2.613
  653SOL    HW1 2858   3.316   4.873   2.524
  653SOL    HW2 2859   3.447   4.827   2.610
  654SOL     OW 2860   6.493   5.659   6.328
  654SOL    HW1 2861   6.434   5.621   6.399
  654SOL    HW2 2862   6.574   5.601   6.317
  655SOL     OW 2863   0.329   1.373   0.129
  655SOL    HW1 2864   0.332   1.276   0.149
  655SOL    HW2 2865   0.235   1.406   0.133
  656SOL     OW 2866   2.402   6.111   1.127
  656SOL    HW1 2867   2.431   6.056   1.205
  656SOL    HW2 2868   2.303   6.128   1.133
  657SOL     OW 2869   3.765   1.466   0.110
  657SOL    HW1 2870   3.702   1.539   0.085
  657SOL    HW2 2871   3.839   1.503   0.166
  658SOL     OW 2872   3.774   5.437   6.397
  658SOL    HW1 2873   3.821   5.521   6.423
  658SOL    HW2 2874   3.826   5.358   6.432
  659SOL     OW 2875   3.966   0.628   5.561
  659SOL    HW1 2876   3.954   0.529   5.576
  659SOL    HW2 2877   3.980   0.646   5.464
  660SOL     OW 2878   3.984   5.554   3.332
  660SOL    HW1 2879   3.958   5.538   3.427
  660SOL    HW2 2880   3.962   5.474   3.277
  661SOL     OW 2881   5.914   5.714   2.800
  661SOL    HW1 2882   5.965   5.753   2.724
  661SOL    HW2 2883   5.974   5.656   2.855
  662SOL     OW 2884   3.934   1.556   0.392
  662SOL    HW1 2885   3.994   1.477   0.396
  662SOL    HW2 2886   3.987   1.637   0.366
  663SOL     OW 2887   1.982   4.598   4.968
  663SOL    HW1 2888   1.970   4.499   4.963
  663SOL    HW2 2889   1.915   4.642   4.908
  664SOL     OW 2890   5.574   0.239   6.513
  664SOL    HW1 2891   5.559   0.223   6.415
  664SOL    HW2 2892   5.636   0.169   6.549
  665SOL     OW 2893   1.027   4.696   2.021
  665SOL    HW1 2894   1.127   4.694   2.015
  665SOL    HW2 2895   0.991   4.747   1.943
  666SOL     OW 2896   4.505   1.517   1.338
  666SOL    HW1 2897   4.584   1.544   1.393
  666SOL    HW2 2898   4.536   1.480   1.251
  667SOL     OW 2899   1.149   0.007   2.803
  667SOL    HW1 2900   1.143   0.039   2.708
  667SOL    HW2 2901   1.139   0.085   2.865
  668SOL     OW 2902   5.654   3.410   0.554
  668SOL    HW1 2903   5.642   3.402   0.653
  668SOL    HW2 2904   5.579   3.362   0.508
  669SOL     OW 2905   5.163   1.837   2.630
  669SOL    HW1 2906   5.165   1.740   2.607
  669SOL    HW2 2907   5.237   1.884   2.582
  670SOL     OW 2908   3.590   2.141   3.031
  670SOL    HW1 2909   3.577   2.139   3.130
  670SOL    HW2 2910   3.502   2.137   2.985
  671SOL     OW 2911   2.397   6.395   1.986
  671SOL    HW1 2912   2.470   6.346   1.938
  671SOL    HW2 2913   2.316   6.336   1.991
  672SOL     OW 2914   0.891   6.930   2.184
  672SOL    HW1 2915   0.990   6.944   2.194
  672SOL    HW2 2916   0.873   6.833   2.164
  673SOL     OW 2917   5.921   0.235   6.535
  673SOL    HW1 2918   5.943   0.140   6.511
  673SOL    HW2 2919   5.898   0.239   6.633
  674SOL     OW 2920   5.284   0.474   3.873
  674SOL    HW1 2921   5.311   0.545   3.807
  674SOL    HW2 2922   5.185   0.472   3.881
  675SOL     OW 2923   0.513   3.594   3.120
  675SOL    HW1 2924   0.515   3.497   3.093
  675SOL    HW2 2925   0.601   3.636   3.096
  676SOL     OW 2926   2.281   6.495   5.876
  676SOL    HW1 2927   2.314   6.421   5.934
  676SOL    HW2 2928   2.330   6.580   5.899
  677SOL     OW 2929   5.659   1.808   1.093
  677SOL    HW1 2930   5.574   1.777   1.136
  677SOL    HW2 2931   5.734   1.801   1.159
  678SOL     OW 2932   1.071   5.015   3.594
  678SOL    HW1 2933   1.005   5.091   3.603
  678SOL    HW2 2934   1.022   4.932   3.567
  679SOL     OW 2935   4.717   2.014   5.101
  679SOL    HW1 2936   4.756   1.940   5.155
  679SOL    HW2 2937   4.719   2.099   5.154
  680SOL     OW 2938   6.398   6.009   3.890
  680SOL    HW1 2939   6.493   5.979   3.885
  680SOL    HW2 2940   6.387   6.075   3.964
  681SOL     OW 2941   4.724   4.160   2.754
  681SOL    HW1 2942   4.777   4.093   2.702
  681SOL    HW2 2943   4.747   4.151   2.851
  682SOL     OW 2944   0.308   1.573   2.955
  682SOL    HW1 2945   0.362   1.516   2.893
  682SOL    HW2 2946   0.369   1.624   3.016
  683SOL     OW 2947   3.400   4.289   1.323
  683SOL    HW1 2948   3.420   4.284   1.421
  683SOL    HW2 2949   3.402   4.197   1.284
  684SOL     OW 2950   6.622   1.342   5.595
  684SOL    HW1 2951   6.675   1.405   5.651
  684SOL    HW2 2952   6.639   1.248   5.625
  685SOL     OW 2953   2.911   6.818   2.616
  685SOL    HW1 2954   2.824   6.769   2.604
  685SOL    HW2 2955   2.937   6.861   2.530
  686SOL     OW 2956   3.934   0.946   5.032
  686SOL    HW1 2957   3.938   1.044   5.049
  686SOL    HW2 2958   4.025   0.912   5.010
  687SOL     OW 2959   0.165   1.427   3.883
  687SOL    HW1 2960   0.248   1.377   3.907
  687SOL    HW2 2961   0.127   1.390   3.798
  688SOL     OW 2962   5.837   1.366   0.030
  688SOL    HW1 2963   5.843   1.464   0.048
  688SOL    HW2 2964   5.891   1.343   6.973
  689SOL     OW 2965   1.682   5.568   6.839
  689SOL    HW1 2966   1.634   5.622   6.770
  689SOL    HW2 2967   1.717   5.484   6.798
  690SOL     OW 2968   5.687   4.115   3.238
  690SOL    HW1 2969   5.679   4.016   3.226
  690SOL    HW2 2970   5.751   4.135   3.312
  691SOL     OW 2971   5.966   1.587   1.535
  691SOL    HW1 2972   6.003   1.539   1.614
  691SOL    HW2 2973   6.023   1.666   1.514
  692SOL     OW 2974   1.849   0.719   4.744
  692SOL    HW1 2975   1.864   0.753   4.651
  692SOL    HW2 2976   1.921   0.654   4.767
  693SOL     OW 2977   6.075   5.074   3.210
  693SOL    HW1 2978   5.984   5.068   3.251
  693SOL    HW2 2979   6.144   5.061   3.280
  694SOL     OW 2980   4.455   5.990   4.797
  694SOL    HW1 2981   4.506   6.054   4.854
  694SOL    HW2 2982   4.442   6.029   4.706
  695SOL     OW 2983   4.912   6.983   3.913
  695SOL    HW1 2984   4.974   6.931   3.972
  695SOL    HW2 2985   4.960   7.008   3.829
  696SOL     OW 2986   5.646   4.152   2.526
  696SOL    HW1 2987   5.662   4.223   2.457
  696SOL    HW2 2988   5.725   4.090   2.530
  697SOL     OW 2989   1.337   6.457   2.102
  697SOL    HW1 2990   1.283   6.408   2.169
  697SOL    HW2 2991   1.433   6.430   2.109
  698SOL     OW 2992   5.518   5.956   6.339
  698SOL    HW1 2993   5.598   5.972   6.281
  698SOL    HW2 2994   5.481   6.044   6.369
  699SOL     OW 2995   3.529   3.293   0.615
  699SOL    HW1 2996   3.458   3.225   0.633
  699SOL    HW2 2997   3.553   3.339   0.700
  700SOL     OW 2998   3.987   6.716   4.986
  700SOL    HW1 2999   3.897   6.732   5.027
  700SOL    HW2 3000   4.050   6.789   5.011
  701SOL     OW 3001   4.407   5.194   0.987
  701SOL    HW1 3002   4.344   5.117   0.999
  701SOL    HW2 3003   4.467   5.202   1.066
  702SOL     OW 3004   4.154   0.765   4.531
  702SOL    HW1 3005   4.056   0.782   4.529
  702SOL    HW2 3006   4.202   0.849   4.556
  703SOL     OW 3007   2.769   2.717   0.104
  703SOL    HW1 3008   2.721   2.701   0.018
  703SOL    HW2 3009   2.780   2.816   0.118
  704SOL     OW 3010   3.308   1.483   5.514
  704SOL    HW1 3011   3.309   1.492   5.614
  704SOL    HW2 3012   3.222   1.441   5.485
  705SOL     OW 3013   0.322   6.223   5.503
  705SOL    HW1 3014   0.408   6.201   5.457
  705SOL    HW2 3015   0.247   6.172   5.461
  706SOL     OW 3016   3.670   0.931   4.838
  706SOL    HW1 3017   3.683   0.835   4.861
  706SOL    HW2 3018   3.751   0.984   4.864
  707SOL     OW 3019   2.609   5.500   4.162
  707SOL    HW1 3020   2.597   5.419   4.220
  707SOL    HW2 3021   2.689   5.552   4.193
  708SOL     OW 3022   4.972   5.852   3.903
  708SOL    HW1 3023   4.959   5.944   3.866
  708SOL    HW2 3024   5.069   5.838   3.924
  709SOL     OW 3025   2.275   0.845   1.435
  709SOL    HW1 3026   2.242   0.759   1.397
  709SOL    HW2 3027   2.320   0.898   1.364
  710SOL     OW 3028   5.274   3.317   1.868
  710SOL    HW1 3029   5.280   3.241   1.803
  710SOL    HW2 3030   5.185   3.361   1.861
  711SOL     OW 3031   0.178   1.723   0.479
  711SOL    HW1 3032   0.203   1.784   0.404
  711SOL    HW2 3033   0.174   1.629   0.446
  712SOL     OW 3034   5.299   3.807   0.041
  712SOL    HW1 3035   5.223   3.867   0.066
  712SOL    HW2 3036   5.265   3.732   7.007
  713SOL     OW 3037   4.325   3.699   5.388
  713SOL    HW1 3038   4.359   3.792   5.374
  713SOL    HW2 3039   4.402   3.637   5.402
  714SOL     OW 3040   5.495   5.917   2.853
  714SOL    HW1 3041   5.566   5.847   2.846
  714SOL    HW2 3042   5.495   5.956   2.945
  715SOL     OW 3043   5.971   4.580   5.438
  715SOL    HW1 3044   5.933   4.645   5.373
  715SOL    HW2 3045   6.070   4.595   5.446
  716SOL     OW 3046   3.068   2.172   3.194
  716SOL    HW1 3047   3.007   2.224   3.134
  716SOL    HW2 3048   3.018   2.145   3.276
  717SOL     OW 3049   5.064   5.243   4.112
  717SOL    HW1 3050   5.012   5.272   4.032
  717SOL    HW2 3051   5.158   5.278   4.106
  718SOL     OW 3052   5.974   2.351   5.102
  718SOL    HW1 3053   5.904   2.366   5.173
  718SOL    HW2 3054   6.036   2.278   5.132
  719SOL     OW 3055   5.263   6.425   3.277
  719SOL    HW1 3056   5.278   6.360   3.202
  719SOL    HW2 3057   5.172   6.465   3.268
  720SOL     OW 3058   2.828   1.194   1.212
  720SOL    HW1 3059   2.821   1.268   1.145
  720SOL    HW2 3060   2.907   1.210   1.272
  721SOL     OW 3061   6.845   2.692   1.944
  721SOL    HW1 3062   6.855   2.677   2.042
  721SOL    HW2 3063   6.935   2.710   1.903
  722SOL     OW 3064   4.880   5.900   0.705
  722SOL    HW1 3065   4.893   5.959   0.625
  722SOL    HW2 3066   4.893   5.953   0.788
  723SOL     OW 3067   2.514   0.212   4.495
  723SOL    HW1 3068   2.518   0.119   4.458
  723SOL    HW2 3069   2.521   0.210   4.594
  724SOL     OW 3070   0.967   1.817   4.502
  724SOL    HW1 3071   0.886   1.867   4.473
  724SOL    HW2 3072   1.012   1.867   4.576
  725SOL     OW 3073   1.778   4.507   3.254
  725SOL    HW1 3074   1.869   4.466   3.243
  725SOL    HW2 3075   1.708   4.442   3.225
  726SOL     OW 3076   1.679   3.755   1.187
  726SOL    HW1 3077   1.688   3.852   1.211
  726SOL    HW2 3078   1.653   3.702   1.267
  727SOL     OW 3079   3.529   5.135   4.934
  727SOL    HW1 3080   3.470   5.066   4.893
  727SOL    HW2 3081   3.607   5.152   4.874
  728SOL     OW 3082   6.589   3.062   3.603
  728SOL    HW1 3083   6.664   3.031   3.662
  728SOL    HW2 3084   6.611   3.040   3.507
  729SOL     OW 3085   0.770   4.228   1.077
  729SOL    HW1 3086   0.831   4.199   1.150
  729SOL    HW2 3087   0.808   4.309   1.032
  730SOL     OW 3088   4.346   1.359   3.014
  730SOL    HW1 3089   4.261   1.396   3.052
  730SOL    HW2 3090   4.355   1.262   3.039
  731SOL     OW 3091   4.646   4.571   4.200
  731SOL    HW1 3092   4.714   4.568   4.274
  731SOL    HW2 3093   4.629   4.478   4.167
  732SOL     OW 3094   3.440   0.872   5.019
  732SOL    HW1 3095   3.472   0.889   5.112
  732SOL    HW2 3096   3.497   0.923   4.954
  733SOL     OW 3097   6.173   5.257   3.579
  733SOL    HW1 3098   6.191   5.342   3.629
  733SOL    HW2 3099   6.170   5.276   3.481
  734SOL     OW 3100   6.275   6.924   2.459
  734SOL    HW1 3101   6.291   6.876   2.373
  734SOL    HW2 3102   6.363   6.937   2.506
  735SOL     OW 3103   4.270   0.106   2.129
  735SOL    HW1 3104   4.350   0.046   2.127
  735SOL    HW2 3105   4.291   0.192   2.082
  736SOL     OW 3106   2.198   1.638   3.633
  736SOL    HW1 3107   2.208   1.728   3.589
  736SOL    HW2 3108   2.223   1.567   3.568
  737SOL     OW 3109   3.590   1.135   6.271
  737SOL    HW1 3110   3.589   1.235   6.262
  737SOL    HW2 3111   3.644   1.096   6.197
  738SOL     OW 3112   2.174   4.700   0.218
  738SOL    HW1 3113   2.082   4.708   0.179
  738SOL    HW2 3114   2.219   4.789   0.216
  739SOL     OW 3115   2.079   6.934   3.728
  739SOL    HW1 3116   2.060   7.000   3.654
  739SOL    HW2 3117   2.173   6.944   3.758
  740SOL     OW 3118   4.887   3.738   3.247
  740SOL    HW1 3119   4.986   3.723   3.254
  740SOL    HW2 3120   4.846   3.665   3.192
  741SOL     OW 3121   3.191   1.068   2.910
  741SOL    HW1 3122   3.213   0.994   2.974
  741SOL    HW2 3123   3.106   1.112   2.938
  742SOL     OW 3124   1.985   6.008   1.746
  742SOL    HW1 3125   1.913   5.968   1.689
  742SOL    HW2 3126   2.055   6.048   1.687
  743SOL     OW 3127   0.742   6.087   2.931
  743SOL    HW1 3128   0.840   6.071   2.932
  743SOL    HW2 3129   0.710   6.092   2.837
  744SOL     OW 3130   5.253   1.574   6.874
  744SOL    HW1 3131   5.264   1.486   6.828
  744SOL    HW2 3132   5.168   1.574   6.927
  745SOL     OW 3133   2.440   6.537   4.517
  745SOL    HW1 3134   2.393   6.556   4.431
  745SOL    HW2 3135   2.510   6.467   4.502
  746SOL     OW 3136   0.208   5.048   4.679
  746SOL    HW1 3137   0.183   5.144   4.663
  746SOL    HW2 3138   0.130   4.989   4.657
  747SOL     OW 3139   4.744   5.688   2.609
  747SOL    HW1 3140   4.743   5.734   2.521
  747SOL    HW2 3141   4.838   5.687   2.645
  748SOL     OW 3142   5.679   4.999   1.536
  748SOL    HW1 3143   5.738   5.075   1.509
  748SOL    HW2 3144   5.728   4.913   1.525
  749SOL     OW 3145   5.146   4.512   4.957
  749SOL    HW1 3146   5.057   4.479   4.926
  749SOL    HW2 3147   5.183   4.576   4.890
  750SOL     OW 3148   2.192   2.041   2.822
  750SOL    HW1 3149   2.168   1.984   2.743
  750SOL    HW2 3150   2.110   2.059   2.876
  751SOL     OW 3151   3.274   0.531   0.620
  751SOL    HW1 3152   3.216   0.462   0.577
  751SOL    HW2 3153   3.243   0.622   0.594
  752SOL     OW 3154   3.634   2.779   5.169
  752SOL    HW1 3155   3.558   2.805   5.110
  752SOL    HW2 3156   3.717   2.825   5.138
  753SOL     OW 3157   3.561   4.143   4.114
  753SOL    HW1 3158   3.659   4.136   4.094
  753SOL    HW2 3159   3.517   4.203   4.047
  754SOL     OW 3160   5.312   0.358   0.377
  754SOL    HW1 3161   5.252   0.419   0.324
  754SOL    HW2 3162   5.275   0.348   0.469
  755SOL     OW 3163   4.612   4.516   5.326
  755SOL    HW1 3164   4.618   4.554   5.234
  755SOL    HW2 3165   4.551   4.436   5.325
  756SOL     OW 3166   2.281   5.011   6.315
  756SOL    HW1 3167   2.186   5.032   6.339
  756SOL    HW2 3168   2.309   5.069   6.239
  757SOL     OW 3169   1.856   6.071   1.969
  757SOL    HW1 3170   1.770   6.078   1.919
  757SOL    HW2 3171   1.930   6.052   1.904
  758SOL     OW 3172   4.883   0.827   4.171
  758SOL    HW1 3173   4.876   0.867   4.262
  758SOL    HW2 3174   4.968   0.857   4.127
  759SOL     OW 3175   0.506   3.652   3.846
  759SOL    HW1 3176   0.432   3.584   3.843
  759SOL    HW2 3177   0.594   3.606   3.835
  760SOL     OW 3178   6.809   4.943   3.490
  760SOL    HW1 3179   6.805   4.843   3.491
  760SOL    HW2 3180   6.724   4.981   3.527
  761SOL     OW 3181   4.937   5.023   6.593
  761SOL    HW1 3182   4.878   5.030   6.512
  761SOL    HW2 3183   5.031   5.042   6.566
  762SOL     OW 3184   3.913   6.043   3.404
  762SOL    HW1 3185   3.884   6.046   3.308
  762SOL    HW2 3186   3.964   5.959   3.420
  763SOL     OW 3187   5.211   0.379   0.632
  763SOL    HW1 3188   5.159   0.407   0.712
  763SOL    HW2 3189   5.301   0.347   0.661
  764SOL     OW 3190   5.579   6.784   5.417
  764SOL    HW1 3191   5.598   6.765   5.513
  764SOL    HW2 3192   5.485   6.817   5.407
  765SOL     OW 3193   6.056   6.736   0.336
  765SOL    HW1 3194   6.033   6.823   0.379
  765SOL    HW2 3195   6.148   6.708   0.365
  766SOL     OW 3196   2.729   1.659   4.409
  766SOL    HW1 3197   2.681   1.638   4.495
  766SOL    HW2 3198   2.825   1.676   4.428
  767SOL     OW 3199   6.540   5.707   4.280
  767SOL    HW1 3200   6.540   5.794   4.231
  767SOL    HW2 3201   6.468   5.648   4.242
  768SOL     OW 3202   2.102   5.476   3.128
  768SOL    HW1 3203   2.063   5.459   3.038
  768SOL    HW2 3204   2.028   5.487   3.195
  769SOL     OW 3205   2.969   2.153   5.473
  769SOL    HW1 3206   2.916   2.191   5.396
  769SOL    HW2 3207   2.959   2.213   5.552
  770SOL     OW 3208   1.522   5.085   6.048
  770SOL    HW1 3209   1.486   5.103   5.956
  770SOL    HW2 3210   1.489   4.997   6.080
  771SOL     OW 3211   1.618   5.064   2.820
  771SOL    HW1 3212   1.632   4.989   2.885
  771SOL    HW2 3213   1.568   5.138   2.865
  772SOL     OW 3214   5.408   4.482   0.502
  772SOL    HW1 3215   5.476   4.553   0.522
  772SOL    HW2 3216   5.436   4.397   0.547
  773SOL     OW 3217   1.933   4.365   3.831
  773SOL    HW1 3218   1.890   4.321   3.910
  773SOL    HW2 3219   1.886   4.451   3.811
  774SOL     OW 3220   2.377   1.026   3.657
  774SOL    HW1 3221   2.475   1.016   3.675
  774SOL    HW2 3222   2.357   1.121   3.634
  775SOL     OW 3223   1.405   4.626   2.879
  775SOL    HW1 3224   1.451   4.715   2.887
  775SOL    HW2 3225   1.447   4.561   2.942
  776SOL     OW 3226   2.536   5.199   5.944
  776SOL    HW1 3227   2.599   5.123   5.932
  776SOL    HW2 3228   2.558   5.272   5.879
  777SOL     OW 3229   1.905   3.572   6.191
  777SOL    HW1 3230   1.908   3.671   6.178
  777SOL    HW2 3231   1.954   3.548   6.275
  778SOL     OW 3232   3.222   5.603   6.905
  778SOL    HW1 3233   3.219   5.609   6.805
  778SOL    HW2 3234   3.250   5.511   6.931
  779SOL     OW 3235   6.129   2.238   2.967
  779SOL    HW1 3236   6.096   2.331   2.982
  779SOL    HW2 3237   6.199   2.238   2.895
  780SOL     OW 3238   6.894   2.149   5.126
  780SOL    HW1 3239   6.835   2.223   5.094
  780SOL    HW2 3240   6.989   2.171   5.103
  781SOL     OW 3241   0.258   4.427   6.660
  781SOL    HW1 3242   0.305   4.483   6.591
  781SOL    HW2 3243   0.195   4.485   6.712
  782SOL     OW 3244   1.937   3.793   5.451
  782SOL    HW1 3245   2.019   3.756   5.495
  782SOL    HW2 3246   1.956   3.811   5.355
  783SOL     OW 3247   6.527   4.809   6.662
  783SOL    HW1 3248   6.493   4.888   6.713
  783SOL    HW2 3249   6.619   4.827   6.630
  784SOL     OW 3250   2.180   6.271   0.849
  784SOL    HW1 3251   2.183   6.370   0.842
  784SOL    HW2 3252   2.234   6.230   0.776
  785SOL     OW 3253   0.455   1.053   4.366
  785SOL    HW1 3254   0.483   0.976   4.424
  785SOL    HW2 3255   0.486   1.036   4.272
  786SOL     OW 3256   5.835   0.783   3.997
  786SOL    HW1 3257   5.892   0.863   4.016
  786SOL    HW2 3258   5.866   0.707   4.054
  787SOL     OW 3259   2.342   0.165   1.513
  787SOL    HW1 3260   2.246   0.151   1.538
  787SOL    HW2 3261   2.349   0.184   1.415
  788SOL     OW 3262   2.143   2.776   1.921
  788SOL    HW1 3263   2.175   2.700   1.978
  788SOL    HW2 3264   2.043   2.772   1.913
  789SOL     OW 3265   4.192   4.781   2.661
  789SOL    HW1 3266   4.152   4.703   2.612
  789SOL    HW2 3267   4.193   4.861   2.601
  790SOL     OW 3268   0.346   3.121   2.122
  790SOL    HW1 3269   0.402   3.090   2.045
  790SOL    HW2 3270   0.255   3.146   2.089
  791SOL     OW 3271   3.224   6.942   3.625
  791SOL    HW1 3272   3.193   7.020   3.679
  791SOL    HW2 3273   3.147   6.901   3.577
  792SOL     OW 3274   2.283   0.395   0.627
  792SOL    HW1 3275   2.260   0.461   0.700
  792SOL    HW2 3276   2.304   0.445   0.543
  793SOL     OW 3277   2.311   6.324   4.651
  793SOL    HW1 3278   2.349   6.250   4.597
  793SOL    HW2 3279   2.342   6.412   4.615
  794SOL     OW 3280   3.251   2.908   2.688
  794SOL    HW1 3281   3.195   2.989   2.708
  794SOL    HW2 3282   3.193   2.836   2.651
  795SOL     OW 3283   4.910   0.956   5.692
  795SOL    HW1 3284   4.991   0.936   5.636
  795SOL    HW2 3285   4.940   0.985   5.783
  796SOL     OW 3286   0.449   2.407   0.078
  796SOL    HW1 3287   0.531   2.457   0.106
  796SOL    HW2 3288   0.386   2.401   0.155
  797SOL     OW 3289   3.322   6.633   1.362
  797SOL    HW1 3290   3.309   6.589   1.273
  797SOL    HW2 3291   3.248   6.698   1.378
  798SOL     OW 3292   5.242   4.900   1.201
  798SOL    HW1 3293   5.248   4.919   1.299
  798SOL    HW2 3294   5.246   4.986   1.150
  799SOL     OW 3295   2.495   2.808   5.933
  799SOL    HW1 3296   2.444   2.839   5.853
  799SOL    HW2 3297   2.556   2.881   5.964
  800SOL     OW 3298   5.617   2.986   3.375
  800SOL    HW1 3299   5.705   3.022   3.406
  800SOL    HW2 3300   5.631   2.894   3.338
  801SOL     OW 3301   1.774   5.958   6.315
  801SOL    HW1 3302   1.816   5.872   6.287
  801SOL    HW2 3303   1.702   5.983   6.251
  802SOL     OW 3304   4.552   2.541   6.758
  802SOL    HW1 3305   4.616   2.602   6.807
  802SOL    HW2 3306   4.460   2.556   6.793
  803SOL     OW 3307   2.417   2.028   4.198
  803SOL    HW1 3308   2.399   1.992   4.106
  803SOL    HW2 3309   2.413   2.128   4.196
  804SOL     OW 3310   5.238   0.550   2.796
  804SOL    HW1 3311   5.152   0.520   2.838
  804SOL    HW2 3312   5.314   0.498   2.835
  805SOL     OW 3313   3.677   0.729   4.035
  805SOL    HW1 3314   3.719   0.785   3.963
  805SOL    HW2 3315   3.617   0.660   3.993
  806SOL     OW 3316   3.114   6.318   5.316
  806SOL    HW1 3317   3.131   6.411   5.283
  806SOL    HW2 3318   3.196   6.262   5.303
  807SOL     OW 3319   1.067   5.918   5.996
  807SOL    HW1 3320   1.097   5.990   5.934
  807SOL    HW2 3321   0.980   5.880   5.963
  808SOL     OW 3322   5.279   2.859   5.816
  808SOL    HW1 3323   5.279   2.825   5.723
  808SOL    HW2 3324   5.199   2.824   5.865
  809SOL     OW 3325   3.077   5.830   6.969
  809SOL    HW1 3326   3.119   5.743   6.944
  809SOL    HW2 3327   2.996   5.845   6.913
  810SOL     OW 3328   3.593   3.542   0.187
  810SOL    HW1 3329   3.533   3.473   0.227
  810SOL    HW2 3330   3.539   3.607   0.134
  811SOL     OW 3331   6.098   5.353   4.619
  811SOL    HW1 3332   6.188   5.330   4.584
  811SOL    HW2 3333   6.102   5.438   4.671
  812SOL     OW 3334   0.982   3.681   1.819
  812SOL    HW1 3335   1.001   3.633   1.733
  812SOL    HW2 3336   0.994   3.619   1.896
  813SOL     OW 3337   2.112   1.208   5.324
  813SOL    HW1 3338   2.138   1.162   5.239
  813SOL    HW2 3339   2.176   1.281   5.344
  814SOL     OW 3340   0.843   4.246   2.807
  814SOL    HW1 3341   0.789   4.168   2.837
  814SOL    HW2 3342   0.785   4.309   2.755
  815SOL     OW 3343   4.454   2.432   4.632
  815SOL    HW1 3344   4.476   2.505   4.697
  815SOL    HW2 3345   4.398   2.363   4.677
  816SOL     OW 3346   5.570   3.542   6.520
  816SOL    HW1 3347   5.510   3.566   6.597
  816SOL    HW2 3348   5.663   3.530   6.553
  817SOL     OW 3349   0.198   4.856   6.504
  817SOL    HW1 3350   0.181   4.952   6.482
  817SOL    HW2 3351   0.297   4.838   6.501
  818SOL     OW 3352   0.256   1.701   5.133
  818SOL    HW1 3353   0.205   1.728   5.051
  818SOL    HW2 3354   0.271   1.782   5.190
  819SOL     OW 3355   4.953   3.264   1.653
  819SOL    HW1 3356   4.908   3.176   1.670
  819SOL    HW2 3357   5.020   3.253   1.580
  820SOL     OW 3358   2.656   2.146   5.243
  820SOL    HW1 3359   2.742   2.155   5.193
  820SOL    HW2 3360   2.635   2.049   5.255
  821SOL     OW 3361   5.014   2.948   6.712
  821SOL    HW1 3362   5.096   3.001   6.688
  821SOL    HW2 3363   5.018   2.859   6.668
  822SOL     OW 3364   0.521   4.932   3.281
  822SOL    HW1 3365   0.488   4.878   3.358
  822SOL    HW2 3366   0.584   4.878   3.226
  823SOL     OW 3367   1.853   3.033   4.414
  823SOL    HW1 3368   1.811   3.121   4.436
  823SOL    HW2 3369   1.942   3.026   4.460
  824SOL     OW 3370   4.909   0.008   6.502
  824SOL    HW1 3371   4.847   0.037   6.575
  824SOL    HW2 3372   4.856   6.989   6.429
  825SOL     OW 3373   6.170   5.916   0.947
  825SOL    HW1 3374   6.199   5.867   0.865
  825SOL    HW2 3375   6.085   5.965   0.928
  826SOL     OW 3376   3.827   1.989   0.213
  826SOL    HW1 3377   3.803   1.958   0.305
  826SOL    HW2 3378   3.798   1.921   0.146
  827SOL     OW 3379   3.592   3.594   4.984
  827SOL    HW1 3380   3.630   3.680   5.018
  827SOL    HW2 3381   3.556   3.541   5.061
  828SOL     OW 3382   0.213   6.688   6.335
  828SOL    HW1 3383   0.256   6.691   6.425
  828SOL    HW2 3384   0.258   6.753   6.274
  829SOL     OW 3385   3.809   3.806   2.182
  829SOL    HW1 3386   3.903   3.783   2.207
  829SOL    HW2 3387   3.748   3.778   2.256
  830SOL     OW 3388   6.785   4.683   6.878
  830SOL    HW1 3389   6.740   4.699   6.966
  830SOL    HW2 3390   6.849   4.757   6.860
  831SOL     OW 3391   5.445   1.054   2.112
  831SOL    HW1 3392   5.521   1.096   2.163
  831SOL    HW2 3393   5.379   1.016   2.177
  832SOL     OW 3394   2.913   1.874   4.779
  832SOL    HW1 3395   2.937   1.821   4.861
  832SOL    HW2 3396   2.932   1.971   4.796
  833SOL     OW 3397   4.036   3.084   6.772
  833SOL    HW1 3398   3.973   3.105   6.698
  833SOL    HW2 3399   3.993   3.020   6.836
  834SOL     OW 3400   5.559   2.597   0.562
  834SOL    HW1 3401   5.464   2.573   0.579
  834SOL    HW2 3402   5.592   2.657   0.636
  835SOL     OW 3403   6.860   0.258   4.739
  835SOL    HW1 3404   6.854   0.160   4.723
  835SOL    HW2 3405   6.847   0.307   4.653
  836SOL     OW 3406   5.112   0.569   4.688
  836SOL    HW1 3407   5.154   0.657   4.665
  836SOL    HW2 3408   5.164   0.495   4.646
  837SOL     OW 3409   1.344   0.594   0.166
  837SOL    HW1 3410   1.433   0.571   0.126
  837SOL    HW2 3411   1.273   0.577   0.098
  838SOL     OW 3412   1.565   5.973   3.266
  838SOL    HW1 3413   1.638   6.003   3.205
  838SOL    HW2 3414   1.478   5.975   3.217
  839SOL     OW 3415   1.288   2.309   0.808
  839SOL    HW1 3416   1.306   2.329   0.711
  839SOL    HW2 3417   1.375   2.302   0.857
  840SOL     OW 3418   4.793   4.948   0.726
  840SOL    HW1 3419   4.788   4.849   0.716
  840SOL    HW2 3420   4.700   4.986   0.729
  841SOL     OW 3421   2.570   5.368   6.497
  841SOL    HW1 3422   2.519   5.440   6.449
  841SOL    HW2 3423   2.529   5.279   6.475
  842SOL     OW 3424   4.029   5.572   0.734
  842SOL    HW1 3425   4.123   5.600   0.718
  842SOL    HW2 3426   4.013   5.564   0.832
  843SOL     OW 3427   1.617   0.271   2.188
  843SOL    HW1 3428   1.561   0.302   2.265
  843SOL    HW2 3429   1.582   0.311   2.103
  844SOL     OW 3430   0.038   0.438   1.774
  844SOL    HW1 3431   0.070   0.518   1.724
  844SOL    HW2 3432   6.976   0.460   1.821
  845SOL     OW 3433   3.463   1.434   2.917
  845SOL    HW1 3434   3.365   1.423   2.901
  845SOL    HW2 3435   3.497   1.510   2.862
  846SOL     OW 3436   2.337   2.209   0.942
  846SOL    HW1 3437   2.323   2.307   0.936
  846SOL    HW2 3438   2.409   2.181   0.879
  847SOL     OW 3439   2.783   3.789   1.445
  847SOL    HW1 3440   2.696   3.777   1.397
  847SOL    HW2 3441   2.851   3.827   1.382
  848SOL     OW 3442   6.442   6.145   0.256
  848SOL    HW1 3443   6.443   6.216   0.186
  848SOL    HW2 3444   6.347   6.131   0.287
  849SOL     OW 3445   5.858   2.869   6.628
  849SOL    HW1 3446   5.955   2.888   6.643
  849SOL    HW2 3447   5.811   2.954   6.603
  850SOL     OW 3448   1.394   1.042   4.647
  850SOL    HW1 3449   1.339   1.115   4.689
  850SOL    HW2 3450   1.440   0.990   4.719
  851SOL     OW 3451   5.615   3.032   6.157
  851SOL    HW1 3452   5.639   3.069   6.067
  851SOL    HW2 3453   5.528   2.983   6.150
  852SOL     OW 3454   6.951   4.051   2.134
  852SOL    HW1 3455   6.882   3.992   2.176
  852SOL    HW2 3456   0.018   4.026   2.167
  853SOL     OW 3457   3.070   2.835   0.618
  853SOL    HW1 3458   3.084   2.798   0.710
  853SOL    HW2 3459   2.985   2.798   0.580
  854SOL     OW 3460   6.381   6.610   5.565
  854SOL    HW1 3461   6.480   6.596   5.564
  854SOL    HW2 3462   6.346   6.590   5.657
  855SOL     OW 3463   5.734   1.474   0.518
  855SOL    HW1 3464   5.641   1.438   0.522
  855SOL    HW2 3465   5.798   1.399   0.501
  856SOL     OW 3466   1.859   5.379   2.163
  856SOL    HW1 3467   1.820   5.471   2.170
  856SOL    HW2 3468   1.942   5.382   2.107
  857SOL     OW 3469   0.070   5.640   4.940
  857SOL    HW1 3470   0.148   5.693   4.973
  857SOL    HW2 3471   0.090   5.542   4.950
  858SOL     OW 3472   4.553   4.006   0.041
  858SOL    HW1 3473   4.625   4.070   0.011
  858SOL    HW2 3474   4.582   3.912   0.021
  859SOL     OW 3475   5.224   5.731   5.616
  859SOL    HW1 3476   5.262   5.739   5.524
  859SOL    HW2 3477   5.290   5.687   5.676
  860SOL     OW 3478   4.423   2.695   6.349
  860SOL    HW1 3479   4.501   2.642   6.383
  860SOL    HW2 3480   4.413   2.681   6.251
  861SOL     OW 3481   1.687   5.341   2.399
  861SOL    HW1 3482   1.742   5.390   2.467
  861SOL    HW2 3483   1.704   5.378   2.308
  862SOL     OW 3484   0.557   3.851   3.662
  862SOL    HW1 3485   0.535   3.781   3.729
  862SOL    HW2 3486   0.597   3.809   3.580
  863SOL     OW 3487   6.246   0.475   1.246
  863SOL    HW1 3488   6.294   0.396   1.283
  863SOL    HW2 3489   6.205   0.527   1.321
  864SOL     OW 3490   6.145   6.075   3.217
  864SOL    HW1 3491   6.112   5.983   3.195
  864SOL    HW2 3492   6.117   6.100   3.309
  865SOL     OW 3493   1.532   5.918   4.830
  865SOL    HW1 3494   1.595   5.876   4.896
  865SOL    HW2 3495   1.572   5.913   4.738
  866SOL     OW 3496   3.633   0.108   1.540
  866SOL    HW1 3497   3.596   0.020   1.568
  866SOL    HW2 3498   3.684   0.149   1.616
  867SOL     OW 3499   5.892   2.698   5.630
  867SOL    HW1 3500   5.834   2.620   5.653
  867SOL    HW2 3501   5.868   2.732   5.539
  868SOL     OW 3502   0.501   2.429   1.497
  868SOL    HW1 3503   0.596   2.426   1.468
  868SOL    HW2 3504   0.478   2.522   1.526
  869SOL     OW 3505   0.004   4.036   3.186
  869SOL    HW1 3506   0.091   4.040   3.235
  869SOL    HW2 3507   7.016   3.944   3.149
  870SOL     OW 3508   3.377   5.122   2.136
  870SOL    HW1 3509   3.398   5.044   2.077
  870SOL    HW2 3510   3.381   5.207   2.083
  871SOL     OW 3511   4.935   2.100   3.192
  871SOL    HW1 3512   5.009   2.069   3.253
  871SOL    HW2 3513   4.926   2.199   3.199
  872SOL     OW 3514   1.164   2.413   4.922
  872SOL    HW1 3515   1.085   2.474   4.927
  872SOL    HW2 3516   1.174   2.366   5.010
  873SOL     OW 3517   3.957   0.018   6.335
  873SOL    HW1 3518   4.013   0.097   6.309
  873SOL    HW2 3519   3.890   0.046   6.404
  874SOL     OW 3520   5.142   3.543   1.643
  874SOL    HW1 3521   5.042   3.554   1.640
  874SOL    HW2 3522   5.177   3.589   1.724
  875SOL     OW 3523   4.789   5.526   1.726
  875SOL    HW1 3524   4.771   5.472   1.643
  875SOL    HW2 3525   4.736   5.489   1.802
  876SOL     OW 3526   6.705   0.024   0.820
  876SOL    HW1 3527   6.691   6.984   0.896
  876SOL    HW2 3528   6.652   7.018   0.741
  877SOL     OW 3529   1.939   3.787   0.253
  877SOL    HW1 3530   2.024   3.829   0.221
  877SOL    HW2 3531   1.861   3.837   0.214
  878SOL     OW 3532   3.905   6.544   4.252
  878SOL    HW1 3533   3.861   6.479   4.191
  878SOL    HW2 3534   3.874   6.637   4.231
  879SOL     OW 3535   5.619   6.570   6.607
  879SOL    HW1 3536   5.525   6.601   6.598
  879SOL    HW2 3537   5.681   6.645   6.583
  880SOL     OW 3538   3.090   3.113   2.760
  880SOL    HW1 3539   3.053   3.191   2.709
  880SOL    HW2 3540   3.150   3.146   2.833
  881SOL     OW 3541   4.760   1.678   0.377
  881SOL    HW1 3542   4.748   1.749   0.307
  881SOL    HW2 3543   4.754   1.588   0.335
  882SOL     OW 3544   1.517   2.737   3.839
  882SOL    HW1 3545   1.607   2.741   3.883
  882SOL    HW2 3546   1.528   2.723   3.741
  883SOL     OW 3547   2.811   6.808   3.277
  883SOL    HW1 3548   2.873   6.746   3.228
  883SOL    HW2 3549   2.807   6.896   3.229
  884SOL     OW 3550   3.669   3.768   5.713
  884SOL    HW1 3551   3.641   3.691   5.655
  884SOL    HW2 3552   3.753   3.808   5.677
  885SOL     OW 3553   4.182   2.694   6.499
  885SOL    HW1 3554   4.278   2.697   6.473
  885SOL    HW2 3555   4.174   2.674   6.597
  886SOL     OW 3556   3.497   1.491   6.733
  886SOL    HW1 3557   3.537   1.540   6.810
  886SOL    HW2 3558   3.494   1.552   6.653
  887SOL     OW 3559   5.191   1.141   5.391
  887SOL    HW1 3560   5.266   1.129   5.325
  887SOL    HW2 3561   5.211   1.218   5.450
  888SOL     OW 3562   0.076   5.963   2.558
  888SOL    HW1 3563   0.077   5.866   2.581
  888SOL    HW2 3564   0.020   6.012   2.624
  889SOL     OW 3565   0.808   3.834   0.383
  889SOL    HW1 3566   0.896   3.824   0.336
  889SOL    HW2 3567   0.766   3.921   0.357
  890SOL     OW 3568   2.412   5.893   4.260
  890SOL    HW1 3569   2.468   5.950   4.199
  890SOL    HW2 3570   2.470   5.823   4.301
  891SOL     OW 3571   4.759   5.365   2.180
  891SOL    HW1 3572   4.730   5.383   2.274
  891SOL    HW2 3573   4.830   5.430   2.154
  892SOL     OW 3574   2.299   4.482   0.953
  892SOL    HW1 3575   2.384   4.501   0.904
  892SOL    HW2 3576   2.264   4.567   0.992
  893SOL     OW 3577   1.955   6.153   2.952
  893SOL    HW1 3578   1.888   6.099   3.003
  893SOL    HW2 3579   1.989   6.100   2.875
  894SOL     OW 3580   0.966   3.895   1.430
  894SOL    HW1 3581   0.941   3.937   1.517
  894SOL    HW2 3582   1.047   3.838   1.443
  895SOL     OW 3583   0.504   5.831   3.977
  895SOL    HW1 3584   0.480   5.779   3.894
  895SOL    HW2 3585   0.446   5.801   4.053
  896SOL     OW 3586   0.625   0.997   6.507
  896SOL    HW1 3587   0.587   1.082   6.544
  896SOL    HW2 3588   0.588   0.980   6.416
  897SOL     OW 3589   4.997   0.627   0.265
  897SOL    HW1 3590   5.003   0.608   0.363
  897SOL    HW2 3591   4.960   0.720   0.251
  898SOL     OW 3592   4.408   0.021   3.200
  898SOL    HW1 3593   4.360   7.000   3.125
  898SOL    HW2 3594   4.342   0.062   3.263
  899SOL     OW 3595   6.671   5.474   0.329
  899SOL    HW1 3596   6.686   5.376   0.347
  899SOL    HW2 3597   6.730   5.502   0.253
  900SOL     OW 3598   5.554   5.504   0.721
  900SOL    HW1 3599   5.535   5.594   0.761
  900SOL    HW2 3600   5.482   5.440   0.749
  901SOL     OW 3601   1.372   0.662   3.272
  901SOL    HW1 3602   1.456   0.711   3.296
  901SOL    HW2 3603   1.388   0.564   3.278
  902SOL     OW 3604   6.118   3.046   1.711
  902SOL    HW1 3605   6.148   2.966   1.763
  902SOL    HW2 3606   6.156   3.041   1.619
  903SOL     OW 3607   6.667   1.849   1.189
  903SOL    HW1 3608   6.675   1.774   1.124
  903SOL    HW2 3609   6.641   1.933   1.142
  904SOL     OW 3610   3.042   0.985   2.334
  904SOL    HW1 3611   3.072   1.080   2.326
  904SOL    HW2 3612   2.943   0.982   2.345
  905SOL     OW 3613   5.755   2.638   6.513
  905SOL    HW1 3614   5.830   2.572   6.518
  905SOL    HW2 3615   5.789   2.729   6.540
  906SOL     OW 3616   5.359   2.977   6.485
  906SOL    HW1 3617   5.325   2.919   6.558
  906SOL    HW2 3618   5.453   2.950   6.463
  907SOL     OW 3619   4.997   4.523   6.551
  907SOL    HW1 3620   4.957   4.432   6.552
  907SOL    HW2 3621   5.072   4.526   6.485
  908SOL     OW 3622   1.400   4.322   3.101
  908SOL    HW1 3623   1.303   4.339   3.117
  908SOL    HW2 3624   1.413   4.284   3.009
  909SOL     OW 3625   5.438   5.647   6.265
  909SOL    HW1 3626   5.403   5.616   6.353
  909SOL    HW2 3627   5.510   5.585   6.234
  910SOL     OW 3628   2.504   4.656   1.173
  910SOL    HW1 3629   2.447   4.625   1.249
  910SOL    HW2 3630   2.562   4.732   1.203
  911SOL     OW 3631   1.133   4.914   5.946
  911SOL    HW1 3632   1.199   4.872   5.885
  911SOL    HW2 3633   1.040   4.892   5.917
  912SOL     OW 3634   5.312   1.690   4.101
  912SOL    HW1 3635   5.263   1.631   4.164
  912SOL    HW2 3636   5.400   1.716   4.140
  913SOL     OW 3637   5.549   6.935   2.531
  913SOL    HW1 3638   5.637   6.902   2.563
  913SOL    HW2 3639   5.524   7.017   2.582
  914SOL     OW 3640   2.732   6.952   6.593
  914SOL    HW1 3641   2.716   6.854   6.601
  914SOL    HW2 3642   2.656   7.002   6.633
  915SOL     OW 3643   5.504   5.795   0.959
  915SOL    HW1 3644   5.571   5.721   0.974
  915SOL    HW2 3645   5.458   5.781   0.872
  916SOL     OW 3646   1.893   2.835   2.547
  916SOL    HW1 3647   1.921   2.855   2.453
  916SOL    HW2 3648   1.841   2.911   2.584
  917SOL     OW 3649   0.319   6.719   0.710
  917SOL    HW1 3650   0.416   6.734   0.691
  917SOL    HW2 3651   0.267   6.720   0.624
  918SOL     OW 3652   2.755   5.858   0.230
  918SOL    HW1 3653   2.834   5.912   0.203
  918SOL    HW2 3654   2.738   5.787   0.162
  919SOL     OW 3655   5.721   1.793   5.337
  919SOL    HW1 3656   5.637   1.848   5.340
  919SOL    HW2 3657   5.698   1.699   5.312
  920SOL     OW 3658   2.904   5.114   2.264
  920SOL    HW1 3659   2.891   5.211   2.242
  920SOL    HW2 3660   2.819   5.064   2.245
  921SOL     OW 3661   4.806   5.306   5.255
  921SOL    HW1 3662   4.715   5.331   5.288
  921SOL    HW2 3663   4.803   5.290   5.157
  922SOL     OW 3664   3.422   2.873   4.030
  922SOL    HW1 3665   3.521   2.867   4.038
  922SOL    HW2 3666   3.384   2.907   4.116
  923SOL     OW 3667   2.460   3.507   5.404
  923SOL    HW1 3668   2.469   3.528   5.501
  923SOL    HW2 3669   2.406   3.578   5.358
  924SOL     OW 3670   6.956   3.156   1.711
  924SOL    HW1 3671   6.867   3.199   1.729
  924SOL    HW2 3672   7.013   3.219   1.659
  925SOL     OW 3673   0.241   1.957   0.322
  925SOL    HW1 3674   0.303   1.980   0.396
  925SOL    HW2 3675   0.264   2.012   0.241
  926SOL     OW 3676   1.925   1.962   1.996
  926SOL    HW1 3677   1.976   1.909   1.927
  926SOL    HW2 3678   1.985   1.981   2.074
  927SOL     OW 3679   6.423   3.529   4.661
  927SOL    HW1 3680   6.335   3.576   4.655
  927SOL    HW2 3681   6.408   3.432   4.676
  928SOL     OW 3682   3.564   4.768   6.197
  928SOL    HW1 3683   3.585   4.810   6.285
  928SOL    HW2 3684   3.642   4.780   6.135
  929SOL     OW 3685   0.167   1.325   4.889
  929SOL    HW1 3686   0.191   1.258   4.959
  929SOL    HW2 3687   0.130   1.278   4.809
  930SOL     OW 3688   5.057   5.190   5.226
  930SOL    HW1 3689   5.119   5.247   5.281
  930SOL    HW2 3690   4.975   5.242   5.205
  931SOL     OW 3691   6.432   1.084   2.755
  931SOL    HW1 3692   6.342   1.107   2.793
  931SOL    HW2 3693   6.445   0.985   2.758
  932SOL     OW 3694   3.952   0.750   3.749
  932SOL    HW1 3695   3.913   0.667   3.790
  932SOL    HW2 3696   4.023   0.724   3.684
  933SOL     OW 3697   1.457   5.713   2.113
  933SOL    HW1 3698   1.461   5.692   2.210
  933SOL    HW2 3699   1.378   5.770   2.094
  934SOL     OW 3700   1.908   3.237   0.378
  934SOL    HW1 3701   1.929   3.310   0.443
  934SOL    HW2 3702   1.939   3.264   0.286
  935SOL     OW 3703   6.161   2.633   4.862
  935SOL    HW1 3704   6.115   2.684   4.790
  935SOL    HW2 3705   6.093   2.586   4.919
  936SOL     OW 3706   1.728   6.991   5.981
  936SOL    HW1 3707   1.638   7.019   5.948
  936SOL    HW2 3708   1.723   6.970   6.079
  937SOL     OW 3709   3.563   1.838   5.863
  937SOL    HW1 3710   3.480   1.797   5.899
  937SOL    HW2 3711   3.628   1.767   5.838
  938SOL     OW 3712   6.004   5.814   4.676
  938SOL    HW1 3713   5.970   5.907   4.690
  938SOL    HW2 3714   5.941   5.749   4.719
  939SOL     OW 3715   0.679   6.606   5.778
  939SOL    HW1 3716   0.709   6.589   5.872
  939SOL    HW2 3717   0.646   6.700   5.770
  940SOL     OW 3718   1.973   5.227   0.143
  940SOL    HW1 3719   1.967   5.130   0.117
  940SOL    HW2 3720   2.049   5.269   0.094
  941SOL     OW 3721   3.596   0.330   0.376
  941SOL    HW1 3722   3.600   0.295   0.469
  941SOL    HW2 3723   3.500   0.345   0.350
  942SOL     OW 3724   6.665   5.214   0.777
  942SOL    HW1 3725   6.691   5.307   0.751
  942SOL    HW2 3726   6.743   5.169   0.821
  943SOL     OW 3727   3.196   5.608   1.505
  943SOL    HW1 3728   3.264   5.655   1.449
  943SOL    HW2 3729   3.112   5.595   1.453
  944SOL     OW 3730   6.304   6.700   3.686
  944SOL    HW1 3731   6.229   6.766   3.698
  944SOL    HW2 3732   6.299   6.631   3.759
  945SOL     OW 3733   0.828   5.087   6.420
  945SOL    HW1 3734   0.897   5.142   6.467
  945SOL    HW2 3735   0.836   4.992   6.448
  946SOL     OW 3736   5.571   2.000   4.090
  946SOL    HW1 3737   5.667   2.025   4.103
  946SOL    HW2 3738   5.539   1.949   4.169
  947SOL     OW 3739   3.695   4.053   4.420
  947SOL    HW1 3740   3.743   4.027   4.505
  947SOL    HW2 3741   3.620   4.115   4.442
  948SOL     OW 3742   3.618   0.706   3.136
  948SOL    HW1 3743   3.603   0.776   3.066
  948SOL    HW2 3744   3.644   0.750   3.222
  949SOL     OW 3745   3.652   7.018   5.752
  949SOL    HW1 3746   3.566   7.023   5.701
  949SOL    HW2 3747   3.727   0.023   5.693
  950SOL     OW 3748   6.667   0.655   2.692
  950SOL    HW1 3749   6.602   0.722   2.729
  950SOL    HW2 3750   6.717   0.612   2.767
  951SOL     OW 3751   1.965   6.876   2.688
  951SOL    HW1 3752   2.049   6.829   2.716
  951SOL    HW2 3753   1.889   6.812   2.684
  952SOL     OW 3754   3.861   1.210   3.364
  952SOL    HW1 3755   3.909   1.185   3.280
  952SOL    HW2 3756   3.770   1.244   3.341
  953SOL     OW 3757   0.270   4.631   6.004
  953SOL    HW1 3758   0.368   4.631   6.022
  953SOL    HW2 3759   0.252   4.681   5.919
  954SOL     OW 3760   4.867   6.188   2.517
  954SOL    HW1 3761   4.799   6.165   2.447
  954SOL    HW2 3762   4.834   6.265   2.572
  955SOL     OW 3763   1.957   5.391   0.586
  955SOL    HW1 3764   1.954   5.316   0.652
  955SOL    HW2 3765   2.006   5.468   0.625
  956SOL     OW 3766   4.677   0.528   0.803
  956SOL    HW1 3767   4.636   0.618   0.816
  956SOL    HW2 3768   4.657   0.470   0.882
  957SOL     OW 3769   6.261   0.645   2.706
  957SOL    HW1 3770   6.284   0.548   2.715
  957SOL    HW2 3771   6.204   0.658   2.625
  958SOL     OW 3772   5.081   6.522   1.691
  958SOL    HW1 3773   5.041   6.607   1.725
  958SOL    HW2 3774   5.048   6.504   1.599
  959SOL     OW 3775   5.197   6.214   3.061
  959SOL    HW1 3776   5.111   6.266   3.055
  959SOL    HW2 3777   5.217   6.173   2.972
  960SOL     OW 3778   1.620   6.385   6.231
  960SOL    HW1 3779   1.527   6.373   6.266
  960SOL    HW2 3780   1.680   6.420   6.303
  961SOL     OW 3781   3.723   0.838   3.348
  961SOL    HW1 3782   3.814   0.822   3.310
  961SOL    HW2 3783   3.719   0.801   3.441
  962SOL     OW 3784   0.455   0.645   4.832
  962SOL    HW1 3785   0.537   0.624   4.779
  962SOL    HW2 3786   0.480   0.693   4.916
  963SOL     OW 3787   5.455   2.862   1.195
  963SOL    HW1 3788   5.412   2.858   1.285
  963SOL    HW2 3789   5.441   2.775   1.148
  964SOL     OW 3790   3.944   5.747   5.059
  964SOL    HW1 3791   3.988   5.659   5.077
  964SOL    HW2 3792   3.980   5.785   4.974
  965SOL     OW 3793   5.981   2.124   3.406
  965SOL    HW1 3794   5.916   2.058   3.444
  965SOL    HW2 3795   5.939   2.215   3.406
  966SOL     OW 3796   4.679   0.859   3.987
  966SOL    HW1 3797   4.744   0.853   4.063
  966SOL    HW2 3798   4.724   0.831   3.903
  967SOL     OW 3799   4.382   4.365   6.506
  967SOL    HW1 3800   4.422   4.406   6.424
  967SOL    HW2 3801   4.376   4.265   6.493
  968SOL     OW 3802   3.499   0.345   1.597
  968SOL    HW1 3803   3.431   0.386   1.537
  968SOL    HW2 3804   3.527   0.256   1.561
  969SOL     OW 3805   3.092   4.279   6.427
  969SOL    HW1 3806   3.093   4.224   6.343
  969SOL    HW2 3807   3.076   4.220   6.506
  970SOL     OW 3808   4.607   0.004   6.080
  970SOL    HW1 3809   4.613   0.094   6.037
  970SOL    HW2 3810   4.695   6.981   6.070
  971SOL     OW 3811   5.441   3.559   3.391
  971SOL    HW1 3812   5.399   3.604   3.470
  971SOL    HW2 3813   5.417   3.610   3.308
  972SOL     OW 3814   0.257   2.896   0.503
  972SOL    HW1 3815   0.253   2.798   0.486
  972SOL    HW2 3816   0.212   2.916   0.590
  973SOL     OW 3817   0.362   3.236   5.510
  973SOL    HW1 3818   0.286   3.295   5.482
  973SOL    HW2 3819   0.382   3.170   5.438
  974SOL     OW 3820   0.394   4.561   2.508
  974SOL    HW1 3821   0.391   4.656   2.478
  974SOL    HW2 3822   0.311   4.539   2.560
  975SOL     OW 3823   3.203   0.363   2.526
  975SOL    HW1 3824   3.173   0.300   2.455
  975SOL    HW2 3825   3.143   0.443   2.527
  976SOL     OW 3826   6.939   3.278   3.599
  976SOL    HW1 3827   6.991   3.224   3.666
  976SOL    HW2 3828   6.858   3.316   3.643
  977SOL     OW 3829   6.325   1.637   2.043
  977SOL    HW1 3830   6.332   1.737   2.045
  977SOL    HW2 3831   6.413   1.598   2.015
  978SOL     OW 3832   5.075   2.937   1.553
  978SOL    HW1 3833   5.040   2.961   1.462
  978SOL    HW2 3834   5.038   2.849   1.582
  979SOL     OW 3835   0.315   4.422   6.962
  979SOL    HW1 3836   0.304   4.363   0.018
  979SOL    HW2 3837   0.294   4.370   6.880
  980SOL     OW 3838   4.013   1.193   4.876
  980SOL    HW1 3839   3.953   1.233   4.807
  980SOL    HW2 3840   3.989   1.229   4.966
  981SOL     OW 3841   0.477   6.562   5.579
  981SOL    HW1 3842   0.557   6.567   5.639
  981SOL    HW2 3843   0.504   6.524   5.491
  982SOL     OW 3844   6.506   1.151   6.117
  982SOL    HW1 3845   6.508   1.168   6.216
  982SOL    HW2 3846   6.429   1.090   6.096
  983SOL     OW 3847   0.707   4.122   3.172
  983SOL    HW1 3848   0.612   4.151   3.171
  983SOL    HW2 3849   0.737   4.108   3.266
  984SOL     OW 3850   0.502   3.401   3.532
  984SOL    HW1 3851   0.442   3.478   3.514
  984SOL    HW2 3852   0.453   3.315   3.516
  985SOL     OW 3853   6.581   5.490   5.064
  985SOL    HW1 3854   6.547   5.399   5.088
  985SOL    HW2 3855   6.564   5.553   5.139
  986SOL     OW 3856   4.564   5.253   1.197
  986SOL    HW1 3857   4.516   5.201   1.267
  986SOL    HW2 3858   4.657   5.273   1.229
  987SOL     OW 3859   4.910   4.419   4.847
  987SOL    HW1 3860   4.819   4.459   4.834
  987SOL    HW2 3861   4.925   4.348   4.778
  988SOL     OW 3862   2.535   4.578   2.115
  988SOL    HW1 3863   2.502   4.489   2.084
  988SOL    HW2 3864   2.631   4.589   2.090
  989SOL     OW 3865   1.112   2.368   1.086
  989SOL    HW1 3866   1.092   2.305   1.012
  989SOL    HW2 3867   1.196   2.339   1.133
  990SOL     OW 3868   3.958   6.999   4.548
  990SOL    HW1 3869   3.910   0.061   4.565
  990SOL    HW2 3870   3.892   6.928   4.524
  991SOL     OW 3871   0.910   5.243   3.689
  991SOL    HW1 3872   0.959   5.293   3.760
  991SOL    HW2 3873   0.942   5.272   3.599
  992SOL     OW 3874   6.988   2.543   0.235
  992SOL    HW1 3875   0.021   2.487   0.174
  992SOL    HW2 3876   7.006   2.517   0.330
  993SOL     OW 3877   0.929   5.184   0.511
  993SOL    HW1 3878   0.994   5.115   0.540
  993SOL    HW2 3879   0.915   5.250   0.585
  994SOL     OW 3880   3.195   6.713   0.427
  994SOL    HW1 3881   3.171   6.749   0.517
  994SOL    HW2 3882   3.112   6.697   0.374
  995SOL     OW 3883   6.278   3.859   6.000
  995SOL    HW1 3884   6.344   3.814   5.940
  995SOL    HW2 3885   6.207   3.902   5.945
  996SOL     OW 3886   4.341   6.117   4.575
  996SOL    HW1 3887   4.353   6.180   4.499
  996SOL    HW2 3888   4.258   6.140   4.625
  997SOL     OW 3889   1.226   6.626   3.389
  997SOL    HW1 3890   1.316   6.669   3.386
  997SOL    HW2 3891   1.159   6.684   3.343
  998SOL     OW 3892   4.236   0.099   6.074
  998SOL    HW1 3893   4.274   0.185   6.041
  998SOL    HW2 3894   4.237   0.097   6.174
  999SOL     OW 3895   5.300   2.961   2.894
  999SOL    HW1 3896   5.330   2.949   2.989
  999SOL    HW2 3897   5.201   2.950   2.888
 1000SOL     OW 3898   5.391   1.987   1.623
 1000SOL    HW1 3899   5.362   1.893   1.639
 1000SOL    HW2 3900   5.398   2.036   1.710
 1001SOL     OW 3901   3.133   6.719   2.317
 1001SOL    HW1 3902   3.181   6.646   2.268
 1001SOL    HW2 3903   3.064   6.759   2.256
 1002SOL     OW 3904   4.117   2.655   1.330
 1002SOL    HW1 3905   4.036   2.670   1.273
 1002SOL    HW2 3906   4.094   2.595   1.406
 1003SOL     OW 3907   0.724   0.210   3.456
 1003SOL    HW1 3908   0.720   0.136   3.389
 1003SOL    HW2 3909   0.768   0.178   3.539
 1004SOL     OW 3910   5.070   1.213   4.532
 1004SOL    HW1 3911   5.053   1.309   4.513
 1004SOL    HW2 3912   5.151   1.183   4.480
 1005SOL     OW 3913   0.984   5.004   2.289
 1005SOL    HW1 3914   1.061   4.959   2.334
 1005SOL    HW2 3915   1.017   5.079   2.232
 1006SOL     OW 3916   2.381   3.879   1.753
 1006SOL    HW1 3917   2.464   3.909   1.705
 1006SOL    HW2 3918   2.394   3.786   1.787
 1007SOL     OW 3919   4.476   0.893   6.141
 1007SOL    HW1 3920   4.459   0.989   6.160
 1007SOL    HW2 3921   4.470   0.876   6.043
 1008SOL     OW 3922   0.692   5.162   5.245
 1008SOL    HW1 3923   0.671   5.076   5.291
 1008SOL    HW2 3924   0.662   5.238   5.301
 1009SOL     OW 3925   6.894   5.874   6.364
 1009SOL    HW1 3926   6.856   5.922   6.443
 1009SOL    HW2 3927   6.866   5.778   6.366
 1010SOL     OW 3928   3.166   3.640   0.552
 1010SOL    HW1 3929   3.261   3.669   0.561
 1010SOL    HW2 3930   3.127   3.677   0.468
 1011SOL     OW 3931   6.634   5.406   2.876
 1011SOL    HW1 3932   6.614   5.397   2.973
 1011SOL    HW2 3933   6.726   5.443   2.864
 1012SOL     OW 3934   5.543   6.529   2.606
 1012SOL    HW1 3935   5.503   6.460   2.666
 1012SOL    HW2 3936   5.470   6.588   2.570
 1013SOL     OW 3937   6.968   0.042   6.378
 1013SOL    HW1 3938   6.926   0.102   6.310
 1013SOL    HW2 3939   7.011   6.988   6.332
 1014SOL     OW 3940   1.068   4.670   5.291
 1014SOL    HW1 3941   1.027   4.760   5.278
 1014SOL    HW2 3942   1.019   4.620   5.362
 1015SOL     OW 3943   2.191   6.572   0.301
 1015SOL    HW1 3944   2.171   6.479   0.268
 1015SOL    HW2 3945   2.108   6.628   0.295
 1016SOL     OW 3946   6.967   3.784   0.802
 1016SOL    HW1 3947   6.948   3.689   0.826
 1016SOL    HW2 3948   6.942   3.801   0.707
 1017SOL     OW 3949   2.069   1.341   2.208
 1017SOL    HW1 3950   2.033   1.341   2.115
 1017SOL    HW2 3951   2.090   1.435   2.235
 1018SOL     OW 3952   6.171   6.686   3.989
 1018SOL    HW1 3953   6.157   6.671   4.087
 1018SOL    HW2 3954   6.159   6.783   3.969
 1019SOL     OW 3955   6.771   4.209   1.065
 1019SOL    HW1 3956   6.817   4.263   1.136
 1019SOL    HW2 3957   6.820   4.122   1.054
 1020SOL     OW 3958   4.947   1.255   0.816
 1020SOL    HW1 3959   5.032   1.283   0.859
 1020SOL    HW2 3960   4.946   1.286   0.721
 1021SOL     OW 3961   1.018   6.608   0.937
 1021SOL    HW1 3962   0.997   6.696   0.979
 1021SOL    HW2 3963   0.945   6.543   0.956
 1022SOL     OW 3964   2.425   5.546   6.691
 1022SOL    HW1 3965   2.490   5.483   6.649
 1022SOL    HW2 3966   2.422   5.631   6.637
 1023SOL     OW 3967   0.534   1.168   2.612
 1023SOL    HW1 3968   0.465   1.097   2.627
 1023SOL    HW2 3969   0.556   1.174   2.515
 1024SOL     OW 3970   1.688   1.946   3.998
 1024SOL    HW1 3971   1.741   1.861   3.999
 1024SOL    HW2 3972   1.674   1.976   3.904
 1025SOL     OW 3973   5.040   4.480   0.219
 1025SOL    HW1 3974   5.091   4.402   0.182
 1025SOL    HW2 3975   5.078   4.505   0.308
 1026SOL     OW 3976   3.188   2.853   1.766
 1026SOL    HW1 3977   3.248   2.775   1.789
 1026SOL    HW2 3978   3.239   2.918   1.709
 1027SOL     OW 3979   0.077   6.549   0.083
 1027SOL    HW1 3980   0.071   6.645   0.055
 1027SOL    HW2 3981   0.147   6.503   0.029
 1028SOL     OW 3982   1.408   6.138   2.577
 1028SOL    HW1 3983   1.428   6.236   2.585
 1028SOL    HW2 3984   1.477   6.085   2.627
 1029SOL     OW 3985   1.291   0.832   5.600
 1029SOL    HW1 3986   1.199   0.791   5.598
 1029SOL    HW2 3987   1.337   0.815   5.514
 1030SOL     OW 3988   3.650   3.314   0.936
 1030SOL    HW1 3989   3.668   3.393   0.878
 1030SOL    HW2 3990   3.552   3.308   0.955
 1031SOL     OW 3991   3.903   3.184   1.042
 1031SOL    HW1 3992   3.870   3.119   1.111
 1031SOL    HW2 3993   3.825   3.223   0.993
 1032SOL     OW 3994   1.928   1.660   0.553
 1032SOL    HW1 3995   1.857   1.662   0.483
 1032SOL    HW2 3996   2.014   1.629   0.513
 1033SOL     OW 3997   0.004   0.535   2.613
 1033SOL    HW1 3998   7.005   0.576   2.702
 1033SOL    HW2 3999   0.098   0.560   2.589
 1034SOL     OW 4000   3.209   0.765   4.887
 1034SOL    HW1 4001   3.291   0.797   4.935
 1034SOL    HW2 4002   3.154   0.845   4.860
 1035SOL     OW 4003   1.834   1.063   0.130
 1035SOL    HW1 4004   1.763   1.089   0.065
 1035SOL    HW2 4005   1.839   0.964   0.136
 1036SOL     OW 4006   4.823   1.136   1.187
 1036SOL    HW1 4007   4.790   1.123   1.281
 1036SOL    HW2 4008   4.765   1.203   1.141
 1037SOL     OW 4009   1.519   3.688   2.185
 1037SOL    HW1 4010   1.484   3.594   2.181
 1037SOL    HW2 4011   1.468   3.745   2.120
 1038SOL     OW 4012   2.321   6.203   0.417
 1038SOL    HW1 4013   2.370   6.132   0.366
 1038SOL    HW2 4014   2.268   6.259   0.353
 1039SOL     OW 4015   3.503   3.488   3.073
 1039SOL    HW1 4016   3.520   3.559   3.142
 1039SOL    HW2 4017   3.474   3.404   3.118
 1040SOL     OW 4018   3.572   2.126   3.319
 1040SOL    HW1 4019   3.534   2.039   3.350
 1040SOL    HW2 4020   3.661   2.141   3.361
 1041SOL     OW 4021   6.256   6.191   6.961
 1041SOL    HW1 4022   6.177   6.247   6.985
 1041SOL    HW2 4023   6.335   6.249   6.945
 1042SOL     OW 4024   5.522   4.689   3.253
 1042SOL    HW1 4025   5.434   4.702   3.300
 1042SOL    HW2 4026   5.577   4.622   3.303
 1043SOL     OW 4027   2.608   1.894   3.556
 1043SOL    HW1 4028   2.681   1.836   3.592
 1043SOL    HW2 4029   2.629   1.990   3.574
 1044SOL     OW 4030   6.269   4.832   1.711
 1044SOL    HW1 4031   6.182   4.845   1.759
 1044SOL    HW2 4032   6.283   4.734   1.694
 1045SOL     OW 4033   2.013   0.949   1.955
 1045SOL    HW1 4034   2.108   0.945   1.985
 1045SOL    HW2 4035   1.965   0.868   1.988
 1046SOL     OW 4036   2.971   1.867   1.227
 1046SOL    HW1 4037   2.985   1.810   1.308
 1046SOL    HW2 4038   3.051   1.926   1.214
 1047SOL     OW 4039   3.586   0.345   3.331
 1047SOL    HW1 4040   3.657   0.393   3.280
 1047SOL    HW2 4041   3.620   0.324   3.423
 1048SOL     OW 4042   1.173   6.943   2.145
 1048SOL    HW1 4043   1.233   6.863   2.144
 1048SOL    HW2 4044   1.213   7.013   2.205
 1049SOL     OW 4045   3.941   6.678   5.724
 1049SOL    HW1 4046   3.924   6.579   5.722
 1049SOL    HW2 4047   3.872   6.723   5.781
 1050SOL     OW 4048   2.917   0.047   4.059
 1050SOL    HW1 4049   2.869   0.097   3.987
 1050SOL    HW2 4050   2.856   0.038   4.138
 1051SOL     OW 4051   1.843   1.199   5.210
 1051SOL    HW1 4052   1.775   1.238   5.273
 1051SOL    HW2 4053   1.933   1.199   5.254
 1052SOL     OW 4054   3.609   1.041   0.299
 1052SOL    HW1 4055   3.617   1.082   0.208
 1052SOL    HW2 4056   3.526   0.986   0.304
 1053SOL     OW 4057   4.788   1.871   4.584
 1053SOL    HW1 4058   4.833   1.836   4.501
 1053SOL    HW2 4059   4.819   1.965   4.602
 1054SOL     OW 4060   4.079   5.141   6.315
 1054SOL    HW1 4061   4.139   5.064   6.335
 1054SOL    HW2 4062   4.004   5.143   6.380
 1055SOL     OW 4063   4.550   5.539   6.591
 1055SOL    HW1 4064   4.631   5.521   6.648
 1055SOL    HW2 4065   4.562   5.496   6.502
 1056SOL     OW 4066   3.403   3.703   0.065
 1056SOL    HW1 4067   3.383   3.801   0.074
 1056SOL    HW2 4068   3.321   3.650   0.085
 1057SOL     OW 4069   3.036   2.840   6.876
 1057SOL    HW1 4070   3.062   2.785   6.955
 1057SOL    HW2 4071   2.982   2.919   6.906
 1058SOL     OW 4072   3.075   2.104   2.303
 1058SOL    HW1 4073   3.005   2.147   2.361
 1058SOL    HW2 4074   3.062   2.133   2.208
 1059SOL     OW 4075   2.223   6.024   2.045
 1059SOL    HW1 4076   2.189   6.118   2.043
 1059SOL    HW2 4077   2.223   5.991   2.139
 1060SOL     OW 4078   6.192   0.849   5.466
 1060SOL    HW1 4079   6.204   0.876   5.562
 1060SOL    HW2 4080   6.104   0.805   5.454
 1061SOL     OW 4081   0.271   3.648   5.964
 1061SOL    HW1 4082   0.325   3.717   6.011
 1061SOL    HW2 4083   0.202   3.612   6.026
 1062SOL     OW 4084   3.545   5.673   4.443
 1062SOL    HW1 4085   3.563   5.668   4.344
 1062SOL    HW2 4086   3.594   5.599   4.489
 1063SOL     OW 4087   3.489   6.608   4.446
 1063SOL    HW1 4088   3.501   6.566   4.356
 1063SOL    HW2 4089   3.504   6.540   4.517
 1064SOL     OW 4090   1.662   3.348   0.179
 1064SOL    HW1 4091   1.734   3.392   0.233
 1064SOL    HW2 4092   1.613   3.417   0.126
 1065SOL     OW 4093   6.176   1.059   4.968
 1065SOL    HW1 4094   6.257   1.023   5.014
 1065SOL    HW2 4095   6.203   1.093   4.877
 1066SOL     OW 4096   5.230   6.701   0.476
 1066SOL    HW1 4097   5.221   6.673   0.381
 1066SOL    HW2 4098   5.221   6.620   0.535
 1067SOL     OW 4099   2.406   1.767   0.178
 1067SOL    HW1 4100   2.422   1.841   0.243
 1067SOL    HW2 4101   2.338   1.704   0.216
 1068SOL     OW 4102   6.452   3.026   1.234
 1068SOL    HW1 4103   6.370   3.029   1.290
 1068SOL    HW2 4104   6.432   3.064   1.143
 1069SOL     OW 4105   6.086   3.246   2.413
 1069SOL    HW1 4106   6.066   3.342   2.432
 1069SOL    HW2 4107   6.001   3.193   2.410
 1070SOL     OW 4108   0.913   0.387   2.248
 1070SOL    HW1 4109   0.845   0.458   2.231
 1070SOL    HW2 4110   0.867   0.304   2.279
 1071SOL     OW 4111   0.575   3.163   6.233
 1071SOL    HW1 4112   0.539   3.214   6.155
 1071SOL    HW2 4113   0.653   3.107   6.204
 1072SOL     OW 4114   1.631   1.309   2.383
 1072SOL    HW1 4115   1.627   1.313   2.483
 1072SOL    HW2 4116   1.704   1.248   2.355
 1073SOL     OW 4117   5.305   2.566   2.823
 1073SOL    HW1 4118   5.333   2.502   2.752
 1073SOL    HW2 4119   5.386   2.612   2.860
 1074SOL     OW 4120   3.140   5.098   1.554
 1074SOL    HW1 4121   3.163   5.191   1.526
 1074SOL    HW2 4122   3.041   5.091   1.566
 1075SOL     OW 4123   6.339   4.285   6.205
 1075SOL    HW1 4124   6.323   4.320   6.297
 1075SOL    HW2 4125   6.325   4.358   6.138
 1076SOL     OW 4126   1.733   4.672   5.115
 1076SOL    HW1 4127   1.812   4.728   5.141
 1076SOL    HW2 4128   1.764   4.593   5.062
 1077SOL     OW 4129   6.538   6.541   0.439
 1077SOL    HW1 4130   6.563   6.444   0.436
 1077SOL    HW2 4131   6.539   6.572   0.534
 1078SOL     OW 4132   5.917   6.931   4.774
 1078SOL    HW1 4133   6.000   6.878   4.792
 1078SOL    HW2 4134   5.932   0.002   4.801
 1079SOL     OW 4135   0.429   6.634   1.987
 1079SOL    HW1 4136   0.413   6.546   2.032
 1079SOL    HW2 4137   0.507   6.626   1.925
 1080SOL     OW 4138   3.754   6.777   0.057
 1080SOL    HW1 4139   3.800   6.689   0.068
 1080SOL    HW2 4140   3.765   6.809   6.987
 1081SOL     OW 4141   6.672   6.493   3.806
 1081SOL    HW1 4142   6.614   6.552   3.863
 1081SOL    HW2 4143   6.628   6.479   3.717
 1082SOL     OW 4144   3.937   0.034   0.075
 1082SOL    HW1 4145   3.852   0.084   0.089
 1082SOL    HW2 4146   3.932   7.006   7.014
 1083SOL     OW 4147   5.577   4.392   2.339
 1083SOL    HW1 4148   5.668   4.382   2.299
 1083SOL    HW2 4149   5.512   4.337   2.286
 1084SOL     OW 4150   5.849   0.775   5.242
 1084SOL    HW1 4151   5.817   0.849   5.300
 1084SOL    HW2 4152   5.910   0.811   5.171
 1085SOL     OW 4153   2.115   3.798   4.642
 1085SOL    HW1 4154   2.142   3.887   4.605
 1085SOL    HW2 4155   2.163   3.783   4.729
 1086SOL     OW 4156   5.710   5.644   0.485
 1086SOL    HW1 4157   5.766   5.668   0.406
 1086SOL    HW2 4158   5.738   5.555   0.520
 1087SOL     OW 4159   4.123   6.967   5.786
 1087SOL    HW1 4160   4.218   6.988   5.810
 1087SOL    HW2 4161   4.119   6.934   5.692
 1088SOL     OW 4162   6.818   5.259   3.834
 1088SOL    HW1 4163   6.911   5.223   3.830
 1088SOL    HW2 4164   6.799   5.312   3.752
 1089SOL     OW 4165   5.725   5.198   4.226
 1089SOL    HW1 4166   5.748   5.137   4.151
 1089SOL    HW2 4167   5.770   5.167   4.310
 1090SOL     OW 4168   5.742   2.266   4.990
 1090SOL    HW1 4169   5.700   2.234   5.075
 1090SOL    HW2 4170   5.837   2.290   5.007
 1091SOL     OW 4171   1.755   2.930   3.406
 1091SOL    HW1 4172   1.793   2.899   3.493
 1091SOL    HW2 4173   1.729   2.850   3.351
 1092SOL     OW 4174   0.076   6.226   0.322
 1092SOL    HW1 4175   0.070   6.170   0.404
 1092SOL    HW2 4176   0.141   6.301   0.337
 1093SOL     OW 4177   1.475   0.379   3.311
 1093SOL    HW1 4178   1.572   0.392   3.330
 1093SOL    HW2 4179   1.425   0.365   3.396
 1094SOL     OW 4180   0.186   0.063   3.269
 1094SOL    HW1 4181   0.254   7.023   3.235
 1094SOL    HW2 4182   0.098   0.016   3.276
 1095SOL     OW 4183   5.555   2.957   0.444
 1095SOL    HW1 4184   5.574   2.956   0.543
 1095SOL    HW2 4185   5.467   2.913   0.427
 1096SOL     OW 4186   2.128   5.315   1.789
 1096SOL    HW1 4187   2.070   5.234   1.801
 1096SOL    HW2 4188   2.218   5.287   1.756
 1097SOL     OW 4189   2.649   6.379   4.467
 1097SOL    HW1 4190   2.614   6.310   4.403
 1097SOL    HW2 4191   2.749   6.384   4.458
 1098SOL     OW 4192   6.633   3.928   0.666
 1098SOL    HW1 4193   6.686   3.880   0.735
 1098SOL    HW2 4194   6.588   4.007   0.707
 1099SOL     OW 4195   4.872   0.692   6.482
 1099SOL    HW1 4196   4.812   0.613   6.467
 1099SOL    HW2 4197   4.960   0.676   6.437
 1100SOL     OW 4198   4.145   1.838   4.534
 1100SOL    HW1 4199   4.198   1.892   4.599
 1100SOL    HW2 4200   4.206   1.799   4.465
 1101SOL     OW 4201   5.070   2.993   6.254
 1101SOL    HW1 4202   5.100   2.906   6.291
 1101SOL    HW2 4203   4.971   3.003   6.267
 1102SOL     OW 4204   2.933   0.607   3.187
 1102SOL    HW1 4205   2.922   0.701   3.154
 1102SOL    HW2 4206   2.992   0.557   3.124
 1103SOL     OW 4207   3.222   6.185   0.364
 1103SOL    HW1 4208   3.306   6.238   0.353
 1103SOL    HW2 4209   3.184   6.164   0.273
 1104SOL     OW 4210   0.291   2.841   3.830
 1104SOL    HW1 4211   0.208   2.872   3.783
 1104SOL    HW2 4212   0.319   2.753   3.793
 1105SOL     OW 4213   5.327   1.832   6.072
 1105SOL    HW1 4214   5.404   1.769   6.068
 1105SOL    HW2 4215   5.294   1.850   5.979
 1106SOL     OW 4216   6.263   1.444   0.962
 1106SOL    HW1 4217   6.205   1.367   0.987
 1106SOL    HW2 4218   6.209   1.515   0.917
 1107SOL     OW 4219   1.040   1.298   6.732
 1107SOL    HW1 4220   0.961   1.295   6.670
 1107SOL    HW2 4221   1.014   1.343   6.817
 1108SOL     OW 4222   2.288   0.578   4.265
 1108SOL    HW1 4223   2.288   0.481   4.286
 1108SOL    HW2 4224   2.358   0.624   4.318
 1109SOL     OW 4225   4.798   2.583   4.727
 1109SOL    HW1 4226   4.848   2.604   4.811
 1109SOL    HW2 4227   4.775   2.668   4.680
 1110SOL     OW 4228   2.257   0.904   2.061
 1110SOL    HW1 4229   2.261   0.993   2.106
 1110SOL    HW2 4230   2.322   0.841   2.103
 1111SOL     OW 4231   5.884   3.976   6.438
 1111SOL    HW1 4232   5.923   4.064   6.466
 1111SOL    HW2 4233   5.904   3.907   6.507
 1112SOL     OW 4234   5.447   0.568   2.416
 1112SOL    HW1 4235   5.512   0.524   2.478
 1112SOL    HW2 4236   5.497   0.617   2.345
 1113SOL     OW 4237   5.778   3.553   2.160
 1113SOL    HW1 4238   5.785   3.502   2.246
 1113SOL    HW2 4239   5.783   3.651   2.179
 1114SOL     OW 4240   3.521   3.748   4.736
 1114SOL    HW1 4241   3.554   3.702   4.819
 1114SOL    HW2 4242   3.432   3.791   4.755
 1115SOL     OW 4243   2.817   4.801   5.395
 1115SOL    HW1 4244   2.773   4.829   5.310
 1115SOL    HW2 4245   2.848   4.706   5.387
 1116SOL     OW 4246   4.370   0.230   6.917
 1116SOL    HW1 4247   4.301   0.302   6.916
 1116SOL    HW2 4248   4.325   0.141   6.902
 1117SOL     OW 4249   2.699   2.588   1.612
 1117SOL    HW1 4250   2.623   2.640   1.652
 1117SOL    HW2 4251   2.786   2.627   1.641
 1118SOL     OW 4252   4.167   6.052   0.401
 1118SOL    HW1 4253   4.163   6.104   0.315
 1118SOL    HW2 4254   4.081   6.003   0.414
 1119SOL     OW 4255   3.631   5.017   3.850
 1119SOL    HW1 4256   3.608   5.003   3.946
 1119SOL    HW2 4257   3.566   4.965   3.793
 1120SOL     OW 4258   6.660   3.177   1.356
 1120SOL    HW1 4259   6.617   3.110   1.296
 1120SOL    HW2 4260   6.591   3.216   1.417
 1121SOL     OW 4261   6.641   4.506   4.999
 1121SOL    HW1 4262   6.574   4.580   5.004
 1121SOL    HW2 4263   6.732   4.541   5.018
 1122SOL     OW 4264   5.644   2.231   1.385
 1122SOL    HW1 4265   5.666   2.288   1.464
 1122SOL    HW2 4266   5.599   2.147   1.416
 1123SOL     OW 4267   4.074   1.628   3.847
 1123SOL    HW1 4268   4.092   1.676   3.761
 1123SOL    HW2 4269   3.976   1.617   3.860
 1124SOL     OW 4270   2.173   2.644   3.997
 1124SOL    HW1 4271   2.268   2.628   4.024
 1124SOL    HW2 4272   2.113   2.629   4.076
 1125SOL     OW 4273   1.643   3.433   3.787
 1125SOL    HW1 4274   1.731   3.476   3.806
 1125SOL    HW2 4275   1.570   3.502   3.791
 1126SOL     OW 4276   4.362   4.985   4.800
 1126SOL    HW1 4277   4.331   4.993   4.706
 1126SOL    HW2 4278   4.327   5.062   4.854
 1127SOL     OW 4279   6.723   6.924   2.040
 1127SOL    HW1 4280   6.695   7.020   2.032
 1127SOL    HW2 4281   6.820   6.920   2.064
 1128SOL     OW 4282   5.003   0.981   4.694
 1128SOL    HW1 4283   5.058   0.972   4.777
 1128SOL    HW2 4284   5.028   1.064   4.645
 1129SOL     OW 4285   1.344   0.769   0.817
 1129SOL    HW1 4286   1.380   0.862   0.809
 1129SOL    HW2 4287   1.265   0.769   0.879
 1130SOL     OW 4288   2.314   4.712   2.140
 1130SOL    HW1 4289   2.394   4.661   2.109
 1130SOL    HW2 4290   2.248   4.649   2.180
 1131SOL     OW 4291   1.999   5.255   3.899
 1131SOL    HW1 4292   2.012   5.347   3.937
 1131SOL    HW2 4293   2.026   5.255   3.803
 1132SOL     OW 4294   1.885   1.543   2.787
 1132SOL    HW1 4295   1.846   1.451   2.792
 1132SOL    HW2 4296   1.971   1.541   2.735
 1133SOL     OW 4297   0.514   0.072   6.274
 1133SOL    HW1 4298   0.536   0.095   6.369
 1133SOL    HW2 4299   0.571   0.127   6.213
 1134SOL     OW 4300   3.499   5.892   1.674
 1134SOL    HW1 4301   3.571   5.823   1.679
 1134SOL    HW2 4302   3.492   5.927   1.581
 1135SOL     OW 4303   1.577   6.200   3.473
 1135SOL    HW1 4304   1.643   6.174   3.402
 1135SOL    HW2 4305   1.626   6.233   3.553
 1136SOL     OW 4306   1.838   5.397   2.608
 1136SOL    HW1 4307   1.838   5.306   2.651
 1136SOL    HW2 4308   1.823   5.467   2.678
 1137SOL     OW 4309   0.990   5.542   4.713
 1137SOL    HW1 4310   1.026   5.629   4.748
 1137SOL    HW2 4311   0.999   5.472   4.784
 1138SOL     OW 4312   1.927   3.586   4.644
 1138SOL    HW1 4313   1.978   3.672   4.640
 1138SOL    HW2 4314   1.914   3.559   4.739
 1139SOL     OW 4315   2.448   5.251   4.885
 1139SOL    HW1 4316   2.525   5.197   4.918
 1139SOL    HW2 4317   2.442   5.245   4.786
 1140SOL     OW 4318   2.133   2.228   1.438
 1140SOL    HW1 4319   2.132   2.150   1.376
 1140SOL    HW2 4320   2.221   2.230   1.486
 1141SOL     OW 4321   0.269   4.893   6.181
 1141SOL    HW1 4322   0.183   4.911   6.229
 1141SOL    HW2 4323   0.306   4.805   6.211
 1142SOL     OW 4324   1.807   6.198   2.197
 1142SOL    HW1 4325   1.756   6.145   2.265
 1142SOL    HW2 4326   1.832   6.138   2.121
 1143SOL     OW 4327   0.398   3.751   1.994
 1143SOL    HW1 4328   0.478   3.708   1.953
 1143SOL    HW2 4329   0.416   3.848   2.009
 1144SOL     OW 4330   5.799   4.373   0.514
 1144SOL    HW1 4331   5.830   4.466   0.496
 1144SOL    HW2 4332   5.705   4.376   0.548
 1145SOL     OW 4333   5.545   6.737   0.891
 1145SOL    HW1 4334   5.570   6.642   0.870
 1145SOL    HW2 4335   5.627   6.789   0.914
 1146SOL     OW 4336   0.949   0.819   1.331
 1146SOL    HW1 4337   0.911   0.727   1.332
 1146SOL    HW2 4338   0.929   0.862   1.243
 1147SOL     OW 4339   1.699   6.438   1.017
 1147SOL    HW1 4340   1.748   6.381   0.952
 1147SOL    HW2 4341   1.639   6.502   0.967
 1148SOL     OW 4342   4.148   5.849   3.179
 1148SOL    HW1 4343   4.120   5.852   3.275
 1148SOL    HW2 4344   4.081   5.899   3.123
 1149SOL     OW 4345   4.666   3.273   1.481
 1149SOL    HW1 4346   4.614   3.237   1.404
 1149SOL    HW2 4347   4.694   3.197   1.540
 1150SOL     OW 4348   1.483   3.545   0.843
 1150SOL    HW1 4349   1.446   3.588   0.925
 1150SOL    HW2 4350   1.563   3.596   0.811
 1151SOL     OW 4351   6.075   5.190   4.383
 1151SOL    HW1 4352   6.140   5.227   4.316
 1151SOL    HW2 4353   6.085   5.237   4.470
 1152SOL     OW 4354   3.319   6.411   6.494
 1152SOL    HW1 4355   3.245   6.364   6.445
 1152SOL    HW2 4356   3.335   6.500   6.452
 1153SOL     OW 4357   5.493   6.781   2.017
 1153SOL    HW1 4358   5.505   6.875   1.985
 1153SOL    HW2 4359   5.512   6.777   2.115
 1154SOL     OW 4360   2.189   2.760   0.529
 1154SOL    HW1 4361   2.144   2.839   0.572
 1154SOL    HW2 4362   2.185   2.770   0.430
 1155SOL     OW 4363   3.524   6.361   4.258
 1155SOL    HW1 4364   3.518   6.262   4.272
 1155SOL    HW2 4365   3.590   6.381   4.185
 1156SOL     OW 4366   2.713   1.902   3.101
 1156SOL    HW1 4367   2.688   1.903   3.004
 1156SOL    HW2 4368   2.715   1.808   3.134
 1157SOL     OW 4369   2.910   1.289   0.244
 1157SOL    HW1 4370   2.898   1.206   0.191
 1157SOL    HW2 4371   2.992   1.338   0.213
 1158SOL     OW 4372   6.101   4.437   2.994
 1158SOL    HW1 4373   6.014   4.428   3.043
 1158SOL    HW2 4374   6.088   4.497   2.915
 1159SOL     OW 4375   6.802   4.977   0.882
 1159SOL    HW1 4376   6.841   4.965   0.973
 1159SOL    HW2 4377   6.723   4.916   0.872
 1160SOL     OW 4378   5.678   1.990   0.115
 1160SOL    HW1 4379   5.609   2.041   0.168
 1160SOL    HW2 4380   5.768   2.032   0.130
 1161SOL     OW 4381   6.890   4.866   1.158
 1161SOL    HW1 4382   6.847   4.866   1.248
 1161SOL    HW2 4383   6.986   4.895   1.166
 1162SOL     OW 4384   3.015   2.155   4.785
 1162SOL    HW1 4385   3.078   2.141   4.709
 1162SOL    HW2 4386   3.056   2.216   4.852
 1163SOL     OW 4387   5.335   2.846   1.451
 1163SOL    HW1 4388   5.247   2.880   1.484
 1163SOL    HW2 4389   5.363   2.767   1.505
 1164SOL     OW 4390   3.927   2.705   5.725
 1164SOL    HW1 4391   3.865   2.685   5.649
 1164SOL    HW2 4392   3.930   2.628   5.788
 1165SOL     OW 4393   4.234   6.553   3.408
 1165SOL    HW1 4394   4.282   6.506   3.334
 1165SOL    HW2 4395   4.245   6.652   3.398
 1166SOL     OW 4396   2.903   4.754   5.944
 1166SOL    HW1 4397   2.810   4.765   5.979
 1166SOL    HW2 4398   2.952   4.841   5.951
 1167SOL     OW 4399   5.002   4.629   2.393
 1167SOL    HW1 4400   4.963   4.665   2.309
 1167SOL    HW2 4401   4.940   4.646   2.469
 1168SOL     OW 4402   6.824   0.265   2.276
 1168SOL    HW1 4403   6.917   0.272   2.240
 1168SOL    HW2 4404   6.796   0.352   2.315
 1169SOL     OW 4405   4.757   1.361   5.363
 1169SOL    HW1 4406   4.764   1.293   5.291
 1169SOL    HW2 4407   4.831   1.348   5.429
 1170SOL     OW 4408   4.578   5.241   2.914
 1170SOL    HW1 4409   4.608   5.171   2.979
 1170SOL    HW2 4410   4.612   5.219   2.823
 1171SOL     OW 4411   0.067   6.232   0.821
 1171SOL    HW1 4412   0.004   6.310   0.815
 1171SOL    HW2 4413   0.049   6.169   0.745
 1172SOL     OW 4414   6.546   3.516   6.453
 1172SOL    HW1 4415   6.640   3.480   6.454
 1172SOL    HW2 4416   6.534   3.581   6.528
 1173SOL     OW 4417   3.820   1.870   0.467
 1173SOL    HW1 4418   3.853   1.911   0.552
 1173SOL    HW2 4419   3.725   1.898   0.451
 1174SOL     OW 4420   2.114   4.356   0.510
 1174SOL    HW1 4421   2.200   4.314   0.538
 1174SOL    HW2 4422   2.133   4.439   0.458
 1175SOL     OW 4423   3.105   3.052   4.417
 1175SOL    HW1 4424   3.101   3.098   4.329
 1175SOL    HW2 4425   3.091   2.953   4.404
 1176SOL     OW 4426   5.372   2.907   6.114
 1176SOL    HW1 4427   5.353   2.860   6.028
 1176SOL    HW2 4428   5.339   2.852   6.190
 1177SOL     OW 4429   1.014   1.623   4.317
 1177SOL    HW1 4430   0.923   1.593   4.286
 1177SOL    HW2 4431   1.004   1.699   4.381
 1178SOL     OW 4432   4.354   5.857   0.352
 1178SOL    HW1 4433   4.284   5.924   0.377
 1178SOL    HW2 4434   4.311   5.771   0.327
 1179SOL     OW 4435   1.435   6.219   0.184
 1179SOL    HW1 4436   1.446   6.315   0.159
 1179SOL    HW2 4437   1.346   6.207   0.229
 1180SOL     OW 4438   3.457   6.344   0.323
 1180SOL    HW1 4439   3.552   6.335   0.350
 1180SOL    HW2 4440   3.424   6.436   0.346
 1181SOL     OW 4441   6.814   6.277   0.291
 1181SOL    HW1 4442   6.906   6.243   0.309
 1181SOL    HW2 4443   6.813   6.325   0.203
 1182SOL     OW 4444   4.442   4.868   2.464
 1182SOL    HW1 4445   4.538   4.876   2.493
 1182SOL    HW2 4446   4.435   4.797   2.393
 1183SOL     OW 4447   2.270   3.518   5.822
 1183SOL    HW1 4448   2.242   3.601   5.869
 1183SOL    HW2 4449   2.194   3.452   5.824
 1184SOL     OW 4450   0.703   6.798   5.419
 1184SOL    HW1 4451   0.633   6.848   5.471
 1184SOL    HW2 4452   0.713   6.840   5.329
 1185SOL     OW 4453   6.790   1.486   6.620
 1185SOL    HW1 4454   6.771   1.482   6.522
 1185SOL    HW2 4455   6.705   1.502   6.670
 1186SOL     OW 4456   5.946   6.408   4.410
 1186SOL    HW1 4457   6.039   6.446   4.410
 1186SOL    HW2 4458   5.911   6.408   4.504
 1187SOL     OW 4459   6.110   0.952   6.392
 1187SOL    HW1 4460   6.180   0.916   6.331
 1187SOL    HW2 4461   6.118   0.909   6.482
 1188SOL     OW 4462   2.695   0.198   6.167
 1188SOL    HW1 4463   2.604   0.238   6.174
 1188SOL    HW2 4464   2.762   0.257   6.212
 1189SOL     OW 4465   5.542   3.803   3.568
 1189SOL    HW1 4466   5.449   3.795   3.603
 1189SOL    HW2 4467   5.593   3.868   3.624
 1190SOL     OW 4468   2.187   6.402   3.463
 1190SOL    HW1 4469   2.259   6.463   3.430
 1190SOL    HW2 4470   2.226   6.312   3.481
 1191SOL     OW 4471   4.270   6.008   2.450
 1191SOL    HW1 4472   4.340   6.079   2.461
 1191SOL    HW2 4473   4.208   6.033   2.375
 1192SOL     OW 4474   5.792   5.718   3.480
 1192SOL    HW1 4475   5.789   5.748   3.385
 1192SOL    HW2 4476   5.887   5.711   3.511
 1193SOL     OW 4477   6.840   5.535   4.102
 1193SOL    HW1 4478   6.822   5.593   4.182
 1193SOL    HW2 4479   6.902   5.461   4.129
 1194SOL     OW 4480   3.774   0.437   1.223
 1194SOL    HW1 4481   3.842   0.377   1.180
 1194SOL    HW2 4482   3.816   0.526   1.244
 1195SOL     OW 4483   5.494   2.315   3.742
 1195SOL    HW1 4484   5.415   2.373   3.760
 1195SOL    HW2 4485   5.522   2.325   3.647
 1196SOL     OW 4486   6.540   6.473   4.999
 1196SOL    HW1 4487   6.567   6.569   4.999
 1196SOL    HW2 4488   6.452   6.463   5.045
 1197SOL     OW 4489   2.235   6.286   0.170
 1197SOL    HW1 4490   2.265   6.359   0.108
 1197SOL    HW2 4491   2.151   6.245   0.134
 1198SOL     OW 4492   1.695   2.762   6.969
 1198SOL    HW1 4493   1.740   2.690   7.021
 1198SOL    HW2 4494   1.684   2.732   6.874
 1199SOL     OW 4495   5.699   3.955   1.497
 1199SOL    HW1 4496   5.690   4.029   1.562
 1199SOL    HW2 4497   5.615   3.947   1.443
 1200SOL     OW 4498   3.138   2.934   2.029
 1200SOL    HW1 4499   3.110   2.850   2.077
 1200SOL    HW2 4500   3.116   2.925   1.932
 1201SOL     OW 4501   2.086   2.103   3.999
 1201SOL    HW1 4502   2.053   2.181   3.946
 1201SOL    HW2 4503   2.103   2.131   4.093
 1202SOL     OW 4504   0.792   5.494   5.523
 1202SOL    HW1 4505   0.807   5.580   5.475
 1202SOL    HW2 4506   0.877   5.467   5.570
 1203SOL     OW 4507   4.654   5.983   5.628
 1203SOL    HW1 4508   4.654   6.002   5.726
 1203SOL    HW2 4509   4.562   5.998   5.591
 1204SOL     OW 4510   2.146   6.685   2.817
 1204SOL    HW1 4511   2.246   6.679   2.819
 1204SOL    HW2 4512   2.110   6.622   2.749
 1205SOL     OW 4513   5.020   4.188   2.323
 1205SOL    HW1 4514   5.053   4.186   2.418
 1205SOL    HW2 4515   4.992   4.281   2.299
 1206SOL     OW 4516   2.969   3.936   5.014
 1206SOL    HW1 4517   2.977   3.865   4.943
 1206SOL    HW2 4518   2.873   3.948   5.038
 1207SOL     OW 4519   1.534   6.386   2.370
 1207SOL    HW1 4520   1.461   6.317   2.366
 1207SOL    HW2 4521   1.558   6.414   2.277
 1208SOL     OW 4522   3.496   3.960   5.736
 1208SOL    HW1 4523   3.576   3.901   5.748
 1208SOL    HW2 4524   3.414   3.904   5.724
 1209SOL     OW 4525   4.156   6.399   5.721
 1209SOL    HW1 4526   4.056   6.403   5.733
 1209SOL    HW2 4527   4.198   6.478   5.765
 1210SOL     OW 4528   3.164   0.905   3.145
 1210SOL    HW1 4529   3.066   0.918   3.156
 1210SOL    HW2 4530   3.182   0.814   3.109
 1211SOL     OW 4531   1.329   3.356   0.140
 1211SOL    HW1 4532   1.262   3.346   0.066
 1211SOL    HW2 4533   1.384   3.273   0.146
 1212SOL     OW 4534   1.061   6.948   0.249
 1212SOL    HW1 4535   1.084   6.857   0.213
 1212SOL    HW2 4536   1.135   7.012   0.228
 1213SOL     OW 4537   5.017   3.038   1.293
 1213SOL    HW1 4538   4.934   3.006   1.248
 1213SOL    HW2 4539   5.090   3.046   1.225
 1214SOL     OW 4540   0.132   2.357   1.550
 1214SOL    HW1 4541   0.199   2.293   1.587
 1214SOL    HW2 4542   0.107   2.330   1.457
 1215SOL     OW 4543   1.502   5.804   3.469
 1215SOL    HW1 4544   1.407   5.807   3.501
 1215SOL    HW2 4545   1.515   5.870   3.395
 1216SOL     OW 4546   4.524   6.189   1.217
 1216SOL    HW1 4547   4.595   6.249   1.254
 1216SOL    HW2 4548   4.507   6.113   1.280
 1217SOL     OW 4549   3.123   4.545   0.316
 1217SOL    HW1 4550   3.077   4.617   0.263
 1217SOL    HW2 4551   3.079   4.457   0.298
 1218SOL     OW 4552   1.895   4.869   3.749
 1218SOL    HW1 4553   1.934   4.913   3.668
 1218SOL    HW2 4554   1.958   4.880   3.826
 1219SOL     OW 4555   4.486   6.182   2.472
 1219SOL    HW1 4556   4.474   6.233   2.557
 1219SOL    HW2 4557   4.541   6.101   2.489
 1220SOL     OW 4558   1.110   4.588   2.877
 1220SOL    HW1 4559   1.128   4.512   2.814
 1220SOL    HW2 4560   1.195   4.638   2.895
 1221SOL     OW 4561   5.207   4.091   6.299
 1221SOL    HW1 4562   5.235   4.186   6.313
 1221SOL    HW2 4563   5.140   4.065   6.370
 1222SOL     OW 4564   6.318   0.427   6.603
 1222SOL    HW1 4565   6.225   0.429   6.568
 1222SOL    HW2 4566   6.316   0.424   6.703
 1223SOL     OW 4567   3.317   6.146   0.795
 1223SOL    HW1 4568   3.232   6.134   0.743
 1223SOL    HW2 4569   3.383   6.195   0.739
 1224SOL     OW 4570   3.083   0.599   2.523
 1224SOL    HW1 4571   3.097   0.643   2.434
 1224SOL    HW2 4572   3.124   0.656   2.595
 1225SOL     OW 4573   2.815   3.948   6.080
 1225SOL    HW1 4574   2.883   4.003   6.128
 1225SOL    HW2 4575   2.835   3.851   6.093
 1226SOL     OW 4576   1.939   4.863   1.143
 1226SOL    HW1 4577   1.962   4.901   1.232
 1226SOL    HW2 4578   1.997   4.784   1.124
 1227SOL     OW 4579   0.527   3.820   6.131
 1227SOL    HW1 4580   0.568   3.911   6.137
 1227SOL    HW2 4581   0.579   3.764   6.067
 1228SOL     OW 4582   3.725   1.823   6.259
 1228SOL    HW1 4583   3.815   1.850   6.295
 1228SOL    HW2 4584   3.726   1.724   6.241
 1229SOL     OW 4585   3.056   4.071   6.213
 1229SOL    HW1 4586   3.119   4.091   6.139
 1229SOL    HW2 4587   3.063   3.974   6.238
 1230SOL     OW 4588   4.698   6.984   3.379
 1230SOL    HW1 4589   4.667   6.995   3.474
 1230SOL    HW2 4590   4.640   6.916   3.333
 1231SOL     OW 4591   1.072   4.761   4.685
 1231SOL    HW1 4592   1.081   4.822   4.607
 1231SOL    HW2 4593   0.980   4.720   4.685
 1232SOL     OW 4594   2.029   2.156   4.407
 1232SOL    HW1 4595   2.083   2.072   4.416
 1232SOL    HW2 4596   1.938   2.133   4.372
 1233SOL     OW 4597   0.546   2.930   4.372
 1233SOL    HW1 4598   0.639   2.963   4.386
 1233SOL    HW2 4599   0.502   2.984   4.300
 1234SOL     OW 4600   6.388   3.568   4.286
 1234SOL    HW1 4601   6.461   3.634   4.302
 1234SOL    HW2 4602   6.300   3.611   4.307
 1235SOL     OW 4603   0.070   5.189   3.869
 1235SOL    HW1 4604   0.062   5.285   3.893
 1235SOL    HW2 4605   0.164   5.169   3.843
 1236SOL     OW 4606   5.142   1.128   6.302
 1236SOL    HW1 4607   5.114   1.070   6.378
 1236SOL    HW2 4608   5.138   1.224   6.330
 1237SOL     OW 4609   2.975   4.406   6.865
 1237SOL    HW1 4610   2.886   4.437   6.898
 1237SOL    HW2 4611   3.047   4.443   6.923
 1238SOL     OW 4612   1.266   1.502   1.541
 1238SOL    HW1 4613   1.203   1.536   1.471
 1238SOL    HW2 4614   1.355   1.548   1.531
 1239SOL     OW 4615   0.332   6.900   5.816
 1239SOL    HW1 4616   0.402   6.971   5.827
 1239SOL    HW2 4617   0.282   6.888   5.902
 1240SOL     OW 4618   4.135   5.982   2.187
 1240SOL    HW1 4619   4.188   5.930   2.121
 1240SOL    HW2 4620   4.051   6.015   2.143
 1241SOL     OW 4621   6.832   2.963   4.200
 1241SOL    HW1 4622   6.863   2.868   4.206
 1241SOL    HW2 4623   6.879   3.008   4.124
 1242SOL     OW 4624   2.252   3.776   6.440
 1242SOL    HW1 4625   2.155   3.755   6.428
 1242SOL    HW2 4626   2.285   3.736   6.525
 1243SOL     OW 4627   2.812   5.369   5.566
 1243SOL    HW1 4628   2.854   5.369   5.475
 1243SOL    HW2 4629   2.869   5.317   5.629
 1244SOL     OW 4630   0.845   1.129   3.018
 1244SOL    HW1 4631   0.876   1.036   3.038
 1244SOL    HW2 4632   0.822   1.136   2.921
 1245SOL     OW 4633   2.630   3.035   5.983
 1245SOL    HW1 4634   2.720   3.025   5.939
 1245SOL    HW2 4635   2.642   3.044   6.082
 1246SOL     OW 4636   1.069   6.954   1.881
 1246SOL    HW1 4637   1.093   6.873   1.827
 1246SOL    HW2 4638   1.079   6.933   1.979
 1247SOL     OW 4639   1.295   6.968   6.987
 1247SOL    HW1 4640   1.352   6.960   6.905
 1247SOL    HW2 4641   1.200   6.947   6.963
 1248SOL     OW 4642   1.972   6.731   3.487
 1248SOL    HW1 4643   1.919   6.729   3.572
 1248SOL    HW2 4644   2.055   6.786   3.501
 1249SOL     OW 4645   6.096   3.089   3.432
 1249SOL    HW1 4646   6.173   3.034   3.464
 1249SOL    HW2 4647   6.122   3.186   3.428
 1250SOL     OW 4648   0.396   3.639   4.347
 1250SOL    HW1 4649   0.472   3.574   4.352
 1250SOL    HW2 4650   0.430   3.731   4.364
 1251SOL     OW 4651   3.459   6.738   5.933
 1251SOL    HW1 4652   3.542   6.769   5.888
 1251SOL    HW2 4653   3.445   6.640   5.916
 1252SOL     OW 4654   3.527   3.188   6.492
 1252SOL    HW1 4655   3.562   3.154   6.405
 1252SOL    HW2 4656   3.596   3.246   6.535
 1253SOL     OW 4657   4.378   6.535   3.175
 1253SOL    HW1 4658   4.377   6.543   3.075
 1253SOL    HW2 4659   4.467   6.565   3.209
 1254SOL     OW 4660   6.361   2.169   2.352
 1254SOL    HW1 4661   6.444   2.205   2.309
 1254SOL    HW2 4662   6.382   2.144   2.447
 1255SOL     OW 4663   5.609   0.826   0.546
 1255SOL    HW1 4664   5.605   0.741   0.492
 1255SOL    HW2 4665   5.688   0.823   0.607
 1256SOL     OW 4666   4.750   1.939   3.931
 1256SOL    HW1 4667   4.704   1.852   3.916
 1256SOL    HW2 4668   4.800   1.965   3.848
 1257SOL     OW 4669   6.176   1.625   4.443
 1257SOL    HW1 4670   6.103   1.674   4.396
 1257SOL    HW2 4671   6.149   1.529   4.454
 1258SOL     OW 4672   0.246   6.307   3.795
 1258SOL    HW1 4673   0.303   6.389   3.794
 1258SOL    HW2 4674   0.288   6.238   3.854
 1259SOL     OW 4675   4.243   2.242   5.463
 1259SOL    HW1 4676   4.291   2.167   5.418
 1259SOL    HW2 4677   4.183   2.287   5.396
 1260SOL     OW 4678   0.541   1.537   5.504
 1260SOL    HW1 4679   0.577   1.626   5.533
 1260SOL    HW2 4680   0.584   1.511   5.417
 1261SOL     OW 4681   6.297   3.990   0.704
 1261SOL    HW1 4682   6.385   4.037   0.707
 1261SOL    HW2 4683   6.251   3.998   0.792
 1262SOL     OW 4684   5.071   6.054   2.619
 1262SOL    HW1 4685   4.996   6.087   2.563
 1262SOL    HW2 4686   5.155   6.049   2.565
 1263SOL     OW 4687   6.560   2.387   3.303
 1263SOL    HW1 4688   6.607   2.441   3.373
 1263SOL    HW2 4689   6.468   2.366   3.334
 1264SOL     OW 4690   1.050   2.812   5.543
 1264SOL    HW1 4691   1.013   2.861   5.464
 1264SOL    HW2 4692   1.011   2.850   5.627
 1265SOL     OW 4693   5.716   6.841   6.055
 1265SOL    HW1 4694   5.705   6.905   5.979
 1265SOL    HW2 4695   5.627   6.820   6.094
 1266SOL     OW 4696   2.122   1.245   5.832
 1266SOL    HW1 4697   2.066   1.163   5.823
 1266SOL    HW2 4698   2.088   1.317   5.771
 1267SOL     OW 4699   4.002   0.352   2.618
 1267SOL    HW1 4700   4.073   0.399   2.565
 1267SOL    HW2 4701   4.010   0.378   2.714
 1268SOL     OW 4702   3.887   3.077   5.768
 1268SOL    HW1 4703   3.871   3.173   5.743
 1268SOL    HW2 4704   3.945   3.034   5.699
 1269SOL     OW 4705   5.931   1.825   3.808
 1269SOL    HW1 4706   5.939   1.924   3.820
 1269SOL    HW2 4707   5.879   1.787   3.885
 1270SOL     OW 4708   6.445   5.268   2.754
 1270SOL    HW1 4709   6.526   5.319   2.782
 1270SOL    HW2 4710   6.404   5.225   2.835
 1271SOL     OW 4711   2.126   1.299   1.177
 1271SOL    HW1 4712   2.027   1.295   1.165
 1271SOL    HW2 4713   2.160   1.387   1.145
 1272SOL     OW 4714   6.126   2.138   6.814
 1272SOL    HW1 4715   6.141   2.109   6.719
 1272SOL    HW2 4716   6.170   2.226   6.829
 1273SOL     OW 4717   1.520   4.636   5.544
 1273SOL    HW1 4718   1.520   4.610   5.448
 1273SOL    HW2 4719   1.606   4.683   5.566
 1274SOL     OW 4720   0.245   4.732   3.240
 1274SOL    HW1 4721   0.343   4.731   3.260
 1274SOL    HW2 4722   0.223   4.808   3.179
 1275SOL     OW 4723   2.108   1.183   2.639
 1275SOL    HW1 4724   2.011   1.161   2.641
 1275SOL    HW2 4725   2.162   1.099   2.648
 1276SOL     OW 4726   5.820   5.001   3.306
 1276SOL    HW1 4727   5.799   4.953   3.390
 1276SOL    HW2 4728   5.765   4.964   3.231
 1277SOL     OW 4729   0.147   6.027   0.127
 1277SOL    HW1 4730   0.119   6.095   0.195
 1277SOL    HW2 4731   0.244   6.038   0.107
 1278SOL     OW 4732   0.824   5.802   2.807
 1278SOL    HW1 4733   0.782   5.850   2.730
 1278SOL    HW2 4734   0.753   5.757   2.861
 1279SOL     OW 4735   2.906   2.821   1.700
 1279SOL    HW1 4736   2.868   2.910   1.726
 1279SOL    HW2 4737   3.005   2.821   1.714
 1280SOL     OW 4738   2.614   2.371   3.913
 1280SOL    HW1 4739   2.528   2.339   3.873
 1280SOL    HW2 4740   2.691   2.330   3.862
 1281SOL     OW 4741   5.918   6.621   4.875
 1281SOL    HW1 4742   5.875   6.710   4.893
 1281SOL    HW2 4743   5.943   6.579   4.962
 1282SOL     OW 4744   0.504   2.821   1.137
 1282SOL    HW1 4745   0.494   2.867   1.049
 1282SOL    HW2 4746   0.597   2.786   1.147
 1283SOL     OW 4747   6.784   2.281   4.808
 1283SOL    HW1 4748   6.868   2.229   4.826
 1283SOL    HW2 4749   6.705   2.223   4.826
 1284SOL     OW 4750   3.760   1.954   1.907
 1284SOL    HW1 4751   3.850   1.990   1.882
 1284SOL    HW2 4752   3.712   2.022   1.963
 1285SOL     OW 4753   4.470   1.041   4.470
 1285SOL    HW1 4754   4.534   1.117   4.481
 1285SOL    HW2 4755   4.469   1.012   4.375
 1286SOL     OW 4756   5.256   1.543   0.720
 1286SOL    HW1 4757   5.243   1.446   0.704
 1286SOL    HW2 4758   5.283   1.588   0.635
 1287SOL     OW 4759   6.489   4.751   4.984
 1287SOL    HW1 4760   6.499   4.841   4.942
 1287SOL    HW2 4761   6.405   4.707   4.951
 1288SOL     OW 4762   4.956   4.884   0.139
 1288SOL    HW1 4763   4.965   4.857   0.043
 1288SOL    HW2 4764   5.008   4.968   0.155
 1289SOL     OW 4765   6.435   0.050   1.097
 1289SOL    HW1 4766   6.500   7.001   1.115
 1289SOL    HW2 4767   6.485   0.133   1.070
 1290SOL     OW 4768   1.347   6.095   5.566
 1290SOL    HW1 4769   1.443   6.091   5.591
 1290SOL    HW2 4770   1.333   6.050   5.477
 1291SOL     OW 4771   6.245   5.148   3.966
 1291SOL    HW1 4772   6.233   5.201   4.051
 1291SOL    HW2 4773   6.182   5.183   3.897
 1292SOL     OW 4774   1.241   6.699   1.896
 1292SOL    HW1 4775   1.254   6.608   1.936
 1292SOL    HW2 4776   1.188   6.691   1.811
 1293SOL     OW 4777   4.735   1.040   0.309
 1293SOL    HW1 4778   4.662   1.026   0.376
 1293SOL    HW2 4779   4.759   0.952   0.269
 1294SOL     OW 4780   2.169   4.704   5.126
 1294SOL    HW1 4781   2.218   4.786   5.096
 1294SOL    HW2 4782   2.105   4.676   5.055
 1295SOL     OW 4783   6.498   4.159   0.761
 1295SOL    HW1 4784   6.586   4.197   0.790
 1295SOL    HW2 4785   6.436   4.234   0.738
 1296SOL     OW 4786   4.837   0.184   6.236
 1296SOL    HW1 4787   4.883   0.240   6.168
 1296SOL    HW2 4788   4.744   0.217   6.249
 1297SOL     OW 4789   0.110   0.244   1.583
 1297SOL    HW1 4790   0.017   0.208   1.579
 1297SOL    HW2 4791   0.117   0.310   1.657
 1298SOL     OW 4792   5.505   0.451   2.841
 1298SOL    HW1 4793   5.562   0.523   2.879
 1298SOL    HW2 4794   5.515   0.448   2.741
 1299SOL     OW 4795   1.080   3.099   4.400
 1299SOL    HW1 4796   1.047   3.118   4.492
 1299SOL    HW2 4797   1.179   3.111   4.397
 1300SOL     OW 4798   0.408   5.840   1.040
 1300SOL    HW1 4799   0.458   5.760   1.004
 1300SOL    HW2 4800   0.310   5.827   1.025
 1301SOL     OW 4801   6.661   0.228   0.260
 1301SOL    HW1 4802   6.712   0.162   0.315
 1301SOL    HW2 4803   6.640   0.308   0.315
 1302SOL     OW 4804   6.580   6.931   5.367
 1302SOL    HW1 4805   6.511   6.860   5.350
 1302SOL    HW2 4806   6.650   6.927   5.295
 1303SOL     OW 4807   3.009   5.846   1.768
 1303SOL    HW1 4808   3.109   5.850   1.774
 1303SOL    HW2 4809   2.977   5.756   1.796
 1304SOL     OW 4810   0.321   0.646   0.526
 1304SOL    HW1 4811   0.406   0.604   0.494
 1304SOL    HW2 4812   0.301   0.613   0.618
 1305SOL     OW 4813   4.209   4.525   6.118
 1305SOL    HW1 4814   4.251   4.533   6.027
 1305SOL    HW2 4815   4.158   4.608   6.139
 1306SOL     OW 4816   3.271   5.840   3.911
 1306SOL    HW1 4817   3.247   5.862   3.816
 1306SOL    HW2 4818   3.316   5.750   3.913
 1307SOL     OW 4819   2.472   2.618   3.945
 1307SOL    HW1 4820   2.483   2.521   3.921
 1307SOL    HW2 4821   2.529   2.674   3.885
 1308SOL     OW 4822   0.016   3.795   6.593
 1308SOL    HW1 4823   6.948   3.773   6.561
 1308SOL    HW2 4824   0.035   3.891   6.574
 1309SOL     OW 4825   6.010   4.174   6.591
 1309SOL    HW1 4826   5.986   4.156   6.687
 1309SOL    HW2 4827   6.108   4.191   6.584
 1310SOL     OW 4828   1.492   4.439   3.441
 1310SOL    HW1 4829   1.509   4.385   3.523
 1310SOL    HW2 4830   1.579   4.456   3.393
 1311SOL     OW 4831   5.595   5.256   0.330
 1311SOL    HW1 4832   5.679   5.290   0.289
 1311SOL    HW2 4833   5.554   5.186   0.270
 1312SOL     OW 4834   2.637   1.271   5.938
 1312SOL    HW1 4835   2.682   1.257   5.850
 1312SOL    HW2 4836   2.691   1.333   5.994
 1313SOL     OW 4837   6.719   5.722   1.861
 1313SOL    HW1 4838   6.665   5.806   1.872
 1313SOL    HW2 4839   6.707   5.664   1.941
 1314SOL     OW 4840   2.180   1.948   4.312
 1314SOL    HW1 4841   2.254   1.981   4.254
 1314SOL    HW2 4842   2.152   1.856   4.282
 1315SOL     OW 4843   6.394   1.304   2.597
 1315SOL    HW1 4844   6.453   1.377   2.631
 1315SOL    HW2 4845   6.412   1.220   2.648
 1316SOL     OW 4846   5.215   0.129   6.515
 1316SOL    HW1 4847   5.259   0.183   6.588
 1316SOL    HW2 4848   5.139   0.181   6.477
 1317SOL     OW 4849   3.353   2.981   5.602
 1317SOL    HW1 4850   3.387   3.065   5.559
 1317SOL    HW2 4851   3.374   2.982   5.700
 1318SOL     OW 4852   1.956   1.713   5.988
 1318SOL    HW1 4853   1.926   1.714   6.083
 1318SOL    HW2 4854   1.900   1.776   5.934
 1319SOL     OW 4855   6.901   0.159   0.452
 1319SOL    HW1 4856   6.965   0.191   0.522
 1319SOL    HW2 4857   6.867   0.068   0.476
 1320SOL     OW 4858   3.339   3.460   6.317
 1320SOL    HW1 4859   3.315   3.520   6.393
 1320SOL    HW2 4860   3.302   3.369   6.334
 1321SOL     OW 4861   0.141   2.631   0.703
 1321SOL    HW1 4862   0.047   2.609   0.675
 1321SOL    HW2 4863   0.153   2.611   0.800
 1322SOL     OW 4864   3.914   2.406   0.237
 1322SOL    HW1 4865   3.911   2.489   0.181
 1322SOL    HW2 4866   3.827   2.394   0.283
 1323SOL     OW 4867   4.250   6.278   1.456
 1323SOL    HW1 4868   4.224   6.280   1.359
 1323SOL    HW2 4869   4.271   6.371   1.486
 1324SOL     OW 4870   2.636   3.647   6.255
 1324SOL    HW1 4871   2.733   3.651   6.232
 1324SOL    HW2 4872   2.624   3.650   6.354
 1325SOL     OW 4873   3.524   5.689   5.458
 1325SOL    HW1 4874   3.567   5.752   5.393
 1325SOL    HW2 4875   3.452   5.737   5.508
 1326SOL     OW 4876   4.979   1.776   4.874
 1326SOL    HW1 4877   5.066   1.797   4.918
 1326SOL    HW2 4878   4.931   1.860   4.851
 1327SOL     OW 4879   4.988   5.438   2.426
 1327SOL    HW1 4880   5.037   5.448   2.512
 1327SOL    HW2 4881   5.001   5.521   2.371
 1328SOL     OW 4882   1.941   2.514   6.185
 1328SOL    HW1 4883   1.968   2.585   6.121
 1328SOL    HW2 4884   1.861   2.544   6.237
 1329SOL     OW 4885   0.665   2.515   3.982
 1329SOL    HW1 4886   0.652   2.598   4.035
 1329SOL    HW2 4887   0.762   2.500   3.966
 1330SOL     OW 4888   5.853   3.080   2.825
 1330SOL    HW1 4889   5.923   3.026   2.779
 1330SOL    HW2 4890   5.826   3.034   2.909
 1331SOL     OW 4891   4.654   2.309   3.536
 1331SOL    HW1 4892   4.635   2.223   3.583
 1331SOL    HW2 4893   4.568   2.348   3.503
 1332SOL     OW 4894   1.897   5.749   0.530
 1332SOL    HW1 4895   1.986   5.705   0.521
 1332SOL    HW2 4896   1.904   5.826   0.593
 1333SOL     OW 4897   3.133   3.942   3.146
 1333SOL    HW1 4898   3.203   3.931   3.216
 1333SOL    HW2 4899   3.131   3.861   3.087
 1334SOL     OW 4900   6.713   3.253   1.784
 1334SOL    HW1 4901   6.734   3.257   1.881
 1334SOL    HW2 4902   6.614   3.245   1.771
 1335SOL     OW 4903   0.762   3.150   3.362
 1335SOL    HW1 4904   0.741   3.052   3.354
 1335SOL    HW2 4905   0.677   3.202   3.355
 1336SOL     OW 4906   1.996   0.207   5.472
 1336SOL    HW1 4907   1.950   0.172   5.553
 1336SOL    HW2 4908   1.945   0.180   5.390
 1337SOL     OW 4909   6.991   6.840   2.916
 1337SOL    HW1 4910   0.046   6.901   2.921
 1337SOL    HW2 4911   6.910   6.891   2.888
 1338SOL     OW 4912   6.638   3.982   4.853
 1338SOL    HW1 4913   6.554   3.999   4.904
 1338SOL    HW2 4914   6.694   4.064   4.851
 1339SOL     OW 4915   6.031   0.407   0.223
 1339SOL    HW1 4916   5.983   0.343   0.283
 1339SOL    HW2 4917   6.130   0.391   0.230
 1340SOL     OW 4918   3.600   2.676   1.110
 1340SOL    HW1 4919   3.637   2.668   1.203
 1340SOL    HW2 4920   3.667   2.642   1.044
 1341SOL     OW 4921   4.979   5.963   0.027
 1341SOL    HW1 4922   4.952   5.929   0.117
 1341SOL    HW2 4923   4.924   6.043   0.004
 1342SOL     OW 4924   1.779   5.932   1.591
 1342SOL    HW1 4925   1.708   5.970   1.533
 1342SOL    HW2 4926   1.756   5.839   1.616
 1343SOL     OW 4927   5.638   5.677   2.863
 1343SOL    HW1 4928   5.735   5.697   2.848
 1343SOL    HW2 4929   5.617   5.588   2.822
 1344SOL     OW 4930   0.957   0.614   4.535
 1344SOL    HW1 4931   1.044   0.638   4.491
 1344SOL    HW2 4932   0.975   0.586   4.629
 1345SOL     OW 4933   0.802   6.384   0.048
 1345SOL    HW1 4934   0.760   6.453   7.014
 1345SOL    HW2 4935   0.768   6.393   0.142
 1346SOL     OW 4936   3.240   5.166   4.478
 1346SOL    HW1 4937   3.194   5.226   4.544
 1346SOL    HW2 4938   3.326   5.209   4.449
 1347SOL     OW 4939   1.273   0.182   6.562
 1347SOL    HW1 4940   1.366   0.162   6.592
 1347SOL    HW2 4941   1.231   0.247   6.625
 1348SOL     OW 4942   0.722   6.303   5.033
 1348SOL    HW1 4943   0.650   6.250   4.989
 1348SOL    HW2 4944   0.721   6.286   5.132
 1349SOL     OW 4945   5.409   3.481   3.844
 1349SOL    HW1 4946   5.409   3.453   3.940
 1349SOL    HW2 4947   5.337   3.432   3.794
 1350SOL     OW 4948   4.594   4.606   6.929
 1350SOL    HW1 4949   4.531   4.564   6.863
 1350SOL    HW2 4950   4.544   4.628   7.013
 1351SOL     OW 4951   0.549   2.957   5.909
 1351SOL    HW1 4952   0.490   2.902   5.969
 1351SOL    HW2 4953   0.560   3.048   5.949
 1352SOL     OW 4954   7.001   0.879   3.222
 1352SOL    HW1 4955   0.066   0.834   3.218
 1352SOL    HW2 4956   6.943   0.830   3.287
 1353SOL     OW 4957   6.978   0.862   0.258
 1353SOL    HW1 4958   0.041   0.884   0.212
 1353SOL    HW2 4959   6.938   0.945   0.295
 1354SOL     OW 4960   4.623   5.188   2.602
 1354SOL    HW1 4961   4.525   5.168   2.594
 1354SOL    HW2 4962   4.642   5.279   2.564
 1355SOL     OW 4963   5.101   3.240   5.605
 1355SOL    HW1 4964   5.151   3.326   5.619
 1355SOL    HW2 4965   5.133   3.196   5.522
 1356SOL     OW 4966   2.700   3.326   0.185
 1356SOL    HW1 4967   2.685   3.235   0.147
 1356SOL    HW2 4968   2.742   3.318   0.276
 1357SOL     OW 4969   1.392   2.677   5.269
 1357SOL    HW1 4970   1.334   2.723   5.336
 1357SOL    HW2 4971   1.461   2.740   5.235
 1358SOL     OW 4972   2.220   0.141   0.278
 1358SOL    HW1 4973   2.149   0.083   0.319
 1358SOL    HW2 4974   2.190   0.237   0.279
 1359SOL     OW 4975   6.342   4.389   1.050
 1359SOL    HW1 4976   6.375   4.295   1.056
 1359SOL    HW2 4977   6.415   4.452   1.077
 1360SOL     OW 4978   2.095   2.806   0.209
 1360SOL    HW1 4979   2.010   2.858   0.219
 1360SOL    HW2 4980   2.076   2.709   0.224
 1361SOL     OW 4981   6.919   4.141   4.915
 1361SOL    HW1 4982   6.933   4.240   4.907
 1361SOL    HW2 4983   6.882   4.120   5.006
 1362SOL     OW 4984   3.233   3.437   2.776
 1362SOL    HW1 4985   3.303   3.508   2.785
 1362SOL    HW2 4986   3.244   3.370   2.850
 1363SOL     OW 4987   1.208   6.129   4.240
 1363SOL    HW1 4988   1.170   6.221   4.249
 1363SOL    HW2 4989   1.247   6.100   4.327
 1364SOL     OW 4990   4.933   4.049   0.889
 1364SOL    HW1 4991   4.881   4.032   0.806
 1364SOL    HW2 4992   4.887   4.119   0.944
 1365SOL     OW 4993   6.696   3.185   6.506
 1365SOL    HW1 4994   6.770   3.252   6.512
 1365SOL    HW2 4995   6.663   3.162   6.598
 1366SOL     OW 4996   2.576   6.964   5.647
 1366SOL    HW1 4997   2.587   0.022   5.703
 1366SOL    HW2 4998   2.663   6.939   5.606
 1367SOL     OW 4999   2.768   1.423   2.183
 1367SOL    HW1 5000   2.823   1.474   2.116
 1367SOL    HW2 5001   2.715   1.487   2.238
 1368SOL     OW 5002   5.626   6.232   3.017
 1368SOL    HW1 5003   5.647   6.329   3.008
 1368SOL    HW2 5004   5.622   6.208   3.115
 1369SOL     OW 5005   0.957   0.880   2.780
 1369SOL    HW1 5006   0.887   0.951   2.776
 1369SOL    HW2 5007   1.041   0.919   2.819
 1370SOL     OW 5008   2.355   0.936   1.678
 1370SOL    HW1 5009   2.290   0.925   1.602
 1370SOL    HW2 5010   2.392   1.028   1.677
 1371SOL     OW 5011   3.568   0.232   6.597
 1371SOL    HW1 5012   3.471   0.213   6.583
 1371SOL    HW2 5013   3.588   0.234   6.695
 1372SOL     OW 5014   2.843   2.086   1.992
 1372SOL    HW1 5015   2.935   2.051   2.011
 1372SOL    HW2 5016   2.843   2.186   2.005
 1373SOL     OW 5017   1.564   6.206   6.938
 1373SOL    HW1 5018   1.626   6.129   6.921
 1373SOL    HW2 5019   1.479   6.172   6.978
 1374SOL     OW 5020   5.220   4.259   0.186
 1374SOL    HW1 5021   5.224   4.198   0.265
 1374SOL    HW2 5022   5.308   4.306   0.176
 1375SOL     OW 5023   0.860   4.531   5.396
 1375SOL    HW1 5024   0.783   4.569   5.343
 1375SOL    HW2 5025   0.856   4.565   5.489
 1376SOL     OW 5026   4.833   1.193   2.410
 1376SOL    HW1 5027   4.833   1.120   2.478
 1376SOL    HW2 5028   4.925   1.202   2.371
 1377SOL     OW 5029   1.101   4.621   4.182
 1377SOL    HW1 5030   1.005   4.631   4.205
 1377SOL    HW2 5031   1.157   4.646   4.261
 1378SOL     OW 5032   1.961   2.987   6.580
 1378SOL    HW1 5033   2.018   2.996   6.498
 1378SOL    HW2 5034   1.927   3.077   6.607
 1379SOL     OW 5035   4.361   5.883   1.018
 1379SOL    HW1 5036   4.337   5.843   1.107
 1379SOL    HW2 5037   4.331   5.978   1.015
 1380SOL     OW 5038   5.740   5.254   2.820
 1380SOL    HW1 5039   5.807   5.283   2.888
 1380SOL    HW2 5040   5.772   5.172   2.773
 1381SOL     OW 5041   5.684   6.886   1.824
 1381SOL    HW1 5042   5.626   6.966   1.809
 1381SOL    HW2 5043   5.650   6.809   1.770
 1382SOL     OW 5044   0.046   4.611   6.565
 1382SOL    HW1 5045   0.096   4.676   6.507
 1382SOL    HW2 5046   0.068   4.629   6.661
 1383SOL     OW 5047   2.365   0.517   0.128
 1383SOL    HW1 5048   2.461   0.494   0.112
 1383SOL    HW2 5049   2.311   0.494   0.047
 1384SOL     OW 5050   2.173   2.054   2.432
 1384SOL    HW1 5051   2.236   2.130   2.452
 1384SOL    HW2 5052   2.130   2.069   2.343
 1385SOL     OW 5053   5.303   3.104   3.823
 1385SOL    HW1 5054   5.274   3.198   3.804
 1385SOL    HW2 5055   5.391   3.087   3.780
 1386SOL     OW 5056   2.017   2.886   3.920
 1386SOL    HW1 5057   2.098   2.830   3.937
 1386SOL    HW2 5058   2.009   2.956   3.991
 1387SOL     OW 5059   3.281   0.353   4.488
 1387SOL    HW1 5060   3.235   0.440   4.470
 1387SOL    HW2 5061   3.338   0.361   4.569
 1388SOL     OW 5062   5.836   1.498   4.113
 1388SOL    HW1 5063   5.787   1.527   4.195
 1388SOL    HW2 5064   5.779   1.434   4.061
 1389SOL     OW 5065   6.884   0.421   4.089
 1389SOL    HW1 5066   6.900   0.499   4.028
 1389SOL    HW2 5067   6.805   0.370   4.057
 1390SOL     OW 5068   4.590   2.421   2.309
 1390SOL    HW1 5069   4.680   2.448   2.276
 1390SOL    HW2 5070   4.581   2.448   2.405
 1391SOL     OW 5071   5.656   1.440   4.612
 1391SOL    HW1 5072   5.740   1.394   4.641
 1391SOL    HW2 5073   5.580   1.409   4.668
 1392SOL     OW 5074   4.629   6.417   5.538
 1392SOL    HW1 5075   4.713   6.400   5.590
 1392SOL    HW2 5076   4.615   6.342   5.473
 1393SOL     OW 5077   4.603   0.195   0.037
 1393SOL    HW1 5078   4.667   0.264   0.005
 1393SOL    HW2 5079   4.519   0.200   7.007
 1394SOL     OW 5080   4.506   6.944   4.176
 1394SOL    HW1 5081   4.459   0.004   4.205
 1394SOL    HW2 5082   4.485   6.924   4.081
 1395SOL     OW 5083   0.514   5.171   2.428
 1395SOL    HW1 5084   0.482   5.141   2.338
 1395SOL    HW2 5085   0.564   5.257   2.418
 1396SOL     OW 5086   1.352   1.885   3.694
 1396SOL    HW1 5087   1.290   1.906   3.769
 1396SOL    HW2 5088   1.344   1.788   3.670
 1397SOL     OW 5089   1.468   5.094   5.092
 1397SOL    HW1 5090   1.417   5.059   5.170
 1397SOL    HW2 5091   1.406   5.107   5.014
 1398SOL     OW 5092   2.076   6.860   6.347
 1398SOL    HW1 5093   2.113   6.789   6.288
 1398SOL    HW2 5094   2.056   6.942   6.294
 1399SOL     OW 5095   3.683   0.227   6.853
 1399SOL    HW1 5096   3.645   0.314   6.884
 1399SOL    HW2 5097   3.781   0.238   6.835
 1400SOL     OW 5098   0.227   0.773   5.129
 1400SOL    HW1 5099   0.178   0.732   5.052
 1400SOL    HW2 5100   0.323   0.746   5.126
 1401SOL     OW 5101   5.459   0.358   1.987
 1401SOL    HW1 5102   5.375   0.412   1.981
 1401SOL    HW2 5103   5.494   0.341   1.895
 1402SOL     OW 5104   6.264   4.622   2.036
 1402SOL    HW1 5105   6.361   4.614   2.061
 1402SOL    HW2 5106   6.251   4.707   1.984
 1403SOL     OW 5107   2.897   3.683   6.138
 1403SOL    HW1 5108   2.946   3.635   6.066
 1403SOL    HW2 5109   2.956   3.693   6.218
 1404SOL     OW 5110   3.656   6.746   0.533
 1404SOL    HW1 5111   3.723   6.684   0.492
 1404SOL    HW2 5112   3.691   6.839   0.530
 1405SOL     OW 5113   1.149   3.533   0.237
 1405SOL    HW1 5114   1.076   3.489   0.289
 1405SOL    HW2 5115   1.204   3.464   0.191
 1406SOL     OW 5116   2.427   3.054   7.018
 1406SOL    HW1 5117   2.398   2.978   6.960
 1406SOL    HW2 5118   2.400   3.036   0.088
 1407SOL     OW 5119   0.588   2.454   1.066
 1407SOL    HW1 5120   0.492   2.478   1.059
 1407SOL    HW2 5121   0.644   2.521   1.017
 1408SOL     OW 5122   5.377   6.443   0.399
 1408SOL    HW1 5123   5.394   6.487   0.488
 1408SOL    HW2 5124   5.446   6.373   0.383
 1409SOL     OW 5125   6.212   1.770   5.741
 1409SOL    HW1 5126   6.207   1.867   5.716
 1409SOL    HW2 5127   6.172   1.715   5.668
 1410SOL     OW 5128   3.038   0.619   0.354
 1410SOL    HW1 5129   3.025   0.588   0.260
 1410SOL    HW2 5130   3.085   0.707   0.354
 1411SOL     OW 5131   3.649   5.022   6.675
 1411SOL    HW1 5132   3.649   5.101   6.735
 1411SOL    HW2 5133   3.627   4.940   6.728
 1412SOL     OW 5134   2.165   2.100   6.557
 1412SOL    HW1 5135   2.192   2.054   6.473
 1412SOL    HW2 5136   2.079   2.149   6.542
 1413SOL     OW 5137   2.095   1.493   5.638
 1413SOL    HW1 5138   2.142   1.523   5.555
 1413SOL    HW2 5139   2.127   1.548   5.715
 1414SOL     OW 5140   0.736   4.942   1.858
 1414SOL    HW1 5141   0.734   4.990   1.946
 1414SOL    HW2 5142   0.667   4.981   1.797
 1415SOL     OW 5143   3.855   1.697   4.840
 1415SOL    HW1 5144   3.787   1.767   4.863
 1415SOL    HW2 5145   3.873   1.699   4.742
 1416SOL     OW 5146   4.580   0.394   5.138
 1416SOL    HW1 5147   4.587   0.303   5.096
 1416SOL    HW2 5148   4.534   0.456   5.075
 1417SOL     OW 5149   3.362   3.154   4.549
 1417SOL    HW1 5150   3.393   3.153   4.644
 1417SOL    HW2 5151   3.265   3.128   4.546
 1418SOL     OW 5152   2.810   3.698   5.191
 1418SOL    HW1 5153   2.777   3.781   5.236
 1418SOL    HW2 5154   2.756   3.681   5.109
 1419SOL     OW 5155   0.843   6.056   1.998
 1419SOL    HW1 5156   0.866   5.961   2.020
 1419SOL    HW2 5157   0.904   6.090   1.926
 1420SOL     OW 5158   3.103   5.981   2.958
 1420SOL    HW1 5159   3.119   5.926   2.876
 1420SOL    HW2 5160   3.088   6.076   2.931
 1421SOL     OW 5161   1.757   5.751   0.251
 1421SOL    HW1 5162   1.843   5.774   0.298
 1421SOL    HW2 5163   1.711   5.835   0.222
 1422SOL     OW 5164   1.599   3.856   6.797
 1422SOL    HW1 5165   1.661   3.931   6.776
 1422SOL    HW2 5166   1.576   3.859   6.895
 1423SOL     OW 5167   4.298   1.165   4.864
 1423SOL    HW1 5168   4.349   1.247   4.839
 1423SOL    HW2 5169   4.200   1.185   4.862
 1424SOL     OW 5170   6.111   2.483   1.267
 1424SOL    HW1 5171   6.041   2.508   1.201
 1424SOL    HW2 5172   6.151   2.395   1.243
 1425SOL     OW 5173   5.500   0.024   3.653
 1425SOL    HW1 5174   5.424   0.029   3.588
 1425SOL    HW2 5175   5.513   6.953   3.681
 1426SOL     OW 5176   4.124   0.942   0.622
 1426SOL    HW1 5177   4.208   0.904   0.584
 1426SOL    HW2 5178   4.082   1.003   0.555
 1427SOL     OW 5179   1.338   0.704   4.374
 1427SOL    HW1 5180   1.325   0.619   4.322
 1427SOL    HW2 5181   1.414   0.756   4.334
 1428SOL     OW 5182   2.124   3.988   3.789
 1428SOL    HW1 5183   2.158   4.021   3.701
 1428SOL    HW2 5184   2.048   4.046   3.819
 1429SOL     OW 5185   5.668   0.345   2.168
 1429SOL    HW1 5186   5.665   0.251   2.201
 1429SOL    HW2 5187   5.587   0.364   2.112
 1430SOL     OW 5188   2.187   4.094   4.659
 1430SOL    HW1 5189   2.261   4.150   4.621
 1430SOL    HW2 5190   2.194   4.091   4.759
 1431SOL     OW 5191   3.445   1.529   0.298
 1431SOL    HW1 5192   3.375   1.578   0.350
 1431SOL    HW2 5193   3.486   1.459   0.357
 1432SOL     OW 5194   4.664   0.010   3.037
 1432SOL    HW1 5195   4.650   0.053   2.948
 1432SOL    HW2 5196   4.584   6.978   3.060
 1433SOL     OW 5197   3.325   1.332   3.895
 1433SOL    HW1 5198   3.288   1.286   3.815
 1433SOL    HW2 5199   3.256   1.333   3.967
 1434SOL     OW 5200   5.405   3.733   0.978
 1434SOL    HW1 5201   5.339   3.804   1.002
 1434SOL    HW2 5202   5.492   3.751   1.024
 1435SOL     OW 5203   0.769   6.419   4.124
 1435SOL    HW1 5204   0.800   6.324   4.121
 1435SOL    HW2 5205   0.820   6.474   4.058
 1436SOL     OW 5206   5.295   0.871   0.315
 1436SOL    HW1 5207   5.297   0.874   0.415
 1436SOL    HW2 5208   5.337   0.785   0.284
 1437SOL     OW 5209   4.436   1.255   0.520
 1437SOL    HW1 5210   4.441   1.341   0.571
 1437SOL    HW2 5211   4.456   1.272   0.424
 1438SOL     OW 5212   2.265   6.988   2.875
 1438SOL    HW1 5213   2.345   6.959   2.822
 1438SOL    HW2 5214   2.187   6.931   2.852
 1439SOL     OW 5215   0.887   5.263   6.135
 1439SOL    HW1 5216   0.890   5.346   6.191
 1439SOL    HW2 5217   0.803   5.213   6.153
 1440SOL     OW 5218   4.020   3.211   2.188
 1440SOL    HW1 5219   4.113   3.206   2.224
 1440SOL    HW2 5220   4.010   3.147   2.112
 1441SOL     OW 5221   6.313   1.989   5.975
 1441SOL    HW1 5222   6.402   1.950   5.952
 1441SOL    HW2 5223   6.247   1.964   5.904
 1442SOL     OW 5224   5.224   6.051   0.287
 1442SOL    HW1 5225   5.140   6.005   0.313
 1442SOL    HW2 5226   5.203   6.144   0.255
 1443SOL     OW 5227   1.311   2.245   3.845
 1443SOL    HW1 5228   1.257   2.247   3.761
 1443SOL    HW2 5229   1.267   2.184   3.911
 1444SOL     OW 5230   5.078   6.342   5.031
 1444SOL    HW1 5231   5.000   6.400   5.006
 1444SOL    HW2 5232   5.046   6.249   5.048
 1445SOL     OW 5233   6.524   2.093   6.655
 1445SOL    HW1 5234   6.446   2.148   6.627
 1445SOL    HW2 5235   6.494   2.000   6.678
 1446SOL     OW 5236   3.877   5.643   1.490
 1446SOL    HW1 5237   3.820   5.714   1.448
 1446SOL    HW2 5238   3.922   5.681   1.572
 1447SOL     OW 5239   6.493   1.068   5.006
 1447SOL    HW1 5240   6.540   1.077   5.093
 1447SOL    HW2 5241   6.539   0.999   4.950
 1448SOL     OW 5242   5.731   0.585   6.793
 1448SOL    HW1 5243   5.752   0.667   6.741
 1448SOL    HW2 5244   5.816   0.535   6.813
 1449SOL     OW 5245   4.243   5.278   0.622
 1449SOL    HW1 5246   4.208   5.272   0.715
 1449SOL    HW2 5247   4.295   5.195   0.600
 1450SOL     OW 5248   6.123   1.448   4.056
 1450SOL    HW1 5249   6.144   1.542   4.031
 1450SOL    HW2 5250   6.028   1.442   4.088
 1451SOL     OW 5251   1.423   6.457   1.659
 1451SOL    HW1 5252   1.469   6.388   1.714
 1451SOL    HW2 5253   1.477   6.542   1.660
 1452SOL     OW 5254   3.630   0.312   5.496
 1452SOL    HW1 5255   3.598   0.406   5.499
 1452SOL    HW2 5256   3.577   0.256   5.559
 1453SOL     OW 5257   5.344   4.412   4.270
 1453SOL    HW1 5258   5.360   4.334   4.331
 1453SOL    HW2 5259   5.375   4.389   4.178
 1454SOL     OW 5260   5.059   3.810   0.982
 1454SOL    HW1 5261   5.020   3.886   0.929
 1454SOL    HW2 5262   5.123   3.759   0.925
 1455SOL     OW 5263   2.021   1.976   1.736
 1455SOL    HW1 5264   1.995   2.039   1.809
 1455SOL    HW2 5265   2.113   1.997   1.705
 1456SOL     OW 5266   6.121   5.300   5.277
 1456SOL    HW1 5267   6.071   5.344   5.203
 1456SOL    HW2 5268   6.114   5.201   5.268
 1457SOL     OW 5269   1.938   0.653   4.053
 1457SOL    HW1 5270   1.923   0.684   3.959
 1457SOL    HW2 5271   2.016   0.702   4.092
 1458SOL     OW 5272   0.323   5.604   7.014
 1458SOL    HW1 5273   0.382   5.613   6.934
 1458SOL    HW2 5274   0.377   5.617   0.073
 1459SOL     OW 5275   2.845   0.250   1.412
 1459SOL    HW1 5276   2.760   0.203   1.433
 1459SOL    HW2 5277   2.826   0.333   1.360
 1460SOL     OW 5278   0.364   6.949   0.009
 1460SOL    HW1 5279   0.283   7.006   0.009
 1460SOL    HW2 5280   0.435   6.991   0.066
 1461SOL     OW 5281   4.703   5.388   2.448
 1461SOL    HW1 5282   4.656   5.476   2.455
 1461SOL    HW2 5283   4.801   5.402   2.447
 1462SOL     OW 5284   5.556   0.421   5.044
 1462SOL    HW1 5285   5.594   0.486   5.110
 1462SOL    HW2 5286   5.611   0.337   5.045
 1463SOL     OW 5287   0.632   2.263   6.055
 1463SOL    HW1 5288   0.566   2.291   6.125
 1463SOL    HW2 5289   0.724   2.267   6.093
 1464SOL     OW 5290   0.825   0.579   1.356
 1464SOL    HW1 5291   0.825   0.487   1.397
 1464SOL    HW2 5292   0.732   0.602   1.328
 1465SOL     OW 5293   0.915   0.766   3.951
 1465SOL    HW1 5294   0.966   0.771   3.865
 1465SOL    HW2 5295   0.979   0.775   4.028
 1466SOL     OW 5296   6.056   5.273   4.937
 1466SOL    HW1 5297   6.144   5.274   4.889
 1466SOL    HW2 5298   6.030   5.178   4.957
 1467SOL     OW 5299   5.969   3.951   3.847
 1467SOL    HW1 5300   6.020   4.001   3.917
 1467SOL    HW2 5301   5.971   3.853   3.868
 1468SOL     OW 5302   4.714   0.181   2.384
 1468SOL    HW1 5303   4.765   0.158   2.301
 1468SOL    HW2 5304   4.623   0.215   2.360
 1469SOL     OW 5305   0.730   0.566   2.177
 1469SOL    HW1 5306   0.781   0.644   2.141
 1469SOL    HW2 5307   0.660   0.538   2.111
 1470SOL     OW 5308   0.035   0.251   3.026
 1470SOL    HW1 5309   0.053   0.284   2.933
 1470SOL    HW2 5310   0.024   0.152   3.024
 1471SOL     OW 5311   5.793   0.836   1.468
 1471SOL    HW1 5312   5.818   0.740   1.461
 1471SOL    HW2 5313   5.823   0.871   1.557
 1472SOL     OW 5314   4.722   5.340   4.726
 1472SOL    HW1 5315   4.794   5.407   4.708
 1472SOL    HW2 5316   4.742   5.255   4.677
 1473SOL     OW 5317   6.172   3.357   3.368
 1473SOL    HW1 5318   6.246   3.331   3.305
 1473SOL    HW2 5319   6.210   3.406   3.446
 1474SOL     OW 5320   4.407   5.500   2.882
 1474SOL    HW1 5321   4.457   5.587   2.893
 1474SOL    HW2 5322   4.471   5.424   2.891
 1475SOL     OW 5323   6.139   0.079   3.119
 1475SOL    HW1 5324   6.184   0.030   3.043
 1475SOL    HW2 5325   6.182   0.052   3.205
 1476SOL     OW 5326   0.286   2.578   0.931
 1476SOL    HW1 5327   0.294   2.589   1.030
 1476SOL    HW2 5328   0.336   2.652   0.885
 1477SOL     OW 5329   2.525   6.520   4.071
 1477SOL    HW1 5330   2.621   6.548   4.069
 1477SOL    HW2 5331   2.469   6.594   4.033
 1478SOL     OW 5332   6.756   3.443   1.567
 1478SOL    HW1 5333   6.707   3.524   1.599
 1478SOL    HW2 5334   6.732   3.365   1.624
 1479SOL     OW 5335   0.928   5.587   0.548
 1479SOL    HW1 5336   0.836   5.623   0.540
 1479SOL    HW2 5337   0.926   5.503   0.604
 1480SOL     OW 5338   2.248   1.018   0.072
 1480SOL    HW1 5339   2.305   1.096   0.046
 1480SOL    HW2 5340   2.266   0.942   0.011
 1481SOL     OW 5341   0.878   3.502   6.911
 1481SOL    HW1 5342   0.800   3.519   6.852
 1481SOL    HW2 5343   0.901   3.585   6.962
 1482SOL     OW 5344   5.472   0.669   6.309
 1482SOL    HW1 5345   5.506   0.693   6.400
 1482SOL    HW2 5346   5.411   0.590   6.316
 1483SOL     OW 5347   6.552   1.817   6.647
 1483SOL    HW1 5348   6.544   1.809   6.547
 1483SOL    HW2 5349   6.592   1.734   6.684
 1484SOL     OW 5350   6.391   6.733   2.716
 1484SOL    HW1 5351   6.435   6.685   2.792
 1484SOL    HW2 5352   6.442   6.816   2.695
 1485SOL     OW 5353   5.630   3.044   3.965
 1485SOL    HW1 5354   5.606   3.030   3.869
 1485SOL    HW2 5355   5.594   3.132   3.996
 1486SOL     OW 5356   5.031   2.385   1.770
 1486SOL    HW1 5357   4.974   2.381   1.852
 1486SOL    HW2 5358   5.035   2.294   1.728
 1487SOL     OW 5359   6.989   0.510   5.686
 1487SOL    HW1 5360   6.951   0.420   5.665
 1487SOL    HW2 5361   6.937   0.551   5.761
 1488SOL     OW 5362   5.122   1.856   3.953
 1488SOL    HW1 5363   5.066   1.787   3.906
 1488SOL    HW2 5364   5.182   1.811   4.019
 1489SOL     OW 5365   3.959   5.278   4.381
 1489SOL    HW1 5366   3.987   5.235   4.296
 1489SOL    HW2 5367   3.975   5.215   4.457
 1490SOL     OW 5368   2.461   2.503   1.322
 1490SOL    HW1 5369   2.558   2.503   1.344
 1490SOL    HW2 5370   2.408   2.484   1.404
 1491SOL     OW 5371   0.425   2.535   5.275
 1491SOL    HW1 5372   0.373   2.485   5.344
 1491SOL    HW2 5373   0.392   2.511   5.184
 1492SOL     OW 5374   6.622   2.142   1.103
 1492SOL    HW1 5375   6.589   2.237   1.107
 1492SOL    HW2 5376   6.569   2.091   1.035
 1493SOL     OW 5377   6.220   2.662   5.301
 1493SOL    HW1 5378   6.135   2.623   5.266
 1493SOL    HW2 5379   6.230   2.638   5.398
 1494SOL     OW 5380   5.568   1.741   4.226
 1494SOL    HW1 5381   5.559   1.648   4.264
 1494SOL    HW2 5382   5.591   1.804   4.299
 1495SOL     OW 5383   1.122   3.541   2.459
 1495SOL    HW1 5384   1.171   3.487   2.527
 1495SOL    HW2 5385   1.026   3.550   2.487
 1496SOL     OW 5386   1.258   0.534   2.670
 1496SOL    HW1 5387   1.336   0.544   2.731
 1496SOL    HW2 5388   1.273   0.588   2.587
 1497SOL     OW 5389   5.437   5.396   5.572
 1497SOL    HW1 5390   5.478   5.467   5.515
 1497SOL    HW2 5391   5.436   5.426   5.667
 1498SOL     OW 5392   2.444   5.597   0.442
 1498SOL    HW1 5393   2.417   5.691   0.421
 1498SOL    HW2 5394   2.386   5.533   0.393
 1499SOL     OW 5395   0.796   3.987   4.539
 1499SOL    HW1 5396   0.856   4.040   4.599
 1499SOL    HW2 5397   0.710   3.968   4.587
 1500SOL     OW 5398   4.193   6.604   5.426
 1500SOL    HW1 5399   4.259   6.668   5.387
 1500SOL    HW2 5400   4.235   6.554   5.501
 1501SOL     OW 5401   3.831   0.564   0.536
 1501SOL    HW1 5402   3.775   0.522   0.607
 1501SOL    HW2 5403   3.919   0.518   0.530
 1502SOL     OW 5404   0.239   5.832   6.389
 1502SOL    HW1 5405   0.171   5.813   6.319
 1502SOL    HW2 5406   0.225   5.924   6.426
 1503SOL     OW 5407   3.620   4.543   5.608
 1503SOL    HW1 5408   3.530   4.542   5.653
 1503SOL    HW2 5409   3.671   4.461   5.635
 1504SOL     OW 5410   2.752   6.724   4.034
 1504SOL    HW1 5411   2.688   6.783   4.084
 1504SOL    HW2 5412   2.795   6.777   3.961
 1505SOL     OW 5413   5.043   0.044   2.437
 1505SOL    HW1 5414   5.054   0.017   2.532
 1505SOL    HW2 5415   5.019   0.141   2.433
 1506SOL     OW 5416   1.030   6.777   3.259
 1506SOL    HW1 5417   0.959   6.707   3.252
 1506SOL    HW2 5418   1.050   6.814   3.168
 1507SOL     OW 5419   2.413   2.579   7.014
 1507SOL    HW1 5420   2.345   2.566   6.941
 1507SOL    HW2 5421   2.501   2.604   6.973
 1508SOL     OW 5422   4.537   6.812   1.201
 1508SOL    HW1 5423   4.488   6.884   1.151
 1508SOL    HW2 5424   4.474   6.739   1.225
 1509SOL     OW 5425   5.667   1.919   6.382
 1509SOL    HW1 5426   5.652   1.993   6.447
 1509SOL    HW2 5427   5.688   1.834   6.432
 1510SOL     OW 5428   6.873   1.722   2.953
 1510SOL    HW1 5429   6.812   1.655   2.995
 1510SOL    HW2 5430   6.923   1.771   3.025
 1511SOL     OW 5431   1.195   3.105   0.329
 1511SOL    HW1 5432   1.145   3.156   0.398
 1511SOL    HW2 5433   1.292   3.129   0.333
 1512SOL     OW 5434   6.834   1.317   1.746
 1512SOL    HW1 5435   6.752   1.374   1.745
 1512SOL    HW2 5436   6.883   1.331   1.832
 1513SOL     OW 5437   3.236   0.292   2.808
 1513SOL    HW1 5438   3.237   0.321   2.712
 1513SOL    HW2 5439   3.329   0.292   2.844
 1514SOL     OW 5440   4.542   0.652   6.250
 1514SOL    HW1 5441   4.577   0.653   6.343
 1514SOL    HW2 5442   4.533   0.746   6.216
 1515SOL     OW 5443   5.448   5.073   5.262
 1515SOL    HW1 5444   5.404   5.147   5.210
 1515SOL    HW2 5445   5.497   5.111   5.340
 1516SOL     OW 5446   0.435   1.279   0.782
 1516SOL    HW1 5447   0.527   1.318   0.792
 1516SOL    HW2 5448   0.379   1.305   0.861
 1517SOL     OW 5449   3.185   5.463   3.181
 1517SOL    HW1 5450   3.167   5.489   3.276
 1517SOL    HW2 5451   3.203   5.365   3.177
 1518SOL     OW 5452   0.822   4.927   0.728
 1518SOL    HW1 5453   0.786   4.942   0.636
 1518SOL    HW2 5454   0.831   5.015   0.775
 1519SOL     OW 5455   0.574   3.918   0.951
 1519SOL    HW1 5456   0.499   3.979   0.976
 1519SOL    HW2 5457   0.631   3.962   0.882
 1520SOL     OW 5458   1.565   2.768   3.224
 1520SOL    HW1 5459   1.514   2.854   3.227
 1520SOL    HW2 5460   1.656   2.784   3.186
 1521SOL     OW 5461   2.444   4.398   5.310
 1521SOL    HW1 5462   2.524   4.354   5.351
 1521SOL    HW2 5463   2.449   4.497   5.324
 1522SOL     OW 5464   1.157   1.973   6.319
 1522SOL    HW1 5465   1.087   2.037   6.349
 1522SOL    HW2 5466   1.125   1.879   6.331
 1523SOL     OW 5467   5.463   1.492   0.940
 1523SOL    HW1 5468   5.479   1.394   0.929
 1523SOL    HW2 5469   5.404   1.525   0.865
 1524SOL     OW 5470   7.021   1.197   1.517
 1524SOL    HW1 5471   6.973   1.265   1.572
 1524SOL    HW2 5472   0.024   1.120   1.575
 1525SOL     OW 5473   4.913   1.522   5.972
 1525SOL    HW1 5474   4.909   1.620   5.991
 1525SOL    HW2 5475   4.993   1.483   6.017
 1526SOL     OW 5476   6.273   1.146   0.140
 1526SOL    HW1 5477   6.241   1.210   0.211
 1526SOL    HW2 5478   6.353   1.185   0.094
 1527SOL     OW 5479   3.178   1.739   6.213
 1527SOL    HW1 5480   3.136   1.828   6.229
 1527SOL    HW2 5481   3.112   1.677   6.170
 1528SOL     OW 5482   5.296   5.337   4.020
 1528SOL    HW1 5483   5.372   5.342   4.085
 1528SOL    HW2 5484   5.311   5.403   3.947
 1529SOL     OW 5485   2.111   0.092   5.742
 1529SOL    HW1 5486   2.102   0.045   5.829
 1529SOL    HW2 5487   2.081   0.032   5.668
 1530SOL     OW 5488   2.743   6.795   1.339
 1530SOL    HW1 5489   2.800   6.713   1.338
 1530SOL    HW2 5490   2.734   6.828   1.433
 1531SOL     OW 5491   5.811   0.764   6.318
 1531SOL    HW1 5492   5.798   0.844   6.377
 1531SOL    HW2 5493   5.806   0.681   6.373
 1532SOL     OW 5494   2.751   2.499   5.400
 1532SOL    HW1 5495   2.798   2.433   5.341
 1532SOL    HW2 5496   2.787   2.590   5.382
 1533SOL     OW 5497   4.914   2.678   7.000
 1533SOL    HW1 5498   4.889   2.658   0.071
 1533SOL    HW2 5499   4.921   2.592   6.949
 1534SOL     OW 5500   6.738   0.139   1.747
 1534SOL    HW1 5501   6.829   0.117   1.781
 1534SOL    HW2 5502   6.688   0.192   1.815
 1535SOL     OW 5503   5.328   4.618   4.563
 1535SOL    HW1 5504   5.292   4.646   4.473
 1535SOL    HW2 5505   5.269   4.656   4.635
 1536SOL     OW 5506   3.402   6.148   2.931
 1536SOL    HW1 5507   3.311   6.112   2.951
 1536SOL    HW2 5508   3.406   6.245   2.951
 1537SOL     OW 5509   3.021   5.694   4.554
 1537SOL    HW1 5510   3.055   5.701   4.460
 1537SOL    HW2 5511   3.070   5.759   4.612
 1538SOL     OW 5512   3.240   5.548   6.635
 1538SOL    HW1 5513   3.268   5.459   6.600
 1538SOL    HW2 5514   3.186   5.596   6.566
 1539SOL     OW 5515   3.257   6.220   1.649
 1539SOL    HW1 5516   3.317   6.185   1.577
 1539SOL    HW2 5517   3.163   6.227   1.614
 1540SOL     OW 5518   5.900   0.144   5.234
 1540SOL    HW1 5519   5.838   0.170   5.160
 1540SOL    HW2 5520   5.899   0.045   5.244
 1541SOL     OW 5521   5.117   1.503   0.954
 1541SOL    HW1 5522   5.155   1.534   0.867
 1541SOL    HW2 5523   5.129   1.404   0.962
 1542SOL     OW 5524   6.904   6.279   1.296
 1542SOL    HW1 5525   6.882   6.253   1.390
 1542SOL    HW2 5526   6.889   6.202   1.236
 1543SOL     OW 5527   3.556   3.550   3.411
 1543SOL    HW1 5528   3.564   3.618   3.338
 1543SOL    HW2 5529   3.607   3.468   3.384
 1544SOL     OW 5530   3.230   3.480   2.470
 1544SOL    HW1 5531   3.254   3.452   2.564
 1544SOL    HW2 5532   3.306   3.531   2.431
 1545SOL     OW 5533   0.088   0.395   4.890
 1545SOL    HW1 5534   0.097   0.330   4.965
 1545SOL    HW2 5535   0.019   0.362   4.825
 1546SOL     OW 5536   6.306   6.541   6.373
 1546SOL    HW1 5537   6.267   6.486   6.299
 1546SOL    HW2 5538   6.265   6.512   6.460
 1547SOL     OW 5539   3.309   5.510   0.234
 1547SOL    HW1 5540   3.317   5.544   0.328
 1547SOL    HW2 5541   3.242   5.566   0.185
 1548SOL     OW 5542   6.329   4.215   3.847
 1548SOL    HW1 5543   6.422   4.228   3.815
 1548SOL    HW2 5544   6.295   4.126   3.817
 1549SOL     OW 5545   0.002   2.414   0.910
 1549SOL    HW1 5546   6.930   2.427   0.884
 1549SOL    HW2 5547   0.012   2.429   1.008
 1550SOL     OW 5548   2.491   5.015   2.829
 1550SOL    HW1 5549   2.467   4.979   2.738
 1550SOL    HW2 5550   2.576   4.973   2.860
 1551SOL     OW 5551   0.411   2.195   1.368
 1551SOL    HW1 5552   0.371   2.175   1.278
 1551SOL    HW2 5553   0.411   2.293   1.383
 1552SOL     OW 5554   0.824   6.669   2.147
 1552SOL    HW1 5555   0.801   6.635   2.055
 1552SOL    HW2 5556   0.892   6.609   2.189
 1553SOL     OW 5557   5.267   1.027   6.083
 1553SOL    HW1 5558   5.353   0.992   6.119
 1553SOL    HW2 5559   5.222   1.083   6.153
 1554SOL     OW 5560   2.551   2.132   0.755
 1554SOL    HW1 5561   2.606   2.154   0.835
 1554SOL    HW2 5562   2.610   2.125   0.675
 1555SOL     OW 5563   4.151   1.460   0.262
 1555SOL    HW1 5564   4.180   1.482   0.169
 1555SOL    HW2 5565   4.216   1.498   0.328
 1556SOL     OW 5566   3.584   1.975   0.458
 1556SOL    HW1 5567   3.521   2.003   0.530
 1556SOL    HW2 5568   3.535   1.916   0.393
 1557SOL     OW 5569   1.627   3.153   0.571
 1557SOL    HW1 5570   1.613   3.055   0.582
 1557SOL    HW2 5571   1.669   3.171   0.482
 1558SOL     OW 5572   5.379   2.530   6.271
 1558SOL    HW1 5573   5.316   2.602   6.240
 1558SOL    HW2 5574   5.450   2.516   6.202
 1559SOL     OW 5575   2.605   6.218   3.638
 1559SOL    HW1 5576   2.593   6.316   3.627
 1559SOL    HW2 5577   2.615   6.175   3.548
 1560SOL     OW 5578   4.179   3.142   1.156
 1560SOL    HW1 5579   4.209   3.197   1.077
 1560SOL    HW2 5580   4.080   3.150   1.165
 1561SOL     OW 5581   5.604   6.179   0.639
 1561SOL    HW1 5582   5.648   6.200   0.727
 1561SOL    HW2 5583   5.521   6.234   0.630
 1562SOL     OW 5584   2.831   0.450   2.390
 1562SOL    HW1 5585   2.888   0.529   2.414
 1562SOL    HW2 5586   2.856   0.372   2.447
 1563SOL     OW 5587   1.939   3.271   3.916
 1563SOL    HW1 5588   1.909   3.188   3.870
 1563SOL    HW2 5589   1.925   3.350   3.856
 1564SOL     OW 5590   0.536   1.875   2.823
 1564SOL    HW1 5591   0.584   1.788   2.813
 1564SOL    HW2 5592   0.599   1.944   2.857
 1565SOL     OW 5593   4.798   1.751   5.541
 1565SOL    HW1 5594   4.759   1.681   5.600
 1565SOL    HW2 5595   4.725   1.809   5.505
 1566SOL     OW 5596   0.221   3.466   3.263
 1566SOL    HW1 5597   0.134   3.501   3.227
 1566SOL    HW2 5598   0.204   3.380   3.310
 1567SOL     OW 5599   5.577   0.407   4.734
 1567SOL    HW1 5600   5.637   0.334   4.703
 1567SOL    HW2 5601   5.631   0.475   4.784
 1568SOL     OW 5602   2.157   4.664   1.128
 1568SOL    HW1 5603   2.201   4.589   1.177
 1568SOL    HW2 5604   2.178   4.751   1.173
 1569SOL     OW 5605   2.369   1.291   2.647
 1569SOL    HW1 5606   2.404   1.382   2.673
 1569SOL    HW2 5607   2.270   1.295   2.640
 1570SOL     OW 5608   2.603   5.653   6.465
 1570SOL    HW1 5609   2.690   5.652   6.513
 1570SOL    HW2 5610   2.598   5.733   6.405
 1571SOL     OW 5611   6.909   2.511   4.433
 1571SOL    HW1 5612   6.899   2.438   4.366
 1571SOL    HW2 5613   6.941   2.473   4.519
 1572SOL     OW 5614   2.314   6.516   3.121
 1572SOL    HW1 5615   2.283   6.429   3.159
 1572SOL    HW2 5616   2.410   6.507   3.092
 1573SOL     OW 5617   5.197   5.681   0.337
 1573SOL    HW1 5618   5.220   5.584   0.344
 1573SOL    HW2 5619   5.270   5.730   0.289
 1574SOL     OW 5620   1.118   4.292   3.126
 1574SOL    HW1 5621   1.135   4.203   3.167
 1574SOL    HW2 5622   1.029   4.291   3.080
 1575SOL     OW 5623   7.020   2.463   0.496
 1575SOL    HW1 5624   6.951   2.455   0.568
 1575SOL    HW2 5625   0.034   2.373   0.475
 1576SOL     OW 5626   1.757   5.684   1.693
 1576SOL    HW1 5627   1.679   5.670   1.754
 1576SOL    HW2 5628   1.841   5.650   1.737
 1577SOL     OW 5629   4.695   6.015   3.693
 1577SOL    HW1 5630   4.671   5.928   3.736
 1577SOL    HW2 5631   4.791   6.037   3.712
 1578SOL     OW 5632   5.009   1.903   1.320
 1578SOL    HW1 5633   5.035   1.913   1.416
 1578SOL    HW2 5634   5.050   1.820   1.283
 1579SOL     OW 5635   1.763   3.259   1.826
 1579SOL    HW1 5636   1.695   3.293   1.761
 1579SOL    HW2 5637   1.796   3.334   1.882
 1580SOL     OW 5638   2.927   3.447   3.175
 1580SOL    HW1 5639   2.959   3.353   3.159
 1580SOL    HW2 5640   2.884   3.482   3.092
 1581SOL     OW 5641   5.993   4.100   4.569
 1581SOL    HW1 5642   5.945   4.045   4.637
 1581SOL    HW2 5643   6.091   4.077   4.570
 1582SOL     OW 5644   4.661   5.942   5.235
 1582SOL    HW1 5645   4.706   5.860   5.201
 1582SOL    HW2 5646   4.720   5.988   5.302
 1583SOL     OW 5647   1.247   5.594   5.287
 1583SOL    HW1 5648   1.234   5.507   5.240
 1583SOL    HW2 5649   1.285   5.662   5.223
 1584SOL     OW 5650   0.337   4.219   0.517
 1584SOL    HW1 5651   0.314   4.130   0.557
 1584SOL    HW2 5652   0.295   4.228   0.427
 1585SOL     OW 5653   4.964   6.651   4.406
 1585SOL    HW1 5654   4.895   6.639   4.477
 1585SOL    HW2 5655   4.959   6.744   4.370
 1586SOL     OW 5656   2.961   5.777   3.114
 1586SOL    HW1 5657   3.010   5.795   3.199
 1586SOL    HW2 5658   3.011   5.816   3.037
 1587SOL     OW 5659   3.065   6.606   6.523
 1587SOL    HW1 5660   3.075   6.539   6.450
 1587SOL    HW2 5661   3.008   6.567   6.596
 1588SOL     OW 5662   6.414   1.969   3.356
 1588SOL    HW1 5663   6.350   2.038   3.321
 1588SOL    HW2 5664   6.378   1.931   3.441
 1589SOL     OW 5665   0.104   3.063   4.597
 1589SOL    HW1 5666   0.146   3.123   4.529
 1589SOL    HW2 5667   0.004   3.069   4.590
 1590SOL     OW 5668   5.927   0.925   3.332
 1590SOL    HW1 5669   5.996   0.854   3.343
 1590SOL    HW2 5670   5.874   0.933   3.416
 1591SOL     OW 5671   1.102   5.953   0.436
 1591SOL    HW1 5672   1.159   6.023   0.477
 1591SOL    HW2 5673   1.098   5.966   0.337
 1592SOL     OW 5674   0.444   3.454   5.819
 1592SOL    HW1 5675   0.512   3.506   5.768
 1592SOL    HW2 5676   0.375   3.517   5.856
 1593SOL     OW 5677   3.932   6.054   1.224
 1593SOL    HW1 5678   4.018   6.033   1.272
 1593SOL    HW2 5679   3.860   5.993   1.257
 1594SOL     OW 5680   5.617   1.007   2.836
 1594SOL    HW1 5681   5.579   0.956   2.913
 1594SOL    HW2 5682   5.543   1.057   2.790
 1595SOL     OW 5683   1.157   3.158   6.805
 1595SOL    HW1 5684   1.141   3.062   6.829
 1595SOL    HW2 5685   1.088   3.189   6.740
 1596SOL     OW 5686   5.020   4.696   3.605
 1596SOL    HW1 5687   5.030   4.787   3.566
 1596SOL    HW2 5688   4.961   4.641   3.547
 1597SOL     OW 5689   3.390   5.877   0.505
 1597SOL    HW1 5690   3.374   5.780   0.525
 1597SOL    HW2 5691   3.310   5.930   0.532
 1598SOL     OW 5692   1.387   4.400   6.230
 1598SOL    HW1 5693   1.404   4.306   6.198
 1598SOL    HW2 5694   1.458   4.426   6.295
 1599SOL     OW 5695   4.608   5.570   3.686
 1599SOL    HW1 5696   4.631   5.614   3.773
 1599SOL    HW2 5697   4.685   5.580   3.623
 1600SOL     OW 5698   4.215   0.580   1.576
 1600SOL    HW1 5699   4.209   0.679   1.577
 1600SOL    HW2 5700   4.132   0.542   1.536
 1601SOL     OW 5701   6.574   1.055   4.637
 1601SOL    HW1 5702   6.581   1.047   4.538
 1601SOL    HW2 5703   6.547   1.149   4.661
 1602SOL     OW 5704   4.771   5.655   3.914
 1602SOL    HW1 5705   4.843   5.722   3.898
 1602SOL    HW2 5706   4.809   5.576   3.963
 1603SOL     OW 5707   3.037   4.776   2.277
 1603SOL    HW1 5708   2.953   4.824   2.252
 1603SOL    HW2 5709   3.023   4.726   2.363
 1604SOL     OW 5710   4.337   5.041   2.790
 1604SOL    HW1 5711   4.420   4.984   2.791
 1604SOL    HW2 5712   4.345   5.111   2.719
 1605SOL     OW 5713   5.033   4.975   0.578
 1605SOL    HW1 5714   5.067   5.067   0.559
 1605SOL    HW2 5715   4.943   4.980   0.622
 1606SOL     OW 5716   3.109   5.700   4.874
 1606SOL    HW1 5717   3.039   5.762   4.910
 1606SOL    HW2 5718   3.157   5.656   4.950
 1607SOL     OW 5719   4.786   4.420   3.743
 1607SOL    HW1 5720   4.774   4.325   3.771
 1607SOL    HW2 5721   4.772   4.480   3.822
 1608SOL     OW 5722   5.537   2.720   3.631
 1608SOL    HW1 5723   5.627   2.705   3.674
 1608SOL    HW2 5724   5.515   2.641   3.573
 1609SOL     OW 5725   1.725   0.224   0.870
 1609SOL    HW1 5726   1.807   0.181   0.908
 1609SOL    HW2 5727   1.680   0.277   0.942
 1610SOL     OW 5728   5.641   6.492   0.830
 1610SOL    HW1 5729   5.557   6.461   0.784
 1610SOL    HW2 5730   5.691   6.413   0.865
 1611SOL     OW 5731   1.480   4.216   6.962
 1611SOL    HW1 5732   1.432   4.289   7.010
 1611SOL    HW2 5733   1.460   4.129   7.007
 1612SOL     OW 5734   4.263   0.970   2.500
 1612SOL    HW1 5735   4.293   1.063   2.479
 1612SOL    HW2 5736   4.168   0.958   2.472
 1613SOL     OW 5737   0.113   5.453   2.638
 1613SOL    HW1 5738   0.128   5.401   2.554
 1613SOL    HW2 5739   0.189   5.437   2.701
 1614SOL     OW 5740   6.565   1.451   6.100
 1614SOL    HW1 5741   6.573   1.352   6.117
 1614SOL    HW2 5742   6.478   1.470   6.055
 1615SOL     OW 5743   6.955   3.774   5.698
 1615SOL    HW1 5744   0.020   3.808   5.727
 1615SOL    HW2 5745   6.909   3.843   5.641
 1616SOL     OW 5746   0.488   0.667   3.869
 1616SOL    HW1 5747   0.474   0.650   3.771
 1616SOL    HW2 5748   0.478   0.582   3.919
 1617SOL     OW 5749   6.988   5.611   3.649
 1617SOL    HW1 5750   7.014   5.558   3.730
 1617SOL    HW2 5751   0.030   5.595   3.576
 1618SOL     OW 5752   3.618   5.567   2.622
 1618SOL    HW1 5753   3.588   5.473   2.607
 1618SOL    HW2 5754   3.713   5.567   2.654
 1619SOL     OW 5755   1.108   4.208   6.524
 1619SOL    HW1 5756   1.104   4.246   6.431
 1619SOL    HW2 5757   1.064   4.119   6.524
 1620SOL     OW 5758   3.206   6.724   3.930
 1620SOL    HW1 5759   3.165   6.672   3.855
 1620SOL    HW2 5760   3.297   6.756   3.903
 1621SOL     OW 5761   4.709   5.360   0.859
 1621SOL    HW1 5762   4.721   5.398   0.767
 1621SOL    HW2 5763   4.613   5.335   0.872
 1622SOL     OW 5764   6.253   4.681   4.279
 1622SOL    HW1 5765   6.258   4.647   4.186
 1622SOL    HW2 5766   6.220   4.776   4.278
 1623SOL     OW 5767   0.150   2.498   3.455
 1623SOL    HW1 5768   0.144   2.527   3.551
 1623SOL    HW2 5769   0.131   2.400   3.449
 1624SOL     OW 5770   3.851   3.126   0.528
 1624SOL    HW1 5771   3.915   3.107   0.454
 1624SOL    HW2 5772   3.791   3.201   0.502
 1625SOL     OW 5773   0.532   6.551   0.357
 1625SOL    HW1 5774   0.447   6.511   0.323
 1625SOL    HW2 5775   0.607   6.485   0.347
 1626SOL     OW 5776   2.403   1.981   1.938
 1626SOL    HW1 5777   2.440   2.026   2.020
 1626SOL    HW2 5778   2.466   1.910   1.907
 1627SOL     OW 5779   3.999   2.188   5.847
 1627SOL    HW1 5780   3.928   2.133   5.802
 1627SOL    HW2 5781   4.024   2.146   5.934
 1628SOL     OW 5782   5.313   6.598   0.942
 1628SOL    HW1 5783   5.387   6.665   0.947
 1628SOL    HW2 5784   5.284   6.573   1.034
 1629SOL     OW 5785   1.595   0.166   3.693
 1629SOL    HW1 5786   1.689   0.164   3.728
 1629SOL    HW2 5787   1.547   0.243   3.733
 1630SOL     OW 5788   0.621   3.638   5.927
 1630SOL    HW1 5789   0.617   3.539   5.909
 1630SOL    HW2 5790   0.641   3.686   5.842
 1631SOL     OW 5791   5.841   3.104   0.659
 1631SOL    HW1 5792   5.843   3.101   0.559
 1631SOL    HW2 5793   5.889   3.186   0.691
 1632SOL     OW 5794   6.636   5.952   1.982
 1632SOL    HW1 5795   6.557   6.001   2.017
 1632SOL    HW2 5796   6.685   5.908   2.058
 1633SOL     OW 5797   5.154   3.719   4.593
 1633SOL    HW1 5798   5.200   3.630   4.597
 1633SOL    HW2 5799   5.065   3.709   4.549
 1634SOL     OW 5800   1.122   3.535   5.757
 1634SOL    HW1 5801   1.060   3.501   5.829
 1634SOL    HW2 5802   1.147   3.629   5.776
 1635SOL     OW 5803   3.598   7.014   3.622
 1635SOL    HW1 5804   3.530   6.992   3.551
 1635SOL    HW2 5805   3.557   7.001   3.712
 1636SOL     OW 5806   6.588   5.681   1.133
 1636SOL    HW1 5807   6.498   5.642   1.150
 1636SOL    HW2 5808   6.579   5.761   1.073
 1637SOL     OW 5809   1.464   1.433   2.624
 1637SOL    HW1 5810   1.413   1.517   2.603
 1637SOL    HW2 5811   1.411   1.353   2.595
 1638SOL     OW 5812   5.035   2.038   2.397
 1638SOL    HW1 5813   4.969   2.085   2.339
 1638SOL    HW2 5814   4.988   1.995   2.474
 1639SOL     OW 5815   4.852   2.354   1.956
 1639SOL    HW1 5816   4.769   2.343   1.901
 1639SOL    HW2 5817   4.828   2.384   2.048
 1640SOL     OW 5818   5.873   0.802   6.720
 1640SOL    HW1 5819   5.811   0.845   6.786
 1640SOL    HW2 5820   5.928   0.873   6.676
 1641SOL     OW 5821   6.379   1.736   2.760
 1641SOL    HW1 5822   6.361   1.739   2.662
 1641SOL    HW2 5823   6.364   1.644   2.795
 1642SOL     OW 5824   0.123   3.520   6.166
 1642SOL    HW1 5825   0.068   3.448   6.122
 1642SOL    HW2 5826   0.188   3.479   6.229
 1643SOL     OW 5827   2.076   5.554   3.698
 1643SOL    HW1 5828   2.091   5.638   3.750
 1643SOL    HW2 5829   1.992   5.509   3.730
 1644SOL     OW 5830   6.437   1.886   1.790
 1644SOL    HW1 5831   6.380   1.967   1.774
 1644SOL    HW2 5832   6.521   1.894   1.736
 1645SOL     OW 5833   2.614   0.438   5.166
 1645SOL    HW1 5834   2.599   0.519   5.223
 1645SOL    HW2 5835   2.702   0.396   5.190
 1646SOL     OW 5836   0.974   5.427   1.191
 1646SOL    HW1 5837   1.048   5.361   1.181
 1646SOL    HW2 5838   0.912   5.420   1.113
 1647SOL     OW 5839   6.132   2.965   4.710
 1647SOL    HW1 5840   6.111   2.882   4.659
 1647SOL    HW2 5841   6.164   3.036   4.647
 1648SOL     OW 5842   5.894   5.894   2.014
 1648SOL    HW1 5843   5.912   5.973   1.955
 1648SOL    HW2 5844   5.908   5.810   1.963
 1649SOL     OW 5845   4.108   1.721   3.589
 1649SOL    HW1 5846   4.048   1.701   3.512
 1649SOL    HW2 5847   4.202   1.730   3.557
 1650SOL     OW 5848   3.063   2.939   5.531
 1650SOL    HW1 5849   3.034   3.023   5.577
 1650SOL    HW2 5850   3.154   2.912   5.562
 1651SOL     OW 5851   0.933   2.253   3.755
 1651SOL    HW1 5852   0.883   2.323   3.704
 1651SOL    HW2 5853   0.944   2.172   3.698
 1652SOL     OW 5854   0.339   3.861   1.674
 1652SOL    HW1 5855   0.352   3.762   1.680
 1652SOL    HW2 5856   0.359   3.891   1.580
 1653SOL     OW 5857   0.194   4.397   1.915
 1653SOL    HW1 5858   0.126   4.323   1.920
 1653SOL    HW2 5859   0.286   4.359   1.923
 1654SOL     OW 5860   0.103   3.995   1.700
 1654SOL    HW1 5861   0.196   3.966   1.678
 1654SOL    HW2 5862   0.106   4.071   1.766
 1655SOL     OW 5863   0.613   0.761   5.907
 1655SOL    HW1 5864   0.652   0.670   5.891
 1655SOL    HW2 5865   0.682   0.820   5.950
 1656SOL     OW 5866   2.146   4.096   3.511
 1656SOL    HW1 5867   2.113   4.123   3.420
 1656SOL    HW2 5868   2.182   4.176   3.558
 1657SOL     OW 5869   0.686   0.236   5.651
 1657SOL    HW1 5870   0.624   0.199   5.582
 1657SOL    HW2 5871   0.670   0.191   5.739
 1658SOL     OW 5872   4.877   6.660   6.231
 1658SOL    HW1 5873   4.828   6.574   6.213
 1658SOL    HW2 5874   4.937   6.681   6.154
 1659SOL     OW 5875   4.204   6.646   5.781
 1659SOL    HW1 5876   4.115   6.689   5.764
 1659SOL    HW2 5877   4.259   6.705   5.840
 1660SOL     OW 5878   2.243   0.744   1.829
 1660SOL    HW1 5879   2.257   0.795   1.914
 1660SOL    HW2 5880   2.286   0.793   1.753
 1661SOL     OW 5881   4.843   3.997   2.576
 1661SOL    HW1 5882   4.833   3.903   2.608
 1661SOL    HW2 5883   4.847   3.998   2.476
 1662SOL     OW 5884   0.114   2.033   3.895
 1662SOL    HW1 5885   0.144   1.948   3.852
 1662SOL    HW2 5886   0.029   2.017   3.944
 1663SOL     OW 5887   5.305   3.974   1.105
 1663SOL    HW1 5888   5.249   4.050   1.138
 1663SOL    HW2 5889   5.375   3.952   1.174
 1664SOL     OW 5890   1.650   0.305   6.137
 1664SOL    HW1 5891   1.562   0.268   6.166
 1664SOL    HW2 5892   1.636   0.392   6.089
 1665SOL     OW 5893   2.919   4.500   6.435
 1665SOL    HW1 5894   2.987   4.427   6.445
 1665SOL    HW2 5895   2.839   4.464   6.386
 1666SOL     OW 5896   4.934   6.630   6.678
 1666SOL    HW1 5897   4.985   6.715   6.688
 1666SOL    HW2 5898   4.967   6.563   6.745
 1667SOL     OW 5899   0.120   5.672   0.517
 1667SOL    HW1 5900   0.141   5.753   0.463
 1667SOL    HW2 5901   0.173   5.595   0.484
 1668SOL     OW 5902   5.981   3.090   1.944
 1668SOL    HW1 5903   6.038   3.092   2.026
 1668SOL    HW2 5904   6.038   3.063   1.865
 1669SOL     OW 5905   6.823   2.945   5.583
 1669SOL    HW1 5906   6.870   3.032   5.569
 1669SOL    HW2 5907   6.749   2.937   5.517
 1670SOL     OW 5908   3.137   4.475   5.592
 1670SOL    HW1 5909   3.113   4.463   5.495
 1670SOL    HW2 5910   3.054   4.494   5.644
 1671SOL     OW 5911   5.838   2.524   0.341
 1671SOL    HW1 5912   5.754   2.579   0.341
 1671SOL    HW2 5913   5.817   2.430   0.369
 1672SOL     OW 5914   0.385   2.014   1.576
 1672SOL    HW1 5915   0.354   2.076   1.648
 1672SOL    HW2 5916   0.409   2.068   1.494
 1673SOL     OW 5917   1.342   0.461   4.731
 1673SOL    HW1 5918   1.312   0.471   4.636
 1673SOL    HW2 5919   1.360   0.552   4.770
 1674SOL     OW 5920   4.963   2.187   2.757
 1674SOL    HW1 5921   4.947   2.277   2.796
 1674SOL    HW2 5922   4.929   2.184   2.663
 1675SOL     OW 5923   5.183   0.361   1.900
 1675SOL    HW1 5924   5.190   0.459   1.919
 1675SOL    HW2 5925   5.110   0.345   1.833
 1676SOL     OW 5926   0.909   2.132   4.015
 1676SOL    HW1 5927   0.919   2.184   3.930
 1676SOL    HW2 5928   0.823   2.157   4.059
 1677SOL     OW 5929   3.334   3.208   2.962
 1677SOL    HW1 5930   3.377   3.119   2.950
 1677SOL    HW2 5931   3.350   3.241   3.055
 1678SOL     OW 5932   0.883   0.408   0.400
 1678SOL    HW1 5933   0.977   0.432   0.420
 1678SOL    HW2 5934   0.866   0.418   0.302
 1679SOL     OW 5935   6.439   1.311   7.004
 1679SOL    HW1 5936   6.530   1.275   7.022
 1679SOL    HW2 5937   6.422   1.313   6.905
 1680SOL     OW 5938   5.696   2.781   2.833
 1680SOL    HW1 5939   5.648   2.737   2.909
 1680SOL    HW2 5940   5.631   2.834   2.779
 1681SOL     OW 5941   3.791   6.352   4.611
 1681SOL    HW1 5942   3.847   6.418   4.561
 1681SOL    HW2 5943   3.850   6.300   4.675
 1682SOL     OW 5944   4.103   0.383   4.579
 1682SOL    HW1 5945   4.123   0.423   4.669
 1682SOL    HW2 5946   4.175   0.409   4.515
 1683SOL     OW 5947   6.450   2.753   3.000
 1683SOL    HW1 5948   6.433   2.825   3.067
 1683SOL    HW2 5949   6.523   2.782   2.938
 1684SOL     OW 5950   2.656   5.351   1.495
 1684SOL    HW1 5951   2.637   5.433   1.441
 1684SOL    HW2 5952   2.736   5.366   1.552
 1685SOL     OW 5953   6.985   1.276   5.746
 1685SOL    HW1 5954   0.043   1.244   5.699
 1685SOL    HW2 5955   6.936   1.341   5.688
 1686SOL     OW 5956   3.727   5.272   2.018
 1686SOL    HW1 5957   3.694   5.274   2.113
 1686SOL    HW2 5958   3.826   5.263   2.017
 1687SOL     OW 5959   5.099   4.126   1.149
 1687SOL    HW1 5960   5.119   4.141   1.052
 1687SOL    HW2 5961   5.042   4.201   1.183
 1688SOL     OW 5962   2.153   0.190   3.644
 1688SOL    HW1 5963   2.127   0.241   3.726
 1688SOL    HW2 5964   2.107   0.230   3.564
 1689SOL     OW 5965   4.227   0.720   1.882
 1689SOL    HW1 5966   4.200   0.686   1.972
 1689SOL    HW2 5967   4.178   0.669   1.811
 1690SOL     OW 5968   6.683   4.784   4.124
 1690SOL    HW1 5969   6.708   4.728   4.045
 1690SOL    HW2 5970   6.614   4.851   4.097
 1691SOL     OW 5971   4.170   2.782   5.359
 1691SOL    HW1 5972   4.228   2.754   5.435
 1691SOL    HW2 5973   4.145   2.702   5.305
 1692SOL     OW 5974   5.200   5.144   1.465
 1692SOL    HW1 5975   5.203   5.244   1.459
 1692SOL    HW2 5976   5.113   5.117   1.506
 1693SOL     OW 5977   5.057   7.010   6.231
 1693SOL    HW1 5978   4.994   0.064   6.229
 1693SOL    HW2 5979   5.075   6.984   6.326
 1694SOL     OW 5980   4.607   1.754   6.304
 1694SOL    HW1 5981   4.582   1.800   6.389
 1694SOL    HW2 5982   4.530   1.759   6.240
 1695SOL     OW 5983   4.212   0.649   5.745
 1695SOL    HW1 5984   4.288   0.615   5.690
 1695SOL    HW2 5985   4.132   0.662   5.686
 1696SOL     OW 5986   4.040   6.903   0.584
 1696SOL    HW1 5987   3.955   6.954   0.597
 1696SOL    HW2 5988   4.062   6.900   0.487
 1697SOL     OW 5989   4.549   2.792   1.665
 1697SOL    HW1 5990   4.580   2.719   1.604
 1697SOL    HW2 5991   4.560   2.762   1.760
 1698SOL     OW 5992   4.237   1.657   1.423
 1698SOL    HW1 5993   4.161   1.605   1.462
 1698SOL    HW2 5994   4.324   1.617   1.453
 1699SOL     OW 5995   1.934   0.685   0.783
 1699SOL    HW1 5996   1.915   0.783   0.772
 1699SOL    HW2 5997   2.030   0.667   0.764
 1700SOL     OW 5998   5.258   3.319   2.621
 1700SOL    HW1 5999   5.213   3.333   2.710
 1700SOL    HW2 6000   5.203   3.362   2.550
 1701SOL     OW 6001   0.682   5.368   4.805
 1701SOL    HW1 6002   0.734   5.430   4.747
 1701SOL    HW2 6003   0.745   5.313   4.860
 1702SOL     OW 6004   2.528   2.734   6.652
 1702SOL    HW1 6005   2.513   2.661   6.585
 1702SOL    HW2 6006   2.453   2.800   6.646
 1703SOL     OW 6007   1.263   2.320   1.838
 1703SOL    HW1 6008   1.317   2.317   1.922
 1703SOL    HW2 6009   1.323   2.316   1.759
 1704SOL     OW 6010   2.699   3.019   6.929
 1704SOL    HW1 6011   2.743   3.004   7.018
 1704SOL    HW2 6012   2.603   3.041   6.943
 1705SOL     OW 6013   4.624   3.170   0.695
 1705SOL    HW1 6014   4.716   3.132   0.684
 1705SOL    HW2 6015   4.592   3.207   0.608
 1706SOL     OW 6016   6.145   1.827   6.575
 1706SOL    HW1 6017   6.174   1.784   6.661
 1706SOL    HW2 6018   6.162   1.764   6.499
 1707SOL     OW 6019   3.895   1.356   1.916
 1707SOL    HW1 6020   3.928   1.274   1.871
 1707SOL    HW2 6021   3.964   1.391   1.979
 1708SOL     OW 6022   2.659   4.833   1.930
 1708SOL    HW1 6023   2.689   4.739   1.944
 1708SOL    HW2 6024   2.732   4.885   1.885
 1709SOL     OW 6025   4.986   4.646   0.833
 1709SOL    HW1 6026   5.079   4.638   0.796
 1709SOL    HW2 6027   4.981   4.725   0.894
 1710SOL     OW 6028   4.880   3.188   2.417
 1710SOL    HW1 6029   4.849   3.150   2.329
 1710SOL    HW2 6030   4.975   3.218   2.408
 1711SOL     OW 6031   3.936   5.685   0.243
 1711SOL    HW1 6032   3.870   5.759   0.249
 1711SOL    HW2 6033   3.956   5.650   0.335
 1712SOL     OW 6034   0.342   1.985   1.918
 1712SOL    HW1 6035   0.290   1.903   1.896
 1712SOL    HW2 6036   0.435   1.976   1.883
 1713SOL     OW 6037   2.645   1.646   2.594
 1713SOL    HW1 6038   2.732   1.606   2.566
 1713SOL    HW2 6039   2.637   1.738   2.556
 1714SOL     OW 6040   2.378   4.202   0.987
 1714SOL    HW1 6041   2.384   4.300   0.965
 1714SOL    HW2 6042   2.370   4.191   1.086
 1715SOL     OW 6043   0.918   5.973   0.652
 1715SOL    HW1 6044   0.926   5.954   0.554
 1715SOL    HW2 6045   0.913   5.886   0.702
 1716SOL     OW 6046   4.829   1.165   2.879
 1716SOL    HW1 6047   4.910   1.127   2.836
 1716SOL    HW2 6048   4.798   1.245   2.829
 1717SOL     OW 6049   3.903   6.233   3.585
 1717SOL    HW1 6050   3.806   6.252   3.601
 1717SOL    HW2 6051   3.912   6.154   3.524
 1718SOL     OW 6052   2.036   3.346   1.522
 1718SOL    HW1 6053   2.006   3.440   1.537
 1718SOL    HW2 6054   2.073   3.309   1.607
 1719SOL     OW 6055   1.767   5.989   3.047
 1719SOL    HW1 6056   1.829   5.912   3.036
 1719SOL    HW2 6057   1.702   5.992   2.971
 1720SOL     OW 6058   0.961   3.369   5.154
 1720SOL    HW1 6059   0.920   3.294   5.206
 1720SOL    HW2 6060   1.061   3.362   5.159
 1721SOL     OW 6061   1.757   2.496   0.051
 1721SOL    HW1 6062   1.821   2.427   0.083
 1721SOL    HW2 6063   1.667   2.455   0.038
 1722SOL     OW 6064   2.113   2.426   3.533
 1722SOL    HW1 6065   2.028   2.379   3.510
 1722SOL    HW2 6066   2.128   2.421   3.631
 1723SOL     OW 6067   5.603   4.234   1.198
 1723SOL    HW1 6068   5.625   4.270   1.289
 1723SOL    HW2 6069   5.521   4.279   1.163
 1724SOL     OW 6070   5.128   2.424   0.719
 1724SOL    HW1 6071   5.031   2.419   0.740
 1724SOL    HW2 6072   5.180   2.372   0.787
 1725SOL     OW 6073   2.018   6.541   5.879
 1725SOL    HW1 6074   1.995   6.479   5.955
 1725SOL    HW2 6075   2.113   6.525   5.851
 1726SOL     OW 6076   4.855   4.513   2.714
 1726SOL    HW1 6077   4.833   4.519   2.811
 1726SOL    HW2 6078   4.950   4.483   2.703
 1727SOL     OW 6079   3.402   3.906   2.928
 1727SOL    HW1 6080   3.423   3.944   3.019
 1727SOL    HW2 6081   3.311   3.935   2.900
 1728SOL     OW 6082   5.713   2.240   3.925
 1728SOL    HW1 6083   5.630   2.260   3.873
 1728SOL    HW2 6084   5.712   2.293   4.010
 1729SOL     OW 6085   1.193   2.413   2.559
 1729SOL    HW1 6086   1.168   2.317   2.557
 1729SOL    HW2 6087   1.291   2.423   2.576
 1730SOL     OW 6088   2.431   6.436   4.982
 1730SOL    HW1 6089   2.467   6.410   5.071
 1730SOL    HW2 6090   2.507   6.448   4.918
 1731SOL     OW 6091   5.245   4.634   4.106
 1731SOL    HW1 6092   5.290   4.553   4.143
 1731SOL    HW2 6093   5.146   4.625   4.118
 1732SOL     OW 6094   3.230   3.445   5.609
 1732SOL    HW1 6095   3.302   3.490   5.662
 1732SOL    HW2 6096   3.188   3.373   5.664
 1733SOL     OW 6097   1.731   2.630   6.330
 1733SOL    HW1 6098   1.725   2.721   6.289
 1733SOL    HW2 6099   1.668   2.624   6.407
 1734SOL     OW 6100   0.206   3.251   0.880
 1734SOL    HW1 6101   0.123   3.218   0.835
 1734SOL    HW2 6102   0.267   3.291   0.811
 1735SOL     OW 6103   3.377   5.222   6.665
 1735SOL    HW1 6104   3.476   5.218   6.660
 1735SOL    HW2 6105   3.345   5.170   6.744
 1736SOL     OW 6106   5.183   2.370   6.407
 1736SOL    HW1 6107   5.245   2.406   6.337
 1736SOL    HW2 6108   5.234   2.356   6.492
 1737SOL     OW 6109   3.139   0.775   5.642
 1737SOL    HW1 6110   3.180   0.802   5.729
 1737SOL    HW2 6111   3.050   0.733   5.659
 1738SOL     OW 6112   1.402   3.830   2.380
 1738SOL    HW1 6113   1.452   3.770   2.317
 1738SOL    HW2 6114   1.393   3.921   2.339
 1739SOL     OW 6115   5.052   5.752   2.942
 1739SOL    HW1 6116   5.151   5.764   2.947
 1739SOL    HW2 6117   5.026   5.671   2.995
 1740SOL     OW 6118   0.321   3.061   4.888
 1740SOL    HW1 6119   0.258   2.987   4.864
 1740SOL    HW2 6120   0.411   3.043   4.848
 1741SOL     OW 6121   0.954   2.589   4.967
 1741SOL    HW1 6122   1.001   2.642   5.037
 1741SOL    HW2 6123   0.858   2.576   4.994
 1742SOL     OW 6124   6.697   6.678   0.253
 1742SOL    HW1 6125   6.628   6.711   0.189
 1742SOL    HW2 6126   6.650   6.634   0.330
 1743SOL     OW 6127   1.821   2.426   1.660
 1743SOL    HW1 6128   1.877   2.445   1.580
 1743SOL    HW2 6129   1.727   2.453   1.643
 1744SOL     OW 6130   3.451   2.320   5.441
 1744SOL    HW1 6131   3.493   2.390   5.383
 1744SOL    HW2 6132   3.377   2.276   5.391
 1745SOL     OW 6133   6.597   6.633   0.718
 1745SOL    HW1 6134   6.546   6.557   0.759
 1745SOL    HW2 6135   6.643   6.686   0.789
 1746SOL     OW 6136   2.614   4.719   3.160
 1746SOL    HW1 6137   2.570   4.657   3.225
 1746SOL    HW2 6138   2.625   4.673   3.072
 1747SOL     OW 6139   4.080   0.207   2.299
 1747SOL    HW1 6140   4.152   0.167   2.243
 1747SOL    HW2 6141   4.115   0.288   2.345
 1748SOL     OW 6142   6.746   2.123   4.226
 1748SOL    HW1 6143   6.750   2.113   4.325
 1748SOL    HW2 6144   6.828   2.083   4.185
 1749SOL     OW 6145   6.594   5.309   1.802
 1749SOL    HW1 6146   6.542   5.315   1.888
 1749SOL    HW2 6147   6.674   5.368   1.807
 1750SOL     OW 6148   3.206   0.783   0.554
 1750SOL    HW1 6149   3.238   0.849   0.621
 1750SOL    HW2 6150   3.255   0.797   0.468
 1751SOL     OW 6151   5.487   3.571   4.896
 1751SOL    HW1 6152   5.470   3.509   4.972
 1751SOL    HW2 6153   5.407   3.629   4.882
 1752SOL     OW 6154   6.808   0.535   2.438
 1752SOL    HW1 6155   6.741   0.606   2.459
 1752SOL    HW2 6156   6.874   0.527   2.513
 1753SOL     OW 6157   6.854   2.039   1.414
 1753SOL    HW1 6158   6.912   1.977   1.468
 1753SOL    HW2 6159   6.899   2.058   1.327
 1754SOL     OW 6160   3.221   5.564   3.492
 1754SOL    HW1 6161   3.184   5.656   3.479
 1754SOL    HW2 6162   3.179   5.521   3.572
 1755SOL     OW 6163   6.291   0.261   5.140
 1755SOL    HW1 6164   6.275   0.166   5.168
 1755SOL    HW2 6165   6.389   0.280   5.143
 1756SOL     OW 6166   4.648   5.806   1.065
 1756SOL    HW1 6167   4.629   5.903   1.052
 1756SOL    HW2 6168   4.563   5.754   1.055
 1757SOL     OW 6169   2.708   4.859   5.150
 1757SOL    HW1 6170   2.617   4.857   5.110
 1757SOL    HW2 6171   2.760   4.778   5.122
 1758SOL     OW 6172   1.295   6.261   3.791
 1758SOL    HW1 6173   1.304   6.361   3.789
 1758SOL    HW2 6174   1.299   6.225   3.698
 1759SOL     OW 6175   1.229   5.588   0.120
 1759SOL    HW1 6176   1.184   5.615   0.205
 1759SOL    HW2 6177   1.168   5.530   0.067
 1760SOL     OW 6178   6.599   1.671   4.794
 1760SOL    HW1 6179   6.503   1.682   4.770
 1760SOL    HW2 6180   6.606   1.636   4.888
 1761SOL     OW 6181   5.367   1.283   3.247
 1761SOL    HW1 6182   5.320   1.213   3.301
 1761SOL    HW2 6183   5.367   1.369   3.297
 1762SOL     OW 6184   0.958   1.296   5.840
 1762SOL    HW1 6185   0.940   1.386   5.879
 1762SOL    HW2 6186   0.966   1.303   5.741
 1763SOL     OW 6187   1.581   5.184   3.304
 1763SOL    HW1 6188   1.602   5.196   3.401
 1763SOL    HW2 6189   1.485   5.204   3.287
 1764SOL     OW 6190   0.686   5.913   3.138
 1764SOL    HW1 6191   0.702   5.959   3.226
 1764SOL    HW2 6192   0.694   5.980   3.064
 1765SOL     OW 6193   5.431   4.082   2.183
 1765SOL    HW1 6194   5.499   4.010   2.170
 1765SOL    HW2 6195   5.408   4.088   2.280
 1766SOL     OW 6196   4.806   4.567   4.426
 1766SOL    HW1 6197   4.887   4.513   4.451
 1766SOL    HW2 6198   4.741   4.566   4.501
 1767SOL     OW 6199   0.507   5.088   1.715
 1767SOL    HW1 6200   0.474   5.142   1.638
 1767SOL    HW2 6201   0.482   4.992   1.701
 1768SOL     OW 6202   4.526   4.409   2.348
 1768SOL    HW1 6203   4.463   4.479   2.379
 1768SOL    HW2 6204   4.574   4.370   2.427
 1769SOL     OW 6205   5.086   0.151   1.287
 1769SOL    HW1 6206   5.010   0.214   1.277
 1769SOL    HW2 6207   5.059   0.073   1.344
 1770SOL     OW 6208   1.727   5.287   0.252
 1770SOL    HW1 6209   1.824   5.277   0.232
 1770SOL    HW2 6210   1.701   5.221   0.322
 1771SOL     OW 6211   1.570   3.187   6.199
 1771SOL    HW1 6212   1.538   3.133   6.276
 1771SOL    HW2 6213   1.517   3.165   6.117
 1772SOL     OW 6214   2.083   3.970   2.992
 1772SOL    HW1 6215   2.135   3.887   3.015
 1772SOL    HW2 6216   2.138   4.028   2.932
 1773SOL     OW 6217   2.441   6.231   5.478
 1773SOL    HW1 6218   2.426   6.141   5.519
 1773SOL    HW2 6219   2.514   6.278   5.528
 1774SOL     OW 6220   5.601   5.810   1.378
 1774SOL    HW1 6221   5.524   5.846   1.429
 1774SOL    HW2 6222   5.572   5.730   1.324
 1775SOL     OW 6223   1.301   6.096   0.564
 1775SOL    HW1 6224   1.281   6.193   0.582
 1775SOL    HW2 6225   1.396   6.087   0.533
 1776SOL     OW 6226   4.780   3.547   5.812
 1776SOL    HW1 6227   4.723   3.492   5.752
 1776SOL    HW2 6228   4.872   3.508   5.817
 1777SOL     OW 6229   4.462   6.220   6.853
 1777SOL    HW1 6230   4.472   6.284   6.930
 1777SOL    HW2 6231   4.531   6.241   6.783
 1778SOL     OW 6232   6.052   0.225   3.764
 1778SOL    HW1 6233   6.018   0.311   3.725
 1778SOL    HW2 6234   6.022   0.218   3.859
 1779SOL     OW 6235   5.567   0.881   4.491
 1779SOL    HW1 6236   5.549   0.792   4.449
 1779SOL    HW2 6237   5.551   0.875   4.589
 1780SOL     OW 6238   2.782   6.225   5.361
 1780SOL    HW1 6239   2.854   6.284   5.399
 1780SOL    HW2 6240   2.721   6.197   5.435
 1781SOL     OW 6241   4.085   0.949   5.675
 1781SOL    HW1 6242   4.067   0.921   5.581
 1781SOL    HW2 6243   4.171   1.001   5.679
 1782SOL     OW 6244   5.065   1.148   2.236
 1782SOL    HW1 6245   5.101   1.054   2.240
 1782SOL    HW2 6246   4.981   1.149   2.181
 1783SOL     OW 6247   1.961   4.450   6.235
 1783SOL    HW1 6248   1.881   4.400   6.202
 1783SOL    HW2 6249   1.973   4.434   6.333
 1784SOL     OW 6250   2.666   6.316   1.119
 1784SOL    HW1 6251   2.586   6.374   1.102
 1784SOL    HW2 6252   2.676   6.250   1.044
 1785SOL     OW 6253   1.406   6.406   4.518
 1785SOL    HW1 6254   1.481   6.470   4.536
 1785SOL    HW2 6255   1.432   6.314   4.547
 1786SOL     OW 6256   0.638   6.025   1.636
 1786SOL    HW1 6257   0.550   6.013   1.591
 1786SOL    HW2 6258   0.685   6.105   1.597
 1787SOL     OW 6259   1.935   2.737   5.993
 1787SOL    HW1 6260   1.865   2.779   5.935
 1787SOL    HW2 6261   2.025   2.751   5.953
 1788SOL     OW 6262   4.133   3.960   0.269
 1788SOL    HW1 6263   4.079   3.887   0.310
 1788SOL    HW2 6264   4.190   3.923   0.196
 1789SOL     OW 6265   5.574   2.799   1.966
 1789SOL    HW1 6266   5.556   2.703   1.947
 1789SOL    HW2 6267   5.668   2.809   2.001
 1790SOL     OW 6268   1.746   1.827   5.029
 1790SOL    HW1 6269   1.735   1.801   4.933
 1790SOL    HW2 6270   1.802   1.910   5.035
 1791SOL     OW 6271   5.327   0.330   3.625
 1791SOL    HW1 6272   5.373   0.374   3.548
 1791SOL    HW2 6273   5.348   0.379   3.709
 1792SOL     OW 6274   6.710   2.544   6.449
 1792SOL    HW1 6275   6.721   2.447   6.474
 1792SOL    HW2 6276   6.784   2.597   6.490
 1793SOL     OW 6277   6.971   1.748   5.019
 1793SOL    HW1 6278   6.928   1.661   4.996
 1793SOL    HW2 6279   6.908   1.823   5.000
 1794SOL     OW 6280   0.423   1.500   6.275
 1794SOL    HW1 6281   0.493   1.570   6.289
 1794SOL    HW2 6282   0.459   1.426   6.220
 1795SOL     OW 6283   5.471   4.816   0.909
 1795SOL    HW1 6284   5.510   4.802   1.000
 1795SOL    HW2 6285   5.525   4.886   0.861
 1796SOL     OW 6286   5.911   0.110   0.917
 1796SOL    HW1 6287   5.974   0.168   0.867
 1796SOL    HW2 6288   5.931   0.115   1.015
 1797SOL     OW 6289   3.107   5.600   5.878
 1797SOL    HW1 6290   3.140   5.507   5.858
 1797SOL    HW2 6291   3.068   5.602   5.970
 1798SOL     OW 6292   2.191   3.649   5.546
 1798SOL    HW1 6293   2.202   3.747   5.555
 1798SOL    HW2 6294   2.244   3.602   5.618
 1799SOL     OW 6295   3.166   1.388   2.094
 1799SOL    HW1 6296   3.264   1.373   2.077
 1799SOL    HW2 6297   3.118   1.399   2.007
 1800SOL     OW 6298   6.345   3.043   5.943
 1800SOL    HW1 6299   6.298   3.070   5.859
 1800SOL    HW2 6300   6.444   3.043   5.927
 1801SOL     OW 6301   0.450   1.333   2.848
 1801SOL    HW1 6302   0.431   1.264   2.918
 1801SOL    HW2 6303   0.467   1.288   2.760
 1802SOL     OW 6304   5.929   4.767   3.983
 1802SOL    HW1 6305   5.842   4.813   3.970
 1802SOL    HW2 6306   5.915   4.682   4.034
 1803SOL     OW 6307   6.946   0.007   4.199
 1803SOL    HW1 6308   7.006   0.036   4.124
 1803SOL    HW2 6309   6.851   0.028   4.176
 1804SOL     OW 6310   1.350   2.628   6.449
 1804SOL    HW1 6311   1.384   2.696   6.515
 1804SOL    HW2 6312   1.305   2.675   6.374
 1805SOL     OW 6313   6.422   4.651   0.450
 1805SOL    HW1 6314   6.331   4.690   0.466
 1805SOL    HW2 6315   6.413   4.561   0.409
 1806SOL     OW 6316   0.758   1.998   1.567
 1806SOL    HW1 6317   0.806   1.913   1.547
 1806SOL    HW2 6318   0.661   1.980   1.581
 1807SOL     OW 6319   6.060   2.927   2.720
 1807SOL    HW1 6320   6.152   2.920   2.757
 1807SOL    HW2 6321   6.043   2.851   2.657
 1808SOL     OW 6322   5.495   0.910   6.209
 1808SOL    HW1 6323   5.522   0.974   6.280
 1808SOL    HW2 6324   5.492   0.817   6.247
 1809SOL     OW 6325   5.216   0.409   5.659
 1809SOL    HW1 6326   5.234   0.398   5.756
 1809SOL    HW2 6327   5.164   0.331   5.625
 1810SOL     OW 6328   1.431   1.389   4.578
 1810SOL    HW1 6329   1.375   1.320   4.532
 1810SOL    HW2 6330   1.493   1.345   4.643
 1811SOL     OW 6331   2.869   5.836   2.299
 1811SOL    HW1 6332   2.902   5.899   2.229
 1811SOL    HW2 6333   2.941   5.821   2.367
 1812SOL     OW 6334   3.832   0.123   6.561
 1812SOL    HW1 6335   3.743   0.161   6.535
 1812SOL    HW2 6336   3.843   0.128   6.660
 1813SOL     OW 6337   4.951   3.877   1.678
 1813SOL    HW1 6338   4.951   3.804   1.747
 1813SOL    HW2 6339   4.857   3.899   1.653
 1814SOL     OW 6340   6.541   5.717   0.770
 1814SOL    HW1 6341   6.562   5.768   0.687
 1814SOL    HW2 6342   6.547   5.779   0.849
 1815SOL     OW 6343   6.491   5.088   1.119
 1815SOL    HW1 6344   6.448   5.140   1.193
 1815SOL    HW2 6345   6.463   5.127   1.031
 1816SOL     OW 6346   4.304   5.225   4.909
 1816SOL    HW1 6347   4.211   5.242   4.941
 1816SOL    HW2 6348   4.363   5.300   4.937
 1817SOL     OW 6349   6.683   2.926   3.379
 1817SOL    HW1 6350   6.652   2.965   3.292
 1817SOL    HW2 6351   6.719   2.834   3.363
 1818SOL     OW 6352   2.289   1.382   0.483
 1818SOL    HW1 6353   2.344   1.303   0.454
 1818SOL    HW2 6354   2.205   1.349   0.526
 1819SOL     OW 6355   0.969   4.318   1.751
 1819SOL    HW1 6356   0.919   4.274   1.825
 1819SOL    HW2 6357   0.914   4.317   1.668
 1820SOL     OW 6358   4.252   0.266   5.127
 1820SOL    HW1 6359   4.302   0.352   5.116
 1820SOL    HW2 6360   4.171   0.267   5.069
 1821SOL     OW 6361   3.699   1.386   2.619
 1821SOL    HW1 6362   3.743   1.317   2.677
 1821SOL    HW2 6363   3.628   1.343   2.564
 1822SOL     OW 6364   1.580   4.002   4.220
 1822SOL    HW1 6365   1.675   4.014   4.192
 1822SOL    HW2 6366   1.520   4.056   4.161
 1823SOL     OW 6367   4.101   6.857   3.340
 1823SOL    HW1 6368   4.093   6.827   3.245
 1823SOL    HW2 6369   4.028   6.921   3.361
 1824SOL     OW 6370   4.462   3.129   1.679
 1824SOL    HW1 6371   4.484   3.226   1.688
 1824SOL    HW2 6372   4.528   3.075   1.732
 1825SOL     OW 6373   0.959   3.731   0.023
 1825SOL    HW1 6374   0.975   3.820   7.003
 1825SOL    HW2 6375   0.987   3.736   0.118
 1826SOL     OW 6376   3.574   2.663   0.657
 1826SOL    HW1 6377   3.606   2.636   0.566
 1826SOL    HW2 6378   3.558   2.762   0.658
 1827SOL     OW 6379   5.131   4.528   0.465
 1827SOL    HW1 6380   5.105   4.622   0.487
 1827SOL    HW2 6381   5.230   4.516   0.479
 1828SOL     OW 6382   2.261   4.761   4.634
 1828SOL    HW1 6383   2.188   4.824   4.660
 1828SOL    HW2 6384   2.269   4.688   4.702
 1829SOL     OW 6385   2.439   6.112   1.874
 1829SOL    HW1 6386   2.389   6.070   1.950
 1829SOL    HW2 6387   2.374   6.161   1.815
 1830SOL     OW 6388   4.453   1.168   6.240
 1830SOL    HW1 6389   4.464   1.172   6.339
 1830SOL    HW2 6390   4.435   1.260   6.205
 1831SOL     OW 6391   3.526   4.593   0.678
 1831SOL    HW1 6392   3.460   4.520   0.663
 1831SOL    HW2 6393   3.556   4.630   0.590
 1832SOL     OW 6394   1.779   3.526   5.451
 1832SOL    HW1 6395   1.804   3.456   5.518
 1832SOL    HW2 6396   1.816   3.615   5.480
 1833SOL     OW 6397   5.706   0.430   0.224
 1833SOL    HW1 6398   5.791   0.411   0.176
 1833SOL    HW2 6399   5.722   0.500   0.294
 1834SOL     OW 6400   1.377   3.854   6.620
 1834SOL    HW1 6401   1.466   3.859   6.665
 1834SOL    HW2 6402   1.307   3.829   6.686
 1835SOL     OW 6403   6.469   6.664   1.196
 1835SOL    HW1 6404   6.401   6.670   1.268
 1835SOL    HW2 6405   6.547   6.611   1.228
 1836SOL     OW 6406   5.756   1.883   2.782
 1836SOL    HW1 6407   5.670   1.833   2.780
 1836SOL    HW2 6408   5.786   1.902   2.688
 1837SOL     OW 6409   1.911   2.242   0.054
 1837SOL    HW1 6410   1.891   2.144   0.054
 1837SOL    HW2 6411   1.960   2.266   6.994
 1838SOL     OW 6412   4.518   0.264   0.607
 1838SOL    HW1 6413   4.509   0.308   0.518
 1838SOL    HW2 6414   4.614   0.243   0.624
 1839SOL     OW 6415   6.621   0.481   6.856
 1839SOL    HW1 6416   6.556   0.555   6.873
 1839SOL    HW2 6417   6.622   0.459   6.758
 1840SOL     OW 6418   4.305   0.156   4.843
 1840SOL    HW1 6419   4.271   0.135   4.751
 1840SOL    HW2 6420   4.240   0.217   4.889
 1841SOL     OW 6421   1.691   0.867   1.371
 1841SOL    HW1 6422   1.667   0.857   1.275
 1841SOL    HW2 6423   1.654   0.953   1.406
 1842SOL     OW 6424   6.769   5.079   1.631
 1842SOL    HW1 6425   6.862   5.110   1.612
 1842SOL    HW2 6426   6.725   5.144   1.693
 1843SOL     OW 6427   2.912   1.288   6.790
 1843SOL    HW1 6428   2.830   1.231   6.784
 1843SOL    HW2 6429   2.886   1.384   6.790
 1844SOL     OW 6430   5.392   2.948   6.933
 1844SOL    HW1 6431   5.369   2.902   6.847
 1844SOL    HW2 6432   5.341   2.906   7.008
 1845SOL     OW 6433   0.839   2.587   4.487
 1845SOL    HW1 6434   0.929   2.547   4.502
 1845SOL    HW2 6435   0.837   2.680   4.524
 1846SOL     OW 6436   3.232   1.002   1.676
 1846SOL    HW1 6437   3.332   1.004   1.671
 1846SOL    HW2 6438   3.199   1.083   1.724
 1847SOL     OW 6439   2.145   5.893   6.262
 1847SOL    HW1 6440   2.221   5.834   6.236
 1847SOL    HW2 6441   2.079   5.840   6.316
 1848SOL     OW 6442   4.055   6.303   3.271
 1848SOL    HW1 6443   4.120   6.305   3.195
 1848SOL    HW2 6444   4.101   6.334   3.354
 1849SOL     OW 6445   4.837   2.929   2.932
 1849SOL    HW1 6446   4.852   2.980   2.847
 1849SOL    HW2 6447   4.811   2.835   2.911
 1850SOL     OW 6448   4.325   1.609   1.128
 1850SOL    HW1 6449   4.344   1.556   1.211
 1850SOL    HW2 6450   4.395   1.679   1.116
 1851SOL     OW 6451   0.465   4.639   4.279
 1851SOL    HW1 6452   0.424   4.717   4.327
 1851SOL    HW2 6453   0.467   4.658   4.181
 1852SOL     OW 6454   0.377   6.549   3.777
 1852SOL    HW1 6455   0.437   6.608   3.832
 1852SOL    HW2 6456   0.302   6.603   3.741
 1853SOL     OW 6457   0.890   1.607   5.793
 1853SOL    HW1 6458   0.873   1.703   5.771
 1853SOL    HW2 6459   0.918   1.558   5.711
 1854SOL     OW 6460   0.291   0.207   4.047
 1854SOL    HW1 6461   0.209   0.258   4.023
 1854SOL    HW2 6462   0.354   0.206   3.970
 1855SOL     OW 6463   6.484   2.008   5.016
 1855SOL    HW1 6464   6.394   1.970   5.038
 1855SOL    HW2 6465   6.491   2.021   4.917
 1856SOL     OW 6466   4.979   3.996   0.126
 1856SOL    HW1 6467   4.974   4.075   0.065
 1856SOL    HW2 6468   5.066   3.997   0.175
 1857SOL     OW 6469   4.157   1.272   6.497
 1857SOL    HW1 6470   4.095   1.349   6.513
 1857SOL    HW2 6471   4.143   1.237   6.404
 1858SOL     OW 6472   5.458   1.979   4.860
 1858SOL    HW1 6473   5.420   1.956   4.770
 1858SOL    HW2 6474   5.470   1.895   4.913
 1859SOL     OW 6475   6.792   0.018   2.994
 1859SOL    HW1 6476   6.697   7.013   3.010
 1859SOL    HW2 6477   6.794   0.084   2.919
 1860SOL     OW 6478   2.714   1.404   6.212
 1860SOL    HW1 6479   2.708   1.352   6.298
 1860SOL    HW2 6480   2.736   1.499   6.232
 1861SOL     OW 6481   6.290   6.464   5.119
 1861SOL    HW1 6482   6.247   6.442   5.207
 1861SOL    HW2 6483   6.245   6.543   5.079
 1862SOL     OW 6484   2.967   5.780   6.268
 1862SOL    HW1 6485   2.970   5.693   6.219
 1862SOL    HW2 6486   2.987   5.855   6.205
 1863SOL     OW 6487   6.981   2.085   1.750
 1863SOL    HW1 6488   0.051   2.052   1.742
 1863SOL    HW2 6489   6.922   2.032   1.690
 1864SOL     OW 6490   2.222   6.094   1.611
 1864SOL    HW1 6491   2.209   6.096   1.512
 1864SOL    HW2 6492   2.301   6.037   1.634
 1865SOL     OW 6493   6.394   2.382   5.867
 1865SOL    HW1 6494   6.481   2.378   5.916
 1865SOL    HW2 6495   6.395   2.316   5.792
 1866SOL     OW 6496   6.833   4.396   4.090
 1866SOL    HW1 6497   6.906   4.463   4.076
 1866SOL    HW2 6498   6.757   4.438   4.138
 1867SOL     OW 6499   1.066   1.523   1.777
 1867SOL    HW1 6500   0.984   1.466   1.768
 1867SOL    HW2 6501   1.127   1.504   1.700
 1868SOL     OW 6502   5.376   3.978   6.493
 1868SOL    HW1 6503   5.463   3.978   6.444
 1868SOL    HW2 6504   5.300   3.980   6.427
 1869SOL     OW 6505   5.138   0.904   5.540
 1869SOL    HW1 6506   5.173   0.813   5.516
 1869SOL    HW2 6507   5.175   0.971   5.476
 1870SOL     OW 6508   5.834   0.310   6.279
 1870SOL    HW1 6509   5.835   0.288   6.376
 1870SOL    HW2 6510   5.891   0.245   6.229
 1871SOL     OW 6511   0.558   6.031   6.609
 1871SOL    HW1 6512   0.469   6.077   6.609
 1871SOL    HW2 6513   0.623   6.085   6.556
 1872SOL     OW 6514   2.564   3.120   1.195
 1872SOL    HW1 6515   2.515   3.176   1.262
 1872SOL    HW2 6516   2.591   3.177   1.117
 1873SOL     OW 6517   6.253   1.220   1.937
 1873SOL    HW1 6518   6.230   1.299   1.994
 1873SOL    HW2 6519   6.314   1.159   1.987
 1874SOL     OW 6520   1.152   6.267   6.364
 1874SOL    HW1 6521   1.162   6.214   6.280
 1874SOL    HW2 6522   1.057   6.293   6.376
 1875SOL     OW 6523   0.601   6.245   2.409
 1875SOL    HW1 6524   0.517   6.209   2.368
 1875SOL    HW2 6525   0.590   6.343   2.425
 1876SOL     OW 6526   0.999   4.387   0.711
 1876SOL    HW1 6527   1.007   4.288   0.696
 1876SOL    HW2 6528   1.052   4.436   0.642
 1877SOL     OW 6529   1.170   1.279   2.796
 1877SOL    HW1 6530   1.148   1.376   2.785
 1877SOL    HW2 6531   1.227   1.250   2.719
 1878SOL     OW 6532   5.221   3.708   4.191
 1878SOL    HW1 6533   5.202   3.619   4.232
 1878SOL    HW2 6534   5.257   3.769   4.261
 1879SOL     OW 6535   4.384   6.482   4.933
 1879SOL    HW1 6536   4.352   6.480   4.838
 1879SOL    HW2 6537   4.454   6.553   4.942
 1880SOL     OW 6538   1.182   2.100   4.452
 1880SOL    HW1 6539   1.241   2.161   4.398
 1880SOL    HW2 6540   1.115   2.057   4.391
 1881SOL     OW 6541   2.012   1.211   3.967
 1881SOL    HW1 6542   2.032   1.118   3.999
 1881SOL    HW2 6543   2.064   1.277   4.021
 1882SOL     OW 6544   2.906   5.535   0.576
 1882SOL    HW1 6545   2.860   5.479   0.645
 1882SOL    HW2 6546   2.841   5.599   0.536
 1883SOL     OW 6547   2.179   2.922   2.931
 1883SOL    HW1 6548   2.234   2.973   2.865
 1883SOL    HW2 6549   2.129   2.849   2.883
 1884SOL     OW 6550   4.999   0.477   0.487
 1884SOL    HW1 6551   5.080   0.432   0.525
 1884SOL    HW2 6552   4.964   0.424   0.410
 1885SOL     OW 6553   7.024   1.403   0.431
 1885SOL    HW1 6554   6.999   1.306   0.424
 1885SOL    HW2 6555   0.026   1.423   0.526
 1886SOL     OW 6556   3.739   2.706   5.520
 1886SOL    HW1 6557   3.728   2.620   5.472
 1886SOL    HW2 6558   3.650   2.752   5.527
 1887SOL     OW 6559   0.628   6.067   4.916
 1887SOL    HW1 6560   0.674   6.068   4.827
 1887SOL    HW2 6561   0.661   5.989   4.970
 1888SOL     OW 6562   1.550   1.800   6.004
 1888SOL    HW1 6563   1.517   1.894   5.990
 1888SOL    HW2 6564   1.488   1.753   6.067
 1889SOL     OW 6565   3.364   2.766   0.037
 1889SOL    HW1 6566   3.266   2.749   0.045
 1889SOL    HW2 6567   3.386   2.854   0.078
 1890SOL     OW 6568   6.111   6.004   6.466
 1890SOL    HW1 6569   6.139   6.015   6.561
 1890SOL    HW2 6570   6.034   6.065   6.447
 1891SOL     OW 6571   5.531   3.639   0.238
 1891SOL    HW1 6572   5.473   3.630   0.319
 1891SOL    HW2 6573   5.528   3.734   0.205
 1892SOL     OW 6574   4.187   0.423   3.193
 1892SOL    HW1 6575   4.204   0.518   3.167
 1892SOL    HW2 6576   4.272   0.380   3.223
 1893SOL     OW 6577   2.896   0.988   6.310
 1893SOL    HW1 6578   2.974   0.928   6.320
 1893SOL    HW2 6579   2.914   1.076   6.354
 1894SOL     OW 6580   4.881   3.108   0.639
 1894SOL    HW1 6581   4.890   3.095   0.738
 1894SOL    HW2 6582   4.947   3.178   0.610
 1895SOL     OW 6583   4.646   5.857   3.027
 1895SOL    HW1 6584   4.587   5.900   3.095
 1895SOL    HW2 6585   4.729   5.823   3.071
 1896SOL     OW 6586   6.470   2.273   5.048
 1896SOL    HW1 6587   6.489   2.175   5.053
 1896SOL    HW2 6588   6.556   2.323   5.045
 1897SOL     OW 6589   5.043   4.715   2.958
 1897SOL    HW1 6590   5.077   4.736   2.866
 1897SOL    HW2 6591   5.076   4.784   3.022
 1898SOL     OW 6592   5.390   6.474   7.008
 1898SOL    HW1 6593   5.481   6.510   0.004
 1898SOL    HW2 6594   5.360   6.507   6.918
 1899SOL     OW 6595   2.148   2.975   3.537
 1899SOL    HW1 6596   2.178   2.996   3.631
 1899SOL    HW2 6597   2.113   3.058   3.494
 1900SOL     OW 6598   2.000   5.566   1.806
 1900SOL    HW1 6599   2.054   5.610   1.877
 1900SOL    HW2 6600   2.018   5.467   1.807
 1901SOL     OW 6601   1.609   0.617   5.386
 1901SOL    HW1 6602   1.685   0.670   5.424
 1901SOL    HW2 6603   1.523   0.666   5.401
 1902SOL     OW 6604   1.255   2.827   4.405
 1902SOL    HW1 6605   1.279   2.749   4.462
 1902SOL    HW2 6606   1.167   2.810   4.360
 1903SOL     OW 6607   6.755   4.977   3.866
 1903SOL    HW1 6608   6.777   4.967   3.963
 1903SOL    HW2 6609   6.780   5.069   3.836
 1904SOL     OW 6610   0.454   0.097   4.557
 1904SOL    HW1 6611   0.399   0.026   4.602
 1904SOL    HW2 6612   0.445   0.183   4.608
 1905SOL     OW 6613   6.780   3.010   4.689
 1905SOL    HW1 6614   6.780   2.919   4.647
 1905SOL    HW2 6615   6.718   3.069   4.638
 1906SOL     OW 6616   2.451   6.622   5.586
 1906SOL    HW1 6617   2.413   6.661   5.670
 1906SOL    HW2 6618   2.380   6.568   5.539
 1907SOL     OW 6619   4.370   6.814   3.454
 1907SOL    HW1 6620   4.339   6.825   3.548
 1907SOL    HW2 6621   4.313   6.869   3.393
 1908SOL     OW 6622   4.932   5.596   0.822
 1908SOL    HW1 6623   4.946   5.693   0.841
 1908SOL    HW2 6624   4.837   5.581   0.793
 1909SOL     OW 6625   4.841   5.588   3.541
 1909SOL    HW1 6626   4.884   5.499   3.551
 1909SOL    HW2 6627   4.779   5.587   3.463
 1910SOL     OW 6628   4.858   3.153   4.527
 1910SOL    HW1 6629   4.839   3.108   4.615
 1910SOL    HW2 6630   4.813   3.102   4.454
 1911SOL     OW 6631   0.656   3.003   5.645
 1911SOL    HW1 6632   0.605   2.982   5.728
 1911SOL    HW2 6633   0.748   3.034   5.669
 1912SOL     OW 6634   3.519   6.065   3.162
 1912SOL    HW1 6635   3.547   6.150   3.206
 1912SOL    HW2 6636   3.459   6.085   3.085
 1913SOL     OW 6637   2.186   4.283   5.345
 1913SOL    HW1 6638   2.220   4.189   5.346
 1913SOL    HW2 6639   2.263   4.346   5.349
 1914SOL     OW 6640   4.094   1.523   4.917
 1914SOL    HW1 6641   4.097   1.463   4.837
 1914SOL    HW2 6642   4.005   1.567   4.923
 1915SOL     OW 6643   3.423   6.953   5.631
 1915SOL    HW1 6644   3.401   6.928   5.726
 1915SOL    HW2 6645   3.462   6.875   5.584
 1916SOL     OW 6646   3.614   6.256   2.685
 1916SOL    HW1 6647   3.518   6.232   2.698
 1916SOL    HW2 6648   3.651   6.204   2.608
 1917SOL     OW 6649   2.926   3.814   4.178
 1917SOL    HW1 6650   2.953   3.827   4.083
 1917SOL    HW2 6651   2.958   3.891   4.233
 1918SOL     OW 6652   6.854   6.468   5.559
 1918SOL    HW1 6653   6.915   6.468   5.638
 1918SOL    HW2 6654   6.891   6.410   5.487
 1919SOL     OW 6655   6.604   0.743   2.435
 1919SOL    HW1 6656   6.521   0.710   2.390
 1919SOL    HW2 6657   6.598   0.723   2.533
 1920SOL     OW 6658   6.483   6.125   4.515
 1920SOL    HW1 6659   6.540   6.172   4.583
 1920SOL    HW2 6660   6.536   6.111   4.431
 1921SOL     OW 6661   2.089   6.732   6.584
 1921SOL    HW1 6662   2.069   6.801   6.515
 1921SOL    HW2 6663   2.187   6.729   6.602
 1922SOL     OW 6664   3.777   4.320   1.008
 1922SOL    HW1 6665   3.714   4.372   1.065
 1922SOL    HW2 6666   3.728   4.288   0.926
 1923SOL     OW 6667   1.346   3.021   0.671
 1923SOL    HW1 6668   1.398   3.098   0.635
 1923SOL    HW2 6669   1.366   3.010   0.769
 1924SOL     OW 6670   0.841   4.015   0.908
 1924SOL    HW1 6671   0.837   3.923   0.949
 1924SOL    HW2 6672   0.806   4.082   0.973
 1925SOL     OW 6673   3.030   4.289   0.286
 1925SOL    HW1 6674   3.082   4.281   0.371
 1925SOL    HW2 6675   2.933   4.297   0.307
 1926SOL     OW 6676   0.441   0.605   3.607
 1926SOL    HW1 6677   0.420   0.697   3.574
 1926SOL    HW2 6678   0.358   0.562   3.642
 1927SOL     OW 6679   4.793   3.461   1.317
 1927SOL    HW1 6680   4.761   3.386   1.374
 1927SOL    HW2 6681   4.867   3.428   1.257
 1928SOL     OW 6682   0.198   5.513   4.524
 1928SOL    HW1 6683   0.121   5.545   4.469
 1928SOL    HW2 6684   0.170   5.432   4.576
 1929SOL     OW 6685   1.572   6.072   2.836
 1929SOL    HW1 6686   1.619   6.153   2.802
 1929SOL    HW2 6687   1.560   6.007   2.761
 1930SOL     OW 6688   6.741   5.349   6.383
 1930SOL    HW1 6689   6.667   5.317   6.440
 1930SOL    HW2 6690   6.757   5.285   6.308
 1931SOL     OW 6691   0.754   1.996   4.374
 1931SOL    HW1 6692   0.724   2.074   4.429
 1931SOL    HW2 6693   0.680   1.930   4.367
 1932SOL     OW 6694   6.053   3.243   2.757
 1932SOL    HW1 6695   5.997   3.169   2.795
 1932SOL    HW2 6696   5.995   3.322   2.736
 1933SOL     OW 6697   2.788   5.084   0.552
 1933SOL    HW1 6698   2.822   5.178   0.551
 1933SOL    HW2 6699   2.797   5.044   0.461
 1934SOL     OW 6700   6.553   6.094   2.982
 1934SOL    HW1 6701   6.607   6.077   2.900
 1934SOL    HW2 6702   6.533   6.007   3.028
 1935SOL     OW 6703   1.937   1.368   3.062
 1935SOL    HW1 6704   2.008   1.372   2.992
 1935SOL    HW2 6705   1.885   1.453   3.062
 1936SOL     OW 6706   6.413   6.070   5.235
 1936SOL    HW1 6707   6.459   6.123   5.164
 1936SOL    HW2 6708   6.381   6.132   5.307
 1937SOL     OW 6709   4.187   0.967   3.281
 1937SOL    HW1 6710   4.178   1.011   3.371
 1937SOL    HW2 6711   4.123   1.009   3.217
 1938SOL     OW 6712   5.924   1.057   4.633
 1938SOL    HW1 6713   5.958   1.125   4.568
 1938SOL    HW2 6714   5.865   1.102   4.700
 1939SOL     OW 6715   3.149   0.829   4.510
 1939SOL    HW1 6716   3.232   0.883   4.497
 1939SOL    HW2 6717   3.076   0.889   4.543
 1940SOL     OW 6718   6.356   5.729   6.095
 1940SOL    HW1 6719   6.301   5.647   6.082
 1940SOL    HW2 6720   6.406   5.724   6.181
 1941SOL     OW 6721   4.580   4.923   2.816
 1941SOL    HW1 6722   4.640   4.855   2.857
 1941SOL    HW2 6723   4.599   4.929   2.718
 1942SOL     OW 6724   0.224   3.938   3.329
 1942SOL    HW1 6725   0.195   3.882   3.407
 1942SOL    HW2 6726   0.222   3.883   3.246
 1943SOL     OW 6727   2.913   5.566   3.350
 1943SOL    HW1 6728   2.909   5.561   3.250
 1943SOL    HW2 6729   2.977   5.638   3.377
 1944SOL     OW 6730   0.161   6.661   2.423
 1944SOL    HW1 6731   0.250   6.668   2.378
 1944SOL    HW2 6732   0.174   6.657   2.523
 1945SOL     OW 6733   3.506   4.922   3.271
 1945SOL    HW1 6734   3.554   5.009   3.262
 1945SOL    HW2 6735   3.412   4.933   3.238
 1946SOL     OW 6736   1.345   6.597   6.783
 1946SOL    HW1 6737   1.348   6.651   6.867
 1946SOL    HW2 6738   1.255   6.607   6.740
 1947SOL     OW 6739   5.035   6.576   3.642
 1947SOL    HW1 6740   5.043   6.595   3.740
 1947SOL    HW2 6741   5.046   6.662   3.592
 1948SOL     OW 6742   6.199   3.959   4.943
 1948SOL    HW1 6743   6.170   3.918   5.030
 1948SOL    HW2 6744   6.285   4.008   4.957
 1949SOL     OW 6745   4.735   4.422   6.771
 1949SOL    HW1 6746   4.688   4.487   6.830
 1949SOL    HW2 6747   4.711   4.440   6.676
 1950SOL     OW 6748   3.280   5.018   1.019
 1950SOL    HW1 6749   3.289   5.015   1.118
 1950SOL    HW2 6750   3.255   4.928   0.984
 1951SOL     OW 6751   6.436   2.841   0.384
 1951SOL    HW1 6752   6.364   2.829   0.452
 1951SOL    HW2 6753   6.406   2.807   0.295
 1952SOL     OW 6754   3.461   2.892   4.996
 1952SOL    HW1 6755   3.526   2.901   4.920
 1952SOL    HW2 6756   3.368   2.898   4.960
 1953SOL     OW 6757   0.554   2.711   4.722
 1953SOL    HW1 6758   0.486   2.722   4.649
 1953SOL    HW2 6759   0.644   2.737   4.687
 1954SOL     OW 6760   3.024   1.847   3.372
 1954SOL    HW1 6761   3.115   1.815   3.399
 1954SOL    HW2 6762   2.958   1.774   3.384
 1955SOL     OW 6763   6.145   5.381   1.978
 1955SOL    HW1 6764   6.202   5.412   2.054
 1955SOL    HW2 6765   6.199   5.376   1.895
 1956SOL     OW 6766   5.272   5.864   2.483
 1956SOL    HW1 6767   5.326   5.948   2.489
 1956SOL    HW2 6768   5.321   5.790   2.529
 1957SOL     OW 6769   1.407   6.691   4.731
 1957SOL    HW1 6770   1.483   6.630   4.705
 1957SOL    HW2 6771   1.395   6.688   4.830
 1958SOL     OW 6772   4.321   3.386   5.919
 1958SOL    HW1 6773   4.324   3.411   6.015
 1958SOL    HW2 6774   4.260   3.307   5.907
 1959SOL     OW 6775   2.509   1.163   0.365
 1959SOL    HW1 6776   2.498   1.079   0.311
 1959SOL    HW2 6777   2.494   1.243   0.307
 1960SOL     OW 6778   5.883   5.957   2.290
 1960SOL    HW1 6779   5.888   5.958   2.190
 1960SOL    HW2 6780   5.800   6.003   2.319
 1961SOL     OW 6781   6.273   4.982   4.996
 1961SOL    HW1 6782   6.372   4.983   4.985
 1961SOL    HW2 6783   6.250   4.954   5.089
 1962SOL     OW 6784   6.807   6.819   3.856
 1962SOL    HW1 6785   6.788   6.740   3.914
 1962SOL    HW2 6786   6.721   6.865   3.834
 1963SOL     OW 6787   2.976   0.609   3.485
 1963SOL    HW1 6788   2.983   0.702   3.520
 1963SOL    HW2 6789   2.961   0.612   3.386
 1964SOL     OW 6790   5.987   3.430   1.991
 1964SOL    HW1 6791   5.918   3.436   2.063
 1964SOL    HW2 6792   6.076   3.412   2.031
 1965SOL     OW 6793   1.923   6.080   3.676
 1965SOL    HW1 6794   1.936   6.177   3.699
 1965SOL    HW2 6795   1.825   6.062   3.665
 1966SOL     OW 6796   6.017   6.826   6.888
 1966SOL    HW1 6797   5.949   6.820   6.815
 1966SOL    HW2 6798   6.021   6.738   6.936
 1967SOL     OW 6799   5.247   3.733   4.856
 1967SOL    HW1 6800   5.262   3.813   4.915
 1967SOL    HW2 6801   5.217   3.764   4.766
 1968SOL     OW 6802   3.728   5.120   4.749
 1968SOL    HW1 6803   3.754   5.041   4.804
 1968SOL    HW2 6804   3.776   5.117   4.661
 1969SOL     OW 6805   6.815   1.642   1.570
 1969SOL    HW1 6806   6.848   1.697   1.647
 1969SOL    HW2 6807   6.739   1.585   1.600
 1970SOL     OW 6808   1.928   0.519   3.776
 1970SOL    HW1 6809   1.860   0.471   3.832
 1970SOL    HW2 6810   2.010   0.462   3.766
 1971SOL     OW 6811   0.499   1.347   5.967
 1971SOL    HW1 6812   0.501   1.444   5.942
 1971SOL    HW2 6813   0.429   1.300   5.913
 1972SOL     OW 6814   1.833   0.253   3.490
 1972SOL    HW1 6815   1.803   0.318   3.420
 1972SOL    HW2 6816   1.753   0.208   3.530
 1973SOL     OW 6817   2.479   3.534   0.435
 1973SOL    HW1 6818   2.484   3.604   0.365
 1973SOL    HW2 6819   2.417   3.461   0.405
 1974SOL     OW 6820   6.032   6.985   4.277
 1974SOL    HW1 6821   5.952   6.949   4.230
 1974SOL    HW2 6822   6.031   0.061   4.276
 1975SOL     OW 6823   3.100   0.463   3.967
 1975SOL    HW1 6824   3.191   0.423   3.961
 1975SOL    HW2 6825   3.089   0.533   3.896
 1976SOL     OW 6826   6.572   4.185   6.628
 1976SOL    HW1 6827   6.642   4.256   6.632
 1976SOL    HW2 6828   6.615   4.096   6.615
 1977SOL     OW 6829   2.794   2.256   5.667
 1977SOL    HW1 6830   2.823   2.198   5.744
 1977SOL    HW2 6831   2.826   2.349   5.682
 1978SOL     OW 6832   6.853   2.149   5.755
 1978SOL    HW1 6833   6.825   2.128   5.848
 1978SOL    HW2 6834   6.912   2.076   5.720
 1979SOL     OW 6835   6.184   4.169   2.686
 1979SOL    HW1 6836   6.085   4.160   2.678
 1979SOL    HW2 6837   6.209   4.182   2.782
 1980SOL     OW 6838   2.862   1.013   1.739
 1980SOL    HW1 6839   2.874   1.069   1.821
 1980SOL    HW2 6840   2.807   0.932   1.761
 1981SOL     OW 6841   4.992   3.445   1.863
 1981SOL    HW1 6842   4.933   3.524   1.847
 1981SOL    HW2 6843   4.966   3.370   1.802
 1982SOL     OW 6844   6.764   6.653   5.195
 1982SOL    HW1 6845   6.845   6.682   5.246
 1982SOL    HW2 6846   6.728   6.568   5.233
 1983SOL     OW 6847   0.358   4.823   2.394
 1983SOL    HW1 6848   0.285   4.869   2.342
 1983SOL    HW2 6849   0.444   4.830   2.343
 1984SOL     OW 6850   4.739   0.813   4.947
 1984SOL    HW1 6851   4.705   0.907   4.951
 1984SOL    HW2 6852   4.696   0.766   4.870
 1985SOL     OW 6853   1.590   6.120   1.469
 1985SOL    HW1 6854   1.631   6.092   1.383
 1985SOL    HW2 6855   1.636   6.202   1.503
 1986SOL     OW 6856   0.081   2.242   0.031
 1986SOL    HW1 6857   7.024   2.184   0.038
 1986SOL    HW2 6858   0.106   2.252   6.958
 1987SOL     OW 6859   2.721   4.359   0.304
 1987SOL    HW1 6860   2.736   4.383   0.400
 1987SOL    HW2 6861   2.726   4.260   0.293
 1988SOL     OW 6862   4.680   3.587   0.196
 1988SOL    HW1 6863   4.688   3.680   0.231
 1988SOL    HW2 6864   4.642   3.528   0.267
 1989SOL     OW 6865   2.271   1.376   4.424
 1989SOL    HW1 6866   2.310   1.414   4.340
 1989SOL    HW2 6867   2.324   1.407   4.503
 1990SOL     OW 6868   1.414   0.848   2.772
 1990SOL    HW1 6869   1.473   0.767   2.778
 1990SOL    HW2 6870   1.420   0.887   2.680
 1991SOL     OW 6871   4.108   5.530   2.840
 1991SOL    HW1 6872   4.203   5.518   2.813
 1991SOL    HW2 6873   4.102   5.540   2.939
 1992SOL     OW 6874   2.826   6.111   5.106
 1992SOL    HW1 6875   2.799   6.133   5.199
 1992SOL    HW2 6876   2.887   6.183   5.071
 1993SOL     OW 6877   3.077   3.143   4.168
 1993SOL    HW1 6878   3.099   3.080   4.093
 1993SOL    HW2 6879   3.023   3.220   4.131
 1994SOL     OW 6880   6.120   2.376   1.743
 1994SOL    HW1 6881   6.075   2.356   1.657
 1994SOL    HW2 6882   6.052   2.402   1.811
 1995SOL     OW 6883   3.809   2.455   1.409
 1995SOL    HW1 6884   3.769   2.376   1.457
 1995SOL    HW2 6885   3.822   2.432   1.313
 1996SOL     OW 6886   2.897   4.300   5.433
 1996SOL    HW1 6887   2.923   4.279   5.338
 1996SOL    HW2 6888   2.857   4.391   5.438
 1997SOL     OW 6889   5.789   6.796   3.670
 1997SOL    HW1 6890   5.810   6.751   3.757
 1997SOL    HW2 6891   5.822   6.739   3.594
 1998SOL     OW 6892   3.348   5.323   4.810
 1998SOL    HW1 6893   3.416   5.250   4.800
 1998SOL    HW2 6894   3.308   5.319   4.901
 1999SOL     OW 6895   2.726   1.356   1.872
 1999SOL    HW1 6896   2.627   1.341   1.870
 1999SOL    HW2 6897   2.772   1.274   1.906
 2000SOL     OW 6898   3.357   1.210   4.867
 2000SOL    HW1 6899   3.340   1.158   4.783
 2000SOL    HW2 6900   3.428   1.278   4.851
 2001SOL     OW 6901   2.418   3.587   6.963
 2001SOL    HW1 6902   2.419   3.500   6.915
 2001SOL    HW2 6903   2.397   3.660   6.899
 2002SOL     OW 6904   1.018   5.349   4.881
 2002SOL    HW1 6905   0.951   5.349   4.955
 2002SOL    HW2 6906   0.995   5.279   4.814
 2003SOL     OW 6907   6.638   4.703   2.947
 2003SOL    HW1 6908   6.629   4.604   2.953
 2003SOL    HW2 6909   6.723   4.727   2.901
 2004SOL     OW 6910   2.848   6.790   6.352
 2004SOL    HW1 6911   2.797   6.706   6.336
 2004SOL    HW2 6912   2.905   6.780   6.433
 2005SOL     OW 6913   3.106   6.661   5.338
 2005SOL    HW1 6914   3.173   6.606   5.288
 2005SOL    HW2 6915   3.145   6.687   5.427
 2006SOL     OW 6916   5.230   6.762   3.096
 2006SOL    HW1 6917   5.150   6.703   3.101
 2006SOL    HW2 6918   5.265   6.779   3.188
 2007SOL     OW 6919   6.218   5.388   6.919
 2007SOL    HW1 6920   6.278   5.467   6.905
 2007SOL    HW2 6921   6.237   5.319   6.849
 2008SOL     OW 6922   6.919   6.465   4.562
 2008SOL    HW1 6923   6.843   6.441   4.501
 2008SOL    HW2 6924   6.969   6.382   4.587
 2009SOL     OW 6925   0.829   0.455   0.137
 2009SOL    HW1 6926   0.776   0.408   0.066
 2009SOL    HW2 6927   0.925   0.456   0.110
 2010SOL     OW 6928   1.339   0.333   1.210
 2010SOL    HW1 6929   1.409   0.263   1.196
 2010SOL    HW2 6930   1.253   0.304   1.168
 2011SOL     OW 6931   0.115   2.410   5.317
 2011SOL    HW1 6932   0.086   2.387   5.410
 2011SOL    HW2 6933   0.141   2.327   5.268
 2012SOL     OW 6934   6.753   3.576   0.961
 2012SOL    HW1 6935   6.829   3.599   1.020
 2012SOL    HW2 6936   6.706   3.495   0.996
 2013SOL     OW 6937   3.974   1.939   2.170
 2013SOL    HW1 6938   3.961   2.036   2.147
 2013SOL    HW2 6939   3.903   1.909   2.233
 2014SOL     OW 6940   3.041   5.804   3.456
 2014SOL    HW1 6941   3.094   5.815   3.541
 2014SOL    HW2 6942   2.977   5.879   3.447
 2015SOL     OW 6943   3.220   6.505   6.977
 2015SOL    HW1 6944   3.306   6.557   6.980
 2015SOL    HW2 6945   3.147   6.560   7.017
 2016SOL     OW 6946   6.294   5.664   4.111
 2016SOL    HW1 6947   6.241   5.730   4.057
 2016SOL    HW2 6948   6.252   5.653   4.201
 2017SOL     OW 6949   2.120   4.881   2.116
 2017SOL    HW1 6950   2.183   4.805   2.130
 2017SOL    HW2 6951   2.156   4.941   2.044
 2018SOL     OW 6952   0.367   4.197   6.358
 2018SOL    HW1 6953   0.336   4.139   6.433
 2018SOL    HW2 6954   0.303   4.192   6.282
 2019SOL     OW 6955   5.889   1.738   3.101
 2019SOL    HW1 6956   5.921   1.735   3.196
 2019SOL    HW2 6957   5.960   1.702   3.041
 2020SOL     OW 6958   1.677   5.590   3.475
 2020SOL    HW1 6959   1.720   5.564   3.562
 2020SOL    HW2 6960   1.601   5.652   3.494
 2021SOL     OW 6961   1.823   0.052   1.678
 2021SOL    HW1 6962   1.872   0.138   1.692
 2021SOL    HW2 6963   1.819   0.002   1.765
 2022SOL     OW 6964   2.456   4.799   0.927
 2022SOL    HW1 6965   2.375   4.858   0.927
 2022SOL    HW2 6966   2.465   4.756   1.017
 2023SOL     OW 6967   6.290   1.341   6.456
 2023SOL    HW1 6968   6.210   1.299   6.413
 2023SOL    HW2 6969   6.300   1.435   6.425
 2024SOL     OW 6970   6.023   0.425   2.578
 2024SOL    HW1 6971   6.053   0.389   2.666
 2024SOL    HW2 6972   6.101   0.468   2.532
 2025SOL     OW 6973   6.206   0.799   1.244
 2025SOL    HW1 6974   6.166   0.885   1.277
 2025SOL    HW2 6975   6.138   0.726   1.253
 2026SOL     OW 6976   1.316   1.926   5.180
 2026SOL    HW1 6977   1.330   1.885   5.090
 2026SOL    HW2 6978   1.391   1.990   5.199
 2027SOL     OW 6979   0.780   1.127   2.757
 2027SOL    HW1 6980   0.683   1.119   2.736
 2027SOL    HW2 6981   0.829   1.165   2.679
 2028SOL     OW 6982   3.650   4.097   5.919
 2028SOL    HW1 6983   3.580   4.052   5.864
 2028SOL    HW2 6984   3.666   4.190   5.884
 2029SOL     OW 6985   1.581   0.808   0.594
 2029SOL    HW1 6986   1.653   0.793   0.525
 2029SOL    HW2 6987   1.572   0.726   0.651
 2030SOL     OW 6988   1.800   2.793   3.100
 2030SOL    HW1 6989   1.766   2.881   3.068
 2030SOL    HW2 6990   1.899   2.800   3.117
 2031SOL     OW 6991   5.712   0.220   2.709
 2031SOL    HW1 6992   5.775   0.183   2.641
 2031SOL    HW2 6993   5.742   0.193   2.800
 2032SOL     OW 6994   5.141   6.047   1.491
 2032SOL    HW1 6995   5.120   5.955   1.526
 2032SOL    HW2 6996   5.059   6.086   1.449
 2033SOL     OW 6997   6.590   5.176   6.540
 2033SOL    HW1 6998   6.664   5.109   6.543
 2033SOL    HW2 6999   6.504   5.130   6.519
 2034SOL     OW 7000   2.518   6.848   3.775
 2034SOL    HW1 7001   2.592   6.800   3.729
 2034SOL    HW2 7002   2.491   6.928   3.722
 2035SOL     OW 7003   0.122   2.655   1.487
 2035SOL    HW1 7004   0.212   2.694   1.508
 2035SOL    HW2 7005   0.122   2.558   1.511
 2036SOL     OW 7006   0.599   4.138   0.747
 2036SOL    HW1 7007   0.567   4.169   0.837
 2036SOL    HW2 7008   0.616   4.217   0.688
 2037SOL     OW 7009   0.189   2.053   6.351
 2037SOL    HW1 7010   0.277   2.014   6.378
 2037SOL    HW2 7011   0.123   2.042   6.426
 2038SOL     OW 7012   1.139   0.241   5.121
 2038SOL    HW1 7013   1.112   0.337   5.109
 2038SOL    HW2 7014   1.200   0.234   5.200
 2039SOL     OW 7015   1.259   5.462   2.164
 2039SOL    HW1 7016   1.283   5.458   2.067
 2039SOL    HW2 7017   1.312   5.393   2.214
 2040SOL     OW 7018   3.874   3.957   4.629
 2040SOL    HW1 7019   3.840   3.863   4.632
 2040SOL    HW2 7020   3.856   4.002   4.717
 2041SOL     OW 7021   5.830   3.239   0.131
 2041SOL    HW1 7022   5.751   3.269   0.077
 2041SOL    HW2 7023   5.901   3.309   0.128
 2042SOL     OW 7024   3.517   6.015   0.284
 2042SOL    HW1 7025   3.480   5.970   0.364
 2042SOL    HW2 7026   3.459   6.093   0.259
 2043SOL     OW 7027   4.229   5.036   2.453
 2043SOL    HW1 7028   4.316   4.992   2.475
 2043SOL    HW2 7029   4.240   5.090   2.369
 2044SOL     OW 7030   6.398   0.968   2.018
 2044SOL    HW1 7031   6.484   0.939   2.059
 2044SOL    HW2 7032   6.399   0.946   1.920
 2045SOL     OW 7033   2.467   6.134   5.818
 2045SOL    HW1 7034   2.540   6.187   5.861
 2045SOL    HW2 7035   2.381   6.151   5.866
 2046SOL     OW 7036   6.103   0.169   4.949
 2046SOL    HW1 7037   6.030   0.201   5.009
 2046SOL    HW2 7038   6.190   0.208   4.978
 2047SOL     OW 7039   5.164   2.354   0.105
 2047SOL    HW1 7040   5.202   2.384   0.192
 2047SOL    HW2 7041   5.176   2.426   0.037
 2048SOL     OW 7042   4.598   6.644   5.382
 2048SOL    HW1 7043   4.626   6.571   5.443
 2048SOL    HW2 7044   4.596   6.610   5.288
 2049SOL     OW 7045   4.652   6.385   0.451
 2049SOL    HW1 7046   4.553   6.388   0.460
 2049SOL    HW2 7047   4.678   6.313   0.387
 2050SOL     OW 7048   5.362   0.893   4.038
 2050SOL    HW1 7049   5.393   0.958   3.968
 2050SOL    HW2 7050   5.262   0.887   4.035
 2051SOL     OW 7051   2.298   5.361   0.726
 2051SOL    HW1 7052   2.365   5.433   0.710
 2051SOL    HW2 7053   2.304   5.331   0.821
 2052SOL     OW 7054   1.324   3.028   0.951
 2052SOL    HW1 7055   1.372   3.083   1.018
 2052SOL    HW2 7056   1.367   2.938   0.944
 2053SOL     OW 7057   5.087   0.965   0.154
 2053SOL    HW1 7058   5.144   0.893   0.195
 2053SOL    HW2 7059   4.993   0.933   0.144
 2054SOL     OW 7060   6.981   3.650   1.549
 2054SOL    HW1 7061   0.056   3.663   1.556
 2054SOL    HW2 7062   6.938   3.681   1.634
 2055SOL     OW 7063   6.205   1.687   4.011
 2055SOL    HW1 7064   6.141   1.762   4.028
 2055SOL    HW2 7065   6.296   1.712   4.043
 2056SOL     OW 7066   0.746   0.160   2.255
 2056SOL    HW1 7067   0.676   0.187   2.189
 2056SOL    HW2 7068   0.792   0.077   2.223
 2057SOL     OW 7069   6.387   2.032   4.427
 2057SOL    HW1 7070   6.454   1.961   4.451
 2057SOL    HW2 7071   6.424   2.122   4.450
 2058SOL     OW 7072   0.751   1.128   1.597
 2058SOL    HW1 7073   0.658   1.146   1.567
 2058SOL    HW2 7074   0.813   1.134   1.518
 2059SOL     OW 7075   1.752   0.317   6.570
 2059SOL    HW1 7076   1.735   0.368   6.485
 2059SOL    HW2 7077   1.845   0.335   6.601
 2060SOL     OW 7078   0.297   5.433   2.008
 2060SOL    HW1 7079   0.215   5.412   1.955
 2060SOL    HW2 7080   0.367   5.470   1.947
 2061SOL     OW 7081   0.882   1.179   1.305
 2061SOL    HW1 7082   0.977   1.209   1.311
 2061SOL    HW2 7083   0.877   1.096   1.248
 2062SOL     OW 7084   4.158   0.552   3.661
 2062SOL    HW1 7085   4.178   0.491   3.737
 2062SOL    HW2 7086   4.239   0.560   3.603
 2063SOL     OW 7087   2.430   1.923   0.411
 2063SOL    HW1 7088   2.379   1.993   0.461
 2063SOL    HW2 7089   2.507   1.891   0.466
 2064SOL     OW 7090   0.728   2.075   0.067
 2064SOL    HW1 7091   0.732   1.994   0.009
 2064SOL    HW2 7092   0.633   2.108   0.071
 2065SOL     OW 7093   6.536   2.781   2.163
 2065SOL    HW1 7094   6.523   2.696   2.113
 2065SOL    HW2 7095   6.536   2.762   2.261
 2066SOL     OW 7096   1.728   6.980   2.866
 2066SOL    HW1 7097   1.766   0.003   2.786
 2066SOL    HW2 7098   1.629   6.973   2.856
 2067SOL     OW 7099   6.632   0.218   0.999
 2067SOL    HW1 7100   6.675   0.164   0.927
 2067SOL    HW2 7101   6.701   0.276   1.043
 2068SOL     OW 7102   2.171   1.410   5.057
 2068SOL    HW1 7103   2.078   1.447   5.055
 2068SOL    HW2 7104   2.179   1.337   4.990
 2069SOL     OW 7105   0.905   1.779   2.168
 2069SOL    HW1 7106   0.975   1.849   2.162
 2069SOL    HW2 7107   0.920   1.710   2.098
 2070SOL     OW 7108   1.023   0.903   3.108
 2070SOL    HW1 7109   1.083   0.953   3.046
 2070SOL    HW2 7110   1.073   0.881   3.192
 2071SOL     OW 7111   1.721   6.244   4.952
 2071SOL    HW1 7112   1.750   6.148   4.946
 2071SOL    HW2 7113   1.648   6.253   5.020
 2072SOL     OW 7114   4.558   4.663   2.059
 2072SOL    HW1 7115   4.489   4.645   1.989
 2072SOL    HW2 7116   4.619   4.584   2.066
 2073SOL     OW 7117   3.783   6.119   5.369
 2073SOL    HW1 7118   3.810   6.133   5.274
 2073SOL    HW2 7119   3.863   6.097   5.424
 2074SOL     OW 7120   6.193   1.988   2.205
 2074SOL    HW1 7121   6.231   2.072   2.243
 2074SOL    HW2 7122   6.265   1.936   2.159
 2075SOL     OW 7123   3.890   3.867   6.577
 2075SOL    HW1 7124   3.967   3.856   6.514
 2075SOL    HW2 7125   3.805   3.841   6.530
 2076SOL     OW 7126   4.564   0.284   1.134
 2076SOL    HW1 7127   4.469   0.264   1.157
 2076SOL    HW2 7128   4.603   0.209   1.081
 2077SOL     OW 7129   5.286   1.486   3.839
 2077SOL    HW1 7130   5.284   1.525   3.747
 2077SOL    HW2 7131   5.374   1.505   3.882
 2078SOL     OW 7132   4.100   5.536   4.837
 2078SOL    HW1 7133   4.005   5.535   4.805
 2078SOL    HW2 7134   4.107   5.483   4.921
 2079SOL     OW 7135   5.856   0.635   3.506
 2079SOL    HW1 7136   5.825   0.710   3.565
 2079SOL    HW2 7137   5.950   0.652   3.477
 2080SOL     OW 7138   2.929   2.118   4.156
 2080SOL    HW1 7139   2.937   2.139   4.059
 2080SOL    HW2 7140   2.871   2.038   4.168
 2081SOL     OW 7141   0.950   5.853   4.221
 2081SOL    HW1 7142   0.882   5.819   4.156
 2081SOL    HW2 7143   1.003   5.776   4.258
 2082SOL     OW 7144   4.851   0.672   2.171
 2082SOL    HW1 7145   4.867   0.718   2.084
 2082SOL    HW2 7146   4.762   0.626   2.169
 2083SOL     OW 7147   3.458   4.878   5.768
 2083SOL    HW1 7148   3.405   4.917   5.692
 2083SOL    HW2 7149   3.438   4.929   5.852
 2084SOL     OW 7150   0.031   2.783   2.509
 2084SOL    HW1 7151   7.017   2.812   2.421
 2084SOL    HW2 7152   0.123   2.745   2.494
 2085SOL     OW 7153   5.188   6.113   6.557
 2085SOL    HW1 7154   5.148   6.033   6.602
 2085SOL    HW2 7155   5.136   6.133   6.474
 2086SOL     OW 7156   3.590   5.043   0.587
 2086SOL    HW1 7157   3.515   5.030   0.522
 2086SOL    HW2 7158   3.563   5.110   0.656
 2087SOL     OW 7159   6.435   5.714   3.661
 2087SOL    HW1 7160   6.432   5.673   3.752
 2087SOL    HW2 7161   6.367   5.787   3.655
 2088SOL     OW 7162   2.308   0.504   1.067
 2088SOL    HW1 7163   2.394   0.454   1.059
 2088SOL    HW2 7164   2.232   0.440   1.056
 2089SOL     OW 7165   2.959   1.211   6.486
 2089SOL    HW1 7166   3.009   1.219   6.400
 2089SOL    HW2 7167   3.023   1.215   6.563
 2090SOL     OW 7168   3.439   2.932   3.756
 2090SOL    HW1 7169   3.451   2.878   3.840
 2090SOL    HW2 7170   3.343   2.927   3.727
 2091SOL     OW 7171   2.097   5.607   0.725
 2091SOL    HW1 7172   2.145   5.694   0.738
 2091SOL    HW2 7173   2.161   5.531   0.740
 2092SOL     OW 7174   0.217   6.505   1.513
 2092SOL    HW1 7175   0.265   6.431   1.560
 2092SOL    HW2 7176   0.134   6.529   1.564
 2093SOL     OW 7177   0.821   2.736   1.540
 2093SOL    HW1 7178   0.880   2.806   1.580
 2093SOL    HW2 7179   0.741   2.722   1.598
 2094SOL     OW 7180   6.228   0.290   1.718
 2094SOL    HW1 7181   6.148   0.348   1.702
 2094SOL    HW2 7182   6.235   0.269   1.815
 2095SOL     OW 7183   6.887   4.666   4.986
 2095SOL    HW1 7184   6.916   4.746   4.935
 2095SOL    HW2 7185   6.931   4.666   5.076
 2096SOL     OW 7186   4.908   3.834   3.523
 2096SOL    HW1 7187   4.894   3.788   3.435
 2096SOL    HW2 7188   4.881   3.772   3.597
 2097SOL     OW 7189   6.539   3.422   0.149
 2097SOL    HW1 7190   6.504   3.485   0.080
 2097SOL    HW2 7191   6.550   3.471   0.235
 2098SOL     OW 7192   4.638   0.506   3.969
 2098SOL    HW1 7193   4.583   0.454   4.034
 2098SOL    HW2 7194   4.735   0.489   3.985
 2099SOL     OW 7195   3.027   1.889   3.096
 2099SOL    HW1 7196   3.041   1.983   3.064
 2099SOL    HW2 7197   3.050   1.884   3.194
 2100SOL     OW 7198   3.837   4.447   6.707
 2100SOL    HW1 7199   3.807   4.458   6.802
 2100SOL    HW2 7200   3.917   4.387   6.705
 2101SOL     OW 7201   6.953   0.643   2.894
 2101SOL    HW1 7202   7.018   0.713   2.864
 2101SOL    HW2 7203   6.995   0.588   2.966
 2102SOL     OW 7204   0.368   4.829   1.691
 2102SOL    HW1 7205   0.275   4.836   1.728
 2102SOL    HW2 7206   0.373   4.751   1.629
 2103SOL     OW 7207   2.385   3.724   6.180
 2103SOL    HW1 7208   2.477   3.762   6.193
 2103SOL    HW2 7209   2.325   3.754   6.254
 2104SOL     OW 7210   1.334   3.826   5.280
 2104SOL    HW1 7211   1.304   3.781   5.364
 2104SOL    HW2 7212   1.418   3.783   5.247
 2105SOL     OW 7213   6.365   5.645   1.334
 2105SOL    HW1 7214   6.385   5.741   1.356
 2105SOL    HW2 7215   6.360   5.592   1.418
 2106SOL     OW 7216   5.414   5.547   6.549
 2106SOL    HW1 7217   5.508   5.517   6.560
 2106SOL    HW2 7218   5.356   5.467   6.531
 2107SOL     OW 7219   2.726   4.439   7.014
 2107SOL    HW1 7220   2.757   4.383   0.067
 2107SOL    HW2 7221   2.726   4.535   0.017
 2108SOL     OW 7222   5.334   4.888   5.538
 2108SOL    HW1 7223   5.366   4.819   5.472
 2108SOL    HW2 7224   5.352   4.855   5.631
 2109SOL     OW 7225   6.060   6.573   2.498
 2109SOL    HW1 7226   6.034   6.641   2.429
 2109SOL    HW2 7227   6.110   6.619   2.572
 2110SOL     OW 7228   2.263   4.891   4.940
 2110SOL    HW1 7229   2.207   4.874   4.858
 2110SOL    HW2 7230   2.223   4.966   4.993
 2111SOL     OW 7231   1.995   2.659   6.977
 2111SOL    HW1 7232   2.038   2.704   0.031
 2111SOL    HW2 7233   1.933   2.588   7.010
 2112SOL     OW 7234   5.095   3.298   0.561
 2112SOL    HW1 7235   5.091   3.341   0.471
 2112SOL    HW2 7236   5.171   3.234   0.564
 2113SOL     OW 7237   6.586   1.679   3.171
 2113SOL    HW1 7238   6.590   1.778   3.154
 2113SOL    HW2 7239   6.493   1.646   3.153
 2114SOL     OW 7240   1.622   3.679   0.467
 2114SOL    HW1 7241   1.666   3.693   0.556
 2114SOL    HW2 7242   1.560   3.601   0.472
 2115SOL     OW 7243   3.184   5.211   2.323
 2115SOL    HW1 7244   3.093   5.173   2.305
 2115SOL    HW2 7245   3.244   5.195   2.245
 2116SOL     OW 7246   0.297   4.072   2.965
 2116SOL    HW1 7247   0.355   4.023   2.900
 2116SOL    HW2 7248   0.202   4.045   2.953
 2117SOL     OW 7249   0.186   5.451   6.668
 2117SOL    HW1 7250   0.261   5.505   6.631
 2117SOL    HW2 7251   0.102   5.505   6.668
 2118SOL     OW 7252   6.241   3.634   2.203
 2118SOL    HW1 7253   6.289   3.611   2.288
 2118SOL    HW2 7254   6.224   3.733   2.201
 2119SOL     OW 7255   3.570   6.037   0.637
 2119SOL    HW1 7256   3.505   5.977   0.591
 2119SOL    HW2 7257   3.631   5.983   0.694
 2120SOL     OW 7258   6.897   4.948   2.450
 2120SOL    HW1 7259   6.988   4.981   2.477
 2120SOL    HW2 7260   6.827   4.995   2.502
 2121SOL     OW 7261   0.520   3.941   4.624
 2121SOL    HW1 7262   0.472   3.872   4.570
 2121SOL    HW2 7263   0.474   3.953   4.712
 2122SOL     OW 7264   4.626   4.539   5.606
 2122SOL    HW1 7265   4.609   4.538   5.508
 2122SOL    HW2 7266   4.725   4.541   5.623
 2123SOL     OW 7267   4.571   4.537   3.487
 2123SOL    HW1 7268   4.499   4.575   3.429
 2123SOL    HW2 7269   4.532   4.510   3.575
 2124SOL     OW 7270   3.165   1.190   1.862
 2124SOL    HW1 7271   3.242   1.252   1.864
 2124SOL    HW2 7272   3.150   1.151   1.953
 2125SOL     OW 7273   3.427   6.904   0.615
 2125SOL    HW1 7274   3.437   6.973   0.687
 2125SOL    HW2 7275   3.514   6.858   0.601
 2126SOL     OW 7276   2.733   0.542   1.865
 2126SOL    HW1 7277   2.710   0.638   1.847
 2126SOL    HW2 7278   2.735   0.526   1.964
 2127SOL     OW 7279   5.580   2.969   4.881
 2127SOL    HW1 7280   5.658   3.028   4.902
 2127SOL    HW2 7281   5.552   2.920   4.964
 2128SOL     OW 7282   0.848   4.351   4.295
 2128SOL    HW1 7283   0.935   4.343   4.247
 2128SOL    HW2 7284   0.779   4.387   4.232
 2129SOL     OW 7285   3.731   2.349   5.296
 2129SOL    HW1 7286   3.678   2.433   5.281
 2129SOL    HW2 7287   3.825   2.364   5.265
 2130SOL     OW 7288   4.594   0.252   3.273
 2130SOL    HW1 7289   4.575   0.157   3.250
 2130SOL    HW2 7290   4.530   0.282   3.344
 2131SOL     OW 7291   5.293   1.834   6.813
 2131SOL    HW1 7292   5.382   1.843   6.768
 2131SOL    HW2 7293   5.281   1.739   6.844
 2132SOL     OW 7294   2.149   3.695   0.894
 2132SOL    HW1 7295   2.056   3.725   0.915
 2132SOL    HW2 7296   2.199   3.682   0.979
 2133SOL     OW 7297   2.629   3.826   5.623
 2133SOL    HW1 7298   2.679   3.852   5.706
 2133SOL    HW2 7299   2.599   3.731   5.631
 2134SOL     OW 7300   0.475   0.038   0.790
 2134SOL    HW1 7301   0.392   7.015   0.759
 2134SOL    HW2 7302   0.453   0.132   0.815
 2135SOL     OW 7303   6.698   4.407   5.562
 2135SOL    HW1 7304   6.669   4.354   5.642
 2135SOL    HW2 7305   6.796   4.393   5.548
 2136SOL     OW 7306   0.758   4.706   0.866
 2136SOL    HW1 7307   0.703   4.737   0.944
 2136SOL    HW2 7308   0.775   4.783   0.805
 2137SOL     OW 7309   1.352   6.536   4.282
 2137SOL    HW1 7310   1.376   6.500   4.372
 2137SOL    HW2 7311   1.255   6.519   4.264
 2138SOL     OW 7312   5.076   1.901   1.588
 2138SOL    HW1 7313   5.174   1.902   1.608
 2138SOL    HW2 7314   5.028   1.850   1.659
 2139SOL     OW 7315   3.138   6.986   5.742
 2139SOL    HW1 7316   3.109   0.057   5.731
 2139SOL    HW2 7317   3.225   6.984   5.791
 2140SOL     OW 7318   2.591   1.663   4.170
 2140SOL    HW1 7319   2.656   1.601   4.126
 2140SOL    HW2 7320   2.615   1.676   4.266
 2141SOL     OW 7321   6.671   3.223   3.076
 2141SOL    HW1 7322   6.724   3.290   3.129
 2141SOL    HW2 7323   6.716   3.134   3.081
 2142SOL     OW 7324   1.478   2.294   2.516
 2142SOL    HW1 7325   1.523   2.250   2.439
 2142SOL    HW2 7326   1.462   2.227   2.589
 2143SOL     OW 7327   0.864   4.826   6.246
 2143SOL    HW1 7328   0.902   4.741   6.208
 2143SOL    HW2 7329   0.937   4.880   6.287
 2144SOL     OW 7330   6.752   4.683   3.525
 2144SOL    HW1 7331   6.654   4.684   3.545
 2144SOL    HW2 7332   6.769   4.629   3.443
 2145SOL     OW 7333   4.372   1.560   3.465
 2145SOL    HW1 7334   4.330   1.603   3.386
 2145SOL    HW2 7335   4.448   1.502   3.436
 2146SOL     OW 7336   2.312   2.960   0.227
 2146SOL    HW1 7337   2.318   3.012   0.313
 2146SOL    HW2 7338   2.227   2.908   0.225
 2147SOL     OW 7339   5.890   6.653   3.882
 2147SOL    HW1 7340   5.988   6.671   3.888
 2147SOL    HW2 7341   5.851   6.649   3.974
 2148SOL     OW 7342   0.521   3.261   5.987
 2148SOL    HW1 7343   0.493   3.341   5.935
 2148SOL    HW2 7344   0.620   3.252   5.984
 2149SOL     OW 7345   1.118   0.337   0.132
 2149SOL    HW1 7346   1.164   0.336   0.220
 2149SOL    HW2 7347   1.061   0.255   0.123
 2150SOL     OW 7348   1.931   3.072   1.184
 2150SOL    HW1 7349   1.868   3.052   1.110
 2150SOL    HW2 7350   1.936   2.994   1.246
 2151SOL     OW 7351   0.647   5.326   0.791
 2151SOL    HW1 7352   0.629   5.250   0.852
 2151SOL    HW2 7353   0.561   5.361   0.755
 2152SOL     OW 7354   5.543   5.956   3.893
 2152SOL    HW1 7355   5.593   5.903   3.825
 2152SOL    HW2 7356   5.596   5.961   3.977
 2153SOL     OW 7357   5.359   0.409   4.117
 2153SOL    HW1 7358   5.455   0.432   4.134
 2153SOL    HW2 7359   5.334   0.437   4.024
 2154SOL     OW 7360   2.971   0.542   2.847
 2154SOL    HW1 7361   3.037   0.584   2.784
 2154SOL    HW2 7362   3.020   0.495   2.921
 2155SOL     OW 7363   3.803   0.814   0.869
 2155SOL    HW1 7364   3.879   0.748   0.875
 2155SOL    HW2 7365   3.803   0.855   0.778
 2156SOL     OW 7366   5.232   2.110   4.981
 2156SOL    HW1 7367   5.216   2.208   4.997
 2156SOL    HW2 7368   5.307   2.099   4.916
 2157SOL     OW 7369   3.748   6.367   4.052
 2157SOL    HW1 7370   3.796   6.375   3.965
 2157SOL    HW2 7371   3.668   6.308   4.040
 2158SOL     OW 7372   2.699   0.322   0.341
 2158SOL    HW1 7373   2.650   0.409   0.349
 2158SOL    HW2 7374   2.673   0.277   0.256
 2159SOL     OW 7375   1.057   0.689   5.456
 2159SOL    HW1 7376   1.054   0.592   5.479
 2159SOL    HW2 7377   0.966   0.729   5.467
 2160SOL     OW 7378   5.617   6.985   6.925
 2160SOL    HW1 7379   5.585   7.004   7.018
 2160SOL    HW2 7380   5.709   7.020   6.913
 2161SOL     OW 7381   1.565   2.927   1.275
 2161SOL    HW1 7382   1.493   2.867   1.241
 2161SOL    HW2 7383   1.632   2.944   1.202
 2162SOL     OW 7384   1.551   6.863   1.575
 2162SOL    HW1 7385   1.480   6.933   1.563
 2162SOL    HW2 7386   1.561   6.843   1.673
 2163SOL     OW 7387   1.704   3.192   3.101
 2163SOL    HW1 7388   1.662   3.266   3.047
 2163SOL    HW2 7389   1.724   3.225   3.193
 2164SOL     OW 7390   1.994   3.342   2.323
 2164SOL    HW1 7391   2.047   3.263   2.351
 2164SOL    HW2 7392   1.915   3.353   2.383
 2165SOL     OW 7393   6.605   1.460   4.604
 2165SOL    HW1 7394   6.516   1.505   4.593
 2165SOL    HW2 7395   6.663   1.515   4.664
 2166SOL     OW 7396   6.926   3.458   2.568
 2166SOL    HW1 7397   6.831   3.484   2.550
 2166SOL    HW2 7398   6.982   3.479   2.488
 2167SOL     OW 7399   2.145   1.379   2.857
 2167SOL    HW1 7400   2.128   1.467   2.810
 2167SOL    HW2 7401   2.124   1.304   2.794
 2168SOL     OW 7402   1.885   1.924   3.349
 2168SOL    HW1 7403   1.984   1.914   3.340
 2168SOL    HW2 7404   1.842   1.834   3.347
 2169SOL     OW 7405   6.874   6.923   1.499
 2169SOL    HW1 7406   6.851   7.019   1.487
 2169SOL    HW2 7407   6.956   6.915   1.557
 2170SOL     OW 7408   1.125   3.973   6.131
 2170SOL    HW1 7409   1.082   4.014   6.050
 2170SOL    HW2 7410   1.103   3.876   6.134
 2171SOL     OW 7411   6.698   6.093   0.916
 2171SOL    HW1 7412   6.740   6.091   0.825
 2171SOL    HW2 7413   6.645   6.177   0.926
 2172SOL     OW 7414   2.195   1.648   5.207
 2172SOL    HW1 7415   2.178   1.556   5.170
 2172SOL    HW2 7416   2.174   1.716   5.137
 2173SOL     OW 7417   5.126   0.907   5.253
 2173SOL    HW1 7418   5.216   0.886   5.215
 2173SOL    HW2 7419   5.125   1.001   5.288
 2174SOL     OW 7420   5.772   0.538   6.146
 2174SOL    HW1 7421   5.776   0.450   6.193
 2174SOL    HW2 7422   5.727   0.605   6.206
 2175SOL     OW 7423   2.688   3.931   5.375
 2175SOL    HW1 7424   2.661   3.878   5.456
 2175SOL    HW2 7425   2.611   3.935   5.312
 2176SOL     OW 7426   5.200   2.228   2.603
 2176SOL    HW1 7427   5.288   2.273   2.615
 2176SOL    HW2 7428   5.169   2.191   2.691
 2177SOL     OW 7429   0.914   0.870   4.701
 2177SOL    HW1 7430   1.004   0.838   4.674
 2177SOL    HW2 7431   0.923   0.941   4.770
 2178SOL     OW 7432   1.410   1.824   2.845
 2178SOL    HW1 7433   1.388   1.751   2.781
 2178SOL    HW2 7434   1.509   1.840   2.845
 2179SOL     OW 7435   1.991   4.108   6.629
 2179SOL    HW1 7436   2.015   4.071   6.539
 2179SOL    HW2 7437   2.010   4.206   6.631
 2180SOL     OW 7438   0.553   5.787   2.866
 2180SOL    HW1 7439   0.597   5.854   2.807
 2180SOL    HW2 7440   0.474   5.828   2.911
 2181SOL     OW 7441   4.039   4.836   5.015
 2181SOL    HW1 7442   4.139   4.843   5.006
 2181SOL    HW2 7443   4.017   4.798   5.105
 2182SOL     OW 7444   0.386   6.117   1.971
 2182SOL    HW1 7445   0.451   6.053   1.930
 2182SOL    HW2 7446   0.433   6.201   1.997
 2183SOL     OW 7447   2.941   3.363   6.412
 2183SOL    HW1 7448   2.934   3.267   6.442
 2183SOL    HW2 7449   2.969   3.420   6.489
 2184SOL     OW 7450   6.339   1.541   0.431
 2184SOL    HW1 7451   6.377   1.467   0.487
 2184SOL    HW2 7452   6.400   1.621   0.436
 2185SOL     OW 7453   0.897   0.462   6.448
 2185SOL    HW1 7454   0.806   0.453   6.490
 2185SOL    HW2 7455   0.920   0.559   6.439
 2186SOL     OW 7456   6.808   5.563   5.459
 2186SOL    HW1 7457   6.749   5.634   5.498
 2186SOL    HW2 7458   6.840   5.503   5.532
 2187SOL     OW 7459   6.610   5.603   1.640
 2187SOL    HW1 7460   6.630   5.633   1.733
 2187SOL    HW2 7461   6.524   5.553   1.639
 2188SOL     OW 7462   2.493   0.879   0.338
 2188SOL    HW1 7463   2.447   0.853   0.423
 2188SOL    HW2 7464   2.460   0.821   0.264
 2189SOL     OW 7465   2.201   1.384   1.536
 2189SOL    HW1 7466   2.118   1.436   1.516
 2189SOL    HW2 7467   2.195   1.294   1.494
 2190SOL     OW 7468   6.686   3.991   1.495
 2190SOL    HW1 7469   6.620   3.956   1.562
 2190SOL    HW2 7470   6.724   3.916   1.442
 2191SOL     OW 7471   3.121   0.558   6.407
 2191SOL    HW1 7472   3.075   0.487   6.354
 2191SOL    HW2 7473   3.175   0.515   6.480
 2192SOL     OW 7474   5.050   1.868   1.943
 2192SOL    HW1 7475   5.131   1.859   2.002
 2192SOL    HW2 7476   4.967   1.859   1.998
 2193SOL     OW 7477   2.005   6.832   5.500
 2193SOL    HW1 7478   1.961   6.902   5.557
 2193SOL    HW2 7479   2.059   6.771   5.558
 2194SOL     OW 7480   0.654   4.127   6.360
 2194SOL    HW1 7481   0.569   4.173   6.338
 2194SOL    HW2 7482   0.729   4.169   6.309
 2195SOL     OW 7483   0.426   3.633   4.886
 2195SOL    HW1 7484   0.498   3.624   4.817
 2195SOL    HW2 7485   0.458   3.592   4.972
 2196SOL     OW 7486   3.408   0.787   6.684
 2196SOL    HW1 7487   3.476   0.841   6.732
 2196SOL    HW2 7488   3.453   0.732   6.613
 2197SOL     OW 7489   3.773   5.572   5.886
 2197SOL    HW1 7490   3.721   5.623   5.955
 2197SOL    HW2 7491   3.792   5.480   5.920
 2198SOL     OW 7492   1.127   0.792   0.027
 2198SOL    HW1 7493   1.198   0.792   0.097
 2198SOL    HW2 7494   1.046   0.839   0.062
 2199SOL     OW 7495   4.045   6.883   4.044
 2199SOL    HW1 7496   4.100   6.951   4.091
 2199SOL    HW2 7497   4.065   6.886   3.946
 2200SOL     OW 7498   2.669   1.929   3.859
 2200SOL    HW1 7499   2.673   2.029   3.854
 2200SOL    HW2 7500   2.577   1.898   3.834
 2201SOL     OW 7501   5.745   3.867   4.794
 2201SOL    HW1 7502   5.810   3.920   4.848
 2201SOL    HW2 7503   5.793   3.822   4.719
 2202SOL     OW 7504   3.723   0.115   2.908
 2202SOL    HW1 7505   3.676   0.049   2.850
 2202SOL    HW2 7506   3.680   0.205   2.899
 2203SOL     OW 7507   1.837   5.060   0.916
 2203SOL    HW1 7508   1.850   5.006   1.000
 2203SOL    HW2 7509   1.789   5.145   0.939
 2204SOL     OW 7510   5.849   2.512   0.749
 2204SOL    HW1 7511   5.922   2.519   0.680
 2204SOL    HW2 7512   5.781   2.446   0.719
 2205SOL     OW 7513   6.974   5.411   0.963
 2205SOL    HW1 7514   6.980   5.486   1.030
 2205SOL    HW2 7515   6.959   5.325   1.011
 2206SOL     OW 7516   3.924   2.441   5.938
 2206SOL    HW1 7517   3.883   2.409   6.023
 2206SOL    HW2 7518   3.949   2.362   5.881
 2207SOL     OW 7519   4.871   5.817   1.233
 2207SOL    HW1 7520   4.958   5.789   1.193
 2207SOL    HW2 7521   4.803   5.830   1.161
 2208SOL     OW 7522   6.910   6.782   3.467
 2208SOL    HW1 7523   6.908   6.876   3.500
 2208SOL    HW2 7524   6.902   6.719   3.544
 2209SOL     OW 7525   2.941   5.995   4.017
 2209SOL    HW1 7526   2.951   5.972   3.920
 2209SOL    HW2 7527   2.873   5.934   4.059
 2210SOL     OW 7528   4.581   0.252   1.707
 2210SOL    HW1 7529   4.643   0.178   1.682
 2210SOL    HW2 7530   4.544   0.294   1.624
 2211SOL     OW 7531   1.335   1.804   1.236
 2211SOL    HW1 7532   1.295   1.740   1.302
 2211SOL    HW2 7533   1.278   1.885   1.229
 2212SOL     OW 7534   2.850   5.829   6.801
 2212SOL    HW1 7535   2.812   5.756   6.745
 2212SOL    HW2 7536   2.782   5.901   6.813
 2213SOL     OW 7537   3.657   1.895   4.854
 2213SOL    HW1 7538   3.561   1.919   4.863
 2213SOL    HW2 7539   3.710   1.977   4.832
 2214SOL     OW 7540   4.426   4.092   6.466
 2214SOL    HW1 7541   4.418   4.134   6.375
 2214SOL    HW2 7542   4.381   4.002   6.465
 2215SOL     OW 7543   3.695   0.172   0.175
 2215SOL    HW1 7544   3.643   0.235   0.233
 2215SOL    HW2 7545   3.639   0.092   0.153
 2216SOL     OW 7546   0.553   6.572   6.267
 2216SOL    HW1 7547   0.525   6.478   6.247
 2216SOL    HW2 7548   0.617   6.572   6.344
 2217SOL     OW 7549   4.448   1.590   3.736
 2217SOL    HW1 7550   4.432   1.513   3.798
 2217SOL    HW2 7551   4.416   1.567   3.645
 2218SOL     OW 7552   0.232   5.452   5.244
 2218SOL    HW1 7553   0.145   5.403   5.251
 2218SOL    HW2 7554   0.294   5.420   5.317
 2219SOL     OW 7555   5.190   1.260   0.933
 2219SOL    HW1 7556   5.283   1.281   0.965
 2219SOL    HW2 7557   5.151   1.187   0.990
 2220SOL     OW 7558   0.037   5.668   4.365
 2220SOL    HW1 7559   6.984   5.608   4.345
 2220SOL    HW2 7560   0.006   5.746   4.419
 2221SOL     OW 7561   6.342   1.157   4.319
 2221SOL    HW1 7562   6.350   1.067   4.362
 2221SOL    HW2 7563   6.429   1.205   4.325
 2222SOL     OW 7564   4.736   0.250   2.662
 2222SOL    HW1 7565   4.715   0.277   2.568
 2222SOL    HW2 7566   4.810   0.308   2.698
 2223SOL     OW 7567   1.013   6.492   5.231
 2223SOL    HW1 7568   1.080   6.531   5.294
 2223SOL    HW2 7569   1.016   6.541   5.144
 2224SOL     OW 7570   5.426   3.917   0.405
 2224SOL    HW1 7571   5.450   3.825   0.436
 2224SOL    HW2 7572   5.468   3.933   0.316
 2225SOL     OW 7573   6.942   6.254   2.001
 2225SOL    HW1 7574   6.901   6.252   2.093
 2225SOL    HW2 7575   6.949   6.348   1.970
 2226SOL     OW 7576   2.453   4.814   6.972
 2226SOL    HW1 7577   2.428   4.853   0.037
 2226SOL    HW2 7578   2.441   4.884   6.901
 2227SOL     OW 7579   4.148   1.790   1.730
 2227SOL    HW1 7580   4.148   1.886   1.758
 2227SOL    HW2 7581   4.096   1.736   1.796
 2228SOL     OW 7582   5.303   5.118   6.976
 2228SOL    HW1 7583   5.350   5.031   6.971
 2228SOL    HW2 7584   5.339   5.180   6.907
 2229SOL     OW 7585   3.161   2.991   3.972
 2229SOL    HW1 7586   3.130   2.972   3.879
 2229SOL    HW2 7587   3.234   2.928   3.997
 2230SOL     OW 7588   6.053   0.451   6.848
 2230SOL    HW1 7589   6.063   0.505   6.931
 2230SOL    HW2 7590   6.103   0.365   6.857
 2231SOL     OW 7591   0.835   6.942   6.258
 2231SOL    HW1 7592   0.874   7.009   6.194
 2231SOL    HW2 7593   0.833   6.981   6.350
 2232SOL     OW 7594   1.783   0.761   5.530
 2232SOL    HW1 7595   1.848   0.685   5.519
 2232SOL    HW2 7596   1.726   0.745   5.611
 2233SOL     OW 7597   2.666   4.518   0.686
 2233SOL    HW1 7598   2.651   4.611   0.720
 2233SOL    HW2 7599   2.761   4.509   0.656
 2234SOL     OW 7600   4.923   2.134   1.632
 2234SOL    HW1 7601   4.988   2.058   1.637
 2234SOL    HW2 7602   4.830   2.099   1.640
 2235SOL     OW 7603   0.727   1.830   3.184
 2235SOL    HW1 7604   0.804   1.788   3.232
 2235SOL    HW2 7605   0.658   1.761   3.166
 2236SOL     OW 7606   2.782   5.093   5.273
 2236SOL    HW1 7607   2.879   5.100   5.296
 2236SOL    HW2 7608   2.764   5.005   5.229
 2237SOL     OW 7609   6.369   5.989   5.914
 2237SOL    HW1 7610   6.399   5.902   5.876
 2237SOL    HW2 7611   6.423   6.064   5.875
 2238SOL     OW 7612   6.108   3.331   1.768
 2238SOL    HW1 7613   6.116   3.232   1.755
 2238SOL    HW2 7614   6.045   3.350   1.843
 2239SOL     OW 7615   4.941   6.581   3.007
 2239SOL    HW1 7616   4.955   6.660   2.947
 2239SOL    HW2 7617   4.932   6.498   2.952
 2240SOL     OW 7618   4.841   5.180   2.023
 2240SOL    HW1 7619   4.811   5.251   2.087
 2240SOL    HW2 7620   4.827   5.090   2.065
 2241SOL     OW 7621   0.638   1.491   2.483
 2241SOL    HW1 7622   0.681   1.580   2.472
 2241SOL    HW2 7623   0.554   1.500   2.537
 2242SOL     OW 7624   5.195   2.272   3.623
 2242SOL    HW1 7625   5.182   2.312   3.713
 2242SOL    HW2 7626   5.203   2.173   3.631
 2243SOL     OW 7627   2.147   6.953   0.799
 2243SOL    HW1 7628   2.188   6.986   0.885
 2243SOL    HW2 7629   2.114   0.008   0.746
 2244SOL     OW 7630   2.200   1.626   0.374
 2244SOL    HW1 7631   2.227   1.533   0.401
 2244SOL    HW2 7632   2.257   1.692   0.422
 2245SOL     OW 7633   0.336   0.786   0.284
 2245SOL    HW1 7634   0.286   0.733   0.352
 2245SOL    HW2 7635   0.383   0.724   0.221
 2246SOL     OW 7636   3.457   1.931   5.290
 2246SOL    HW1 7637   3.476   1.922   5.388
 2246SOL    HW2 7638   3.383   1.997   5.276
 2247SOL     OW 7639   3.361   2.930   2.948
 2247SOL    HW1 7640   3.322   2.928   2.856
 2247SOL    HW2 7641   3.287   2.936   3.015
 2248SOL     OW 7642   4.646   3.847   5.333
 2248SOL    HW1 7643   4.567   3.906   5.319
 2248SOL    HW2 7644   4.712   3.862   5.259
 2249SOL     OW 7645   1.730   6.700   2.902
 2249SOL    HW1 7646   1.637   6.687   2.936
 2249SOL    HW2 7647   1.754   6.797   2.905
 2250SOL     OW 7648   4.361   5.750   6.558
 2250SOL    HW1 7649   4.424   5.674   6.577
 2250SOL    HW2 7650   4.411   5.837   6.561
 2251SOL     OW 7651   4.991   6.075   5.045
 2251SOL    HW1 7652   4.939   6.087   5.130
 2251SOL    HW2 7653   4.935   6.025   4.979
 2252SOL     OW 7654   4.252   1.592   2.322
 2252SOL    HW1 7655   4.294   1.584   2.413
 2252SOL    HW2 7656   4.154   1.576   2.329
 2253SOL     OW 7657   0.622   3.290   0.962
 2253SOL    HW1 7658   0.568   3.303   1.045
 2253SOL    HW2 7659   0.632   3.378   0.915
 2254SOL     OW 7660   3.908   3.871   2.834
 2254SOL    HW1 7661   3.837   3.801   2.835
 2254SOL    HW2 7662   3.974   3.854   2.907
 2255SOL     OW 7663   2.280   3.469   6.206
 2255SOL    HW1 7664   2.348   3.541   6.190
 2255SOL    HW2 7665   2.213   3.501   6.273
 2256SOL     OW 7666   5.308   6.883   1.343
 2256SOL    HW1 7667   5.339   6.883   1.248
 2256SOL    HW2 7668   5.208   6.880   1.345
 2257SOL     OW 7669   6.825   0.703   5.367
 2257SOL    HW1 7670   6.897   0.759   5.326
 2257SOL    HW2 7671   6.814   0.727   5.464
 2258SOL     OW 7672   2.792   5.786   4.111
 2258SOL    HW1 7673   2.827   5.714   4.170
 2258SOL    HW2 7674   2.724   5.748   4.049
 2259SOL     OW 7675   6.257   2.335   4.907
 2259SOL    HW1 7676   6.309   2.298   4.984
 2259SOL    HW2 7677   6.248   2.434   4.918
 2260SOL     OW 7678   0.693   3.899   1.337
 2260SOL    HW1 7679   0.692   3.971   1.267
 2260SOL    HW2 7680   0.786   3.886   1.371
 2261SOL     OW 7681   5.468   3.994   6.969
 2261SOL    HW1 7682   5.395   3.933   7.002
 2261SOL    HW2 7683   5.440   4.038   6.884
 2262SOL     OW 7684   6.391   6.996   4.354
 2262SOL    HW1 7685   6.391   6.897   4.339
 2262SOL    HW2 7686   6.298   0.006   4.343
 2263SOL     OW 7687   2.252   4.354   6.158
 2263SOL    HW1 7688   2.275   4.389   6.066
 2263SOL    HW2 7689   2.170   4.297   6.153
 2264SOL     OW 7690   3.343   6.987   5.918
 2264SOL    HW1 7691   3.333   0.020   6.000
 2264SOL    HW2 7692   3.387   6.901   5.942
 2265SOL     OW 7693   6.702   6.413   4.402
 2265SOL    HW1 7694   6.656   6.482   4.458
 2265SOL    HW2 7695   6.679   6.427   4.306
 2266SOL     OW 7696   4.276   3.008   6.591
 2266SOL    HW1 7697   4.193   3.056   6.622
 2266SOL    HW2 7698   4.287   2.924   6.643
 2267SOL     OW 7699   5.102   2.958   4.321
 2267SOL    HW1 7700   5.013   2.999   4.342
 2267SOL    HW2 7701   5.089   2.861   4.299
 2268SOL     OW 7702   1.303   5.727   4.600
 2268SOL    HW1 7703   1.350   5.645   4.633
 2268SOL    HW2 7704   1.229   5.750   4.663
 2269SOL     OW 7705   1.679   2.049   5.404
 2269SOL    HW1 7706   1.627   2.070   5.322
 2269SOL    HW2 7707   1.777   2.053   5.384
 2270SOL     OW 7708   4.633   1.529   6.176
 2270SOL    HW1 7709   4.728   1.500   6.166
 2270SOL    HW2 7710   4.628   1.610   6.235
 2271SOL     OW 7711   4.547   5.491   5.357
 2271SOL    HW1 7712   4.578   5.535   5.441
 2271SOL    HW2 7713   4.499   5.406   5.379
 2272SOL     OW 7714   5.461   1.433   6.088
 2272SOL    HW1 7715   5.498   1.514   6.041
 2272SOL    HW2 7716   5.415   1.374   6.023
 2273SOL     OW 7717   0.961   2.376   3.194
 2273SOL    HW1 7718   1.031   2.445   3.184
 2273SOL    HW2 7719   0.967   2.310   3.119
 2274SOL     OW 7720   0.650   1.614   6.988
 2274SOL    HW1 7721   0.559   1.607   6.947
 2274SOL    HW2 7722   0.642   1.635   0.061
 2275SOL     OW 7723   5.694   4.334   2.844
 2275SOL    HW1 7724   5.623   4.268   2.821
 2275SOL    HW2 7725   5.694   4.408   2.775
 2276SOL     OW 7726   2.048   2.193   0.908
 2276SOL    HW1 7727   2.008   2.122   0.966
 2276SOL    HW2 7728   2.145   2.202   0.929
 2277SOL     OW 7729   3.626   3.271   3.630
 2277SOL    HW1 7730   3.564   3.341   3.667
 2277SOL    HW2 7731   3.712   3.272   3.682
 2278SOL     OW 7732   0.445   2.615   3.715
 2278SOL    HW1 7733   0.360   2.563   3.708
 2278SOL    HW2 7734   0.518   2.566   3.666
 2279SOL     OW 7735   0.529   5.812   5.318
 2279SOL    HW1 7736   0.430   5.817   5.332
 2279SOL    HW2 7737   0.549   5.804   5.221
 2280SOL     OW 7738   4.531   2.039   5.785
 2280SOL    HW1 7739   4.435   2.069   5.786
 2280SOL    HW2 7740   4.569   2.053   5.694
 2281SOL     OW 7741   5.804   6.883   2.649
 2281SOL    HW1 7742   5.813   6.791   2.611
 2281SOL    HW2 7743   5.889   6.934   2.632
 2282SOL     OW 7744   4.069   6.899   5.531
 2282SOL    HW1 7745   3.996   6.839   5.563
 2282SOL    HW2 7746   4.140   6.844   5.487
 2283SOL     OW 7747   0.084   0.377   3.952
 2283SOL    HW1 7748   0.138   0.444   4.004
 2283SOL    HW2 7749   7.014   0.375   3.987
 2284SOL     OW 7750   1.069   2.878   0.199
 2284SOL    HW1 7751   1.134   2.917   0.265
 2284SOL    HW2 7752   1.057   2.781   0.218
 2285SOL     OW 7753   1.726   4.281   6.148
 2285SOL    HW1 7754   1.668   4.353   6.112
 2285SOL    HW2 7755   1.680   4.193   6.140
 2286SOL     OW 7756   4.751   5.016   3.194
 2286SOL    HW1 7757   4.794   4.943   3.247
 2286SOL    HW2 7758   4.660   4.987   3.166
 2287SOL     OW 7759   1.242   1.090   3.259
 2287SOL    HW1 7760   1.276   1.142   3.181
 2287SOL    HW2 7761   1.188   1.151   3.318
 2288SOL     OW 7762   0.031   5.780   2.926
 2288SOL    HW1 7763   0.020   5.762   2.828
 2288SOL    HW2 7764   7.013   5.707   2.979
 2289SOL     OW 7765   0.228   5.549   0.892
 2289SOL    HW1 7766   0.195   5.643   0.898
 2289SOL    HW2 7767   0.160   5.486   0.930
 2290SOL     OW 7768   0.907   5.813   0.178
 2290SOL    HW1 7769   0.835   5.826   0.110
 2290SOL    HW2 7770   0.909   5.717   0.206
 2291SOL     OW 7771   2.513   1.391   0.202
 2291SOL    HW1 7772   2.605   1.430   0.212
 2291SOL    HW2 7773   2.465   1.439   0.129
 2292SOL     OW 7774   1.881   1.426   5.067
 2292SOL    HW1 7775   1.788   1.436   5.030
 2292SOL    HW2 7776   1.884   1.345   5.126
 2293SOL     OW 7777   5.421   4.422   2.757
 2293SOL    HW1 7778   5.419   4.358   2.834
 2293SOL    HW2 7779   5.329   4.461   2.745
 2294SOL     OW 7780   3.034   5.943   6.656
 2294SOL    HW1 7781   3.072   6.004   6.726
 2294SOL    HW2 7782   2.965   5.884   6.698
 2295SOL     OW 7783   0.821   2.223   1.393
 2295SOL    HW1 7784   0.797   2.147   1.454
 2295SOL    HW2 7785   0.920   2.241   1.401
 2296SOL     OW 7786   3.059   6.513   0.661
 2296SOL    HW1 7787   3.095   6.585   0.721
 2296SOL    HW2 7788   2.994   6.552   0.597
 2297SOL     OW 7789   4.050   6.352   6.242
 2297SOL    HW1 7790   4.067   6.445   6.275
 2297SOL    HW2 7791   3.963   6.349   6.192
 2298SOL     OW 7792   4.062   2.869   6.332
 2298SOL    HW1 7793   4.087   2.807   6.407
 2298SOL    HW2 7794   4.061   2.963   6.367
 2299SOL     OW 7795   4.388   6.468   0.271
 2299SOL    HW1 7796   4.396   6.425   0.361
 2299SOL    HW2 7797   4.366   6.565   0.282
 2300SOL     OW 7798   1.438   4.506   1.645
 2300SOL    HW1 7799   1.339   4.504   1.642
 2300SOL    HW2 7800   1.472   4.593   1.608
 2301SOL     OW 7801   4.041   3.617   1.849
 2301SOL    HW1 7802   4.078   3.640   1.939
 2301SOL    HW2 7803   4.057   3.521   1.830
 2302SOL     OW 7804   2.608   6.101   3.384
 2302SOL    HW1 7805   2.574   6.012   3.355
 2302SOL    HW2 7806   2.684   6.129   3.325
 2303SOL     OW 7807   0.839   3.008   4.878
 2303SOL    HW1 7808   0.832   3.107   4.881
 2303SOL    HW2 7809   0.821   2.970   4.968
 2304SOL     OW 7810   2.671   0.614   4.210
 2304SOL    HW1 7811   2.691   0.575   4.120
 2304SOL    HW2 7812   2.691   0.546   4.281
 2305SOL     OW 7813   3.900   5.456   1.750
 2305SOL    HW1 7814   3.846   5.389   1.699
 2305SOL    HW2 7815   3.878   5.548   1.719
 2306SOL     OW 7816   0.855   3.625   0.586
 2306SOL    HW1 7817   0.910   3.649   0.666
 2306SOL    HW2 7818   0.818   3.708   0.546
 2307SOL     OW 7819   0.378   2.326   2.843
 2307SOL    HW1 7820   0.293   2.369   2.815
 2307SOL    HW2 7821   0.429   2.297   2.762
 2308SOL     OW 7822   0.350   0.311   0.243
 2308SOL    HW1 7823   0.413   0.239   0.216
 2308SOL    HW2 7824   0.357   0.327   0.341
 2309SOL     OW 7825   3.656   5.058   6.032
 2309SOL    HW1 7826   3.692   5.082   6.123
 2309SOL    HW2 7827   3.726   5.007   5.981
 2310SOL     OW 7828   5.517   1.697   2.725
 2310SOL    HW1 7829   5.460   1.616   2.709
 2310SOL    HW2 7830   5.587   1.676   2.793
 2311SOL     OW 7831   2.929   0.317   2.664
 2311SOL    HW1 7832   3.022   0.283   2.653
 2311SOL    HW2 7833   2.928   0.391   2.732
 2312SOL     OW 7834   2.316   0.985   2.642
 2312SOL    HW1 7835   2.415   0.966   2.644
 2312SOL    HW2 7836   2.285   0.992   2.547
 2313SOL     OW 7837   5.371   4.194   1.794
 2313SOL    HW1 7838   5.285   4.214   1.746
 2313SOL    HW2 7839   5.367   4.101   1.831
 2314SOL     OW 7840   6.105   0.257   2.788
 2314SOL    HW1 7841   6.035   0.286   2.854
 2314SOL    HW2 7842   6.084   0.164   2.756
 2315SOL     OW 7843   4.388   5.991   5.487
 2315SOL    HW1 7844   4.340   6.076   5.465
 2315SOL    HW2 7845   4.413   5.944   5.403
 2316SOL     OW 7846   2.677   1.836   5.880
 2316SOL    HW1 7847   2.661   1.789   5.793
 2316SOL    HW2 7848   2.759   1.894   5.871
 2317SOL     OW 7849   7.016   5.864   3.481
 2317SOL    HW1 7850   0.013   5.957   3.509
 2317SOL    HW2 7851   7.000   5.807   3.561
 2318SOL     OW 7852   1.641   5.196   5.314
 2318SOL    HW1 7853   1.588   5.126   5.266
 2318SOL    HW2 7854   1.608   5.206   5.407
 2319SOL     OW 7855   2.512   4.783   3.691
 2319SOL    HW1 7856   2.490   4.842   3.768
 2319SOL    HW2 7857   2.486   4.689   3.713
 2320SOL     OW 7858   1.210   2.302   5.220
 2320SOL    HW1 7859   1.296   2.351   5.205
 2320SOL    HW2 7860   1.221   2.236   5.294
 2321SOL     OW 7861   2.600   4.740   5.969
 2321SOL    HW1 7862   2.574   4.758   5.874
 2321SOL    HW2 7863   2.611   4.642   5.983
 2322SOL     OW 7864   0.949   3.937   1.720
 2322SOL    HW1 7865   0.852   3.919   1.741
 2322SOL    HW2 7866   1.004   3.858   1.747
 2323SOL     OW 7867   2.367   5.007   1.610
 2323SOL    HW1 7868   2.319   4.996   1.697
 2323SOL    HW2 7869   2.461   4.974   1.620
 2324SOL     OW 7870   0.100   5.315   2.395
 2324SOL    HW1 7871   0.013   5.340   2.439
 2324SOL    HW2 7872   0.081   5.258   2.315
 2325SOL     OW 7873   0.077   5.383   1.778
 2325SOL    HW1 7874   0.045   5.295   1.743
 2325SOL    HW2 7875   0.137   5.426   1.711
 2326SOL     OW 7876   1.331   0.644   6.641
 2326SOL    HW1 7877   1.338   0.568   6.576
 2326SOL    HW2 7878   1.415   0.699   6.637
 2327SOL     OW 7879   6.818   0.144   2.757
 2327SOL    HW1 7880   6.789   0.135   2.662
 2327SOL    HW2 7881   6.912   0.179   2.760
 2328SOL     OW 7882   2.504   2.606   2.827
 2328SOL    HW1 7883   2.555   2.674   2.879
 2328SOL    HW2 7884   2.434   2.565   2.886
 2329SOL     OW 7885   0.728   5.165   3.346
 2329SOL    HW1 7886   0.669   5.085   3.330
 2329SOL    HW2 7887   0.671   5.245   3.366
 2330SOL     OW 7888   6.649   2.666   0.361
 2330SOL    HW1 7889   6.588   2.744   0.379
 2330SOL    HW2 7890   6.695   2.680   0.273
 2331SOL     OW 7891   3.914   6.206   0.522
 2331SOL    HW1 7892   3.837   6.207   0.586
 2331SOL    HW2 7893   3.966   6.291   0.531
 2332SOL     OW 7894   5.256   6.923   6.077
 2332SOL    HW1 7895   5.321   6.897   6.149
 2332SOL    HW2 7896   5.166   6.940   6.118
 2333SOL     OW 7897   6.941   4.462   2.729
 2333SOL    HW1 7898   6.918   4.408   2.809
 2333SOL    HW2 7899   6.860   4.473   2.671
 2334SOL     OW 7900   3.058   1.402   5.945
 2334SOL    HW1 7901   2.996   1.387   5.868
 2334SOL    HW2 7902   3.146   1.358   5.927
 2335SOL     OW 7903   6.431   1.204   3.288
 2335SOL    HW1 7904   6.370   1.203   3.367
 2335SOL    HW2 7905   6.488   1.286   3.291
 2336SOL     OW 7906   1.995   1.741   2.948
 2336SOL    HW1 7907   1.943   1.690   2.880
 2336SOL    HW2 7908   2.089   1.708   2.950
 2337SOL     OW 7909   4.419   1.902   1.509
 2337SOL    HW1 7910   4.363   1.819   1.511
 2337SOL    HW2 7911   4.387   1.965   1.580
 2338SOL     OW 7912   6.891   4.133   4.318
 2338SOL    HW1 7913   6.914   4.065   4.387
 2338SOL    HW2 7914   6.848   4.212   4.362
 2339SOL     OW 7915   4.043   3.176   2.842
 2339SOL    HW1 7916   3.986   3.095   2.838
 2339SOL    HW2 7917   4.057   3.203   2.937
 2340SOL     OW 7918   1.734   5.582   6.174
 2340SOL    HW1 7919   1.697   5.612   6.262
 2340SOL    HW2 7920   1.802   5.510   6.190
 2341SOL     OW 7921   2.468   4.498   3.583
 2341SOL    HW1 7922   2.473   4.416   3.527
 2341SOL    HW2 7923   2.459   4.472   3.679
 2342SOL     OW 7924   3.136   7.014   4.396
 2342SOL    HW1 7925   3.049   0.038   4.388
 2342SOL    HW2 7926   3.129   6.924   4.353
 2343SOL     OW 7927   1.609   6.765   2.158
 2343SOL    HW1 7928   1.526   6.724   2.197
 2343SOL    HW2 7929   1.583   6.826   2.083
 2344SOL     OW 7930   5.581   4.023   0.835
 2344SOL    HW1 7931   5.498   4.079   0.835
 2344SOL    HW2 7932   5.643   4.054   0.907
 2345SOL     OW 7933   2.889   5.830   4.960
 2345SOL    HW1 7934   2.876   5.914   5.012
 2345SOL    HW2 7935   2.800   5.787   4.944
 2346SOL     OW 7936   4.112   4.459   6.346
 2346SOL    HW1 7937   4.171   4.468   6.267
 2346SOL    HW2 7938   4.056   4.377   6.337
 2347SOL     OW 7939   0.968   2.363   2.195
 2347SOL    HW1 7940   0.871   2.379   2.216
 2347SOL    HW2 7941   0.983   2.376   2.097
 2348SOL     OW 7942   0.517   4.838   2.813
 2348SOL    HW1 7943   0.528   4.838   2.713
 2348SOL    HW2 7944   0.520   4.932   2.847
 2349SOL     OW 7945   0.385   4.570   6.470
 2349SOL    HW1 7946   0.429   4.659   6.461
 2349SOL    HW2 7947   0.379   4.525   6.381
 2350SOL     OW 7948   6.248   3.934   6.612
 2350SOL    HW1 7949   6.159   3.899   6.639
 2350SOL    HW2 7950   6.268   3.909   6.517
 2351SOL     OW 7951   2.662   5.265   3.008
 2351SOL    HW1 7952   2.568   5.297   3.021
 2351SOL    HW2 7953   2.724   5.317   3.067
 2352SOL     OW 7954   0.122   3.200   3.777
 2352SOL    HW1 7955   0.068   3.228   3.856
 2352SOL    HW2 7956   0.211   3.247   3.779
 2353SOL     OW 7957   3.663   5.761   5.245
 2353SOL    HW1 7958   3.595   5.741   5.175
 2353SOL    HW2 7959   3.752   5.775   5.202
 2354SOL     OW 7960   2.236   1.893   3.585
 2354SOL    HW1 7961   2.297   1.907   3.663
 2354SOL    HW2 7962   2.268   1.946   3.507
 2355SOL     OW 7963   2.201   5.996   5.160
 2355SOL    HW1 7964   2.220   6.037   5.071
 2355SOL    HW2 7965   2.280   5.943   5.190
 2356SOL     OW 7966   6.821   3.563   0.228
 2356SOL    HW1 7967   6.777   3.532   0.312
 2356SOL    HW2 7968   6.911   3.601   0.249
 2357SOL     OW 7969   2.557   6.807   2.446
 2357SOL    HW1 7970   2.512   6.819   2.357
 2357SOL    HW2 7971   2.650   6.774   2.432
 2358SOL     OW 7972   3.513   4.645   6.662
 2358SOL    HW1 7973   3.466   4.687   6.585
 2358SOL    HW2 7974   3.598   4.603   6.631
 2359SOL     OW 7975   1.561   0.284   4.652
 2359SOL    HW1 7976   1.491   0.354   4.662
 2359SOL    HW2 7977   1.650   0.322   4.676
 2360SOL     OW 7978   6.590   3.367   0.446
 2360SOL    HW1 7979   6.493   3.388   0.436
 2360SOL    HW2 7980   6.604   3.268   0.442
 2361SOL     OW 7981   3.785   1.562   6.156
 2361SOL    HW1 7982   3.821   1.475   6.122
 2361SOL    HW2 7983   3.823   1.637   6.101
 2362SOL     OW 7984   3.494   5.566   3.514
 2362SOL    HW1 7985   3.526   5.487   3.462
 2362SOL    HW2 7986   3.394   5.574   3.504
 2363SOL     OW 7987   3.852   1.378   4.077
 2363SOL    HW1 7988   3.850   1.475   4.100
 2363SOL    HW2 7989   3.792   1.361   3.999
 2364SOL     OW 7990   0.974   2.603   1.120
 2364SOL    HW1 7991   1.034   2.528   1.093
 2364SOL    HW2 7992   1.015   2.690   1.092
 2365SOL     OW 7993   5.677   2.217   6.573
 2365SOL    HW1 7994   5.716   2.246   6.660
 2365SOL    HW2 7995   5.577   2.216   6.580
 2366SOL     OW 7996   3.512   5.232   0.788
 2366SOL    HW1 7997   3.604   5.270   0.783
 2366SOL    HW2 7998   3.494   5.201   0.882
 2367SOL     OW 7999   2.264   2.914   6.848
 2367SOL    HW1 8000   2.170   2.932   6.876
 2367SOL    HW2 8001   2.269   2.825   6.802
 2368SOL     OW 8002   6.404   6.219   3.183
 2368SOL    HW1 8003   6.455   6.199   3.099
 2368SOL    HW2 8004   6.307   6.198   3.168
 2369SOL     OW 8005   2.404   0.315   3.484
 2369SOL    HW1 8006   2.427   0.387   3.550
 2369SOL    HW2 8007   2.488   0.282   3.440
 2370SOL     OW 8008   5.272   2.285   6.682
 2370SOL    HW1 8009   5.329   2.284   6.764
 2370SOL    HW2 8010   5.176   2.297   6.708
 2371SOL     OW 8011   2.563   6.740   1.628
 2371SOL    HW1 8012   2.537   6.644   1.623
 2371SOL    HW2 8013   2.481   6.796   1.636
 2372SOL     OW 8014   6.664   3.274   2.421
 2372SOL    HW1 8015   6.650   3.367   2.456
 2372SOL    HW2 8016   6.677   3.277   2.322
 2373SOL     OW 8017   2.295   3.590   6.627
 2373SOL    HW1 8018   2.382   3.553   6.593
 2373SOL    HW2 8019   2.248   3.520   6.681
 2374SOL     OW 8020   6.084   2.710   4.565
 2374SOL    HW1 8021   6.145   2.686   4.490
 2374SOL    HW2 8022   5.991   2.683   4.542
 2375SOL     OW 8023   3.463   5.583   4.793
 2375SOL    HW1 8024   3.467   5.622   4.701
 2375SOL    HW2 8025   3.431   5.488   4.788
 2376SOL     OW 8026   6.208   3.183   4.579
 2376SOL    HW1 8027   6.305   3.198   4.598
 2376SOL    HW2 8028   6.171   3.263   4.532
 2377SOL     OW 8029   2.981   3.349   3.990
 2377SOL    HW1 8030   2.999   3.293   3.909
 2377SOL    HW2 8031   3.028   3.437   3.981
 2378SOL     OW 8032   5.307   2.825   6.699
 2378SOL    HW1 8033   5.383   2.762   6.686
 2378SOL    HW2 8034   5.220   2.777   6.688
 2379SOL     OW 8035   6.123   0.312   0.890
 2379SOL    HW1 8036   6.178   0.348   0.814
 2379SOL    HW2 8037   6.114   0.383   0.961
 2380SOL     OW 8038   6.225   2.240   1.221
 2380SOL    HW1 8039   6.233   2.143   1.245
 2380SOL    HW2 8040   6.284   2.260   1.143
 2381SOL     OW 8041   1.649   6.615   3.368
 2381SOL    HW1 8042   1.736   6.615   3.416
 2381SOL    HW2 8043   1.638   6.529   3.318
 2382SOL     OW 8044   2.121   3.540   5.178
 2382SOL    HW1 8045   2.190   3.605   5.209
 2382SOL    HW2 8046   2.088   3.486   5.255
 2383SOL     OW 8047   6.001   6.166   1.105
 2383SOL    HW1 8048   5.954   6.252   1.125
 2383SOL    HW2 8049   5.978   6.137   1.012
 2384SOL     OW 8050   4.656   1.600   1.774
 2384SOL    HW1 8051   4.676   1.639   1.864
 2384SOL    HW2 8052   4.567   1.633   1.742
 2385SOL     OW 8053   0.744   1.983   6.313
 2385SOL    HW1 8054   0.821   2.035   6.347
 2385SOL    HW2 8055   0.753   1.970   6.214
 2386SOL     OW 8056   5.203   5.605   3.911
 2386SOL    HW1 8057   5.241   5.657   3.834
 2386SOL    HW2 8058   5.269   5.603   3.986
 2387SOL     OW 8059   1.903   1.511   3.693
 2387SOL    HW1 8060   1.901   1.525   3.792
 2387SOL    HW2 8061   1.912   1.599   3.647
 2388SOL     OW 8062   5.939   2.345   4.117
 2388SOL    HW1 8063   6.008   2.330   4.188
 2388SOL    HW2 8064   5.969   2.420   4.058
 2389SOL     OW 8065   4.079   5.094   3.054
 2389SOL    HW1 8066   4.044   5.105   3.146
 2389SOL    HW2 8067   4.159   5.152   3.041
 2390SOL     OW 8068   3.347   4.143   1.872
 2390SOL    HW1 8069   3.316   4.051   1.848
 2390SOL    HW2 8070   3.428   4.136   1.931
 2391SOL     OW 8071   4.437   5.230   5.927
 2391SOL    HW1 8072   4.400   5.171   5.855
 2391SOL    HW2 8073   4.362   5.274   5.976
 2392SOL     OW 8074   3.646   0.930   6.707
 2392SOL    HW1 8075   3.670   0.927   6.610
 2392SOL    HW2 8076   3.684   1.013   6.748
 2393SOL     OW 8077   4.343   4.694   5.900
 2393SOL    HW1 8078   4.437   4.714   5.874
 2393SOL    HW2 8079   4.305   4.772   5.951
 2394SOL     OW 8080   0.867   4.158   4.944
 2394SOL    HW1 8081   0.839   4.100   5.020
 2394SOL    HW2 8082   0.810   4.240   4.941
 2395SOL     OW 8083   3.743   6.798   5.890
 2395SOL    HW1 8084   3.727   6.808   5.988
 2395SOL    HW2 8085   3.710   6.879   5.842
 2396SOL     OW 8086   4.174   4.527   0.480
 2396SOL    HW1 8087   4.159   4.481   0.393
 2396SOL    HW2 8088   4.173   4.459   0.554
 2397SOL     OW 8089   0.127   3.870   4.881
 2397SOL    HW1 8090   0.101   3.937   4.812
 2397SOL    HW2 8091   0.072   3.884   4.964
 2398SOL     OW 8092   4.315   4.492   5.676
 2398SOL    HW1 8093   4.328   4.566   5.742
 2398SOL    HW2 8094   4.388   4.496   5.607
 2399SOL     OW 8095   4.147   2.174   1.469
 2399SOL    HW1 8096   4.221   2.198   1.532
 2399SOL    HW2 8097   4.078   2.120   1.517
 2400SOL     OW 8098   2.492   5.291   1.260
 2400SOL    HW1 8099   2.422   5.362   1.262
 2400SOL    HW2 8100   2.513   5.263   1.354
 2401SOL     OW 8101   6.594   6.686   5.812
 2401SOL    HW1 8102   6.661   6.650   5.877
 2401SOL    HW2 8103   6.621   6.660   5.719
 2402SOL     OW 8104   0.067   6.800   4.588
 2402SOL    HW1 8105   0.034   6.797   4.494
 2402SOL    HW2 8106   0.029   6.723   4.639
 2403SOL     OW 8107   0.566   1.873   5.564
 2403SOL    HW1 8108   0.522   1.962   5.575
 2403SOL    HW2 8109   0.582   1.856   5.466
 2404SOL     OW 8110   1.193   0.485   0.444
 2404SOL    HW1 8111   1.211   0.578   0.475
 2404SOL    HW2 8112   1.249   0.421   0.496
 2405SOL     OW 8113   2.636   3.927   1.643
 2405SOL    HW1 8114   2.668   3.858   1.708
 2405SOL    HW2 8115   2.698   3.931   1.565
 2406SOL     OW 8116   4.510   1.320   0.869
 2406SOL    HW1 8117   4.602   1.330   0.907
 2406SOL    HW2 8118   4.489   1.398   0.811
 2407SOL     OW 8119   5.443   0.924   3.379
 2407SOL    HW1 8120   5.430   0.826   3.395
 2407SOL    HW2 8121   5.539   0.948   3.393
 2408SOL     OW 8122   4.667   4.422   2.140
 2408SOL    HW1 8123   4.629   4.412   2.232
 2408SOL    HW2 8124   4.605   4.381   2.073
 2409SOL     OW 8125   1.652   4.153   0.359
 2409SOL    HW1 8126   1.730   4.191   0.409
 2409SOL    HW2 8127   1.574   4.215   0.366
 2410SOL     OW 8128   3.981   3.326   2.587
 2410SOL    HW1 8129   4.015   3.266   2.659
 2410SOL    HW2 8130   3.933   3.272   2.518
 2411SOL     OW 8131   5.483   0.131   4.497
 2411SOL    HW1 8132   5.387   0.160   4.492
 2411SOL    HW2 8133   5.508   0.112   4.591
 2412SOL     OW 8134   4.284   3.305   0.953
 2412SOL    HW1 8135   4.354   3.371   0.926
 2412SOL    HW2 8136   4.199   3.353   0.975
 2413SOL     OW 8137   4.889   0.313   2.146
 2413SOL    HW1 8138   4.971   0.367   2.126
 2413SOL    HW2 8139   4.845   0.350   2.228
 2414SOL     OW 8140   5.419   3.353   4.086
 2414SOL    HW1 8141   5.384   3.261   4.105
 2414SOL    HW2 8142   5.496   3.372   4.147
 2415SOL     OW 8143   4.833   1.485   3.697
 2415SOL    HW1 8144   4.758   1.526   3.644
 2415SOL    HW2 8145   4.866   1.404   3.649
 2416SOL     OW 8146   4.659   1.920   5.970
 2416SOL    HW1 8147   4.621   1.968   6.050
 2416SOL    HW2 8148   4.612   1.952   5.887
 2417SOL     OW 8149   2.933   3.498   4.222
 2417SOL    HW1 8150   2.894   3.580   4.180
 2417SOL    HW2 8151   2.935   3.424   4.154
 2418SOL     OW 8152   3.849   3.012   3.329
 2418SOL    HW1 8153   3.755   3.021   3.361
 2418SOL    HW2 8154   3.850   3.016   3.229
 2419SOL     OW 8155   0.157   6.961   2.770
 2419SOL    HW1 8156   0.178   7.014   2.689
 2419SOL    HW2 8157   0.067   6.919   2.760
 2420SOL     OW 8158   2.261   0.231   2.016
 2420SOL    HW1 8159   2.273   0.292   1.937
 2420SOL    HW2 8160   2.164   0.210   2.028
 2421SOL     OW 8161   2.753   2.209   3.708
 2421SOL    HW1 8162   2.732   2.283   3.644
 2421SOL    HW2 8163   2.839   2.165   3.681
 2422SOL     OW 8164   4.541   1.762   1.052
 2422SOL    HW1 8165   4.638   1.756   1.029
 2422SOL    HW2 8166   4.527   1.834   1.120
 2423SOL     OW 8167   2.330   5.291   2.660
 2423SOL    HW1 8168   2.375   5.265   2.745
 2423SOL    HW2 8169   2.259   5.224   2.638
 2424SOL     OW 8170   5.444   0.470   1.334
 2424SOL    HW1 8171   5.381   0.458   1.410
 2424SOL    HW2 8172   5.521   0.406   1.344
 2425SOL     OW 8173   6.381   6.687   4.310
 2425SOL    HW1 8174   6.443   6.660   4.237
 2425SOL    HW2 8175   6.286   6.673   4.280
 2426SOL     OW 8176   2.694   4.985   3.965
 2426SOL    HW1 8177   2.784   4.947   3.942
 2426SOL    HW2 8178   2.686   5.077   3.926
 2427SOL     OW 8179   6.084   0.311   5.571
 2427SOL    HW1 8180   6.042   0.285   5.658
 2427SOL    HW2 8181   6.148   0.240   5.542
 2428SOL     OW 8182   6.093   0.733   0.816
 2428SOL    HW1 8183   6.152   0.654   0.800
 2428SOL    HW2 8184   6.126   0.783   0.896
 2429SOL     OW 8185   4.638   5.687   2.159
 2429SOL    HW1 8186   4.575   5.749   2.207
 2429SOL    HW2 8187   4.614   5.685   2.062
 2430SOL     OW 8188   5.608   0.843   2.474
 2430SOL    HW1 8189   5.622   0.764   2.415
 2430SOL    HW2 8190   5.511   0.863   2.482
 2431SOL     OW 8191   3.967   0.731   2.062
 2431SOL    HW1 8192   3.912   0.677   2.126
 2431SOL    HW2 8193   4.035   0.783   2.114
 2432SOL     OW 8194   2.387   6.341   2.745
 2432SOL    HW1 8195   2.358   6.398   2.668
 2432SOL    HW2 8196   2.309   6.324   2.805
 2433SOL     OW 8197   3.913   0.251   0.440
 2433SOL    HW1 8198   3.995   0.301   0.416
 2433SOL    HW2 8199   3.837   0.282   0.382
 2434SOL     OW 8200   3.802   3.355   5.787
 2434SOL    HW1 8201   3.714   3.360   5.833
 2434SOL    HW2 8202   3.868   3.415   5.833
 2435SOL     OW 8203   5.941   5.730   5.195
 2435SOL    HW1 8204   6.022   5.783   5.219
 2435SOL    HW2 8205   5.968   5.650   5.142
 2436SOL     OW 8206   2.921   5.361   0.333
 2436SOL    HW1 8207   2.962   5.436   0.386
 2436SOL    HW2 8208   2.822   5.365   0.340
 2437SOL     OW 8209   6.588   0.343   6.101
 2437SOL    HW1 8210   6.610   0.290   6.183
 2437SOL    HW2 8211   6.556   0.433   6.128
 2438SOL     OW 8212   2.743   2.729   1.054
 2438SOL    HW1 8213   2.762   2.804   0.991
 2438SOL    HW2 8214   2.772   2.756   1.146
 2439SOL     OW 8215   6.209   4.283   4.827
 2439SOL    HW1 8216   6.115   4.308   4.804
 2439SOL    HW2 8217   6.272   4.321   4.759
 2440SOL     OW 8218   6.069   4.988   5.782
 2440SOL    HW1 8219   6.040   4.894   5.763
 2440SOL    HW2 8220   6.145   5.011   5.722
 2441SOL     OW 8221   6.216   2.048   0.689
 2441SOL    HW1 8222   6.166   1.964   0.666
 2441SOL    HW2 8223   6.194   2.075   0.782
 2442SOL     OW 8224   6.769   3.459   5.251
 2442SOL    HW1 8225   6.786   3.546   5.298
 2442SOL    HW2 8226   6.851   3.431   5.201
 2443SOL     OW 8227   2.687   5.044   5.579
 2443SOL    HW1 8228   2.726   5.064   5.489
 2443SOL    HW2 8229   2.593   5.079   5.584
 2444SOL     OW 8230   3.465   2.796   5.430
 2444SOL    HW1 8231   3.434   2.851   5.507
 2444SOL    HW2 8232   3.516   2.853   5.365
 2445SOL     OW 8233   0.615   0.185   0.580
 2445SOL    HW1 8234   0.689   0.224   0.635
 2445SOL    HW2 8235   0.582   0.101   0.624
 2446SOL     OW 8236   5.562   3.742   6.325
 2446SOL    HW1 8237   5.650   3.709   6.290
 2446SOL    HW2 8238   5.528   3.678   6.394
 2447SOL     OW 8239   0.594   2.618   6.490
 2447SOL    HW1 8240   0.570   2.708   6.528
 2447SOL    HW2 8241   0.530   2.549   6.523
 2448SOL     OW 8242   0.129   0.420   4.367
 2448SOL    HW1 8243   0.038   0.459   4.384
 2448SOL    HW2 8244   0.124   0.321   4.373
 2449SOL     OW 8245   0.803   2.831   4.645
 2449SOL    HW1 8246   0.820   2.891   4.724
 2449SOL    HW2 8247   0.788   2.887   4.563
 2450SOL     OW 8248   1.204   3.330   1.629
 2450SOL    HW1 8249   1.272   3.391   1.669
 2450SOL    HW2 8250   1.156   3.280   1.701
 2451SOL     OW 8251   2.647   6.274   4.860
 2451SOL    HW1 8252   2.589   6.243   4.936
 2451SOL    HW2 8253   2.656   6.201   4.793
 2452SOL     OW 8254   2.171   2.253   4.203
 2452SOL    HW1 8255   2.271   2.259   4.206
 2452SOL    HW2 8256   2.136   2.228   4.293
 2453SOL     OW 8257   0.313   3.580   1.645
 2453SOL    HW1 8258   0.400   3.531   1.645
 2453SOL    HW2 8259   0.253   3.541   1.715
 2454SOL     OW 8260   2.076   0.084   1.488
 2454SOL    HW1 8261   2.053   7.011   1.480
 2454SOL    HW2 8262   2.019   0.138   1.427
 2455SOL     OW 8263   5.110   3.664   1.274
 2455SOL    HW1 8264   5.077   3.569   1.275
 2455SOL    HW2 8265   5.170   3.678   1.352
 2456SOL     OW 8266   2.807   6.953   1.131
 2456SOL    HW1 8267   2.737   6.942   1.060
 2456SOL    HW2 8268   2.781   6.900   1.211
 2457SOL     OW 8269   5.879   5.784   1.369
 2457SOL    HW1 8270   5.905   5.876   1.341
 2457SOL    HW2 8271   5.779   5.775   1.364
 2458SOL     OW 8272   0.387   5.712   2.659
 2458SOL    HW1 8273   0.384   5.628   2.605
 2458SOL    HW2 8274   0.467   5.709   2.720
 2459SOL     OW 8275   0.351   1.158   0.433
 2459SOL    HW1 8276   0.402   1.075   0.455
 2459SOL    HW2 8277   0.390   1.235   0.484
 2460SOL     OW 8278   3.165   4.754   1.395
 2460SOL    HW1 8279   3.175   4.769   1.494
 2460SOL    HW2 8280   3.215   4.824   1.345
 2461SOL     OW 8281   5.108   1.455   3.445
 2461SOL    HW1 8282   5.054   1.382   3.488
 2461SOL    HW2 8283   5.163   1.502   3.514
 2462SOL     OW 8284   2.834   4.629   6.226
 2462SOL    HW1 8285   2.851   4.618   6.324
 2462SOL    HW2 8286   2.920   4.650   6.180
 2463SOL     OW 8287   0.319   2.214   4.611
 2463SOL    HW1 8288   0.282   2.224   4.519
 2463SOL    HW2 8289   0.402   2.268   4.620
 2464SOL     OW 8290   1.687   3.962   0.630
 2464SOL    HW1 8291   1.637   4.037   0.673
 2464SOL    HW2 8292   1.634   3.927   0.553
 2465SOL     OW 8293   5.684   5.404   2.472
 2465SOL    HW1 8294   5.774   5.362   2.458
 2465SOL    HW2 8295   5.614   5.348   2.427
 2466SOL     OW 8296   3.677   1.676   1.423
 2466SOL    HW1 8297   3.647   1.604   1.360
 2466SOL    HW2 8298   3.703   1.635   1.511
 2467SOL     OW 8299   7.015   1.398   5.170
 2467SOL    HW1 8300   6.985   1.437   5.083
 2467SOL    HW2 8301   0.053   1.462   5.216
 2468SOL     OW 8302   6.966   4.241   0.606
 2468SOL    HW1 8303   6.954   4.149   0.569
 2468SOL    HW2 8304   0.008   4.238   0.681
 2469SOL     OW 8305   2.906   2.748   5.847
 2469SOL    HW1 8306   2.875   2.697   5.767
 2469SOL    HW2 8307   2.908   2.846   5.826
 2470SOL     OW 8308   5.691   2.734   0.805
 2470SOL    HW1 8309   5.756   2.662   0.782
 2470SOL    HW2 8310   5.726   2.788   0.882
 2471SOL     OW 8311   0.310   1.077   3.711
 2471SOL    HW1 8312   0.305   0.998   3.771
 2471SOL    HW2 8313   0.248   1.065   3.633
 2472SOL     OW 8314   5.654   1.343   3.614
 2472SOL    HW1 8315   5.729   1.399   3.650
 2472SOL    HW2 8316   5.660   1.339   3.515
 2473SOL     OW 8317   0.571   6.427   5.351
 2473SOL    HW1 8318   0.660   6.472   5.363
 2473SOL    HW2 8319   0.579   6.330   5.374
 2474SOL     OW 8320   6.126   6.714   4.240
 2474SOL    HW1 8321   6.132   6.812   4.263
 2474SOL    HW2 8322   6.104   6.663   4.323
 2475SOL     OW 8323   4.514   2.377   5.945
 2475SOL    HW1 8324   4.558   2.371   5.856
 2475SOL    HW2 8325   4.483   2.287   5.974
 2476SOL     OW 8326   0.205   1.807   3.737
 2476SOL    HW1 8327   0.302   1.783   3.741
 2476SOL    HW2 8328   0.174   1.805   3.642
 2477SOL     OW 8329   4.502   5.102   1.998
 2477SOL    HW1 8330   4.571   5.030   1.995
 2477SOL    HW2 8331   4.449   5.093   2.082
 2478SOL     OW 8332   0.018   6.863   3.254
 2478SOL    HW1 8333   6.998   6.818   3.332
 2478SOL    HW2 8334   0.009   6.806   3.173
 2479SOL     OW 8335   0.499   2.168   6.938
 2479SOL    HW1 8336   0.482   2.253   6.987
 2479SOL    HW2 8337   0.439   2.162   6.858
 2480SOL     OW 8338   0.412   5.156   2.114
 2480SOL    HW1 8339   0.419   5.255   2.103
 2480SOL    HW2 8340   0.327   5.124   2.071
 2481SOL     OW 8341   3.910   5.038   2.349
 2481SOL    HW1 8342   3.846   5.104   2.388
 2481SOL    HW2 8343   3.869   4.994   2.269
 2482SOL     OW 8344   5.049   2.690   4.283
 2482SOL    HW1 8345   5.122   2.631   4.317
 2482SOL    HW2 8346   4.966   2.676   4.337
 2483SOL     OW 8347   0.656   2.942   7.023
 2483SOL    HW1 8348   0.710   2.935   0.082
 2483SOL    HW2 8349   0.716   2.963   6.946
 2484SOL     OW 8350   4.009   3.552   6.415
 2484SOL    HW1 8351   3.936   3.574   6.479
 2484SOL    HW2 8352   3.995   3.601   6.329
 2485SOL     OW 8353   0.171   6.486   0.538
 2485SOL    HW1 8354   0.259   6.497   0.584
 2485SOL    HW2 8355   0.098   6.486   0.606
 2486SOL     OW 8356   0.656   4.815   3.709
 2486SOL    HW1 8357   0.594   4.763   3.768
 2486SOL    HW2 8358   0.688   4.896   3.758
 2487SOL     OW 8359   3.186   1.593   1.723
 2487SOL    HW1 8360   3.234   1.507   1.740
 2487SOL    HW2 8361   3.236   1.668   1.766
 2488SOL     OW 8362   2.698   5.881   6.296
 2488SOL    HW1 8363   2.700   5.946   6.371
 2488SOL    HW2 8364   2.784   5.828   6.295
 2489SOL     OW 8365   0.081   6.097   4.411
 2489SOL    HW1 8366   0.047   6.096   4.317
 2489SOL    HW2 8367   0.137   6.178   4.425
 2490SOL     OW 8368   5.275   3.110   1.700
 2490SOL    HW1 8369   5.363   3.068   1.724
 2490SOL    HW2 8370   5.223   3.048   1.642
 2491SOL     OW 8371   6.819   4.266   2.885
 2491SOL    HW1 8372   6.734   4.305   2.849
 2491SOL    HW2 8373   6.819   4.273   2.984
 2492SOL     OW 8374   3.851   1.311   5.992
 2492SOL    HW1 8375   3.857   1.213   5.976
 2492SOL    HW2 8376   3.936   1.356   5.962
 2493SOL     OW 8377   6.840   1.126   4.928
 2493SOL    HW1 8378   6.902   1.116   5.006
 2493SOL    HW2 8379   6.823   1.037   4.886
 2494SOL     OW 8380   4.419   4.767   0.774
 2494SOL    HW1 8381   4.454   4.850   0.730
 2494SOL    HW2 8382   4.491   4.724   0.828
 2495SOL     OW 8383   6.828   0.875   3.013
 2495SOL    HW1 8384   6.789   0.785   2.992
 2495SOL    HW2 8385   6.904   0.863   3.077
 2496SOL     OW 8386   1.550   5.563   0.053
 2496SOL    HW1 8387   1.465   5.512   0.038
 2496SOL    HW2 8388   1.598   5.574   6.990
 2497SOL     OW 8389   5.530   0.353   6.908
 2497SOL    HW1 8390   5.504   0.347   7.005
 2497SOL    HW2 8391   5.570   0.442   6.890
 2498SOL     OW 8392   1.143   2.948   4.840
 2498SOL    HW1 8393   1.052   2.958   4.881
 2498SOL    HW2 8394   1.145   2.864   4.785
 2499SOL     OW 8395   5.171   0.694   6.899
 2499SOL    HW1 8396   5.144   0.623   6.834
 2499SOL    HW2 8397   5.268   0.683   6.920
 2500SOL     OW 8398   4.148   3.969   6.411
 2500SOL    HW1 8399   4.111   4.043   6.355
 2500SOL    HW2 8400   4.140   3.992   6.508
 2501SOL     OW 8401   6.427   4.809   1.124
 2501SOL    HW1 8402   6.461   4.900   1.148
 2501SOL    HW2 8403   6.353   4.783   1.186
 2502SOL     OW 8404   0.433   6.609   3.461
 2502SOL    HW1 8405   0.365   6.666   3.507
 2502SOL    HW2 8406   0.432   6.629   3.363
 2503SOL     OW 8407   5.611   6.837   4.288
 2503SOL    HW1 8408   5.566   6.857   4.201
 2503SOL    HW2 8409   5.598   6.913   4.351
 2504SOL     OW 8410   2.143   4.139   3.243
 2504SOL    HW1 8411   2.230   4.179   3.215
 2504SOL    HW2 8412   2.116   4.068   3.178
 2505SOL     OW 8413   4.947   4.146   4.641
 2505SOL    HW1 8414   4.947   4.170   4.544
 2505SOL    HW2 8415   5.040   4.127   4.671
 2506SOL     OW 8416   0.596   1.082   0.652
 2506SOL    HW1 8417   0.530   1.134   0.706
 2506SOL    HW2 8418   0.549   1.011   0.600
 2507SOL     OW 8419   6.497   6.688   0.020
 2507SOL    HW1 8420   6.563   6.705   6.971
 2507SOL    HW2 8421   6.411   6.656   7.005
 2508SOL     OW 8422   2.016   2.254   1.819
 2508SOL    HW1 8423   1.966   2.309   1.753
 2508SOL    HW2 8424   2.114   2.275   1.812
 2509SOL     OW 8425   5.978   1.465   3.309
 2509SOL    HW1 8426   5.972   1.374   3.351
 2509SOL    HW2 8427   5.972   1.535   3.379
 2510SOL     OW 8428   3.838   5.665   2.265
 2510SOL    HW1 8429   3.802   5.728   2.334
 2510SOL    HW2 8430   3.937   5.661   2.272
 2511SOL     OW 8431   1.067   6.979   3.436
 2511SOL    HW1 8432   1.056   6.910   3.364
 2511SOL    HW2 8433   0.980   0.003   3.449
 2512SOL     OW 8434   5.851   3.556   4.335
 2512SOL    HW1 8435   5.812   3.645   4.312
 2512SOL    HW2 8436   5.776   3.490   4.348
 2513SOL     OW 8437   0.075   4.192   0.860
 2513SOL    HW1 8438   0.165   4.230   0.835
 2513SOL    HW2 8439   0.066   4.192   0.960
 2514SOL     OW 8440   6.987   2.727   3.878
 2514SOL    HW1 8441   6.995   2.824   3.901
 2514SOL    HW2 8442   0.006   2.672   3.950
 2515SOL     OW 8443   0.971   4.618   0.000
 2515SOL    HW1 8444   0.987   4.702   0.051
 2515SOL    HW2 8445   1.058   4.585   6.987
 2516SOL     OW 8446   5.238   6.397   3.541
 2516SOL    HW1 8447   5.250   6.396   3.442
 2516SOL    HW2 8448   5.155   6.447   3.565
 2517SOL     OW 8449   1.856   5.532   0.848
 2517SOL    HW1 8450   1.936   5.580   0.812
 2517SOL    HW2 8451   1.886   5.451   0.898
 2518SOL     OW 8452   2.000   2.981   6.870
 2518SOL    HW1 8453   1.918   3.007   6.921
 2518SOL    HW2 8454   1.979   2.977   6.773
 2519SOL     OW 8455   5.957   4.373   5.211
 2519SOL    HW1 8456   5.939   4.440   5.283
 2519SOL    HW2 8457   5.876   4.364   5.153
 2520SOL     OW 8458   3.346   5.427   1.955
 2520SOL    HW1 8459   3.283   5.472   1.892
 2520SOL    HW2 8460   3.366   5.334   1.923
 2521SOL     OW 8461   5.321   6.680   5.875
 2521SOL    HW1 8462   5.349   6.604   5.934
 2521SOL    HW2 8463   5.304   6.761   5.932
 2522SOL     OW 8464   2.741   4.739   4.549
 2522SOL    HW1 8465   2.788   4.782   4.626
 2522SOL    HW2 8466   2.651   4.780   4.538
 2523SOL     OW 8467   0.836   2.092   5.375
 2523SOL    HW1 8468   0.833   1.993   5.361
 2523SOL    HW2 8469   0.918   2.115   5.427
 2524SOL     OW 8470   1.380   6.934   4.403
 2524SOL    HW1 8471   1.454   6.879   4.365
 2524SOL    HW2 8472   1.372   7.019   4.351
 2525SOL     OW 8473   2.403   4.671   2.708
 2525SOL    HW1 8474   2.379   4.742   2.642
 2525SOL    HW2 8475   2.419   4.585   2.659
 2526SOL     OW 8476   1.835   2.364   4.598
 2526SOL    HW1 8477   1.872   2.455   4.613
 2526SOL    HW2 8478   1.892   2.314   4.533
 2527SOL     OW 8479   6.679   0.074   4.213
 2527SOL    HW1 8480   6.598   0.022   4.186
 2527SOL    HW2 8481   6.672   0.099   4.309
 2528SOL     OW 8482   6.013   5.517   0.047
 2528SOL    HW1 8483   6.047   5.431   0.010
 2528SOL    HW2 8484   6.081   5.556   0.109
 2529SOL     OW 8485   5.121   3.871   5.189
 2529SOL    HW1 8486   5.154   3.838   5.278
 2529SOL    HW2 8487   5.021   3.868   5.187
 2530SOL     OW 8488   1.174   6.384   3.307
 2530SOL    HW1 8489   1.182   6.473   3.350
 2530SOL    HW2 8490   1.079   6.365   3.285
 2531SOL     OW 8491   5.025   1.160   6.996
 2531SOL    HW1 8492   5.095   1.192   6.931
 2531SOL    HW2 8493   5.059   1.080   0.021
 2532SOL     OW 8494   0.914   4.593   5.693
 2532SOL    HW1 8495   0.968   4.651   5.753
 2532SOL    HW2 8496   0.950   4.499   5.697
 2533SOL     OW 8497   5.664   0.190   5.378
 2533SOL    HW1 8498   5.753   0.192   5.331
 2533SOL    HW2 8499   5.647   0.279   5.420
 2534SOL     OW 8500   0.009   1.842   3.155
 2534SOL    HW1 8501   6.978   1.868   3.234
 2534SOL    HW2 8502   0.086   1.904   3.146
 2535SOL     OW 8503   2.697   1.297   2.841
 2535SOL    HW1 8504   2.657   1.379   2.882
 2535SOL    HW2 8505   2.746   1.245   2.911
 2536SOL     OW 8506   0.253   0.697   4.455
 2536SOL    HW1 8507   0.198   0.732   4.379
 2536SOL    HW2 8508   0.250   0.597   4.455
 2537SOL     OW 8509   3.719   6.483   2.232
 2537SOL    HW1 8510   3.631   6.470   2.278
 2537SOL    HW2 8511   3.704   6.498   2.134
 2538SOL     OW 8512   0.734   4.694   5.220
 2538SOL    HW1 8513   0.768   4.775   5.172
 2538SOL    HW2 8514   0.721   4.620   5.154
 2539SOL     OW 8515   2.176   0.481   5.578
 2539SOL    HW1 8516   2.179   0.426   5.662
 2539SOL    HW2 8517   2.174   0.578   5.602
 2540SOL     OW 8518   4.913   1.863   2.166
 2540SOL    HW1 8519   4.857   1.938   2.200
 2540SOL    HW2 8520   5.003   1.868   2.208
 2541SOL     OW 8521   1.088   1.407   6.168
 2541SOL    HW1 8522   1.079   1.505   6.150
 2541SOL    HW2 8523   1.185   1.384   6.181
 2542SOL     OW 8524   3.819   2.080   3.697
 2542SOL    HW1 8525   3.887   2.133   3.746
 2542SOL    HW2 8526   3.835   1.982   3.711
 2543SOL     OW 8527   6.698   1.352   4.912
 2543SOL    HW1 8528   6.603   1.337   4.937
 2543SOL    HW2 8529   6.744   1.263   4.901
 2544SOL     OW 8530   0.150   6.403   1.888
 2544SOL    HW1 8531   0.191   6.337   1.826
 2544SOL    HW2 8532   0.104   6.474   1.836
 2545SOL     OW 8533   6.701   1.477   0.301
 2545SOL    HW1 8534   6.756   1.551   0.338
 2545SOL    HW2 8535   6.617   1.514   0.261
 2546SOL     OW 8536   6.384   3.195   2.354
 2546SOL    HW1 8537   6.478   3.223   2.376
 2546SOL    HW2 8538   6.332   3.276   2.326
 2547SOL     OW 8539   5.742   4.088   1.022
 2547SOL    HW1 8540   5.707   4.142   1.098
 2547SOL    HW2 8541   5.822   4.037   1.052
 2548SOL     OW 8542   6.378   1.104   5.765
 2548SOL    HW1 8543   6.346   1.198   5.760
 2548SOL    HW2 8544   6.464   1.095   5.713
 2549SOL     OW 8545   2.616   5.265   0.806
 2549SOL    HW1 8546   2.698   5.209   0.813
 2549SOL    HW2 8547   2.540   5.219   0.852
 2550SOL     OW 8548   3.884   6.409   0.827
 2550SOL    HW1 8549   3.802   6.362   0.860
 2550SOL    HW2 8550   3.964   6.351   0.840
 2551SOL     OW 8551   3.495   4.790   1.150
 2551SOL    HW1 8552   3.485   4.728   1.229
 2551SOL    HW2 8553   3.489   4.885   1.181
 2552SOL     OW 8554   2.237   4.326   1.631
 2552SOL    HW1 8555   2.263   4.271   1.711
 2552SOL    HW2 8556   2.159   4.283   1.585
 2553SOL     OW 8557   4.533   1.066   6.881
 2553SOL    HW1 8558   4.502   1.124   6.806
 2553SOL    HW2 8559   4.500   0.973   6.867
 2554SOL     OW 8560   1.050   5.683   1.321
 2554SOL    HW1 8561   1.004   5.597   1.300
 2554SOL    HW2 8562   1.027   5.751   1.252
 2555SOL     OW 8563   0.362   6.397   5.177
 2555SOL    HW1 8564   0.310   6.315   5.200
 2555SOL    HW2 8565   0.432   6.413   5.246
 2556SOL     OW 8566   4.483   0.016   1.372
 2556SOL    HW1 8567   4.524   6.977   1.305
 2556SOL    HW2 8568   4.419   0.077   1.326
 2557SOL     OW 8569   2.854   1.048   0.109
 2557SOL    HW1 8570   2.829   1.026   0.015
 2557SOL    HW2 8571   2.810   0.983   0.171
 2558SOL     OW 8572   5.514   1.667   1.412
 2558SOL    HW1 8573   5.447   1.662   1.338
 2558SOL    HW2 8574   5.547   1.761   1.420
 2559SOL     OW 8575   6.797   5.408   3.588
 2559SOL    HW1 8576   6.702   5.433   3.603
 2559SOL    HW2 8577   6.857   5.485   3.611
 2560SOL     OW 8578   4.646   2.490   1.827
 2560SOL    HW1 8579   4.574   2.441   1.877
 2560SOL    HW2 8580   4.686   2.560   1.886
 2561SOL     OW 8581   3.212   0.018   4.686
 2561SOL    HW1 8582   3.137   0.047   4.746
 2561SOL    HW2 8583   3.190   0.042   4.592
 2562SOL     OW 8584   1.585   6.519   5.272
 2562SOL    HW1 8585   1.552   6.439   5.322
 2562SOL    HW2 8586   1.680   6.538   5.299
 2563SOL     OW 8587   3.696   2.848   6.489
 2563SOL    HW1 8588   3.665   2.906   6.413
 2563SOL    HW2 8589   3.740   2.767   6.452
 2564SOL     OW 8590   1.418   1.742   0.276
 2564SOL    HW1 8591   1.490   1.803   0.308
 2564SOL    HW2 8592   1.345   1.797   0.234
 2565SOL     OW 8593   0.605   0.712   0.797
 2565SOL    HW1 8594   0.603   0.803   0.838
 2565SOL    HW2 8595   0.638   0.719   0.702
 2566SOL     OW 8596   2.887   0.983   0.675
 2566SOL    HW1 8597   2.915   1.076   0.699
 2566SOL    HW2 8598   2.943   0.948   0.601
 2567SOL     OW 8599   1.986   0.639   6.489
 2567SOL    HW1 8600   2.033   0.720   6.454
 2567SOL    HW2 8601   2.013   0.558   6.436
 2568SOL     OW 8602   2.114   5.231   1.259
 2568SOL    HW1 8603   2.103   5.327   1.284
 2568SOL    HW2 8604   2.120   5.175   1.342
 2569SOL     OW 8605   2.008   6.297   6.774
 2569SOL    HW1 8606   1.941   6.371   6.768
 2569SOL    HW2 8607   2.020   6.254   6.684
 2570SOL     OW 8608   1.062   6.503   3.888
 2570SOL    HW1 8609   1.080   6.417   3.936
 2570SOL    HW2 8610   1.019   6.568   3.950
 2571SOL     OW 8611   3.377   4.149   3.223
 2571SOL    HW1 8612   3.461   4.123   3.176
 2571SOL    HW2 8613   3.301   4.148   3.159
 2572SOL     OW 8614   2.708   5.216   2.676
 2572SOL    HW1 8615   2.683   5.176   2.763
 2572SOL    HW2 8616   2.776   5.289   2.690
 2573SOL     OW 8617   6.571   0.939   3.283
 2573SOL    HW1 8618   6.512   1.019   3.271
 2573SOL    HW2 8619   6.664   0.969   3.305
 2574SOL     OW 8620   0.341   3.607   2.218
 2574SOL    HW1 8621   0.396   3.525   2.200
 2574SOL    HW2 8622   0.351   3.670   2.141
 2575SOL     OW 8623   4.931   3.625   5.486
 2575SOL    HW1 8624   4.904   3.720   5.501
 2575SOL    HW2 8625   4.903   3.569   5.564
 2576SOL     OW 8626   0.767   0.514   3.488
 2576SOL    HW1 8627   0.798   0.424   3.460
 2576SOL    HW2 8628   0.821   0.545   3.566
 2577SOL     OW 8629   1.737   4.746   1.749
 2577SOL    HW1 8630   1.744   4.787   1.659
 2577SOL    HW2 8631   1.687   4.808   1.810
 2578SOL     OW 8632   4.663   2.433   4.927
 2578SOL    HW1 8633   4.564   2.427   4.925
 2578SOL    HW2 8634   4.695   2.485   4.847
 2579SOL     OW 8635   0.500   1.255   6.526
 2579SOL    HW1 8636   0.467   1.343   6.490
 2579SOL    HW2 8637   0.535   1.268   6.619
 2580SOL     OW 8638   1.790   1.296   5.763
 2580SOL    HW1 8639   1.800   1.318   5.666
 2580SOL    HW2 8640   1.820   1.203   5.780
 2581SOL     OW 8641   6.207   6.538   4.476
 2581SOL    HW1 8642   6.198   6.518   4.573
 2581SOL    HW2 8643   6.271   6.472   4.435
 2582SOL     OW 8644   6.971   4.730   2.798
 2582SOL    HW1 8645   6.960   4.633   2.777
 2582SOL    HW2 8646   6.950   4.784   2.717
 2583SOL     OW 8647   3.121   1.145   6.860
 2583SOL    HW1 8648   3.212   1.170   6.825
 2583SOL    HW2 8649   3.052   1.204   6.818
 2584SOL     OW 8650   4.378   0.637   3.458
 2584SOL    HW1 8651   4.441   0.697   3.508
 2584SOL    HW2 8652   4.364   0.673   3.366
 2585SOL     OW 8653   4.168   1.375   2.009
 2585SOL    HW1 8654   4.196   1.462   2.051
 2585SOL    HW2 8655   4.211   1.299   2.057
 2586SOL     OW 8656   0.098   1.424   4.318
 2586SOL    HW1 8657   0.055   1.334   4.315
 2586SOL    HW2 8658   0.169   1.425   4.388
 2587SOL     OW 8659   6.897   5.419   2.746
 2587SOL    HW1 8660   6.980   5.441   2.693
 2587SOL    HW2 8661   6.909   5.331   2.791
 2588SOL     OW 8662   4.566   6.964   2.478
 2588SOL    HW1 8663   4.634   0.013   2.469
 2588SOL    HW2 8664   4.522   6.970   2.568
 2589SOL     OW 8665   4.401   6.529   1.247
 2589SOL    HW1 8666   4.309   6.490   1.239
 2589SOL    HW2 8667   4.431   6.524   1.342
 2590SOL     OW 8668   3.537   6.277   3.359
 2590SOL    HW1 8669   3.547   6.247   3.454
 2590SOL    HW2 8670   3.628   6.281   3.316
 2591SOL     OW 8671   6.014   0.519   1.090
 2591SOL    HW1 8672   5.939   0.487   1.147
 2591SOL    HW2 8673   6.101   0.501   1.136
 2592SOL     OW 8674   2.982   4.762   1.833
 2592SOL    HW1 8675   2.945   4.670   1.831
 2592SOL    HW2 8676   3.025   4.780   1.921
 2593SOL     OW 8677   3.620   7.020   3.143
 2593SOL    HW1 8678   3.685   6.955   3.181
 2593SOL    HW2 8679   3.670   0.070   3.098
 2594SOL     OW 8680   0.873   6.056   6.750
 2594SOL    HW1 8681   0.795   6.080   6.807
 2594SOL    HW2 8682   0.864   5.961   6.719
 2595SOL     OW 8683   6.582   2.832   4.183
 2595SOL    HW1 8684   6.526   2.836   4.265
 2595SOL    HW2 8685   6.665   2.886   4.195
 2596SOL     OW 8686   3.870   2.116   0.991
 2596SOL    HW1 8687   3.797   2.062   0.949
 2596SOL    HW2 8688   3.884   2.086   1.085
 2597SOL     OW 8689   2.228   2.455   6.546
 2597SOL    HW1 8690   2.142   2.485   6.503
 2597SOL    HW2 8691   2.231   2.355   6.547
 2598SOL     OW 8692   6.598   0.681   3.019
 2598SOL    HW1 8693   6.605   0.601   2.960
 2598SOL    HW2 8694   6.613   0.654   3.114
 2599SOL     OW 8695   4.912   5.610   6.569
 2599SOL    HW1 8696   4.869   5.528   6.607
 2599SOL    HW2 8697   4.892   5.689   6.627
 2600SOL     OW 8698   0.158   2.240   4.352
 2600SOL    HW1 8699   0.220   2.298   4.299
 2600SOL    HW2 8700   0.170   2.144   4.324
 2601SOL     OW 8701   4.063   3.853   5.049
 2601SOL    HW1 8702   4.097   3.920   4.983
 2601SOL    HW2 8703   4.035   3.770   5.000
 2602SOL     OW 8704   6.045   6.161   5.958
 2602SOL    HW1 8705   6.087   6.225   5.894
 2602SOL    HW2 8706   6.112   6.134   6.027
 2603SOL     OW 8707   1.388   2.097   6.547
 2603SOL    HW1 8708   1.304   2.064   6.588
 2603SOL    HW2 8709   1.383   2.196   6.533
 2604SOL     OW 8710   5.776   1.725   0.626
 2604SOL    HW1 8711   5.794   1.642   0.573
 2604SOL    HW2 8712   5.741   1.700   0.716
 2605SOL     OW 8713   6.041   3.349   4.396
 2605SOL    HW1 8714   6.029   3.254   4.366
 2605SOL    HW2 8715   5.968   3.405   4.357
 2606SOL     OW 8716   0.116   4.357   1.106
 2606SOL    HW1 8717   0.038   4.389   1.159
 2606SOL    HW2 8718   0.146   4.268   1.141
 2607SOL     OW 8719   1.242   1.498   4.238
 2607SOL    HW1 8720   1.151   1.540   4.246
 2607SOL    HW2 8721   1.241   1.408   4.281
 2608SOL     OW 8722   4.904   7.021   0.713
 2608SOL    HW1 8723   4.906   6.964   0.631
 2608SOL    HW2 8724   4.994   7.019   0.756
 2609SOL     OW 8725   0.748   2.690   3.147
 2609SOL    HW1 8726   0.828   2.746   3.172
 2609SOL    HW2 8727   0.757   2.659   3.053
 2610SOL     OW 8728   5.652   5.950   4.482
 2610SOL    HW1 8729   5.720   5.993   4.422
 2610SOL    HW2 8730   5.698   5.916   4.564
 2611SOL     OW 8731   2.840   5.120   1.926
 2611SOL    HW1 8732   2.750   5.146   1.892
 2611SOL    HW2 8733   2.884   5.201   1.966
 2612SOL     OW 8734   0.368   6.794   5.334
 2612SOL    HW1 8735   0.429   6.806   5.412
 2612SOL    HW2 8736   0.418   6.750   5.259
 2613SOL     OW 8737   3.548   0.847   0.580
 2613SOL    HW1 8738   3.538   0.748   0.571
 2613SOL    HW2 8739   3.636   0.876   0.543
 2614SOL     OW 8740   6.383   6.256   6.588
 2614SOL    HW1 8741   6.343   6.177   6.635
 2614SOL    HW2 8742   6.309   6.312   6.549
 2615SOL     OW 8743   5.685   4.368   1.442
 2615SOL    HW1 8744   5.653   4.303   1.511
 2615SOL    HW2 8745   5.641   4.457   1.456
 2616SOL     OW 8746   4.149   3.717   2.097
 2616SOL    HW1 8747   4.248   3.701   2.093
 2616SOL    HW2 8748   4.124   3.745   2.189
 2617SOL     OW 8749   2.574   6.930   0.957
 2617SOL    HW1 8750   2.551   7.016   1.002
 2617SOL    HW2 8751   2.491   6.877   0.941
 2618SOL     OW 8752   0.863   0.141   0.423
 2618SOL    HW1 8753   0.879   0.240   0.427
 2618SOL    HW2 8754   0.771   0.120   0.456
 2619SOL     OW 8755   6.220   1.719   1.696
 2619SOL    HW1 8756   6.200   1.626   1.727
 2619SOL    HW2 8757   6.272   1.767   1.766
 2620SOL     OW 8758   1.407   5.490   4.086
 2620SOL    HW1 8759   1.433   5.481   4.183
 2620SOL    HW2 8760   1.388   5.399   4.049
 2621SOL     OW 8761   0.564   5.107   3.971
 2621SOL    HW1 8762   0.472   5.085   3.938
 2621SOL    HW2 8763   0.595   5.036   4.034
 2622SOL     OW 8764   2.188   2.609   5.471
 2622SOL    HW1 8765   2.272   2.660   5.488
 2622SOL    HW2 8766   2.144   2.585   5.557
 2623SOL     OW 8767   3.261   0.128   6.630
 2623SOL    HW1 8768   3.295   0.064   6.699
 2623SOL    HW2 8769   3.189   0.083   6.576
 2624SOL     OW 8770   6.298   1.990   4.173
 2624SOL    HW1 8771   6.357   1.934   4.115
 2624SOL    HW2 8772   6.346   2.014   4.257
 2625SOL     OW 8773   3.685   0.040   6.055
 2625SOL    HW1 8774   3.774   0.048   6.009
 2625SOL    HW2 8775   3.612   0.059   5.988
 2626SOL     OW 8776   2.180   0.284   2.864
 2626SOL    HW1 8777   2.219   0.193   2.849
 2626SOL    HW2 8778   2.254   0.348   2.883
 2627SOL     OW 8779   0.646   0.822   5.017
 2627SOL    HW1 8780   0.688   0.745   4.970
 2627SOL    HW2 8781   0.619   0.892   4.950
 2628SOL     OW 8782   3.521   6.213   6.812
 2628SOL    HW1 8783   3.571   6.294   6.783
 2628SOL    HW2 8784   3.491   6.225   6.907
 2629SOL     OW 8785   2.976   3.779   1.220
 2629SOL    HW1 8786   3.014   3.861   1.264
 2629SOL    HW2 8787   3.002   3.698   1.271
 2630SOL     OW 8788   2.888   2.127   2.498
 2630SOL    HW1 8789   2.925   2.041   2.533
 2630SOL    HW2 8790   2.825   2.166   2.565
 2631SOL     OW 8791   4.095   5.834   4.769
 2631SOL    HW1 8792   4.041   5.750   4.762
 2631SOL    HW2 8793   4.144   5.849   4.683
 2632SOL     OW 8794   4.648   0.906   1.016
 2632SOL    HW1 8795   4.549   0.923   1.024
 2632SOL    HW2 8796   4.683   0.951   0.935
 2633SOL     OW 8797   6.905   2.496   6.915
 2633SOL    HW1 8798   6.847   2.415   6.928
 2633SOL    HW2 8799   6.852   2.566   6.867
 2634SOL     OW 8800   3.151   5.262   1.047
 2634SOL    HW1 8801   3.195   5.323   0.981
 2634SOL    HW2 8802   3.188   5.169   1.036
 2635SOL     OW 8803   6.479   4.744   3.555
 2635SOL    HW1 8804   6.498   4.731   3.457
 2635SOL    HW2 8805   6.400   4.688   3.581
 2636SOL     OW 8806   5.672   6.231   5.046
 2636SOL    HW1 8807   5.763   6.218   5.084
 2636SOL    HW2 8808   5.673   6.307   4.981
 2637SOL     OW 8809   5.135   6.408   2.376
 2637SOL    HW1 8810   5.178   6.380   2.462
 2637SOL    HW2 8811   5.086   6.494   2.390
 2638SOL     OW 8812   5.400   5.741   0.722
 2638SOL    HW1 8813   5.451   5.782   0.646
 2638SOL    HW2 8814   5.311   5.709   0.689
 2639SOL     OW 8815   6.758   6.390   6.232
 2639SOL    HW1 8816   6.810   6.416   6.150
 2639SOL    HW2 8817   6.671   6.439   6.233
 2640SOL     OW 8818   6.238   6.825   6.711
 2640SOL    HW1 8819   6.205   6.797   6.621
 2640SOL    HW2 8820   6.160   6.842   6.771
 2641SOL     OW 8821   6.133   5.634   0.351
 2641SOL    HW1 8822   6.206   5.653   0.285
 2641SOL    HW2 8823   6.098   5.542   0.337
 2642SOL     OW 8824   6.595   0.570   3.991
 2642SOL    HW1 8825   6.607   0.519   4.076
 2642SOL    HW2 8826   6.529   0.523   3.933
 2643SOL     OW 8827   2.285   0.401   2.233
 2643SOL    HW1 8828   2.281   0.326   2.166
 2643SOL    HW2 8829   2.194   0.416   2.270
 2644SOL     OW 8830   6.858   5.783   5.269
 2644SOL    HW1 8831   6.855   5.703   5.329
 2644SOL    HW2 8832   6.772   5.790   5.218
 2645SOL     OW 8833   5.955   5.551   6.030
 2645SOL    HW1 8834   6.005   5.627   5.988
 2645SOL    HW2 8835   5.988   5.465   5.991
 2646SOL     OW 8836   5.657   6.229   6.909
 2646SOL    HW1 8837   5.744   6.182   6.924
 2646SOL    HW2 8838   5.587   6.162   6.882
 2647SOL     OW 8839   2.965   3.181   0.072
 2647SOL    HW1 8840   2.999   3.253   0.133
 2647SOL    HW2 8841   2.940   3.221   7.008
 2648SOL     OW 8842   4.170   1.290   3.693
 2648SOL    HW1 8843   4.148   1.266   3.787
 2648SOL    HW2 8844   4.162   1.209   3.635
 2649SOL     OW 8845   3.229   3.123   5.353
 2649SOL    HW1 8846   3.187   3.211   5.377
 2649SOL    HW2 8847   3.172   3.049   5.388
 2650SOL     OW 8848   6.580   6.920   2.305
 2650SOL    HW1 8849   6.638   6.909   2.224
 2650SOL    HW2 8850   6.524   7.002   2.296
 2651SOL     OW 8851   0.440   0.208   3.825
 2651SOL    HW1 8852   0.518   0.168   3.874
 2651SOL    HW2 8853   0.463   0.301   3.795
 2652SOL     OW 8854   3.224   2.998   3.171
 2652SOL    HW1 8855   3.156   3.044   3.228
 2652SOL    HW2 8856   3.294   2.955   3.229
 2653SOL     OW 8857   6.831   5.985   0.345
 2653SOL    HW1 8858   6.806   6.081   0.360
 2653SOL    HW2 8859   6.753   5.926   0.367
 2654SOL     OW 8860   6.241   1.382   5.745
 2654SOL    HW1 8861   6.225   1.413   5.651
 2654SOL    HW2 8862   6.310   1.440   5.787
 2655SOL     OW 8863   5.020   5.454   4.806
 2655SOL    HW1 8864   5.036   5.490   4.897
 2655SOL    HW2 8865   4.977   5.524   4.749
 2656SOL     OW 8866   5.521   3.309   5.104
 2656SOL    HW1 8867   5.536   3.262   5.191
 2656SOL    HW2 8868   5.600   3.366   5.083
 2657SOL     OW 8869   3.222   2.126   6.096
 2657SOL    HW1 8870   3.225   2.162   6.003
 2657SOL    HW2 8871   3.301   2.159   6.148
 2658SOL     OW 8872   6.062   4.148   5.315
 2658SOL    HW1 8873   6.026   4.221   5.257
 2658SOL    HW2 8874   6.091   4.186   5.403
 2659SOL     OW 8875   6.551   1.450   3.775
 2659SOL    HW1 8876   6.493   1.457   3.694
 2659SOL    HW2 8877   6.506   1.392   3.844
 2660SOL     OW 8878   0.057   2.216   3.154
 2660SOL    HW1 8879   0.068   2.147   3.083
 2660SOL    HW2 8880   0.144   2.264   3.168
 2661SOL     OW 8881   3.793   6.961   2.558
 2661SOL    HW1 8882   3.735   6.970   2.477
 2661SOL    HW2 8883   3.862   0.009   2.558
 2662SOL     OW 8884   3.755   0.903   3.855
 2662SOL    HW1 8885   3.836   0.850   3.830
 2662SOL    HW2 8886   3.771   1.000   3.837
 2663SOL     OW 8887   0.675   4.049   2.919
 2663SOL    HW1 8888   0.690   4.075   3.014
 2663SOL    HW2 8889   0.704   3.955   2.905
 2664SOL     OW 8890   4.171   4.065   1.732
 2664SOL    HW1 8891   4.146   4.114   1.648
 2664SOL    HW2 8892   4.259   4.099   1.765
 2665SOL     OW 8893   4.823   0.532   4.568
 2665SOL    HW1 8894   4.828   0.572   4.476
 2665SOL    HW2 8895   4.907   0.554   4.618
 2666SOL     OW 8896   4.710   6.285   1.712
 2666SOL    HW1 8897   4.772   6.215   1.748
 2666SOL    HW2 8898   4.726   6.297   1.614
 2667SOL     OW 8899   1.870   5.303   3.255
 2667SOL    HW1 8900   1.821   5.247   3.322
 2667SOL    HW2 8901   1.852   5.267   3.163
 2668SOL     OW 8902   6.649   2.256   5.610
 2668SOL    HW1 8903   6.660   2.356   5.602
 2668SOL    HW2 8904   6.732   2.217   5.650
 2669SOL     OW 8905   4.374   5.629   5.183
 2669SOL    HW1 8906   4.392   5.727   5.183
 2669SOL    HW2 8907   4.445   5.582   5.235
 2670SOL     OW 8908   2.403   0.025   5.427
 2670SOL    HW1 8909   2.443   6.973   5.478
 2670SOL    HW2 8910   2.420   0.111   5.476
 2671SOL     OW 8911   3.300   4.428   6.345
 2671SOL    HW1 8912   3.212   4.388   6.371
 2671SOL    HW2 8913   3.363   4.355   6.320
 2672SOL     OW 8914   1.358   4.423   0.058
 2672SOL    HW1 8915   1.265   4.421   0.020
 2672SOL    HW2 8916   1.384   4.518   0.078
 2673SOL     OW 8917   4.247   2.054   3.664
 2673SOL    HW1 8918   4.203   2.014   3.584
 2673SOL    HW2 8919   4.177   2.081   3.731
 2674SOL     OW 8920   6.415   5.644   5.523
 2674SOL    HW1 8921   6.467   5.587   5.587
 2674SOL    HW2 8922   6.320   5.649   5.553
 2675SOL     OW 8923   0.714   4.254   5.155
 2675SOL    HW1 8924   0.809   4.280   5.170
 2675SOL    HW2 8925   0.660   4.274   5.236
 2676SOL     OW 8926   4.815   0.366   1.861
 2676SOL    HW1 8927   4.837   0.349   1.957
 2676SOL    HW2 8928   4.716   0.362   1.848
 2677SOL     OW 8929   2.556   4.528   2.396
 2677SOL    HW1 8930   2.603   4.613   2.419
 2677SOL    HW2 8931   2.551   4.520   2.296
 2678SOL     OW 8932   6.977   6.865   6.178
 2678SOL    HW1 8933   6.903   6.872   6.111
 2678SOL    HW2 8934   6.955   6.794   6.245
 2679SOL     OW 8935   2.705   4.860   1.209
 2679SOL    HW1 8936   2.792   4.814   1.225
 2679SOL    HW2 8937   2.715   4.927   1.135
 2680SOL     OW 8938   1.595   2.502   1.501
 2680SOL    HW1 8939   1.662   2.505   1.426
 2680SOL    HW2 8940   1.548   2.590   1.506
 2681SOL     OW 8941   1.889   1.697   2.400
 2681SOL    HW1 8942   1.833   1.624   2.439
 2681SOL    HW2 8943   1.857   1.785   2.436
 2682SOL     OW 8944   6.345   2.508   4.018
 2682SOL    HW1 8945   6.276   2.504   4.090
 2682SOL    HW2 8946   6.379   2.416   3.999
 2683SOL     OW 8947   1.522   0.374   0.657
 2683SOL    HW1 8948   1.577   0.381   0.573
 2683SOL    HW2 8949   1.440   0.320   0.638
 2684SOL     OW 8950   2.559   5.588   3.246
 2684SOL    HW1 8951   2.618   5.507   3.254
 2684SOL    HW2 8952   2.466   5.559   3.226
 2685SOL     OW 8953   5.449   6.255   5.190
 2685SOL    HW1 8954   5.527   6.229   5.133
 2685SOL    HW2 8955   5.371   6.195   5.170
 2686SOL     OW 8956   1.550   2.975   4.419
 2686SOL    HW1 8957   1.596   2.972   4.330
 2686SOL    HW2 8958   1.483   2.901   4.425
 2687SOL     OW 8959   4.762   4.759   2.943
 2687SOL    HW1 8960   4.731   4.690   3.009
 2687SOL    HW2 8961   4.858   4.781   2.960
 2688SOL     OW 8962   4.106   5.004   5.834
 2688SOL    HW1 8963   4.048   5.085   5.826
 2688SOL    HW2 8964   4.050   4.922   5.824
 2689SOL     OW 8965   7.012   3.329   4.291
 2689SOL    HW1 8966   7.004   3.400   4.361
 2689SOL    HW2 8967   0.080   3.290   4.294
 2690SOL     OW 8968   3.554   2.901   3.149
 2690SOL    HW1 8969   3.521   2.848   3.226
 2690SOL    HW2 8970   3.483   2.908   3.079
 2691SOL     OW 8971   1.131   5.693   1.878
 2691SOL    HW1 8972   1.134   5.738   1.789
 2691SOL    HW2 8973   1.045   5.644   1.888
 2692SOL     OW 8974   0.170   5.299   3.112
 2692SOL    HW1 8975   0.252   5.243   3.121
 2692SOL    HW2 8976   0.194   5.395   3.128
 2693SOL     OW 8977   1.826   3.391   2.855
 2693SOL    HW1 8978   1.826   3.473   2.912
 2693SOL    HW2 8979   1.913   3.342   2.866
 2694SOL     OW 8980   2.903   1.141   2.977
 2694SOL    HW1 8981   2.906   1.223   3.034
 2694SOL    HW2 8982   2.909   1.060   3.036
 2695SOL     OW 8983   3.973   2.195   2.547
 2695SOL    HW1 8984   4.014   2.190   2.638
 2695SOL    HW2 8985   3.899   2.128   2.540
 2696SOL     OW 8986   4.112   3.926   5.295
 2696SOL    HW1 8987   4.087   3.919   5.198
 2696SOL    HW2 8988   4.076   3.846   5.344
 2697SOL     OW 8989   2.635   1.986   4.396
 2697SOL    HW1 8990   2.609   2.058   4.332
 2697SOL    HW2 8991   2.629   2.022   4.489
 2698SOL     OW 8992   2.196   3.284   6.647
 2698SOL    HW1 8993   2.126   3.215   6.628
 2698SOL    HW2 8994   2.274   3.271   6.586
 2699SOL     OW 8995   2.692   6.055   2.969
 2699SOL    HW1 8996   2.711   5.972   3.021
 2699SOL    HW2 8997   2.677   6.032   2.873
 2700SOL     OW 8998   1.640   4.269   3.214
 2700SOL    HW1 8999   1.544   4.299   3.211
 2700SOL    HW2 9000   1.664   4.227   3.127
 2701SOL     OW 9001   3.848   0.146   5.608
 2701SOL    HW1 9002   3.928   0.141   5.667
 2701SOL    HW2 9003   3.827   0.242   5.589
 2702SOL     OW 9004   0.011   6.355   2.619
 2702SOL    HW1 9005   0.002   6.293   2.541
 2702SOL    HW2 9006   0.001   6.450   2.589
 2703SOL     OW 9007   1.580   1.852   3.166
 2703SOL    HW1 9008   1.555   1.944   3.137
 2703SOL    HW2 9009   1.599   1.795   3.086
 2704SOL     OW 9010   1.091   6.413   0.060
 2704SOL    HW1 9011   1.142   6.366   7.012
 2704SOL    HW2 9012   0.997   6.377   0.064
 2705SOL     OW 9013   7.014   3.855   2.920
 2705SOL    HW1 9014   0.032   3.807   2.843
 2705SOL    HW2 9015   0.005   3.953   2.911
 2706SOL     OW 9016   6.626   2.289   2.260
 2706SOL    HW1 9017   6.642   2.350   2.338
 2706SOL    HW2 9018   6.694   2.307   2.189
 2707SOL     OW 9019   2.508   1.537   6.046
 2707SOL    HW1 9020   2.561   1.454   6.030
 2707SOL    HW2 9021   2.428   1.517   6.102
 2708SOL     OW 9022   1.600   4.409   0.804
 2708SOL    HW1 9023   1.556   4.468   0.736
 2708SOL    HW2 9024   1.664   4.464   0.857
 2709SOL     OW 9025   4.132   6.548   1.505
 2709SOL    HW1 9026   4.062   6.619   1.518
 2709SOL    HW2 9027   4.218   6.579   1.545
 2710SOL     OW 9028   6.433   4.099   2.695
 2710SOL    HW1 9029   6.343   4.131   2.665
 2710SOL    HW2 9030   6.503   4.130   2.630
 2711SOL     OW 9031   1.306   6.708   2.225
 2711SOL    HW1 9032   1.277   6.734   2.318
 2711SOL    HW2 9033   1.258   6.625   2.197
 2712SOL     OW 9034   3.572   5.153   2.825
 2712SOL    HW1 9035   3.536   5.061   2.834
 2712SOL    HW2 9036   3.496   5.217   2.812
 2713SOL     OW 9037   2.189   2.423   4.972
 2713SOL    HW1 9038   2.113   2.438   5.036
 2713SOL    HW2 9039   2.274   2.411   5.023
 2714SOL     OW 9040   5.311   0.374   5.910
 2714SOL    HW1 9041   5.296   0.333   6.000
 2714SOL    HW2 9042   5.373   0.452   5.918
 2715SOL     OW 9043   5.935   6.963   0.445
 2715SOL    HW1 9044   5.855   6.913   0.478
 2715SOL    HW2 9045   5.909   0.003   0.373
 2716SOL     OW 9046   6.853   6.602   2.595
 2716SOL    HW1 9047   6.773   6.606   2.537
 2716SOL    HW2 9048   6.933   6.638   2.546
 2717SOL     OW 9049   0.734   0.025   3.244
 2717SOL    HW1 9050   0.723   6.954   3.273
 2717SOL    HW2 9051   0.825   0.036   3.204
 2718SOL     OW 9052   0.612   4.407   3.317
 2718SOL    HW1 9053   0.549   4.336   3.285
 2718SOL    HW2 9054   0.652   4.454   3.239
 2719SOL     OW 9055   4.475   4.700   3.064
 2719SOL    HW1 9056   4.559   4.708   3.117
 2719SOL    HW2 9057   4.472   4.609   3.022
 2720SOL     OW 9058   0.807   6.134   3.867
 2720SOL    HW1 9059   0.797   6.142   3.966
 2720SOL    HW2 9060   0.719   6.109   3.826
 2721SOL     OW 9061   5.088   6.252   4.197
 2721SOL    HW1 9062   5.128   6.235   4.106
 2721SOL    HW2 9063   5.053   6.345   4.201
 2722SOL     OW 9064   1.310   6.064   1.456
 2722SOL    HW1 9065   1.297   6.054   1.358
 2722SOL    HW2 9066   1.398   6.109   1.474
 2723SOL     OW 9067   2.208   1.757   4.645
 2723SOL    HW1 9068   2.148   1.837   4.643
 2723SOL    HW2 9069   2.271   1.761   4.567
 2724SOL     OW 9070   3.391   5.972   6.812
 2724SOL    HW1 9071   3.423   6.066   6.802
 2724SOL    HW2 9072   3.292   5.971   6.822
 2725SOL     OW 9073   2.751   4.667   3.609
 2725SOL    HW1 9074   2.671   4.720   3.637
 2725SOL    HW2 9075   2.725   4.571   3.599
 2726SOL     OW 9076   4.923   6.584   2.622
 2726SOL    HW1 9077   4.923   6.528   2.704
 2726SOL    HW2 9078   4.829   6.594   2.588
 2727SOL     OW 9079   1.922   5.876   3.379
 2727SOL    HW1 9080   1.931   5.972   3.406
 2727SOL    HW2 9081   1.835   5.863   3.331
 2728SOL     OW 9082   3.728   6.566   5.234
 2728SOL    HW1 9083   3.698   6.635   5.168
 2728SOL    HW2 9084   3.827   6.573   5.248
 2729SOL     OW 9085   6.922   4.767   2.230
 2729SOL    HW1 9086   6.956   4.813   2.148
 2729SOL    HW2 9087   6.925   4.830   2.307
 2730SOL     OW 9088   1.251   4.770   1.746
 2730SOL    HW1 9089   1.192   4.689   1.741
 2730SOL    HW2 9090   1.254   4.804   1.840
 2731SOL     OW 9091   3.138   3.630   1.003
 2731SOL    HW1 9092   3.093   3.642   0.915
 2731SOL    HW2 9093   3.069   3.618   1.074
 2732SOL     OW 9094   5.372   3.098   4.176
 2732SOL    HW1 9095   5.370   3.009   4.131
 2732SOL    HW2 9096   5.363   3.086   4.275
 2733SOL     OW 9097   2.547   0.573   6.042
 2733SOL    HW1 9098   2.639   0.573   6.003
 2733SOL    HW2 9099   2.540   0.502   6.112
 2734SOL     OW 9100   2.726   0.068   3.862
 2734SOL    HW1 9101   2.691   0.146   3.810
 2734SOL    HW2 9102   2.665   0.048   3.938
 2735SOL     OW 9103   1.524   5.168   1.217
 2735SOL    HW1 9104   1.481   5.212   1.138
 2735SOL    HW2 9105   1.498   5.071   1.220
 2736SOL     OW 9106   3.333   6.848   6.319
 2736SOL    HW1 9107   3.409   6.784   6.313
 2736SOL    HW2 9108   3.357   6.932   6.270
 2737SOL     OW 9109   4.556   3.141   5.772
 2737SOL    HW1 9110   4.535   3.054   5.727
 2737SOL    HW2 9111   4.615   3.196   5.712
 2738SOL     OW 9112   5.769   4.527   4.176
 2738SOL    HW1 9113   5.787   4.610   4.228
 2738SOL    HW2 9114   5.856   4.482   4.153
 2739SOL     OW 9115   4.964   3.886   0.463
 2739SOL    HW1 9116   4.973   3.805   0.405
 2739SOL    HW2 9117   4.899   3.949   0.422
 2740SOL     OW 9118   6.307   2.277   3.391
 2740SOL    HW1 9119   6.254   2.322   3.463
 2740SOL    HW2 9120   6.249   2.212   3.342
 2741SOL     OW 9121   1.852   2.815   4.807
 2741SOL    HW1 9122   1.895   2.860   4.885
 2741SOL    HW2 9123   1.768   2.862   4.782
 2742SOL     OW 9124   3.250   6.093   5.555
 2742SOL    HW1 9125   3.206   6.009   5.522
 2742SOL    HW2 9126   3.280   6.147   5.476
 2743SOL     OW 9127   6.128   4.747   0.543
 2743SOL    HW1 9128   6.114   4.830   0.490
 2743SOL    HW2 9129   6.058   4.741   0.614
 2744SOL     OW 9130   4.100   0.461   0.528
 2744SOL    HW1 9131   4.132   0.367   0.540
 2744SOL    HW2 9132   4.143   0.520   0.597
 2745SOL     OW 9133   2.103   5.735   1.273
 2745SOL    HW1 9134   2.021   5.774   1.231
 2745SOL    HW2 9135   2.129   5.791   1.352
 2746SOL     OW 9136   1.113   2.372   6.374
 2746SOL    HW1 9137   1.151   2.364   6.281
 2746SOL    HW2 9138   1.090   2.467   6.392
 2747SOL     OW 9139   5.394   5.720   3.740
 2747SOL    HW1 9140   5.439   5.762   3.818
 2747SOL    HW2 9141   5.360   5.791   3.678
 2748SOL     OW 9142   4.485   0.783   4.575
 2748SOL    HW1 9143   4.502   0.731   4.491
 2748SOL    HW2 9144   4.478   0.880   4.552
 2749SOL     OW 9145   5.111   4.302   3.549
 2749SOL    HW1 9146   5.027   4.258   3.580
 2749SOL    HW2 9147   5.118   4.393   3.589
 2750SOL     OW 9148   0.582   6.701   0.615
 2750SOL    HW1 9149   0.635   6.636   0.668
 2750SOL    HW2 9150   0.567   6.665   0.523
 2751SOL     OW 9151   1.956   0.147   6.993
 2751SOL    HW1 9152   1.942   0.245   6.975
 2751SOL    HW2 9153   1.913   0.123   0.056
 2752SOL     OW 9154   6.666   6.659   5.550
 2752SOL    HW1 9155   6.654   6.682   5.454
 2752SOL    HW2 9156   6.744   6.596   5.560
 2753SOL     OW 9157   3.525   5.167   5.416
 2753SOL    HW1 9158   3.601   5.113   5.453
 2753SOL    HW2 9159   3.557   5.260   5.397
 2754SOL     OW 9160   0.943   5.893   3.878
 2754SOL    HW1 9161   0.884   5.853   3.947
 2754SOL    HW2 9162   0.931   5.993   3.878
 2755SOL     OW 9163   4.262   5.769   2.605
 2755SOL    HW1 9164   4.266   5.857   2.557
 2755SOL    HW2 9165   4.264   5.785   2.703
 2756SOL     OW 9166   0.549   2.968   5.406
 2756SOL    HW1 9167   0.484   3.029   5.361
 2756SOL    HW2 9168   0.586   3.012   5.488
 2757SOL     OW 9169   4.553   3.694   6.746
 2757SOL    HW1 9170   4.646   3.706   6.711
 2757SOL    HW2 9171   4.557   3.660   6.840
 2758SOL     OW 9172   6.937   6.616   2.058
 2758SOL    HW1 9173   6.941   6.714   2.036
 2758SOL    HW2 9174   6.981   6.600   2.146
 2759SOL     OW 9175   3.098   3.371   5.390
 2759SOL    HW1 9176   3.123   3.412   5.478
 2759SOL    HW2 9177   3.112   3.437   5.317
 2760SOL     OW 9178   5.903   5.653   2.271
 2760SOL    HW1 9179   5.936   5.745   2.250
 2760SOL    HW2 9180   5.847   5.655   2.353
 2761SOL     OW 9181   1.703   3.287   3.369
 2761SOL    HW1 9182   1.701   3.383   3.342
 2761SOL    HW2 9183   1.756   3.277   3.453
 2762SOL     OW 9184   3.519   1.513   0.860
 2762SOL    HW1 9185   3.494   1.437   0.800
 2762SOL    HW2 9186   3.592   1.484   0.922
 2763SOL     OW 9187   6.123   1.451   3.769
 2763SOL    HW1 9188   6.150   1.443   3.865
 2763SOL    HW2 9189   6.025   1.469   3.764
 2764SOL     OW 9190   0.291   2.834   3.191
 2764SOL    HW1 9191   0.383   2.869   3.208
 2764SOL    HW2 9192   0.290   2.783   3.105
 2765SOL     OW 9193   6.221   6.325   5.848
 2765SOL    HW1 9194   6.234   6.421   5.823
 2765SOL    HW2 9195   6.311   6.282   5.860
 2766SOL     OW 9196   4.528   0.342   0.325
 2766SOL    HW1 9197   4.482   0.264   0.283
 2766SOL    HW2 9198   4.599   0.376   0.264
 2767SOL     OW 9199   0.593   5.296   6.492
 2767SOL    HW1 9200   0.632   5.213   6.451
 2767SOL    HW2 9201   0.528   5.269   6.563
 2768SOL     OW 9202   3.607   6.582   1.360
 2768SOL    HW1 9203   3.635   6.628   1.276
 2768SOL    HW2 9204   3.507   6.576   1.363
 2769SOL     OW 9205   0.549   4.503   5.444
 2769SOL    HW1 9206   0.532   4.578   5.380
 2769SOL    HW2 9207   0.486   4.510   5.521
 2770SOL     OW 9208   2.083   0.382   1.019
 2770SOL    HW1 9209   2.045   0.292   1.001
 2770SOL    HW2 9210   2.028   0.452   0.973
 2771SOL     OW 9211   4.550   6.825   5.581
 2771SOL    HW1 9212   4.574   6.758   5.510
 2771SOL    HW2 9213   4.633   6.873   5.610
 2772SOL     OW 9214   5.000   1.317   3.202
 2772SOL    HW1 9215   5.065   1.346   3.273
 2772SOL    HW2 9216   5.040   1.335   3.112
 2773SOL     OW 9217   6.170   2.635   5.577
 2773SOL    HW1 9218   6.221   2.634   5.664
 2773SOL    HW2 9219   6.137   2.727   5.559
 2774SOL     OW 9220   6.194   0.458   4.073
 2774SOL    HW1 9221   6.098   0.441   4.096
 2774SOL    HW2 9222   6.252   0.403   4.133
 2775SOL     OW 9223   0.117   2.886   4.794
 2775SOL    HW1 9224   0.106   2.953   4.721
 2775SOL    HW2 9225   0.042   2.896   4.860
 2776SOL     OW 9226   5.007   4.563   6.252
 2776SOL    HW1 9227   4.999   4.660   6.275
 2776SOL    HW2 9228   5.060   4.554   6.167
 2777SOL     OW 9229   1.893   2.252   6.555
 2777SOL    HW1 9230   1.865   2.276   6.462
 2777SOL    HW2 9231   1.813   2.226   6.609
 2778SOL     OW 9232   3.087   0.334   6.191
 2778SOL    HW1 9233   3.186   0.342   6.195
 2778SOL    HW2 9234   3.060   0.238   6.202
 2779SOL     OW 9235   5.073   1.389   1.797
 2779SOL    HW1 9236   5.123   1.373   1.882
 2779SOL    HW2 9237   5.032   1.480   1.799
 2780SOL     OW 9238   0.035   1.149   5.141
 2780SOL    HW1 9239   0.013   1.246   5.147
 2780SOL    HW2 9240   0.129   1.138   5.110
 2781SOL     OW 9241   6.838   0.411   3.302
 2781SOL    HW1 9242   6.918   0.470   3.292
 2781SOL    HW2 9243   6.814   0.403   3.399
 2782SOL     OW 9244   5.380   0.590   5.553
 2782SOL    HW1 9245   5.336   0.507   5.586
 2782SOL    HW2 9246   5.409   0.646   5.631
 2783SOL     OW 9247   5.727   2.796   1.634
 2783SOL    HW1 9248   5.669   2.870   1.670
 2783SOL    HW2 9249   5.785   2.761   1.707
 2784SOL     OW 9250   0.283   3.075   1.572
 2784SOL    HW1 9251   0.363   3.072   1.511
 2784SOL    HW2 9252   0.202   3.046   1.521
 2785SOL     OW 9253   5.413   3.606   2.758
 2785SOL    HW1 9254   5.395   3.577   2.664
 2785SOL    HW2 9255   5.338   3.663   2.790
 2786SOL     OW 9256   0.983   6.210   0.807
 2786SOL    HW1 9257   0.966   6.126   0.755
 2786SOL    HW2 9258   1.048   6.267   0.757
 2787SOL     OW 9259   0.829   5.797   6.566
 2787SOL    HW1 9260   0.734   5.814   6.541
 2787SOL    HW2 9261   0.888   5.815   6.486
 2788SOL     OW 9262   2.577   6.492   0.051
 2788SOL    HW1 9263   2.597   6.590   0.055
 2788SOL    HW2 9264   2.591   6.452   0.142
 2789SOL     OW 9265   1.804   2.003   4.248
 2789SOL    HW1 9266   1.734   2.061   4.290
 2789SOL    HW2 9267   1.779   1.983   4.154
 2790SOL     OW 9268   0.219   5.488   1.578
 2790SOL    HW1 9269   0.283   5.558   1.610
 2790SOL    HW2 9270   0.155   5.530   1.514
 2791SOL     OW 9271   0.591   3.371   4.820
 2791SOL    HW1 9272   0.675   3.329   4.853
 2791SOL    HW2 9273   0.614   3.443   4.754
 2792SOL     OW 9274   2.965   1.620   6.410
 2792SOL    HW1 9275   2.992   1.645   6.317
 2792SOL    HW2 9276   3.031   1.556   6.448
 2793SOL     OW 9277   3.534   3.792   6.843
 2793SOL    HW1 9278   3.484   3.748   6.918
 2793SOL    HW2 9279   3.584   3.722   6.792
 2794SOL     OW 9280   1.828   1.959   0.050
 2794SOL    HW1 9281   1.839   1.948   6.976
 2794SOL    HW2 9282   1.907   1.919   0.097
 2795SOL     OW 9283   1.153   6.469   1.120
 2795SOL    HW1 9284   1.101   6.520   1.052
 2795SOL    HW2 9285   1.248   6.500   1.120
 2796SOL     OW 9286   1.982   5.879   6.602
 2796SOL    HW1 9287   2.040   5.847   6.677
 2796SOL    HW2 9288   1.984   5.813   6.527
 2797SOL     OW 9289   4.746   4.335   4.121
 2797SOL    HW1 9290   4.840   4.304   4.111
 2797SOL    HW2 9291   4.721   4.337   4.217
 2798SOL     OW 9292   5.324   1.736   1.682
 2798SOL    HW1 9293   5.331   1.705   1.777
 2798SOL    HW2 9294   5.391   1.687   1.627
 2799SOL     OW 9295   3.696   6.413   5.035
 2799SOL    HW1 9296   3.713   6.450   5.126
 2799SOL    HW2 9297   3.659   6.486   4.977
 2800SOL     OW 9298   4.556   0.901   6.464
 2800SOL    HW1 9299   4.624   0.974   6.468
 2800SOL    HW2 9300   4.601   0.813   6.481
 2801SOL     OW 9301   0.234   4.460   3.772
 2801SOL    HW1 9302   0.287   4.377   3.788
 2801SOL    HW2 9303   0.147   4.437   3.729
 2802SOL     OW 9304   1.483   5.091   4.711
 2802SOL    HW1 9305   1.464   5.072   4.615
 2802SOL    HW2 9306   1.418   5.159   4.745
 2803SOL     OW 9307   3.633   2.104   6.924
 2803SOL    HW1 9308   3.725   2.140   6.936
 2803SOL    HW2 9309   3.580   2.165   6.865
 2804SOL     OW 9310   6.449   2.456   3.700
 2804SOL    HW1 9311   6.450   2.405   3.787
 2804SOL    HW2 9312   6.539   2.448   3.657
 2805SOL     OW 9313   3.848   4.565   0.435
 2805SOL    HW1 9314   3.842   4.659   0.470
 2805SOL    HW2 9315   3.834   4.501   0.510
 2806SOL     OW 9316   0.158   3.397   5.429
 2806SOL    HW1 9317   0.084   3.461   5.448
 2806SOL    HW2 9318   0.191   3.411   5.336
 2807SOL     OW 9319   4.767   1.308   4.047
 2807SOL    HW1 9320   4.686   1.280   4.099
 2807SOL    HW2 9321   4.761   1.273   3.954
 2808SOL     OW 9322   1.252   5.835   5.682
 2808SOL    HW1 9323   1.266   5.933   5.668
 2808SOL    HW2 9324   1.186   5.820   5.756
 2809SOL     OW 9325   0.732   5.834   1.221
 2809SOL    HW1 9326   0.718   5.927   1.188
 2809SOL    HW2 9327   0.716   5.769   1.147
 2810SOL     OW 9328   1.002   6.114   2.895
 2810SOL    HW1 9329   1.056   6.100   2.812
 2810SOL    HW2 9330   1.026   6.202   2.936
 2811SOL     OW 9331   0.845   1.084   0.721
 2811SOL    HW1 9332   0.898   1.102   0.639
 2811SOL    HW2 9333   0.754   1.053   0.696
 2812SOL     OW 9334   1.573   1.521   0.972
 2812SOL    HW1 9335   1.500   1.532   1.039
 2812SOL    HW2 9336   1.592   1.608   0.927
 2813SOL     OW 9337   0.281   2.676   1.187
 2813SOL    HW1 9338   0.363   2.729   1.165
 2813SOL    HW2 9339   0.273   2.668   1.287
 2814SOL     OW 9340   2.470   4.367   6.929
 2814SOL    HW1 9341   2.451   4.311   7.009
 2814SOL    HW2 9342   2.565   4.396   6.930
 2815SOL     OW 9343   0.053   5.393   4.196
 2815SOL    HW1 9344   0.027   5.305   4.237
 2815SOL    HW2 9345   0.129   5.379   4.133
 2816SOL     OW 9346   1.095   4.908   4.910
 2816SOL    HW1 9347   1.178   4.890   4.962
 2816SOL    HW2 9348   1.085   4.839   4.838
 2817SOL     OW 9349   2.801   1.093   2.436
 2817SOL    HW1 9350   2.713   1.100   2.482
 2817SOL    HW2 9351   2.846   1.182   2.434
 2818SOL     OW 9352   1.494   0.793   0.285
 2818SOL    HW1 9353   1.431   0.719   0.261
 2818SOL    HW2 9354   1.583   0.755   0.311
 2819SOL     OW 9355   0.662   0.399   6.595
 2819SOL    HW1 9356   0.701   0.484   6.630
 2819SOL    HW2 9357   0.568   0.415   6.564
 2820SOL     OW 9358   2.249   1.820   6.874
 2820SOL    HW1 9359   2.329   1.762   6.893
 2820SOL    HW2 9360   2.195   1.778   6.801
 2821SOL     OW 9361   3.156   2.884   6.149
 2821SOL    HW1 9362   3.219   2.877   6.226
 2821SOL    HW2 9363   3.103   2.800   6.141
 2822SOL     OW 9364   4.260   3.039   0.399
 2822SOL    HW1 9365   4.250   3.107   0.472
 2822SOL    HW2 9366   4.170   3.009   0.368
 2823SOL     OW 9367   5.406   3.702   1.701
 2823SOL    HW1 9368   5.339   3.675   1.770
 2823SOL    HW2 9369   5.491   3.651   1.715
 2824SOL     OW 9370   0.601   4.060   5.613
 2824SOL    HW1 9371   0.569   4.114   5.535
 2824SOL    HW2 9372   0.544   3.978   5.622
 2825SOL     OW 9373   5.262   2.134   5.672
 2825SOL    HW1 9374   5.313   2.216   5.697
 2825SOL    HW2 9375   5.166   2.159   5.655
 2826SOL     OW 9376   2.756   3.574   0.038
 2826SOL    HW1 9377   2.733   3.484   0.076
 2826SOL    HW2 9378   2.824   3.564   6.990
 2827SOL     OW 9379   5.801   1.898   6.779
 2827SOL    HW1 9380   5.871   1.961   6.814
 2827SOL    HW2 9381   5.844   1.831   6.718
 2828SOL     OW 9382   1.311   4.137   0.761
 2828SOL    HW1 9383   1.411   4.133   0.756
 2828SOL    HW2 9384   1.284   4.221   0.808
 2829SOL     OW 9385   3.503   3.443   1.881
 2829SOL    HW1 9386   3.581   3.505   1.893
 2829SOL    HW2 9387   3.536   3.349   1.876
 2830SOL     OW 9388   3.456   6.002   4.681
 2830SOL    HW1 9389   3.441   6.082   4.623
 2830SOL    HW2 9390   3.548   5.967   4.665
 2831SOL     OW 9391   6.905   1.811   2.155
 2831SOL    HW1 9392   6.808   1.788   2.143
 2831SOL    HW2 9393   6.961   1.749   2.099
 2832SOL     OW 9394   0.948   3.268   2.174
 2832SOL    HW1 9395   0.891   3.299   2.250
 2832SOL    HW2 9396   0.983   3.347   2.125
 2833SOL     OW 9397   6.688   2.618   2.753
 2833SOL    HW1 9398   6.763   2.578   2.700
 2833SOL    HW2 9399   6.609   2.556   2.751
 2834SOL     OW 9400   3.880   0.227   4.610
 2834SOL    HW1 9401   3.856   0.249   4.705
 2834SOL    HW2 9402   3.962   0.278   4.583
 2835SOL     OW 9403   6.852   1.075   6.846
 2835SOL    HW1 9404   6.852   1.002   6.778
 2835SOL    HW2 9405   6.935   1.070   6.901
 2836SOL     OW 9406   2.878   5.423   2.733
 2836SOL    HW1 9407   2.787   5.458   2.754
 2836SOL    HW2 9408   2.944   5.460   2.799
 2837SOL     OW 9409   5.135   4.124   2.073
 2837SOL    HW1 9410   5.099   4.159   2.160
 2837SOL    HW2 9411   5.235   4.124   2.076
 2838SOL     OW 9412   6.978   3.711   6.079
 2838SOL    HW1 9413   0.016   3.639   6.111
 2838SOL    HW2 9414   6.945   3.688   5.987
 2839SOL     OW 9415   6.193   2.809   6.021
 2839SOL    HW1 9416   6.239   2.888   5.981
 2839SOL    HW2 9417   6.097   2.831   6.037
 2840SOL     OW 9418   5.893   6.059   4.687
 2840SOL    HW1 9419   5.815   6.061   4.749
 2840SOL    HW2 9420   5.916   6.153   4.660
 2841SOL     OW 9421   5.342   3.576   2.207
 2841SOL    HW1 9422   5.256   3.568   2.156
 2841SOL    HW2 9423   5.418   3.586   2.143
 2842SOL     OW 9424   0.703   6.775   3.318
 2842SOL    HW1 9425   0.711   6.736   3.409
 2842SOL    HW2 9426   0.762   6.725   3.254
 2843SOL     OW 9427   2.405   2.603   4.200
 2843SOL    HW1 9428   2.419   2.514   4.243
 2843SOL    HW2 9429   2.460   2.608   4.116
 2844SOL     OW 9430   5.444   3.721   0.684
 2844SOL    HW1 9431   5.540   3.710   0.660
 2844SOL    HW2 9432   5.437   3.745   0.781
 2845SOL     OW 9433   3.098   1.991   1.650
 2845SOL    HW1 9434   3.015   2.020   1.601
 2845SOL    HW2 9435   3.116   2.056   1.724
 2846SOL     OW 9436   5.678   6.999   6.585
 2846SOL    HW1 9437   5.599   6.988   6.525
 2846SOL    HW2 9438   5.647   7.001   6.680
 2847SOL     OW 9439   4.990   4.851   0.992
 2847SOL    HW1 9440   5.024   4.779   1.053
 2847SOL    HW2 9441   5.032   4.938   1.017
 2848SOL     OW 9442   0.637   3.962   6.592
 2848SOL    HW1 9443   0.570   3.990   6.662
 2848SOL    HW2 9444   0.634   4.026   6.516
 2849SOL     OW 9445   5.152   0.638   1.738
 2849SOL    HW1 9446   5.186   0.667   1.827
 2849SOL    HW2 9447   5.054   0.655   1.733
 2850SOL     OW 9448   0.673   0.476   1.725
 2850SOL    HW1 9449   0.681   0.411   1.650
 2850SOL    HW2 9450   0.751   0.539   1.723
 2851SOL     OW 9451   3.601   2.926   1.639
 2851SOL    HW1 9452   3.554   2.840   1.622
 2851SOL    HW2 9453   3.628   2.932   1.735
 2852SOL     OW 9454   0.372   5.433   5.494
 2852SOL    HW1 9455   0.436   5.428   5.571
 2852SOL    HW2 9456   0.307   5.357   5.501
 2853SOL     OW 9457   0.345   4.183   5.161
 2853SOL    HW1 9458   0.389   4.220   5.078
 2853SOL    HW2 9459   0.255   4.226   5.172
 2854SOL     OW 9460   2.830   0.445   6.196
 2854SOL    HW1 9461   2.798   0.463   6.103
 2854SOL    HW2 9462   2.926   0.418   6.195
 2855SOL     OW 9463   2.106   1.432   4.112
 2855SOL    HW1 9464   2.093   1.530   4.129
 2855SOL    HW2 9465   2.191   1.419   4.061
 2856SOL     OW 9466   0.799   5.264   4.433
 2856SOL    HW1 9467   0.855   5.340   4.398
 2856SOL    HW2 9468   0.707   5.298   4.454
 2857SOL     OW 9469   6.502   4.178   1.084
 2857SOL    HW1 9470   6.483   4.094   1.034
 2857SOL    HW2 9471   6.601   4.194   1.085
 2858SOL     OW 9472   5.894   4.641   3.277
 2858SOL    HW1 9473   5.970   4.658   3.340
 2858SOL    HW2 9474   5.827   4.583   3.322
 2859SOL     OW 9475   6.199   5.025   1.249
 2859SOL    HW1 9476   6.206   5.124   1.237
 2859SOL    HW2 9477   6.262   4.997   1.322
 2860SOL     OW 9478   1.205   0.107   3.246
 2860SOL    HW1 9479   1.158   0.041   3.304
 2860SOL    HW2 9480   1.304   0.095   3.255
 2861SOL     OW 9481   5.107   4.220   5.805
 2861SOL    HW1 9482   5.061   4.171   5.731
 2861SOL    HW2 9483   5.204   4.194   5.806
 2862SOL     OW 9484   4.361   0.821   0.549
 2862SOL    HW1 9485   4.444   0.878   0.548
 2862SOL    HW2 9486   4.375   0.741   0.491
 2863SOL     OW 9487   6.002   2.437   5.516
 2863SOL    HW1 9488   6.052   2.519   5.547
 2863SOL    HW2 9489   6.062   2.381   5.460
 2864SOL     OW 9490   4.233   4.265   1.066
 2864SOL    HW1 9491   4.238   4.167   1.043
 2864SOL    HW2 9492   4.152   4.305   1.024
 2865SOL     OW 9493   5.625   5.204   5.473
 2865SOL    HW1 9494   5.708   5.245   5.437
 2865SOL    HW2 9495   5.572   5.273   5.522
 2866SOL     OW 9496   3.229   4.417   0.982
 2866SOL    HW1 9497   3.208   4.426   1.079
 2866SOL    HW2 9498   3.268   4.502   0.947
 2867SOL     OW 9499   6.661   6.227   2.732
 2867SOL    HW1 9500   6.568   6.264   2.744
 2867SOL    HW2 9501   6.678   6.212   2.634
 2868SOL     OW 9502   0.248   0.029   5.365
 2868SOL    HW1 9503   0.310   6.975   5.362
 2868SOL    HW2 9504   0.215   0.048   5.273
 2869SOL     OW 9505   6.019   4.738   4.598
 2869SOL    HW1 9506   6.060   4.653   4.565
 2869SOL    HW2 9507   5.947   4.716   4.664
 2870SOL     OW 9508   0.868   0.657   1.652
 2870SOL    HW1 9509   0.866   0.632   1.555
 2870SOL    HW2 9510   0.827   0.748   1.663
 2871SOL     OW 9511   4.722   1.623   3.499
 2871SOL    HW1 9512   4.663   1.557   3.452
 2871SOL    HW2 9513   4.806   1.636   3.446
 2872SOL     OW 9514   2.669   2.125   2.665
 2872SOL    HW1 9515   2.643   2.047   2.609
 2872SOL    HW2 9516   2.590   2.184   2.680
 2873SOL     OW 9517   1.187   0.441   2.313
 2873SOL    HW1 9518   1.234   0.421   2.227
 2873SOL    HW2 9519   1.088   0.434   2.299
 2874SOL     OW 9520   2.301   1.278   3.604
 2874SOL    HW1 9521   2.298   1.324   3.516
 2874SOL    HW2 9522   2.209   1.250   3.631
 2875SOL     OW 9523   2.454   6.986   3.421
 2875SOL    HW1 9524   2.414   0.047   3.388
 2875SOL    HW2 9525   2.476   6.994   3.518
 2876SOL     OW 9526   1.024   6.121   1.097
 2876SOL    HW1 9527   1.012   6.152   1.002
 2876SOL    HW2 9528   1.071   6.192   1.149
 2877SOL     OW 9529   1.937   2.984   4.999
 2877SOL    HW1 9530   2.016   3.011   4.943
 2877SOL    HW2 9531   1.959   2.997   5.096
 2878SOL     OW 9532   3.905   3.013   4.804
 2878SOL    HW1 9533   3.976   2.966   4.858
 2878SOL    HW2 9534   3.914   3.112   4.817
 2879SOL     OW 9535   5.082   5.132   0.138
 2879SOL    HW1 9536   5.023   5.204   0.101
 2879SOL    HW2 9537   5.160   5.119   0.076
 2880SOL     OW 9538   1.639   1.735   3.435
 2880SOL    HW1 9539   1.590   1.795   3.372
 2880SOL    HW2 9540   1.586   1.650   3.447
 2881SOL     OW 9541   5.474   5.146   0.920
 2881SOL    HW1 9542   5.455   5.227   0.865
 2881SOL    HW2 9543   5.528   5.081   0.867
 2882SOL     OW 9544   4.442   6.429   7.021
 2882SOL    HW1 9545   4.463   6.517   6.980
 2882SOL    HW2 9546   4.423   6.441   0.094
 2883SOL     OW 9547   5.636   6.251   3.559
 2883SOL    HW1 9548   5.678   6.320   3.619
 2883SOL    HW2 9549   5.547   6.226   3.596
 2884SOL     OW 9550   6.180   5.490   3.728
 2884SOL    HW1 9551   6.267   5.517   3.772
 2884SOL    HW2 9552   6.109   5.481   3.798
 2885SOL     OW 9553   0.709   2.941   3.996
 2885SOL    HW1 9554   0.681   2.899   3.910
 2885SOL    HW2 9555   0.807   2.960   3.993
 2886SOL     OW 9556   2.612   4.635   4.811
 2886SOL    HW1 9557   2.683   4.628   4.881
 2886SOL    HW2 9558   2.654   4.645   4.721
 2887SOL     OW 9559   6.780   5.661   2.840
 2887SOL    HW1 9560   6.843   5.591   2.807
 2887SOL    HW2 9561   6.777   5.737   2.775
 2888SOL     OW 9562   5.382   6.855   6.846
 2888SOL    HW1 9563   5.473   6.885   6.874
 2888SOL    HW2 9564   5.330   6.828   6.926
 2889SOL     OW 9565   4.612   6.469   4.640
 2889SOL    HW1 9566   4.647   6.548   4.691
 2889SOL    HW2 9567   4.513   6.479   4.626
 2890SOL     OW 9568   1.310   2.750   0.524
 2890SOL    HW1 9569   1.249   2.688   0.476
 2890SOL    HW2 9570   1.257   2.820   0.572
 2891SOL     OW 9571   0.893   1.447   5.561
 2891SOL    HW1 9572   0.841   1.452   5.476
 2891SOL    HW2 9573   0.984   1.408   5.543
 2892SOL     OW 9574   5.499   4.422   1.916
 2892SOL    HW1 9575   5.453   4.347   1.869
 2892SOL    HW2 9576   5.570   4.385   1.977
 2893SOL     OW 9577   6.577   5.453   4.792
 2893SOL    HW1 9578   6.479   5.441   4.777
 2893SOL    HW2 9579   6.592   5.486   4.885
 2894SOL     OW 9580   1.522   5.524   0.674
 2894SOL    HW1 9581   1.595   5.537   0.608
 2894SOL    HW2 9582   1.462   5.450   0.644
 2895SOL     OW 9583   4.544   6.989   6.348
 2895SOL    HW1 9584   4.569   7.006   6.253
 2895SOL    HW2 9585   4.614   6.932   6.391
 2896SOL     OW 9586   6.344   0.519   5.261
 2896SOL    HW1 9587   6.323   0.566   5.346
 2896SOL    HW2 9588   6.275   0.448   5.244
 2897SOL     OW 9589   3.489   5.274   3.339
 2897SOL    HW1 9590   3.503   5.249   3.435
 2897SOL    HW2 9591   3.396   5.248   3.312
 2898SOL     OW 9592   5.330   2.617   3.175
 2898SOL    HW1 9593   5.277   2.583   3.097
 2898SOL    HW2 9594   5.282   2.593   3.260
 2899SOL     OW 9595   6.269   3.239   0.656
 2899SOL    HW1 9596   6.236   3.146   0.669
 2899SOL    HW2 9597   6.359   3.250   0.699
 2900SOL     OW 9598   2.499   2.543   5.958
 2900SOL    HW1 9599   2.487   2.640   5.940
 2900SOL    HW2 9600   2.569   2.506   5.897
 2901SOL     OW 9601   1.098   3.870   2.344
 2901SOL    HW1 9602   1.194   3.847   2.325
 2901SOL    HW2 9603   1.073   3.840   2.436
 2902SOL     OW 9604   6.031   5.688   3.585
 2902SOL    HW1 9605   6.037   5.756   3.658
 2902SOL    HW2 9606   6.088   5.609   3.609
 2903SOL     OW 9607   6.819   5.010   0.347
 2903SOL    HW1 9608   6.911   5.021   0.385
 2903SOL    HW2 9609   6.824   5.008   0.247
 2904SOL     OW 9610   2.839   4.870   4.805
 2904SOL    HW1 9611   2.939   4.868   4.810
 2904SOL    HW2 9612   2.801   4.807   4.874
 2905SOL     OW 9613   1.181   5.259   1.122
 2905SOL    HW1 9614   1.260   5.261   1.062
 2905SOL    HW2 9615   1.192   5.187   1.190
 2906SOL     OW 9616   0.116   5.916   6.144
 2906SOL    HW1 9617   0.045   5.851   6.172
 2906SOL    HW2 9618   0.094   6.007   6.179
 2907SOL     OW 9619   0.328   0.676   5.652
 2907SOL    HW1 9620   0.265   0.636   5.585
 2907SOL    HW2 9621   0.403   0.722   5.604
 2908SOL     OW 9622   4.500   6.896   3.911
 2908SOL    HW1 9623   4.592   6.922   3.881
 2908SOL    HW2 9624   4.442   6.882   3.831
 2909SOL     OW 9625   0.001   0.130   1.869
 2909SOL    HW1 9626   0.063   0.109   1.793
 2909SOL    HW2 9627   0.034   0.212   1.916
 2910SOL     OW 9628   1.179   0.843   4.615
 2910SOL    HW1 9629   1.236   0.791   4.551
 2910SOL    HW2 9630   1.205   0.940   4.611
 2911SOL     OW 9631   0.455   3.773   5.630
 2911SOL    HW1 9632   0.427   3.805   5.540
 2911SOL    HW2 9633   0.513   3.692   5.621
 2912SOL     OW 9634   1.018   1.493   2.173
 2912SOL    HW1 9635   1.116   1.513   2.166
 2912SOL    HW2 9636   0.994   1.478   2.269
 2913SOL     OW 9637   1.050   6.818   2.940
 2913SOL    HW1 9638   1.047   6.741   2.875
 2913SOL    HW2 9639   1.109   6.890   2.903
 2914SOL     OW 9640   3.832   4.769   1.276
 2914SOL    HW1 9641   3.777   4.727   1.348
 2914SOL    HW2 9642   3.840   4.706   1.199
 2915SOL     OW 9643   2.395   0.650   3.981
 2915SOL    HW1 9644   2.364   0.634   4.075
 2915SOL    HW2 9645   2.321   0.694   3.929
 2916SOL     OW 9646   0.933   5.256   0.025
 2916SOL    HW1 9647   0.863   5.290   0.088
 2916SOL    HW2 9648   0.931   5.311   6.965
 2917SOL     OW 9649   2.617   0.167   3.027
 2917SOL    HW1 9650   2.632   0.246   3.085
 2917SOL    HW2 9651   2.523   0.135   3.038
 2918SOL     OW 9652   5.060   2.554   1.336
 2918SOL    HW1 9653   5.002   2.474   1.348
 2918SOL    HW2 9654   5.095   2.583   1.425
 2919SOL     OW 9655   0.392   6.033   5.018
 2919SOL    HW1 9656   0.338   6.018   4.936
 2919SOL    HW2 9657   0.481   6.070   4.993
 2920SOL     OW 9658   2.887   2.068   1.524
 2920SOL    HW1 9659   2.852   2.142   1.582
 2920SOL    HW2 9660   2.867   2.088   1.428
 2921SOL     OW 9661   1.081   6.466   3.570
 2921SOL    HW1 9662   1.059   6.521   3.651
 2921SOL    HW2 9663   1.150   6.513   3.516
 2922SOL     OW 9664   4.099   4.940   3.924
 2922SOL    HW1 9665   4.016   4.911   3.878
 2922SOL    HW2 9666   4.099   5.040   3.932
 2923SOL     OW 9667   0.949   5.496   4.312
 2923SOL    HW1 9668   0.998   5.432   4.252
 2923SOL    HW2 9669   1.010   5.573   4.334
 2924SOL     OW 9670   5.284   1.687   6.309
 2924SOL    HW1 9671   5.313   1.734   6.225
 2924SOL    HW2 9672   5.357   1.691   6.376
 2925SOL     OW 9673   5.401   6.761   4.623
 2925SOL    HW1 9674   5.494   6.726   4.626
 2925SOL    HW2 9675   5.361   6.759   4.715
 2926SOL     OW 9676   0.020   2.476   4.697
 2926SOL    HW1 9677   6.969   2.510   4.754
 2926SOL    HW2 9678   0.099   2.538   4.706
 2927SOL     OW 9679   1.570   1.671   2.292
 2927SOL    HW1 9680   1.479   1.629   2.294
 2927SOL    HW2 9681   1.615   1.657   2.380
 2928SOL     OW 9682   5.501   2.837   0.160
 2928SOL    HW1 9683   5.507   2.779   0.079
 2928SOL    HW2 9684   5.405   2.861   0.176
 2929SOL     OW 9685   2.690   1.659   3.197
 2929SOL    HW1 9686   2.605   1.686   3.240
 2929SOL    HW2 9687   2.760   1.644   3.268
 2930SOL     OW 9688   0.174   3.651   4.119
 2930SOL    HW1 9689   0.096   3.702   4.154
 2930SOL    HW2 9690   0.250   3.658   4.183
 2931SOL     OW 9691   5.792   4.808   5.777
 2931SOL    HW1 9692   5.759   4.837   5.867
 2931SOL    HW2 9693   5.751   4.866   5.706
 2932SOL     OW 9694   6.445   5.285   1.291
 2932SOL    HW1 9695   6.451   5.277   1.391
 2932SOL    HW2 9696   6.524   5.334   1.256
 2933SOL     OW 9697   1.301   0.083   0.247
 2933SOL    HW1 9698   1.356   0.042   0.174
 2933SOL    HW2 9699   1.336   0.175   0.266
 2934SOL     OW 9700   5.044   5.252   1.851
 2934SOL    HW1 9701   5.048   5.346   1.818
 2934SOL    HW2 9702   4.972   5.244   1.920
 2935SOL     OW 9703   0.908   3.135   5.705
 2935SOL    HW1 9704   0.958   3.055   5.738
 2935SOL    HW2 9705   0.972   3.197   5.658
 2936SOL     OW 9706   4.504   7.017   2.207
 2936SOL    HW1 9707   4.509   7.008   2.306
 2936SOL    HW2 9708   4.593   0.020   2.171
 2937SOL     OW 9709   6.034   3.550   3.105
 2937SOL    HW1 9710   6.091   3.508   3.034
 2937SOL    HW2 9711   5.962   3.604   3.061
 2938SOL     OW 9712   0.450   5.109   0.153
 2938SOL    HW1 9713   0.476   5.033   0.094
 2938SOL    HW2 9714   0.404   5.074   0.235
 2939SOL     OW 9715   6.791   6.142   1.571
 2939SOL    HW1 9716   6.746   6.093   1.496
 2939SOL    HW2 9717   6.884   6.106   1.583
 2940SOL     OW 9718   4.428   6.213   4.306
 2940SOL    HW1 9719   4.432   6.291   4.245
 2940SOL    HW2 9720   4.490   6.141   4.274
 2941SOL     OW 9721   2.692   4.975   3.037
 2941SOL    HW1 9722   2.648   5.064   3.042
 2941SOL    HW2 9723   2.636   4.907   3.086
 2942SOL     OW 9724   3.444   2.162   1.773
 2942SOL    HW1 9725   3.528   2.192   1.818
 2942SOL    HW2 9726   3.431   2.215   1.689
 2943SOL     OW 9727   6.285   3.454   3.786
 2943SOL    HW1 9728   6.313   3.396   3.710
 2943SOL    HW2 9729   6.334   3.427   3.869
 2944SOL     OW 9730   1.675   6.351   2.845
 2944SOL    HW1 9731   1.590   6.403   2.855
 2944SOL    HW2 9732   1.746   6.393   2.901
 2945SOL     OW 9733   5.827   3.681   1.515
 2945SOL    HW1 9734   5.768   3.610   1.476
 2945SOL    HW2 9735   5.777   3.767   1.518
 2946SOL     OW 9736   3.567   2.878   4.540
 2946SOL    HW1 9737   3.487   2.924   4.580
 2946SOL    HW2 9738   3.600   2.807   4.602
 2947SOL     OW 9739   6.560   4.980   0.658
 2947SOL    HW1 9740   6.609   4.907   0.705
 2947SOL    HW2 9741   6.583   5.068   0.700
 2948SOL     OW 9742   6.653   4.247   1.611
 2948SOL    HW1 9743   6.559   4.234   1.642
 2948SOL    HW2 9744   6.670   4.187   1.532
 2949SOL     OW 9745   1.436   6.612   0.609
 2949SOL    HW1 9746   1.413   6.549   0.535
 2949SOL    HW2 9747   1.352   6.651   0.646
 2950SOL     OW 9748   6.063   5.854   2.605
 2950SOL    HW1 9749   6.091   5.881   2.513
 2950SOL    HW2 9750   6.110   5.910   2.672
 2951SOL     OW 9751   0.743   2.473   1.399
 2951SOL    HW1 9752   0.717   2.521   1.315
 2951SOL    HW2 9753   0.797   2.392   1.376
 2952SOL     OW 9754   0.091   1.777   4.620
 2952SOL    HW1 9755   0.168   1.781   4.556
 2952SOL    HW2 9756   0.033   1.857   4.607
 2953SOL     OW 9757   1.866   6.153   3.320
 2953SOL    HW1 9758   1.860   6.133   3.223
 2953SOL    HW2 9759   1.818   6.239   3.339
 2954SOL     OW 9760   0.455   4.433   6.255
 2954SOL    HW1 9761   0.439   4.336   6.275
 2954SOL    HW2 9762   0.553   4.448   6.242
 2955SOL     OW 9763   1.783   4.714   6.254
 2955SOL    HW1 9764   1.803   4.635   6.197
 2955SOL    HW2 9765   1.866   4.743   6.302
 2956SOL     OW 9766   5.354   4.167   4.391
 2956SOL    HW1 9767   5.399   4.182   4.479
 2956SOL    HW2 9768   5.421   4.133   4.325
 2957SOL     OW 9769   2.629   5.315   1.825
 2957SOL    HW1 9770   2.568   5.301   1.747
 2957SOL    HW2 9771   2.581   5.289   1.909
 2958SOL     OW 9772   1.123   4.181   2.158
 2958SOL    HW1 9773   1.096   4.270   2.120
 2958SOL    HW2 9774   1.084   4.108   2.103
 2959SOL     OW 9775   0.182   3.980   4.067
 2959SOL    HW1 9776   0.274   3.940   4.076
 2959SOL    HW2 9777   0.113   3.909   4.079
 2960SOL     OW 9778   4.777   6.311   0.973
 2960SOL    HW1 9779   4.732   6.309   0.884
 2960SOL    HW2 9780   4.729   6.374   1.034
 2961SOL     OW 9781   5.142   2.558   1.612
 2961SOL    HW1 9782   5.061   2.614   1.623
 2961SOL    HW2 9783   5.133   2.474   1.666
 2962SOL     OW 9784   0.198   0.119   3.748
 2962SOL    HW1 9785   0.209   0.126   3.648
 2962SOL    HW2 9786   0.283   0.144   3.793
 2963SOL     OW 9787   1.601   0.454   4.892
 2963SOL    HW1 9788   1.542   0.480   4.815
 2963SOL    HW2 9789   1.590   0.520   4.966
 2964SOL     OW 9790   1.536   0.173   6.641
 2964SOL    HW1 9791   1.523   0.227   6.724
 2964SOL    HW2 9792   1.610   0.214   6.587
 2965SOL     OW 9793   6.040   0.576   6.065
 2965SOL    HW1 9794   6.024   0.674   6.054
 2965SOL    HW2 9795   5.969   0.537   6.123
 2966SOL     OW 9796   3.834   5.263   2.895
 2966SOL    HW1 9797   3.741   5.229   2.877
 2966SOL    HW2 9798   3.893   5.187   2.920
 2967SOL     OW 9799   5.748   0.190   5.018
 2967SOL    HW1 9800   5.775   0.221   4.926
 2967SOL    HW2 9801   5.692   0.108   5.010
 2968SOL     OW 9802   1.436   4.003   1.462
 2968SOL    HW1 9803   1.431   4.089   1.513
 2968SOL    HW2 9804   1.420   4.021   1.365
 2969SOL     OW 9805   4.552   2.612   4.430
 2969SOL    HW1 9806   4.503   2.587   4.347
 2969SOL    HW2 9807   4.523   2.554   4.506
 2970SOL     OW 9808   2.363   2.934   5.714
 2970SOL    HW1 9809   2.357   3.032   5.694
 2970SOL    HW2 9810   2.403   2.887   5.636
 2971SOL     OW 9811   4.595   3.539   6.976
 2971SOL    HW1 9812   4.529   3.487   0.006
 2971SOL    HW2 9813   4.673   3.564   0.009
 2972SOL     OW 9814   7.004   5.642   6.721
 2972SOL    HW1 9815   7.001   5.632   6.820
 2972SOL    HW2 9816   0.048   5.711   6.695
 2973SOL     OW 9817   5.772   1.062   4.230
 2973SOL    HW1 9818   5.785   0.990   4.298
 2973SOL    HW2 9819   5.674   1.077   4.216
 2974SOL     OW 9820   5.376   6.169   2.042
 2974SOL    HW1 9821   5.426   6.211   2.118
 2974SOL    HW2 9822   5.288   6.135   2.075
 2975SOL     OW 9823   6.744   3.462   4.910
 2975SOL    HW1 9824   6.788   3.449   4.821
 2975SOL    HW2 9825   6.812   3.456   4.982
 2976SOL     OW 9826   3.700   0.756   1.530
 2976SOL    HW1 9827   3.696   0.813   1.612
 2976SOL    HW2 9828   3.746   0.670   1.552
 2977SOL     OW 9829   1.113   1.212   1.784
 2977SOL    HW1 9830   1.069   1.301   1.787
 2977SOL    HW2 9831   1.156   1.198   1.694
 2978SOL     OW 9832   2.951   5.461   0.043
 2978SOL    HW1 9833   2.984   5.410   6.987
 2978SOL    HW2 9834   2.973   5.410   0.126
 2979SOL     OW 9835   2.852   0.979   5.426
 2979SOL    HW1 9836   2.892   0.927   5.351
 2979SOL    HW2 9837   2.764   0.939   5.451
 2980SOL     OW 9838   3.529   3.181   4.207
 2980SOL    HW1 9839   3.607   3.134   4.248
 2980SOL    HW2 9840   3.447   3.162   4.260
 2981SOL     OW 9841   2.922   1.774   1.854
 2981SOL    HW1 9842   2.890   1.800   1.763
 2981SOL    HW2 9843   2.913   1.852   1.916
 2982SOL     OW 9844   1.891   0.957   0.763
 2982SOL    HW1 9845   1.829   0.974   0.840
 2982SOL    HW2 9846   1.858   1.004   0.682
 2983SOL     OW 9847   6.757   2.950   6.053
 2983SOL    HW1 9848   6.704   3.000   5.985
 2983SOL    HW2 9849   6.809   3.014   6.109
 2984SOL     OW 9850   0.440   6.353   1.588
 2984SOL    HW1 9851   0.503   6.353   1.665
 2984SOL    HW2 9852   0.493   6.354   1.502
 2985SOL     OW 9853   6.511   0.773   6.417
 2985SOL    HW1 9854   6.460   0.814   6.493
 2985SOL    HW2 9855   6.557   0.846   6.365
 2986SOL     OW 9856   3.434   3.105   2.014
 2986SOL    HW1 9857   3.487   3.132   1.933
 2986SOL    HW2 9858   3.344   3.149   2.011
 2987SOL     OW 9859   2.300   5.560   4.821
 2987SOL    HW1 9860   2.256   5.594   4.905
 2987SOL    HW2 9861   2.252   5.597   4.741
 2988SOL     OW 9862   6.760   2.096   6.016
 2988SOL    HW1 9863   6.792   2.120   6.108
 2988SOL    HW2 9864   6.692   2.022   6.023
 2989SOL     OW 9865   5.822   3.592   5.302
 2989SOL    HW1 9866   5.723   3.602   5.286
 2989SOL    HW2 9867   5.859   3.681   5.329
 2990SOL     OW 9868   5.816   1.505   5.477
 2990SOL    HW1 9869   5.830   1.603   5.464
 2990SOL    HW2 9870   5.898   1.456   5.446
 2991SOL     OW 9871   6.605   3.722   0.248
 2991SOL    HW1 9872   6.609   3.801   0.188
 2991SOL    HW2 9873   6.683   3.662   0.231
 2992SOL     OW 9874   0.823   3.814   5.443
 2992SOL    HW1 9875   0.776   3.842   5.359
 2992SOL    HW2 9876   0.843   3.717   5.439
 2993SOL     OW 9877   2.928   4.701   0.732
 2993SOL    HW1 9878   2.987   4.755   0.672
 2993SOL    HW2 9879   2.839   4.746   0.741
 2994SOL     OW 9880   3.158   4.898   4.571
 2994SOL    HW1 9881   3.206   4.980   4.541
 2994SOL    HW2 9882   3.174   4.884   4.669
 2995SOL     OW 9883   4.710   0.874   1.701
 2995SOL    HW1 9884   4.717   0.973   1.691
 2995SOL    HW2 9885   4.623   0.842   1.662
 2996SOL     OW 9886   6.619   0.940   4.395
 2996SOL    HW1 9887   6.689   0.954   4.325
 2996SOL    HW2 9888   6.604   0.842   4.409
 2997SOL     OW 9889   4.893   6.107   4.364
 2997SOL    HW1 9890   4.807   6.106   4.312
 2997SOL    HW2 9891   4.963   6.154   4.311
 2998SOL     OW 9892   2.446   1.181   1.702
 2998SOL    HW1 9893   2.428   1.267   1.749
 2998SOL    HW2 9894   2.510   1.197   1.627
 2999SOL     OW 9895   1.876   4.703   0.130
 2999SOL    HW1 9896   1.863   4.682   0.227
 2999SOL    HW2 9897   1.875   4.619   0.077
 3000SOL     OW 9898   2.112   3.987   5.230
 3000SOL    HW1 9899   2.051   3.921   5.185
 3000SOL    HW2 9900   2.199   3.992   5.181
 3001SOL     OW 9901   4.245   0.907   6.387
 3001SOL    HW1 9902   4.213   0.871   6.299
 3001SOL    HW2 9903   4.345   0.910   6.387
 3002SOL     OW 9904   1.425   2.294   2.077
 3002SOL    HW1 9905   1.462   2.297   2.170
 3002SOL    HW2 9906   1.493   2.256   2.015
 3003SOL     OW 9907   1.244   5.843   0.713
 3003SOL    HW1 9908   1.229   5.793   0.627
 3003SOL    HW2 9909   1.255   5.940   0.693
 3004SOL     OW 9910   3.075   6.512   3.724
 3004SOL    HW1 9911   3.108   6.424   3.759
 3004SOL    HW2 9912   2.975   6.515   3.733
 3005SOL     OW 9913   2.624   1.753   0.583
 3005SOL    HW1 9914   2.686   1.764   0.505
 3005SOL    HW2 9915   2.571   1.669   0.573
 3006SOL     OW 9916   5.779   1.363   5.706
 3006SOL    HW1 9917   5.871   1.328   5.687
 3006SOL    HW2 9918   5.743   1.409   5.625
 3007SOL     OW 9919   6.174   5.606   5.693
 3007SOL    HW1 9920   6.153   5.699   5.724
 3007SOL    HW2 9921   6.130   5.540   5.754
 3008SOL     OW 9922   4.619   4.285   5.696
 3008SOL    HW1 9923   4.627   4.294   5.597
 3008SOL    HW2 9924   4.629   4.375   5.739
 3009SOL     OW 9925   5.536   3.009   1.775
 3009SOL    HW1 9926   5.595   3.071   1.827
 3009SOL    HW2 9927   5.514   2.929   1.831
 3010SOL     OW 9928   4.724   5.363   1.524
 3010SOL    HW1 9929   4.790   5.307   1.473
 3010SOL    HW2 9930   4.693   5.312   1.604
 3011SOL     OW 9931   5.427   6.842   0.674
 3011SOL    HW1 9932   5.463   6.793   0.753
 3011SOL    HW2 9933   5.356   6.788   0.629
 3012SOL     OW 9934   2.512   0.990   4.664
 3012SOL    HW1 9935   2.612   0.994   4.670
 3012SOL    HW2 9936   2.484   0.999   4.568
 3013SOL     OW 9937   0.948   5.086   5.644
 3013SOL    HW1 9938   0.979   5.132   5.727
 3013SOL    HW2 9939   0.855   5.052   5.657
 3014SOL     OW 9940   3.946   0.247   6.771
 3014SOL    HW1 9941   3.982   0.277   6.683
 3014SOL    HW2 9942   4.020   0.205   6.824
 3015SOL     OW 9943   2.677   0.067   5.928
 3015SOL    HW1 9944   2.714   7.001   5.950
 3015SOL    HW2 9945   2.678   0.125   6.009
 3016SOL     OW 9946   3.161   0.595   4.388
 3016SOL    HW1 9947   3.186   0.613   4.293
 3016SOL    HW2 9948   3.157   0.681   4.438
 3017SOL     OW 9949   1.140   5.983   0.151
 3017SOL    HW1 9950   1.065   5.920   0.134
 3017SOL    HW2 9951   1.172   6.022   0.065
 3018SOL     OW 9952   3.122   2.014   2.029
 3018SOL    HW1 9953   3.212   1.996   2.067
 3018SOL    HW2 9954   3.127   2.090   1.964
 3019SOL     OW 9955   1.285   0.479   5.608
 3019SOL    HW1 9956   1.218   0.536   5.656
 3019SOL    HW2 9957   1.240   0.429   5.534
 3020SOL     OW 9958   4.957   4.936   6.851
 3020SOL    HW1 9959   4.968   4.953   6.753
 3020SOL    HW2 9960   4.913   4.848   6.865
 3021SOL     OW 9961   5.218   0.209   4.476
 3021SOL    HW1 9962   5.191   0.246   4.387
 3021SOL    HW2 9963   5.198   0.111   4.480
 3022SOL     OW 9964   4.598   6.874   4.445
 3022SOL    HW1 9965   4.583   6.888   4.347
 3022SOL    HW2 9966   4.618   6.777   4.462
 3023SOL     OW 9967   5.536   4.460   5.005
 3023SOL    HW1 9968   5.440   4.455   5.035
 3023SOL    HW2 9969   5.541   4.437   4.908
 3024SOL     OW 9970   6.941   1.150   0.370
 3024SOL    HW1 9971   6.862   1.167   0.312
 3024SOL    HW2 9972   6.912   1.108   0.456
 3025SOL     OW 9973   4.131   5.299   0.866
 3025SOL    HW1 9974   4.062   5.230   0.844
 3025SOL    HW2 9975   4.192   5.262   0.936
 3026SOL     OW 9976   0.347   0.798   2.377
 3026SOL    HW1 9977   0.420   0.734   2.354
 3026SOL    HW2 9978   0.301   0.768   2.461
 3027SOL     OW 9979   4.021   6.861   0.250
 3027SOL    HW1 9980   3.963   6.788   0.286
 3027SOL    HW2 9981   3.972   6.911   0.178
 3028SOL     OW 9982   3.662   3.178   4.637
 3028SOL    HW1 9983   3.567   3.195   4.613
 3028SOL    HW2 9984   3.712   3.149   4.555
 3029SOL     OW 9985   0.248   2.889   5.118
 3029SOL    HW1 9986   0.323   2.847   5.066
 3029SOL    HW2 9987   0.201   2.818   5.170
 3030SOL     OW 9988   1.483   2.802   6.619
 3030SOL    HW1 9989   1.540   2.855   6.557
 3030SOL    HW2 9990   1.536   2.726   6.657
 3031SOL     OW 9991   0.545   5.640   0.182
 3031SOL    HW1 9992   0.614   5.611   0.115
 3031SOL    HW2 9993   0.509   5.730   0.157
 3032SOL     OW 9994   2.978   6.835   3.537
 3032SOL    HW1 9995   2.888   6.845   3.494
 3032SOL    HW2 9996   3.013   6.743   3.519
 3033SOL     OW 9997   1.592   1.317   6.290
 3033SOL    HW1 9998   1.545   1.262   6.359
 3033SOL    HW2 9999   1.670   1.364   6.332
 3034SOL     OW10000   5.256   3.303   3.494
 3034SOL    HW110001   5.348   3.333   3.469
 3034SOL    HW210002   5.192   3.329   3.422
 3035SOL     OW10003   6.806   3.572   6.978
 3035SOL    HW110004   6.902   3.597   6.963
 3035SOL    HW210005   6.788   3.570   0.053
 3036SOL     OW10006   3.381   2.470   5.913
 3036SOL    HW110007   3.417   2.455   5.821
 3036SOL    HW210008   3.322   2.393   5.938
 3037SOL     OW10009   1.060   4.737   6.748
 3037SOL    HW110010   1.065   4.652   6.800
 3037SOL    HW210011   0.974   4.741   6.698
 3038SOL     OW10012   6.379   4.869   5.467
 3038SOL    HW110013   6.431   4.877   5.551
 3038SOL    HW210014   6.441   4.853   5.390
 3039SOL     OW10015   5.729   3.469   6.030
 3039SOL    HW110016   5.632   3.466   6.005
 3039SOL    HW210017   5.757   3.380   6.064
 3040SOL     OW10018   3.942   6.005   6.240
 3040SOL    HW110019   3.939   6.044   6.332
 3040SOL    HW210020   4.034   5.971   6.221
 3041SOL     OW10021   1.789   5.496   6.494
 3041SOL    HW110022   1.703   5.542   6.473
 3041SOL    HW210023   1.787   5.403   6.457
 3042SOL     OW10024   0.275   4.818   4.336
 3042SOL    HW110025   0.201   4.771   4.288
 3042SOL    HW210026   0.270   4.916   4.318
 3043SOL     OW10027   3.229   4.467   1.580
 3043SOL    HW110028   3.198   4.478   1.486
 3043SOL    HW210029   3.290   4.543   1.604
 3044SOL     OW10030   4.075   3.467   4.700
 3044SOL    HW110031   4.119   3.497   4.785
 3044SOL    HW210032   4.084   3.539   4.631
 3045SOL     OW10033   5.471   1.312   2.480
 3045SOL    HW110034   5.453   1.408   2.463
 3045SOL    HW210035   5.521   1.301   2.566
 3046SOL     OW10036   5.741   5.595   1.607
 3046SOL    HW110037   5.695   5.583   1.518
 3046SOL    HW210038   5.718   5.686   1.643
 3047SOL     OW10039   5.905   1.734   4.337
 3047SOL    HW110040   5.952   1.786   4.265
 3047SOL    HW210041   5.808   1.759   4.338
 3048SOL     OW10042   4.189   4.995   1.537
 3048SOL    HW110043   4.186   5.094   1.548
 3048SOL    HW210044   4.161   4.970   1.444
 3049SOL     OW10045   0.452   2.035   2.200
 3049SOL    HW110046   0.425   1.996   2.112
 3049SOL    HW210047   0.430   2.133   2.201
 3050SOL     OW10048   3.494   2.290   6.753
 3050SOL    HW110049   3.507   2.257   6.660
 3050SOL    HW210050   3.455   2.382   6.751
 3051SOL     OW10051   2.309   5.103   6.027
 3051SOL    HW110052   2.288   5.013   5.989
 3051SOL    HW210053   2.405   5.124   6.012
 3052SOL     OW10054   6.422   6.232   3.450
 3052SOL    HW110055   6.333   6.268   3.478
 3052SOL    HW210056   6.421   6.213   3.351
 3053SOL     OW10057   0.794   4.144   7.000
 3053SOL    HW110058   0.767   4.218   6.939
 3053SOL    HW210059   0.847   4.076   6.949
 3054SOL     OW10060   5.498   0.021   3.276
 3054SOL    HW110061   5.502   0.056   3.183
 3054SOL    HW210062   5.435   0.077   3.330
 3055SOL     OW10063   4.802   6.542   0.271
 3055SOL    HW110064   4.724   6.491   0.307
 3055SOL    HW210065   4.787   6.640   0.283
 3056SOL     OW10066   4.566   1.760   0.579
 3056SOL    HW110067   4.634   1.745   0.507
 3056SOL    HW210068   4.480   1.791   0.539
 3057SOL     OW10069   6.240   3.983   3.735
 3057SOL    HW110070   6.337   3.961   3.744
 3057SOL    HW210071   6.185   3.903   3.761
 3058SOL     OW10072   0.661   5.133   6.218
 3058SOL    HW110073   0.563   5.121   6.229
 3058SOL    HW210074   0.708   5.103   6.301
 3059SOL     OW10075   1.212   2.199   2.235
 3059SOL    HW110076   1.140   2.262   2.206
 3059SOL    HW210077   1.301   2.239   2.216
 3060SOL     OW10078   5.626   3.837   3.300
 3060SOL    HW110079   5.588   3.826   3.392
 3060SOL    HW210080   5.569   3.787   3.234
 3061SOL     OW10081   5.716   6.555   3.018
 3061SOL    HW110082   5.619   6.580   3.029
 3061SOL    HW210083   5.766   6.581   3.100
 3062SOL     OW10084   4.024   5.169   1.162
 3062SOL    HW110085   3.993   5.130   1.249
 3062SOL    HW210086   4.072   5.255   1.179
 3063SOL     OW10087   6.815   4.565   0.812
 3063SOL    HW110088   6.797   4.468   0.802
 3063SOL    HW210089   6.738   4.617   0.775
 3064SOL     OW10090   4.906   1.839   6.252
 3064SOL    HW110091   4.952   1.922   6.284
 3064SOL    HW210092   4.819   1.829   6.299
 3065SOL     OW10093   5.562   1.377   6.327
 3065SOL    HW110094   5.505   1.324   6.390
 3065SOL    HW210095   5.508   1.404   6.248
 3066SOL     OW10096   5.008   0.183   5.894
 3066SOL    HW110097   5.008   0.239   5.977
 3066SOL    HW210098   4.959   0.231   5.822
 3067SOL     OW10099   1.274   1.735   4.843
 3067SOL    HW110100   1.231   1.813   4.887
 3067SOL    HW210101   1.337   1.767   4.772
 3068SOL     OW10102   5.651   0.224   0.912
 3068SOL    HW110103   5.666   0.305   0.969
 3068SOL    HW210104   5.740   0.191   0.878
 3069SOL     OW10105   5.698   6.215   4.036
 3069SOL    HW110106   5.725   6.118   4.041
 3069SOL    HW210107   5.710   6.258   4.125
 3070SOL     OW10108   2.506   1.324   1.134
 3070SOL    HW110109   2.459   1.365   1.213
 3070SOL    HW210110   2.598   1.362   1.127
 3071SOL     OW10111   5.732   4.600   5.170
 3071SOL    HW110112   5.683   4.528   5.120
 3071SOL    HW210113   5.719   4.586   5.269
 3072SOL     OW10114   1.520   6.880   5.649
 3072SOL    HW110115   1.518   6.969   5.602
 3072SOL    HW210116   1.554   6.810   5.586
 3073SOL     OW10117   6.878   5.669   2.460
 3073SOL    HW110118   6.916   5.632   2.375
 3073SOL    HW210119   6.797   5.616   2.486
 3074SOL     OW10120   3.375   2.622   1.815
 3074SOL    HW110121   3.427   2.678   1.880
 3074SOL    HW210122   3.431   2.545   1.786
 3075SOL     OW10123   3.977   5.032   1.868
 3075SOL    HW110124   3.977   5.132   1.872
 3075SOL    HW210125   3.885   5.000   1.844
 3076SOL     OW10126   2.045   1.264   3.683
 3076SOL    HW110127   2.053   1.239   3.780
 3076SOL    HW210128   2.013   1.358   3.676
 3077SOL     OW10129   0.204   3.542   1.903
 3077SOL    HW110130   0.223   3.451   1.941
 3077SOL    HW210131   0.259   3.610   1.950
 3078SOL     OW10132   6.942   3.575   1.906
 3078SOL    HW110133   6.926   3.671   1.881
 3078SOL    HW210134   0.016   3.557   1.906
 3079SOL     OW10135   1.398   4.195   4.094
 3079SOL    HW110136   1.318   4.156   4.139
 3079SOL    HW210137   1.384   4.195   3.995
 3080SOL     OW10138   4.034   4.761   1.618
 3080SOL    HW110139   4.064   4.777   1.523
 3080SOL    HW210140   3.934   4.764   1.622
 3081SOL     OW10141   2.230   3.085   5.982
 3081SOL    HW110142   2.131   3.077   5.965
 3081SOL    HW210143   2.273   3.127   5.902
 3082SOL     OW10144   5.290   3.951   4.985
 3082SOL    HW110145   5.385   3.930   5.005
 3082SOL    HW210146   5.234   3.934   5.067
 3083SOL     OW10147   4.009   5.758   1.210
 3083SOL    HW110148   4.074   5.814   1.261
 3083SOL    HW210149   3.916   5.782   1.238
 3084SOL     OW10150   7.006   4.985   4.026
 3084SOL    HW110151   0.007   5.071   3.983
 3084SOL    HW210152   0.032   4.910   3.983
 3085SOL     OW10153   6.179   5.958   0.044
 3085SOL    HW110154   6.216   6.045   0.011
 3085SOL    HW210155   6.166   5.896   6.991
 3086SOL     OW10156   6.197   6.386   6.188
 3086SOL    HW110157   6.241   6.306   6.146
 3086SOL    HW210158   6.168   6.449   6.116
 3087SOL     OW10159   3.497   0.189   2.259
 3087SOL    HW110160   3.531   0.266   2.205
 3087SOL    HW210161   3.459   0.224   2.345
 3088SOL     OW10162   2.312   3.702   5.293
 3088SOL    HW110163   2.360   3.780   5.252
 3088SOL    HW210164   2.255   3.735   5.369
 3089SOL     OW10165   4.089   6.099   6.474
 3089SOL    HW110166   4.179   6.068   6.443
 3089SOL    HW210167   4.093   6.195   6.499
 3090SOL     OW10168   0.748   2.888   1.957
 3090SOL    HW110169   0.676   2.879   1.888
 3090SOL    HW210170   0.828   2.835   1.929
 3091SOL     OW10171   1.185   2.251   0.106
 3091SOL    HW110172   1.121   2.325   0.085
 3091SOL    HW210173   1.240   2.277   0.185
 3092SOL     OW10174   5.917   1.446   2.281
 3092SOL    HW110175   5.975   1.521   2.313
 3092SOL    HW210176   5.897   1.384   2.357
 3093SOL     OW10177   5.975   5.163   6.751
 3093SOL    HW110178   5.898   5.225   6.735
 3093SOL    HW210179   5.945   5.086   6.807
 3094SOL     OW10180   2.338   1.472   6.251
 3094SOL    HW110181   2.238   1.466   6.247
 3094SOL    HW210182   2.376   1.381   6.268
 3095SOL     OW10183   1.623   4.036   4.776
 3095SOL    HW110184   1.539   4.067   4.821
 3095SOL    HW210185   1.678   4.115   4.749
 3096SOL     OW10186   1.832   3.293   4.493
 3096SOL    HW110187   1.790   3.312   4.582
 3096SOL    HW210188   1.899   3.364   4.471
 3097SOL     OW10189   5.407   3.399   5.442
 3097SOL    HW110190   5.358   3.446   5.369
 3097SOL    HW210191   5.391   3.446   5.529
 3098SOL     OW10192   1.478   3.392   2.232
 3098SOL    HW110193   1.482   3.331   2.153
 3098SOL    HW210194   1.528   3.351   2.308
 3099SOL     OW10195   0.804   6.549   5.413
 3099SOL    HW110196   0.862   6.559   5.332
 3099SOL    HW210197   0.756   6.635   5.429
 3100SOL     OW10198   5.791   4.514   2.056
 3100SOL    HW110199   5.770   4.419   2.076
 3100SOL    HW210200   5.888   4.531   2.069
 3101SOL     OW10201   5.114   0.261   4.751
 3101SOL    HW110202   5.209   0.250   4.783
 3101SOL    HW210203   5.115   0.300   4.659
 3102SOL     OW10204   5.952   5.022   2.053
 3102SOL    HW110205   5.875   4.967   2.087
 3102SOL    HW210206   5.923   5.117   2.043
 3103SOL     OW10207   1.667   2.073   2.065
 3103SOL    HW110208   1.639   2.137   1.993
 3103SOL    HW210209   1.760   2.042   2.047
 3104SOL     OW10210   5.789   2.284   5.308
 3104SOL    HW110211   5.739   2.214   5.359
 3104SOL    HW210212   5.886   2.277   5.330
 3105SOL     OW10213   5.335   4.164   0.491
 3105SOL    HW110214   5.268   4.132   0.557
 3105SOL    HW210215   5.373   4.085   0.442
 3106SOL     OW10216   5.450   2.162   5.461
 3106SOL    HW110217   5.536   2.126   5.496
 3106SOL    HW210218   5.374   2.126   5.515
 3107SOL     OW10219   3.829   2.101   4.897
 3107SOL    HW110220   3.778   2.095   4.982
 3107SOL    HW210221   3.898   2.174   4.904
 3108SOL     OW10222   1.867   4.192   3.571
 3108SOL    HW110223   1.927   4.129   3.522
 3108SOL    HW210224   1.884   4.286   3.541
 3109SOL     OW10225   6.872   6.068   3.251
 3109SOL    HW110226   6.855   5.977   3.289
 3109SOL    HW210227   6.894   6.060   3.154
 3110SOL     OW10228   1.245   5.120   3.779
 3110SOL    HW110229   1.224   5.073   3.693
 3110SOL    HW210230   1.210   5.213   3.776
 3111SOL     OW10231   6.505   3.941   3.743
 3111SOL    HW110232   6.548   3.957   3.832
 3111SOL    HW210233   6.536   4.011   3.678
 3112SOL     OW10234   4.031   1.075   0.168
 3112SOL    HW110235   4.100   1.074   0.240
 3112SOL    HW210236   4.061   1.015   0.093
 3113SOL     OW10237   1.682   6.989   3.163
 3113SOL    HW110238   1.667   6.976   3.065
 3113SOL    HW210239   1.758   6.931   3.193
 3114SOL     OW10240   4.446   6.486   6.083
 3114SOL    HW110241   4.410   6.396   6.061
 3114SOL    HW210242   4.463   6.537   5.999
 3115SOL     OW10243   4.369   5.056   4.520
 3115SOL    HW110244   4.357   5.043   4.422
 3115SOL    HW210245   4.358   5.153   4.542
 3116SOL     OW10246   1.051   1.641   6.036
 3116SOL    HW110247   1.025   1.618   5.943
 3116SOL    HW210248   1.060   1.741   6.045
 3117SOL     OW10249   3.760   6.759   1.203
 3117SOL    HW110250   3.837   6.809   1.242
 3117SOL    HW210251   3.675   6.792   1.245
 3118SOL     OW10252   1.015   2.029   3.590
 3118SOL    HW110253   0.962   1.963   3.535
 3118SOL    HW210254   1.112   2.006   3.584
 3119SOL     OW10255   4.954   5.593   4.138
 3119SOL    HW110256   5.023   5.558   4.075
 3119SOL    HW210257   4.978   5.686   4.165
 3120SOL     OW10258   2.420   5.766   0.098
 3120SOL    HW110259   2.513   5.730   0.109
 3120SOL    HW210260   2.423   5.853   0.050
 3121SOL     OW10261   4.228   2.190   4.011
 3121SOL    HW110262   4.221   2.185   4.110
 3121SOL    HW210263   4.302   2.130   3.979
 3122SOL     OW10264   5.421   4.886   5.899
 3122SOL    HW110265   5.389   4.980   5.893
 3122SOL    HW210266   5.517   4.884   5.925
 3123SOL     OW10267   1.695   2.167   2.946
 3123SOL    HW110268   1.640   2.179   3.029
 3123SOL    HW210269   1.677   2.242   2.883
 3124SOL     OW10270   5.077   6.865   5.571
 3124SOL    HW110271   5.166   6.891   5.533
 3124SOL    HW210272   5.079   6.876   5.670
 3125SOL     OW10273   1.273   1.092   5.533
 3125SOL    HW110274   1.357   1.142   5.557
 3125SOL    HW210275   1.289   0.994   5.546
 3126SOL     OW10276   4.929   4.828   5.732
 3126SOL    HW110277   5.020   4.809   5.768
 3126SOL    HW210278   4.876   4.879   5.799
 3127SOL     OW10279   6.665   1.643   5.371
 3127SOL    HW110280   6.636   1.637   5.276
 3127SOL    HW210281   6.758   1.606   5.380
 3128SOL     OW10282   3.659   0.445   0.746
 3128SOL    HW110283   3.609   0.506   0.685
 3128SOL    HW210284   3.631   0.461   0.841
 3129SOL     OW10285   4.278   4.187   7.020
 3129SOL    HW110286   4.341   4.154   6.949
 3129SOL    HW210287   4.330   4.238   0.065
 3130SOL     OW10288   0.599   5.932   1.895
 3130SOL    HW110289   0.677   5.974   1.940
 3130SOL    HW210290   0.605   5.947   1.796
 3131SOL     OW10291   6.814   3.611   2.874
 3131SOL    HW110292   6.906   3.584   2.846
 3131SOL    HW210293   6.755   3.530   2.877
 3132SOL     OW10294   5.154   4.158   6.912
 3132SOL    HW110295   5.242   4.143   6.865
 3132SOL    HW210296   5.171   4.203   6.999
 3133SOL     OW10297   5.521   6.792   3.797
 3133SOL    HW110298   5.451   6.733   3.757
 3133SOL    HW210299   5.612   6.755   3.774
 3134SOL     OW10300   5.569   4.791   2.758
 3134SOL    HW110301   5.557   4.757   2.665
 3134SOL    HW210302   5.531   4.725   2.823
 3135SOL     OW10303   3.511   6.634   6.821
 3135SOL    HW110304   3.460   6.679   6.894
 3135SOL    HW210305   3.460   6.642   6.735
 3136SOL     OW10306   6.644   0.422   2.921
 3136SOL    HW110307   6.599   0.337   2.946
 3136SOL    HW210308   6.733   0.403   2.880
 3137SOL     OW10309   4.149   5.813   0.122
 3137SOL    HW110310   4.059   5.787   0.158
 3137SOL    HW210311   4.168   5.760   0.039
 3138SOL     OW10312   6.592   6.731   4.969
 3138SOL    HW110313   6.665   6.724   5.037
 3138SOL    HW210314   6.572   6.827   4.951
 3139SOL     OW10315   1.723   5.197   1.917
 3139SOL    HW110316   1.689   5.287   1.943
 3139SOL    HW210317   1.750   5.146   1.999
 3140SOL     OW10318   5.881   6.106   6.992
 3140SOL    HW110319   5.876   6.059   0.056
 3140SOL    HW210320   5.932   6.049   6.927
 3141SOL     OW10321   5.827   1.661   6.620
 3141SOL    HW110322   5.765   1.610   6.679
 3141SOL    HW210323   5.823   1.625   6.527
 3142SOL     OW10324   4.737   1.115   3.797
 3142SOL    HW110325   4.735   1.054   3.877
 3142SOL    HW210326   4.644   1.141   3.773
 3143SOL     OW10327   6.667   1.196   0.982
 3143SOL    HW110328   6.753   1.146   0.996
 3143SOL    HW210329   6.653   1.259   1.058
 3144SOL     OW10330   3.597   4.847   6.882
 3144SOL    HW110331   3.601   4.751   6.854
 3144SOL    HW210332   3.604   4.853   6.981
 3145SOL     OW10333   0.706   5.574   6.999
 3145SOL    HW110334   0.797   5.586   6.960
 3145SOL    HW210335   0.639   5.566   6.925
 3146SOL     OW10336   6.741   2.546   4.753
 3146SOL    HW110337   6.651   2.556   4.711
 3146SOL    HW210338   6.757   2.450   4.775
 3147SOL     OW10339   4.169   0.065   6.814
 3147SOL    HW110340   4.148   0.045   6.719
 3147SOL    HW210341   4.140   7.013   6.872
 3148SOL     OW10342   6.856   4.621   1.084
 3148SOL    HW110343   6.877   4.715   1.111
 3148SOL    HW210344   6.853   4.614   0.985
 3149SOL     OW10345   3.540   3.217   0.155
 3149SOL    HW110346   3.577   3.264   0.235
 3149SOL    HW210347   3.569   3.264   0.072
 3150SOL     OW10348   0.101   0.016   5.608
 3150SOL    HW110349   0.071   6.945   5.610
 3150SOL    HW210350   0.156   0.032   5.526
 3151SOL     OW10351   0.151   0.726   5.865
 3151SOL    HW110352   0.142   0.821   5.836
 3151SOL    HW210353   0.223   0.682   5.812
 3152SOL     OW10354   2.045   2.479   5.671
 3152SOL    HW110355   2.037   2.384   5.641
 3152SOL    HW210356   2.022   2.485   5.768
 3153SOL     OW10357   5.430   5.710   1.931
 3153SOL    HW110358   5.438   5.679   2.026
 3153SOL    HW210359   5.435   5.632   1.869
 3154SOL     OW10360   3.517   2.097   0.727
 3154SOL    HW110361   3.490   2.190   0.751
 3154SOL    HW210362   3.575   2.060   0.800
 3155SOL     OW10363   0.752   4.860   6.935
 3155SOL    HW110364   0.812   4.927   6.980
 3155SOL    HW210365   0.790   4.768   6.949
 3156SOL     OW10366   4.012   4.385   0.930
 3156SOL    HW110367   3.983   4.480   0.927
 3156SOL    HW210368   3.937   4.328   0.964
 3157SOL     OW10369   1.534   1.116   4.419
 3157SOL    HW110370   1.578   1.204   4.433
 3157SOL    HW210371   1.515   1.074   4.508
 3158SOL     OW10372   2.824   0.548   5.943
 3158SOL    HW110373   2.910   0.580   5.981
 3158SOL    HW210374   2.817   0.575   5.847
 3159SOL     OW10375   5.019   6.887   1.340
 3159SOL    HW110376   4.946   6.819   1.333
 3159SOL    HW210377   5.022   6.923   1.433
 3160SOL     OW10378   2.049   0.791   5.434
 3160SOL    HW110379   1.987   0.716   5.416
 3160SOL    HW210380   2.110   0.767   5.509
 3161SOL     OW10381   1.736   2.655   2.257
 3161SOL    HW110382   1.688   2.616   2.336
 3161SOL    HW210383   1.724   2.596   2.178
 3162SOL     OW10384   1.179   5.792   1.627
 3162SOL    HW110385   1.231   5.809   1.543
 3162SOL    HW210386   1.098   5.737   1.605
 3163SOL     OW10387   4.596   4.460   0.560
 3163SOL    HW110388   4.662   4.535   0.557
 3163SOL    HW210389   4.643   4.373   0.544
 3164SOL     OW10390   2.547   6.996   4.383
 3164SOL    HW110391   2.480   6.995   4.309
 3164SOL    HW210392   2.636   6.966   4.348
 3165SOL     OW10393   0.727   6.618   6.042
 3165SOL    HW110394   0.791   6.662   6.104
 3165SOL    HW210395   0.635   6.618   6.082
 3166SOL     OW10396   4.445   1.429   4.347
 3166SOL    HW110397   4.382   1.356   4.372
 3166SOL    HW210398   4.398   1.517   4.351
 3167SOL     OW10399   5.649   2.633   1.409
 3167SOL    HW110400   5.668   2.701   1.480
 3167SOL    HW210401   5.566   2.582   1.434
 3168SOL     OW10402   4.949   1.157   0.478
 3168SOL    HW110403   4.863   1.142   0.430
 3168SOL    HW210404   4.970   1.254   0.480
 3169SOL     OW10405   0.992   4.140   2.398
 3169SOL    HW110406   1.007   4.054   2.349
 3169SOL    HW210407   1.037   4.215   2.349
 3170SOL     OW10408   1.755   4.107   3.797
 3170SOL    HW110409   1.798   4.171   3.734
 3170SOL    HW210410   1.743   4.019   3.752
 3171SOL     OW10411   5.155   1.546   4.341
 3171SOL    HW110412   5.224   1.527   4.411
 3171SOL    HW210413   5.092   1.469   4.335
 3172SOL     OW10414   5.801   4.392   0.980
 3172SOL    HW110415   5.736   4.447   1.033
 3172SOL    HW210416   5.750   4.324   0.926
 3173SOL     OW10417   5.253   2.565   0.525
 3173SOL    HW110418   5.208   2.537   0.441
 3173SOL    HW210419   5.211   2.518   0.603
 3174SOL     OW10420   3.677   2.500   6.601
 3174SOL    HW110421   3.614   2.437   6.556
 3174SOL    HW210422   3.625   2.572   6.647
 3175SOL     OW10423   5.846   6.910   5.338
 3175SOL    HW110424   5.758   6.865   5.327
 3175SOL    HW210425   5.891   6.877   5.421
 3176SOL     OW10426   0.331   4.724   3.836
 3176SOL    HW110427   0.311   4.634   3.799
 3176SOL    HW210428   0.418   4.721   3.886
 3177SOL     OW10429   5.204   3.323   3.752
 3177SOL    HW110430   5.135   3.389   3.782
 3177SOL    HW210431   5.191   3.301   3.655
 3178SOL     OW10432   0.713   0.460   2.835
 3178SOL    HW110433   0.665   0.463   2.923
 3178SOL    HW210434   0.737   0.365   2.814
 3179SOL     OW10435   0.506   2.924   2.498
 3179SOL    HW110436   0.441   2.943   2.424
 3179SOL    HW210437   0.581   2.989   2.493
 3180SOL     OW10438   6.859   6.598   6.419
 3180SOL    HW110439   6.912   6.586   6.335
 3180SOL    HW210440   6.815   6.512   6.444
 3181SOL     OW10441   0.251   5.732   5.328
 3181SOL    HW110442   0.258   5.641   5.288
 3181SOL    HW210443   0.176   5.782   5.284
 3182SOL     OW10444   1.885   6.809   1.312
 3182SOL    HW110445   1.813   6.878   1.310
 3182SOL    HW210446   1.853   6.725   1.268
 3183SOL     OW10447   4.037   3.441   1.030
 3183SOL    HW110448   3.984   3.357   1.041
 3183SOL    HW210449   4.047   3.486   1.118
 3184SOL     OW10450   6.404   1.513   4.228
 3184SOL    HW110451   6.307   1.523   4.210
 3184SOL    HW210452   6.418   1.443   4.298
 3185SOL     OW10453   0.760   6.542   6.511
 3185SOL    HW110454   0.809   6.520   6.596
 3185SOL    HW210455   0.745   6.641   6.506
 3186SOL     OW10456   0.090   3.030   6.634
 3186SOL    HW110457   0.051   3.110   6.680
 3186SOL    HW210458   0.133   2.971   6.703
 3187SOL     OW10459   5.184   0.037   2.705
 3187SOL    HW110460   5.200   6.995   2.777
 3187SOL    HW210461   5.269   0.088   2.687
 3188SOL     OW10462   1.633   6.604   0.792
 3188SOL    HW110463   1.606   6.666   0.866
 3188SOL    HW210464   1.565   6.607   0.719
 3189SOL     OW10465   2.730   1.685   6.109
 3189SOL    HW110466   2.704   1.762   6.050
 3189SOL    HW210467   2.655   1.619   6.112
 3190SOL     OW10468   6.272   5.940   3.622
 3190SOL    HW110469   6.309   5.972   3.709
 3190SOL    HW210470   6.208   6.009   3.585
 3191SOL     OW10471   3.534   5.601   1.554
 3191SOL    HW110472   3.469   5.671   1.526
 3191SOL    HW210473   3.499   5.510   1.530
 3192SOL     OW10474   5.347   0.908   2.545
 3192SOL    HW110475   5.281   0.878   2.614
 3192SOL    HW210476   5.307   0.980   2.489
 3193SOL     OW10477   3.552   5.566   5.055
 3193SOL    HW110478   3.517   5.572   4.961
 3193SOL    HW210479   3.628   5.501   5.058
 3194SOL     OW10480   1.479   6.817   6.184
 3194SOL    HW110481   1.516   6.896   6.232
 3194SOL    HW210482   1.466   6.840   6.087
 3195SOL     OW10483   1.155   0.376   0.799
 3195SOL    HW110484   1.160   0.466   0.841
 3195SOL    HW210485   1.074   0.328   0.832
 3196SOL     OW10486   6.046   0.049   2.297
 3196SOL    HW110487   6.142   0.069   2.312
 3196SOL    HW210488   6.026   0.051   2.198
 3197SOL     OW10489   2.728   0.845   6.491
 3197SOL    HW110490   2.767   0.834   6.583
 3197SOL    HW210491   2.785   0.909   6.439
 3198SOL     OW10492   5.783   2.691   3.769
 3198SOL    HW110493   5.793   2.722   3.863
 3198SOL    HW210494   5.770   2.591   3.768
 3199SOL     OW10495   4.958   3.981   3.141
 3199SOL    HW110496   5.023   4.020   3.205
 3199SOL    HW210497   4.911   3.904   3.184
 3200SOL     OW10498   5.460   3.278   4.595
 3200SOL    HW110499   5.437   3.218   4.517
 3200SOL    HW210500   5.416   3.242   4.678
 3201SOL     OW10501   6.327   4.219   1.902
 3201SOL    HW110502   6.231   4.245   1.914
 3201SOL    HW210503   6.382   4.300   1.885
 3202SOL     OW10504   2.606   3.077   6.275
 3202SOL    HW110505   2.536   3.146   6.257
 3202SOL    HW210506   2.619   3.068   6.374
 3203SOL     OW10507   3.235   6.782   1.933
 3203SOL    HW110508   3.174   6.734   1.871
 3203SOL    HW210509   3.329   6.753   1.917
 3204SOL     OW10510   4.174   0.472   4.146
 3204SOL    HW110511   4.163   0.571   4.134
 3204SOL    HW210512   4.212   0.454   4.237
 3205SOL     OW10513   4.964   3.233   5.995
 3205SOL    HW110514   5.055   3.191   5.997
 3205SOL    HW210515   4.897   3.169   6.033
 3206SOL     OW10516   2.482   4.198   1.284
 3206SOL    HW110517   2.560   4.144   1.315
 3206SOL    HW210518   2.480   4.285   1.333
 3207SOL     OW10519   2.344   5.551   4.272
 3207SOL    HW110520   2.328   5.602   4.187
 3207SOL    HW210521   2.427   5.583   4.315
 3208SOL     OW10522   6.722   4.827   6.336
 3208SOL    HW110523   6.806   4.793   6.293
 3208SOL    HW210524   6.647   4.762   6.319
 3209SOL     OW10525   5.098   6.700   6.411
 3209SOL    HW110526   5.079   6.778   6.471
 3209SOL    HW210527   5.013   6.669   6.368
 3210SOL     OW10528   4.972   5.843   1.556
 3210SOL    HW110529   4.992   5.766   1.495
 3210SOL    HW210530   4.878   5.836   1.590
 3211SOL     OW10531   2.017   6.148   6.533
 3211SOL    HW110532   1.999   6.050   6.536
 3211SOL    HW210533   1.989   6.185   6.445
 3212SOL     OW10534   3.109   6.607   3.484
 3212SOL    HW110535   3.207   6.609   3.465
 3212SOL    HW210536   3.094   6.579   3.579
 3213SOL     OW10537   1.455   6.928   5.924
 3213SOL    HW110538   1.378   6.992   5.921
 3213SOL    HW210539   1.502   6.930   5.835
 3214SOL     OW10540   4.162   0.504   2.431
 3214SOL    HW110541   4.120   0.591   2.457
 3214SOL    HW210542   4.258   0.505   2.458
 3215SOL     OW10543   2.208   3.033   1.872
 3215SOL    HW110544   2.208   3.078   1.961
 3215SOL    HW210545   2.176   2.939   1.882
 3216SOL     OW10546   6.111   5.273   0.836
 3216SOL    HW110547   6.073   5.328   0.911
 3216SOL    HW210548   6.208   5.256   0.854
 3217SOL     OW10549   0.034   5.073   3.508
 3217SOL    HW110550   6.964   5.039   3.514
 3217SOL    HW210551   0.097   5.004   3.542
 3218SOL     OW10552   5.653   1.644   2.995
 3218SOL    HW110553   5.585   1.678   3.060
 3218SOL    HW210554   5.742   1.684   3.016
 3219SOL     OW10555   5.558   1.747   5.020
 3219SOL    HW110556   5.584   1.685   5.094
 3219SOL    HW210557   5.639   1.773   4.968
 3220SOL     OW10558   0.196   3.827   5.763
 3220SOL    HW110559   0.204   3.762   5.839
 3220SOL    HW210560   0.283   3.835   5.716
 3221SOL     OW10561   3.613   1.519   1.864
 3221SOL    HW110562   3.686   1.574   1.904
 3221SOL    HW210563   3.624   1.515   1.764
 3222SOL     OW10564   3.589   1.297   3.353
 3222SOL    HW110565   3.529   1.318   3.275
 3222SOL    HW210566   3.543   1.231   3.413
 3223SOL     OW10567   1.664   5.061   0.577
 3223SOL    HW110568   1.616   5.079   0.663
 3223SOL    HW210569   1.598   5.063   0.501
 3224SOL     OW10570   4.658   2.256   4.225
 3224SOL    HW110571   4.608   2.173   4.247
 3224SOL    HW210572   4.696   2.249   4.132
 3225SOL     OW10573   4.699   1.211   4.956
 3225SOL    HW110574   4.644   1.285   4.996
 3225SOL    HW210575   4.731   1.240   4.865
 3226SOL     OW10576   5.862   0.856   0.696
 3226SOL    HW110577   5.953   0.842   0.735
 3226SOL    HW210578   5.862   0.937   0.638
 3227SOL     OW10579   5.462   4.164   5.574
 3227SOL    HW110580   5.408   4.191   5.494
 3227SOL    HW210581   5.541   4.224   5.582
 3228SOL     OW10582   2.312   4.480   0.277
 3228SOL    HW110583   2.273   4.567   0.247
 3228SOL    HW210584   2.382   4.496   0.347
 3229SOL     OW10585   1.792   2.025   0.460
 3229SOL    HW110586   1.847   1.995   0.539
 3229SOL    HW210587   1.833   2.106   0.420
 3230SOL     OW10588   3.510   5.991   5.355
 3230SOL    HW110589   3.604   5.994   5.323
 3230SOL    HW210590   3.508   5.995   5.455
 3231SOL     OW10591   2.057   2.723   2.756
 3231SOL    HW110592   2.140   2.689   2.713
 3231SOL    HW210593   2.000   2.769   2.688
 3232SOL     OW10594   3.489   4.949   3.629
 3232SOL    HW110595   3.401   4.914   3.597
 3232SOL    HW210596   3.562   4.915   3.569
 3233SOL     OW10597   2.087   6.940   0.042
 3233SOL    HW110598   2.109   6.928   0.139
 3233SOL    HW210599   2.069   0.013   0.024
 3234SOL     OW10600   3.083   3.225   0.788
 3234SOL    HW110601   3.051   3.172   0.710
 3234SOL    HW210602   3.014   3.294   0.812
 3235SOL     OW10603   0.420   1.125   2.999
 3235SOL    HW110604   0.396   1.029   2.982
 3235SOL    HW210605   0.440   1.137   3.096
 3236SOL     OW10606   4.430   0.319   0.863
 3236SOL    HW110607   4.459   0.316   0.768
 3236SOL    HW210608   4.405   0.228   0.894
 3237SOL     OW10609   6.036   1.341   5.330
 3237SOL    HW110610   5.947   1.295   5.329
 3237SOL    HW210611   6.100   1.289   5.386
 3238SOL     OW10612   6.271   4.553   1.673
 3238SOL    HW110613   6.173   4.570   1.663
 3238SOL    HW210614   6.296   4.475   1.616
 3239SOL     OW10615   6.547   0.337   4.846
 3239SOL    HW110616   6.588   0.424   4.819
 3239SOL    HW210617   6.570   0.317   4.941
 3240SOL     OW10618   0.018   1.096   0.009
 3240SOL    HW110619   0.090   1.066   0.071
 3240SOL    HW210620   7.006   1.184   0.040
 3241SOL     OW10621   6.490   3.461   5.169
 3241SOL    HW110622   6.474   3.527   5.096
 3241SOL    HW210623   6.586   3.465   5.198
 3242SOL     OW10624   6.919   3.945   4.717
 3242SOL    HW110625   6.903   4.018   4.785
 3242SOL    HW210626   6.876   3.861   4.749
 3243SOL     OW10627   6.188   4.908   4.069
 3243SOL    HW110628   6.181   5.002   4.036
 3243SOL    HW210629   6.107   4.856   4.042
 3244SOL     OW10630   4.732   6.816   0.329
 3244SOL    HW110631   4.803   6.835   0.397
 3244SOL    HW210632   4.720   6.896   0.270
 3245SOL     OW10633   3.431   6.897   4.380
 3245SOL    HW110634   3.348   6.933   4.424
 3245SOL    HW210635   3.440   6.800   4.400
 3246SOL     OW10636   6.790   6.491   2.842
 3246SOL    HW110637   6.782   6.394   2.818
 3246SOL    HW210638   6.794   6.546   2.758
 3247SOL     OW10639   1.604   4.301   3.644
 3247SOL    HW110640   1.585   4.297   3.742
 3247SOL    HW210641   1.675   4.235   3.621
 3248SOL     OW10642   5.581   2.689   3.058
 3248SOL    HW110643   5.644   2.713   3.132
 3248SOL    HW210644   5.487   2.696   3.091
 3249SOL     OW10645   3.031   3.164   3.305
 3249SOL    HW110646   2.990   3.215   3.381
 3249SOL    HW210647   2.984   3.188   3.220
 3250SOL     OW10648   4.351   5.894   2.881
 3250SOL    HW110649   4.404   5.831   2.825
 3250SOL    HW210650   4.395   5.906   2.970
 3251SOL     OW10651   2.823   1.985   2.845
 3251SOL    HW110652   2.800   2.027   2.934
 3251SOL    HW210653   2.772   2.031   2.773
 3252SOL     OW10654   2.476   1.740   3.332
 3252SOL    HW110655   2.506   1.788   3.414
 3252SOL    HW210656   2.416   1.664   3.358
 3253SOL     OW10657   6.760   3.245   0.035
 3253SOL    HW110658   6.834   3.280   0.091
 3253SOL    HW210659   6.673   3.282   0.066
 3254SOL     OW10660   6.336   6.826   1.413
 3254SOL    HW110661   6.347   6.736   1.455
 3254SOL    HW210662   6.425   6.860   1.384
 3255SOL     OW10663   3.851   5.658   1.993
 3255SOL    HW110664   3.841   5.649   2.092
 3255SOL    HW210665   3.789   5.595   1.947
 3256SOL     OW10666   5.227   2.442   1.118
 3256SOL    HW110667   5.153   2.498   1.155
 3256SOL    HW210668   5.250   2.370   1.184
 3257SOL     OW10669   3.145   1.556   3.148
 3257SOL    HW110670   3.082   1.524   3.078
 3257SOL    HW210671   3.149   1.656   3.147
 3258SOL     OW10672   1.770   5.460   4.180
 3258SOL    HW110673   1.793   5.426   4.089
 3258SOL    HW210674   1.673   5.441   4.199
 3259SOL     OW10675   5.585   4.105   4.258
 3259SOL    HW110676   5.590   4.153   4.170
 3259SOL    HW210677   5.676   4.104   4.300
 3260SOL     OW10678   1.555   4.926   3.225
 3260SOL    HW110679   1.569   5.025   3.233
 3260SOL    HW210680   1.609   4.879   3.295
 3261SOL     OW10681   5.617   0.446   4.196
 3261SOL    HW110682   5.623   0.358   4.242
 3261SOL    HW210683   5.653   0.437   4.102
 3262SOL     OW10684   3.350   1.540   3.722
 3262SOL    HW110685   3.328   1.465   3.785
 3262SOL    HW210686   3.417   1.601   3.765
 3263SOL     OW10687   0.146   1.032   1.677
 3263SOL    HW110688   0.189   1.112   1.718
 3263SOL    HW210689   0.081   0.993   1.741
 3264SOL     OW10690   1.613   4.623   6.621
 3264SOL    HW110691   1.608   4.723   6.622
 3264SOL    HW210692   1.685   4.593   6.684
 3265SOL     OW10693   0.238   5.165   6.505
 3265SOL    HW110694   0.143   5.189   6.488
 3265SOL    HW210695   0.255   5.163   6.604
 3266SOL     OW10696   4.020   4.890   6.143
 3266SOL    HW110697   4.089   4.904   6.072
 3266SOL    HW210698   4.021   4.968   6.206
 3267SOL     OW10699   3.350   6.467   0.634
 3267SOL    HW110700   3.394   6.516   0.559
 3267SOL    HW210701   3.251   6.470   0.622
 3268SOL     OW10702   5.676   5.197   2.144
 3268SOL    HW110703   5.718   5.245   2.067
 3268SOL    HW210704   5.682   5.098   2.129
 3269SOL     OW10705   1.635   4.965   2.244
 3269SOL    HW110706   1.708   5.016   2.200
 3269SOL    HW210707   1.669   4.876   2.275
 3270SOL     OW10708   1.324   2.794   5.531
 3270SOL    HW110709   1.225   2.789   5.536
 3270SOL    HW210710   1.353   2.890   5.534
 3271SOL     OW10711   1.252   3.854   1.597
 3271SOL    HW110712   1.313   3.905   1.536
 3271SOL    HW210713   1.242   3.760   1.563
 3272SOL     OW10714   4.608   6.092   0.949
 3272SOL    HW110715   4.644   6.144   0.872
 3272SOL    HW210716   4.593   6.154   1.027
 3273SOL     OW10717   3.887   4.172   6.590
 3273SOL    HW110718   3.825   4.099   6.563
 3273SOL    HW210719   3.950   4.138   6.660
 3274SOL     OW10720   5.142   6.885   2.264
 3274SOL    HW110721   5.123   6.968   2.316
 3274SOL    HW210722   5.127   6.805   2.321
 3275SOL     OW10723   4.995   0.802   1.433
 3275SOL    HW110724   4.916   0.827   1.377
 3275SOL    HW210725   4.965   0.747   1.511
 3276SOL     OW10726   5.995   5.942   6.775
 3276SOL    HW110727   5.995   5.843   6.788
 3276SOL    HW210728   5.933   5.966   6.701
 3277SOL     OW10729   3.305   2.031   2.395
 3277SOL    HW110730   3.314   1.932   2.381
 3277SOL    HW210731   3.218   2.062   2.356
 3278SOL     OW10732   5.128   1.098   6.604
 3278SOL    HW110733   5.124   1.167   6.677
 3278SOL    HW210734   5.059   1.028   6.621
 3279SOL     OW10735   3.903   6.949   1.936
 3279SOL    HW110736   3.938   6.910   2.022
 3279SOL    HW210737   3.889   6.876   1.869
 3280SOL     OW10738   7.019   3.322   3.988
 3280SOL    HW110739   0.030   3.340   4.080
 3280SOL    HW210740   6.970   3.403   3.955
 3281SOL     OW10741   6.134   1.963   1.617
 3281SOL    HW110742   6.143   2.033   1.688
 3281SOL    HW210743   6.158   1.874   1.655
 3282SOL     OW10744   0.146   4.861   4.979
 3282SOL    HW110745   0.115   4.878   4.885
 3282SOL    HW210746   0.199   4.776   4.981
 3283SOL     OW10747   2.893   2.040   6.943
 3283SOL    HW110748   2.844   1.973   6.886
 3283SOL    HW210749   2.970   2.078   6.892
 3284SOL     OW10750   2.118   6.792   4.924
 3284SOL    HW110751   2.133   6.693   4.927
 3284SOL    HW210752   2.039   6.815   4.981
 3285SOL     OW10753   4.062   2.274   4.448
 3285SOL    HW110754   3.990   2.249   4.512
 3285SOL    HW210755   4.066   2.374   4.440
 3286SOL     OW10756   1.769   2.995   2.936
 3286SOL    HW110757   1.867   2.992   2.916
 3286SOL    HW210758   1.745   3.084   2.974
 3287SOL     OW10759   2.610   0.628   0.963
 3287SOL    HW110760   2.637   0.659   0.872
 3287SOL    HW210761   2.577   0.706   1.016
 3288SOL     OW10762   2.440   5.585   1.994
 3288SOL    HW110763   2.451   5.607   1.898
 3288SOL    HW210764   2.391   5.659   2.041
 3289SOL     OW10765   3.799   0.667   6.844
 3289SOL    HW110766   3.790   0.753   6.793
 3289SOL    HW210767   3.850   0.685   6.929
 3290SOL     OW10768   0.471   5.959   0.091
 3290SOL    HW110769   0.557   5.942   0.043
 3290SOL    HW210770   0.477   6.046   0.141
 3291SOL     OW10771   5.037   6.766   4.841
 3291SOL    HW110772   5.025   6.865   4.848
 3291SOL    HW210773   5.132   6.742   4.860
 3292SOL     OW10774   0.227   2.381   0.257
 3292SOL    HW110775   0.194   2.318   0.327
 3292SOL    HW210776   0.186   2.358   0.169
 3293SOL     OW10777   6.795   4.954   3.206
 3293SOL    HW110778   6.867   4.907   3.155
 3293SOL    HW210779   6.806   4.936   3.304
 3294SOL     OW10780   4.855   2.889   5.510
 3294SOL    HW110781   4.913   2.918   5.587
 3294SOL    HW210782   4.762   2.926   5.524
 3295SOL     OW10783   1.478   2.513   2.862
 3295SOL    HW110784   1.438   2.587   2.809
 3295SOL    HW210785   1.411   2.439   2.872
 3296SOL     OW10786   2.353   0.710   6.321
 3296SOL    HW110787   2.412   0.652   6.377
 3296SOL    HW210788   2.408   0.778   6.274
 3297SOL     OW10789   4.231   1.646   5.146
 3297SOL    HW110790   4.206   1.612   5.056
 3297SOL    HW210791   4.326   1.676   5.146
 3298SOL     OW10792   3.561   4.087   5.521
 3298SOL    HW110793   3.529   4.051   5.609
 3298SOL    HW210794   3.661   4.091   5.520
 3299SOL     OW10795   2.658   6.000   3.793
 3299SOL    HW110796   2.756   5.990   3.777
 3299SOL    HW210797   2.622   6.074   3.736
 3300SOL     OW10798   2.121   0.798   4.234
 3300SOL    HW110799   2.202   0.739   4.239
 3300SOL    HW210800   2.048   0.757   4.290
 3301SOL     OW10801   0.916   1.051   3.570
 3301SOL    HW110802   0.965   0.969   3.599
 3301SOL    HW210803   0.858   1.030   3.492
 3302SOL     OW10804   1.147   5.365   5.157
 3302SOL    HW110805   1.055   5.340   5.188
 3302SOL    HW210806   1.181   5.297   5.093
 3303SOL     OW10807   3.634   3.596   6.696
 3303SOL    HW110808   3.724   3.555   6.709
 3303SOL    HW210809   3.633   3.648   6.611
 3304SOL     OW10810   2.071   4.052   0.051
 3304SOL    HW110811   2.086   4.146   0.080
 3304SOL    HW210812   2.116   3.989   0.115
 3305SOL     OW10813   3.066   2.686   0.064
 3305SOL    HW110814   3.007   2.709   0.141
 3305SOL    HW210815   3.042   2.595   0.030
 3306SOL     OW10816   2.312   0.469   6.858
 3306SOL    HW110817   2.239   0.422   6.810
 3306SOL    HW210818   2.374   0.511   6.791
 3307SOL     OW10819   1.951   5.915   4.522
 3307SOL    HW110820   2.004   5.951   4.599
 3307SOL    HW210821   2.006   5.850   4.470
 3308SOL     OW10822   4.501   4.765   1.240
 3308SOL    HW110823   4.401   4.763   1.237
 3308SOL    HW210824   4.536   4.822   1.165
 3309SOL     OW10825   5.152   3.751   3.263
 3309SOL    HW110826   5.208   3.690   3.208
 3309SOL    HW210827   5.164   3.729   3.360
 3310SOL     OW10828   6.471   4.604   6.270
 3310SOL    HW110829   6.447   4.578   6.176
 3310SOL    HW210830   6.437   4.535   6.334
 3311SOL     OW10831   2.195   3.491   0.681
 3311SOL    HW110832   2.182   3.560   0.752
 3311SOL    HW210833   2.277   3.514   0.628
 3312SOL     OW10834   4.850   2.764   6.517
 3312SOL    HW110835   4.863   2.839   6.453
 3312SOL    HW210836   4.770   2.710   6.490
 3313SOL     OW10837   0.084   0.132   4.383
 3313SOL    HW110838   0.138   0.062   4.429
 3313SOL    HW210839   0.019   0.087   4.321
 3314SOL     OW10840   3.683   5.685   1.741
 3314SOL    HW110841   3.695   5.615   1.811
 3314SOL    HW210842   3.614   5.656   1.675
 3315SOL     OW10843   1.102   5.404   3.825
 3315SOL    HW110844   1.045   5.474   3.783
 3315SOL    HW210845   1.172   5.447   3.882
 3316SOL     OW10846   4.074   2.746   0.136
 3316SOL    HW110847   4.118   2.804   0.068
 3316SOL    HW210848   4.143   2.692   0.184
 3317SOL     OW10849   5.044   2.657   2.019
 3317SOL    HW110850   5.140   2.682   2.016
 3317SOL    HW210851   5.035   2.558   2.034
 3318SOL     OW10852   3.523   2.954   0.664
 3318SOL    HW110853   3.569   3.023   0.609
 3318SOL    HW210854   3.553   2.961   0.759
 3319SOL     OW10855   6.514   5.993   4.182
 3319SOL    HW110856   6.556   6.052   4.251
 3319SOL    HW210857   6.579   5.977   4.108
 3320SOL     OW10858   6.362   6.633   2.013
 3320SOL    HW110859   6.445   6.668   1.969
 3320SOL    HW210860   6.288   6.629   1.946
 3321SOL     OW10861   4.865   1.846   6.916
 3321SOL    HW110862   4.930   1.846   6.993
 3321SOL    HW210863   4.913   1.819   6.833
 3322SOL     OW10864   6.235   2.975   0.754
 3322SOL    HW110865   6.299   2.901   0.736
 3322SOL    HW210866   6.169   2.946   0.824
 3323SOL     OW10867   1.539   1.580   1.445
 3323SOL    HW110868   1.521   1.521   1.366
 3323SOL    HW210869   1.602   1.534   1.507
 3324SOL     OW10870   5.194   5.328   5.452
 3324SOL    HW110871   5.117   5.390   5.465
 3324SOL    HW210872   5.273   5.362   5.502
 3325SOL     OW10873   2.662   5.116   4.973
 3325SOL    HW110874   2.694   5.042   5.032
 3325SOL    HW210875   2.709   5.113   4.885
 3326SOL     OW10876   3.589   2.131   2.357
 3326SOL    HW110877   3.601   2.207   2.294
 3326SOL    HW210878   3.491   2.114   2.370
 3327SOL     OW10879   0.847   5.504   6.272
 3327SOL    HW110880   0.905   5.582   6.249
 3327SOL    HW210881   0.753   5.523   6.243
 3328SOL     OW10882   4.857   2.317   5.057
 3328SOL    HW110883   4.782   2.347   4.999
 3328SOL    HW210884   4.941   2.313   5.003
 3329SOL     OW10885   6.616   6.290   5.554
 3329SOL    HW110886   6.656   6.202   5.527
 3329SOL    HW210887   6.688   6.351   5.587
 3330SOL     OW10888   6.525   3.952   3.299
 3330SOL    HW110889   6.570   3.929   3.213
 3330SOL    HW210890   6.534   3.875   3.363
 3331SOL     OW10891   1.942   3.443   0.558
 3331SOL    HW110892   1.875   3.405   0.622
 3331SOL    HW210893   2.025   3.469   0.608
 3332SOL     OW10894   6.968   4.055   1.451
 3332SOL    HW110895   6.879   4.018   1.478
 3332SOL    HW210896   0.008   4.049   1.527
 3333SOL     OW10897   2.969   5.542   6.097
 3333SOL    HW110898   3.004   5.460   6.143
 3333SOL    HW210899   2.880   5.521   6.056
 3334SOL     OW10900   1.668   3.552   1.892
 3334SOL    HW110901   1.643   3.649   1.900
 3334SOL    HW210902   1.765   3.544   1.868
 3335SOL     OW10903   5.848   4.051   4.334
 3335SOL    HW110904   5.895   4.091   4.256
 3335SOL    HW210905   5.915   4.022   4.402
 3336SOL     OW10906   3.277   5.900   5.977
 3336SOL    HW110907   3.304   5.863   5.888
 3336SOL    HW210908   3.347   5.964   6.008
 3337SOL     OW10909   3.266   1.786   0.710
 3337SOL    HW110910   3.201   1.849   0.751
 3337SOL    HW210911   3.309   1.731   0.782
 3338SOL     OW10912   0.098   5.055   0.528
 3338SOL    HW110913   0.077   5.112   0.608
 3338SOL    HW210914   0.088   4.959   0.552
 3339SOL     OW10915   0.954   5.821   6.300
 3339SOL    HW110916   1.033   5.863   6.255
 3339SOL    HW210917   0.878   5.887   6.301
 3340SOL     OW10918   3.787   0.155   1.789
 3340SOL    HW110919   3.808   0.083   1.856
 3340SOL    HW210920   3.871   0.183   1.743
 3341SOL     OW10921   0.080   6.895   1.654
 3341SOL    HW110922   0.132   6.898   1.569
 3341SOL    HW210923   0.133   6.848   1.724
 3342SOL     OW10924   2.901   0.415   5.275
 3342SOL    HW110925   2.971   0.438   5.207
 3342SOL    HW210926   2.938   0.428   5.367
 3343SOL     OW10927   0.281   2.169   1.138
 3343SOL    HW110928   0.188   2.191   1.168
 3343SOL    HW210929   0.278   2.129   1.046
 3344SOL     OW10930   0.056   2.728   6.037
 3344SOL    HW110931   0.053   2.631   6.060
 3344SOL    HW210932   7.021   2.746   5.958
 3345SOL     OW10933   2.088   3.436   5.418
 3345SOL    HW110934   2.125   3.506   5.479
 3345SOL    HW210935   2.081   3.349   5.468
 3346SOL     OW10936   1.902   5.851   2.357
 3346SOL    HW110937   1.835   5.915   2.394
 3346SOL    HW210938   1.885   5.837   2.259
 3347SOL     OW10939   5.988   4.391   4.047
 3347SOL    HW110940   6.001   4.297   4.077
 3347SOL    HW210941   5.942   4.392   3.958
 3348SOL     OW10942   3.596   3.734   3.214
 3348SOL    HW110943   3.655   3.734   3.133
 3348SOL    HW210944   3.524   3.802   3.203
 3349SOL     OW10945   6.066   3.654   6.304
 3349SOL    HW110946   6.119   3.738   6.307
 3349SOL    HW210947   6.106   3.586   6.366
 3350SOL     OW10948   1.575   2.197   0.847
 3350SOL    HW110949   1.602   2.133   0.919
 3350SOL    HW210950   1.651   2.258   0.826
 3351SOL     OW10951   4.974   2.011   0.405
 3351SOL    HW110952   4.916   2.066   0.464
 3351SOL    HW210953   4.979   2.052   0.314
 3352SOL     OW10954   0.908   3.424   0.338
 3352SOL    HW110955   0.872   3.486   0.408
 3352SOL    HW210956   0.840   3.411   0.266
 3353SOL     OW10957   1.911   6.601   6.187
 3353SOL    HW110958   1.833   6.624   6.128
 3353SOL    HW210959   1.877   6.573   6.277
 3354SOL     OW10960   1.074   0.893   1.843
 3354SOL    HW110961   1.110   0.904   1.750
 3354SOL    HW210962   0.974   0.899   1.841
 3355SOL     OW10963   6.654   1.092   3.067
 3355SOL    HW110964   6.662   0.996   3.093
 3355SOL    HW210965   6.585   1.102   2.996
 3356SOL     OW10966   1.825   3.257   5.349
 3356SOL    HW110967   1.861   3.341   5.388
 3356SOL    HW210968   1.815   3.267   5.250
 3357SOL     OW10969   2.294   5.451   2.426
 3357SOL    HW110970   2.201   5.432   2.396
 3357SOL    HW210971   2.306   5.423   2.521
 3358SOL     OW10972   0.097   4.220   3.604
 3358SOL    HW110973   0.083   4.318   3.623
 3358SOL    HW210974   0.078   4.168   3.687
 3359SOL     OW10975   1.330   1.240   1.954
 3359SOL    HW110976   1.244   1.224   1.906
 3359SOL    HW210977   1.376   1.320   1.916
 3360SOL     OW10978   2.132   0.587   6.179
 3360SOL    HW110979   2.219   0.621   6.215
 3360SOL    HW210980   2.092   0.522   6.244
 3361SOL     OW10981   3.990   0.765   3.259
 3361SOL    HW110982   4.079   0.809   3.274
 3361SOL    HW210983   3.987   0.728   3.165
 3362SOL     OW10984   2.511   1.792   5.016
 3362SOL    HW110985   2.447   1.868   5.002
 3362SOL    HW210986   2.463   1.705   4.999
 3363SOL     OW10987   0.118   0.875   6.101
 3363SOL    HW110988   0.146   0.964   6.067
 3363SOL    HW210989   0.128   0.807   6.029
 3364SOL     OW10990   2.040   5.097   6.388
 3364SOL    HW110991   2.014   5.157   6.312
 3364SOL    HW210992   1.979   5.018   6.392
 3365SOL     OW10993   5.820   1.842   5.759
 3365SOL    HW110994   5.761   1.765   5.784
 3365SOL    HW210995   5.876   1.818   5.681
 3366SOL     OW10996   5.227   0.779   6.580
 3366SOL    HW110997   5.186   0.763   6.490
 3366SOL    HW210998   5.192   0.865   6.617
 3367SOL     OW10999   2.110   0.486   1.610
 3367SOL    HW111000   2.091   0.583   1.624
 3367SOL    HW211001   2.187   0.458   1.666
 3368SOL     OW11002   6.623   0.944   6.006
 3368SOL    HW111003   6.581   0.929   5.916
 3368SOL    HW211004   6.589   1.030   6.045
 3369SOL     OW11005   3.641   6.342   6.018
 3369SOL    HW111006   3.683   6.298   5.938
 3369SOL    HW211007   3.630   6.275   6.091
 3370SOL     OW11008   5.448   0.082   5.259
 3370SOL    HW111009   5.534   0.129   5.278
 3370SOL    HW211010   5.396   0.134   5.191
 3371SOL     OW11011   6.486   4.779   1.457
 3371SOL    HW111012   6.410   4.727   1.417
 3371SOL    HW211013   6.570   4.726   1.448
 3372SOL     OW11014   0.542   2.281   2.634
 3372SOL    HW111015   0.530   2.186   2.603
 3372SOL    HW211016   0.632   2.313   2.607
 3373SOL     OW11017   0.558   2.187   6.463
 3373SOL    HW111018   0.650   2.148   6.461
 3373SOL    HW211019   0.554   2.268   6.404
 3374SOL     OW11020   3.980   5.599   5.482
 3374SOL    HW111021   3.905   5.645   5.530
 3374SOL    HW211022   4.028   5.664   5.424
 3375SOL     OW11023   3.737   4.162   5.150
 3375SOL    HW111024   3.713   4.150   5.246
 3375SOL    HW211025   3.669   4.118   5.092
 3376SOL     OW11026   2.955   3.151   1.938
 3376SOL    HW111027   3.019   3.087   1.980
 3376SOL    HW211028   2.933   3.223   2.004
 3377SOL     OW11029   2.657   5.610   5.503
 3377SOL    HW111030   2.693   5.677   5.437
 3377SOL    HW211031   2.719   5.532   5.507
 3378SOL     OW11032   0.162   0.847   0.685
 3378SOL    HW111033   0.155   0.936   0.640
 3378SOL    HW211034   0.184   0.777   0.617
 3379SOL     OW11035   0.343   4.981   5.907
 3379SOL    HW111036   0.314   4.946   5.996
 3379SOL    HW211037   0.355   5.080   5.912
 3380SOL     OW11038   1.100   3.885   5.472
 3380SOL    HW111039   1.018   3.832   5.495
 3380SOL    HW211040   1.076   3.958   5.409
 3381SOL     OW11041   3.135   2.878   1.386
 3381SOL    HW111042   3.091   2.816   1.321
 3381SOL    HW211043   3.077   2.958   1.400
 3382SOL     OW11044   6.703   0.001   6.991
 3382SOL    HW111045   6.706   0.101   6.983
 3382SOL    HW211046   6.608   6.996   7.007
 3383SOL     OW11047   0.625   3.790   2.797
 3383SOL    HW111048   0.623   3.690   2.801
 3383SOL    HW211049   0.588   3.821   2.709
 3384SOL     OW11050   3.076   3.090   4.689
 3384SOL    HW111051   3.006   3.151   4.725
 3384SOL    HW211052   3.070   3.087   4.589
 3385SOL     OW11053   6.608   3.765   3.490
 3385SOL    HW111054   6.696   3.768   3.536
 3385SOL    HW211055   6.536   3.745   3.557
 3386SOL     OW11056   6.000   3.695   4.899
 3386SOL    HW111057   5.907   3.661   4.884
 3386SOL    HW211058   5.996   3.790   4.929
 3387SOL     OW11059   3.320   1.988   2.903
 3387SOL    HW111060   3.314   2.015   2.999
 3387SOL    HW211061   3.227   1.977   2.866
 3388SOL     OW11062   5.129   2.984   1.919
 3388SOL    HW111063   5.157   3.050   1.850
 3388SOL    HW211064   5.044   2.939   1.890
 3389SOL     OW11065   4.701   4.652   3.203
 3389SOL    HW111066   4.670   4.558   3.190
 3389SOL    HW211067   4.750   4.659   3.291
 3390SOL     OW11068   4.913   2.525   5.837
 3390SOL    HW111069   5.009   2.501   5.828
 3390SOL    HW211070   4.876   2.551   5.747
 3391SOL     OW11071   4.040   1.899   4.062
 3391SOL    HW111072   4.016   1.953   4.143
 3391SOL    HW211073   4.131   1.860   4.073
 3392SOL     OW11074   5.028   5.986   3.291
 3392SOL    HW111075   5.055   6.053   3.360
 3392SOL    HW211076   5.087   5.906   3.296
 3393SOL     OW11077   6.510   0.520   0.247
 3393SOL    HW111078   6.595   0.565   0.274
 3393SOL    HW211079   6.486   0.546   0.154
 3394SOL     OW11080   5.507   1.160   1.784
 3394SOL    HW111081   5.495   1.210   1.699
 3394SOL    HW211082   5.577   1.205   1.840
 3395SOL     OW11083   1.553   3.697   5.177
 3395SOL    HW111084   1.508   3.660   5.096
 3395SOL    HW211085   1.630   3.639   5.201
 3396SOL     OW11086   6.635   4.033   4.591
 3396SOL    HW111087   6.617   3.991   4.680
 3396SOL    HW211088   6.707   4.103   4.600
 3397SOL     OW11089   2.890   6.412   5.905
 3397SOL    HW111090   2.909   6.406   5.807
 3397SOL    HW211091   2.857   6.324   5.939
 3398SOL     OW11092   0.511   0.131   4.233
 3398SOL    HW111093   0.433   0.121   4.170
 3398SOL    HW211094   0.486   0.093   4.322
 3399SOL     OW11095   4.293   5.342   4.327
 3399SOL    HW111096   4.333   5.376   4.412
 3399SOL    HW211097   4.194   5.331   4.338
 3400SOL     OW11098   5.083   2.660   6.603
 3400SOL    HW111099   5.003   2.694   6.554
 3400SOL    HW211100   5.081   2.561   6.606
 3401SOL     OW11101   6.766   4.946   6.591
 3401SOL    HW111102   6.751   4.904   6.502
 3401SOL    HW211103   6.825   4.887   6.647
 3402SOL     OW11104   5.242   5.287   2.446
 3402SOL    HW111105   5.148   5.318   2.456
 3402SOL    HW211106   5.248   5.219   2.373
 3403SOL     OW11107   3.166   1.995   5.051
 3403SOL    HW111108   3.190   2.087   5.020
 3403SOL    HW211109   3.132   1.998   5.145
 3404SOL     OW11110   4.276   0.636   1.198
 3404SOL    HW111111   4.226   0.559   1.238
 3404SOL    HW211112   4.293   0.618   1.101
 3405SOL     OW11113   5.669   3.510   0.847
 3405SOL    HW111114   5.672   3.608   0.830
 3405SOL    HW211115   5.762   3.473   0.841
 3406SOL     OW11116   1.169   4.477   1.642
 3406SOL    HW111117   1.094   4.544   1.644
 3406SOL    HW211118   1.132   4.386   1.657
 3407SOL     OW11119   1.795   5.595   2.817
 3407SOL    HW111120   1.824   5.649   2.896
 3407SOL    HW211121   1.695   5.586   2.818
 3408SOL     OW11122   5.348   4.200   2.896
 3408SOL    HW111123   5.250   4.183   2.890
 3408SOL    HW211124   5.376   4.200   2.992
 3409SOL     OW11125   3.087   0.618   6.040
 3409SOL    HW111126   3.156   0.688   6.019
 3409SOL    HW211127   3.119   0.561   6.115
 3410SOL     OW11128   0.089   0.668   6.930
 3410SOL    HW111129   7.013   0.664   6.926
 3410SOL    HW211130   0.120   0.646   7.022
 3411SOL     OW11131   4.829   2.531   2.208
 3411SOL    HW111132   4.928   2.528   2.221
 3411SOL    HW211133   4.800   2.625   2.192
 3412SOL     OW11134   3.961   5.038   6.730
 3412SOL    HW111135   4.059   5.051   6.711
 3412SOL    HW211136   3.926   4.964   6.671
 3413SOL     OW11137   4.060   1.714   1.983
 3413SOL    HW111138   4.048   1.780   2.057
 3413SOL    HW211139   3.995   1.639   1.995
 3414SOL     OW11140   3.829   1.226   5.593
 3414SOL    HW111141   3.749   1.285   5.602
 3414SOL    HW211142   3.816   1.163   5.516
 3415SOL     OW11143   0.599   5.293   4.170
 3415SOL    HW111144   0.590   5.236   4.088
 3415SOL    HW211145   0.563   5.244   4.249
 3416SOL     OW11146   2.014   5.131   5.854
 3416SOL    HW111147   1.990   5.145   5.950
 3416SOL    HW211148   2.108   5.099   5.847
 3417SOL     OW11149   5.844   0.576   1.459
 3417SOL    HW111150   5.845   0.502   1.392
 3417SOL    HW211151   5.769   0.561   1.524
 3418SOL     OW11152   3.314   1.792   6.432
 3418SOL    HW111153   3.272   1.773   6.343
 3418SOL    HW211154   3.246   1.777   6.504
 3419SOL     OW11155   4.467   3.837   0.478
 3419SOL    HW111156   4.515   3.777   0.542
 3419SOL    HW211157   4.411   3.903   0.528
 3420SOL     OW11158   4.026   2.101   3.859
 3420SOL    HW111159   4.093   2.156   3.909
 3420SOL    HW211160   3.997   2.024   3.916
 3421SOL     OW11161   0.798   6.471   3.822
 3421SOL    HW111162   0.893   6.442   3.833
 3421SOL    HW211163   0.775   6.475   3.724
 3422SOL     OW11164   2.976   1.832   2.256
 3422SOL    HW111165   2.883   1.867   2.241
 3422SOL    HW211166   3.042   1.906   2.241
 3423SOL     OW11167   2.814   1.128   2.009
 3423SOL    HW111168   2.751   1.082   2.071
 3423SOL    HW211169   2.866   1.197   2.059
 3424SOL     OW11170   4.306   1.108   2.148
 3424SOL    HW111171   4.345   1.156   2.226
 3424SOL    HW211172   4.379   1.085   2.083
 3425SOL     OW11173   5.120   4.542   1.670
 3425SOL    HW111174   5.077   4.507   1.753
 3425SOL    HW211175   5.204   4.590   1.694
 3426SOL     OW11176   4.253   3.728   0.785
 3426SOL    HW111177   4.194   3.783   0.725
 3426SOL    HW211178   4.219   3.734   0.879
 3427SOL     OW11179   0.846   1.305   0.508
 3427SOL    HW111180   0.789   1.371   0.460
 3427SOL    HW211181   0.910   1.353   0.567
 3428SOL     OW11182   4.447   4.967   3.370
 3428SOL    HW111183   4.537   5.008   3.388
 3428SOL    HW211184   4.378   5.040   3.363
 3429SOL     OW11185   0.482   3.123   6.761
 3429SOL    HW111186   0.417   3.162   6.826
 3429SOL    HW211187   0.575   3.147   6.789
 3430SOL     OW11188   0.915   6.446   6.751
 3430SOL    HW111189   0.994   6.504   6.730
 3430SOL    HW211190   0.947   6.353   6.770
 3431SOL     OW11191   0.682   6.154   6.930
 3431SOL    HW111192   0.711   6.228   6.990
 3431SOL    HW211193   0.594   6.176   6.889
 3432SOL     OW11194   2.952   1.993   6.590
 3432SOL    HW111195   2.868   2.047   6.580
 3432SOL    HW211196   3.017   2.043   6.647
 3433SOL     OW11197   4.152   0.748   4.853
 3433SOL    HW111198   4.156   0.760   4.754
 3433SOL    HW211199   4.224   0.803   4.896
 3434SOL     OW11200   4.611   2.363   3.018
 3434SOL    HW111201   4.515   2.362   2.990
 3434SOL    HW211202   4.649   2.272   3.009
 3435SOL     OW11203   0.616   1.656   6.405
 3435SOL    HW111204   0.710   1.634   6.382
 3435SOL    HW211205   0.613   1.737   6.463
 3436SOL     OW11206   4.574   6.735   3.282
 3436SOL    HW111207   4.503   6.745   3.351
 3436SOL    HW211208   4.533   6.747   3.191
 3437SOL     OW11209   3.998   0.665   6.254
 3437SOL    HW111210   4.087   0.697   6.222
 3437SOL    HW211211   3.949   0.741   6.298
 3438SOL     OW11212   1.492   4.064   6.430
 3438SOL    HW111213   1.490   4.149   6.482
 3438SOL    HW211214   1.474   3.987   6.491
 3439SOL     OW11215   2.788   6.561   3.744
 3439SOL    HW111216   2.790   6.660   3.755
 3439SOL    HW211217   2.695   6.532   3.722
 3440SOL     OW11218   3.705   1.949   0.865
 3440SOL    HW111219   3.733   1.928   0.771
 3440SOL    HW211220   3.656   1.870   0.903
 3441SOL     OW11221   3.702   0.552   4.249
 3441SOL    HW111222   3.690   0.621   4.177
 3441SOL    HW211223   3.613   0.511   4.270
 3442SOL     OW11224   1.597   4.840   2.972
 3442SOL    HW111225   1.666   4.768   2.969
 3442SOL    HW211226   1.582   4.869   3.066
 3443SOL     OW11227   5.808   0.824   3.689
 3443SOL    HW111228   5.858   0.909   3.672
 3443SOL    HW211229   5.825   0.793   3.782
 3444SOL     OW11230   4.277   5.002   0.522
 3444SOL    HW111231   4.180   5.027   0.519
 3444SOL    HW211232   4.286   4.903   0.511
 3445SOL     OW11233   5.995   5.005   4.935
 3445SOL    HW111234   6.056   4.968   5.006
 3445SOL    HW211235   5.944   4.930   4.893
 3446SOL     OW11236   2.972   6.483   2.784
 3446SOL    HW111237   3.062   6.518   2.811
 3446SOL    HW211238   2.931   6.544   2.717
 3447SOL     OW11239   6.070   4.918   6.170
 3447SOL    HW111240   6.041   5.008   6.139
 3447SOL    HW211241   5.999   4.851   6.148
 3448SOL     OW11242   3.601   2.040   1.251
 3448SOL    HW111243   3.696   2.062   1.273
 3448SOL    HW211244   3.552   2.014   1.335
 3449SOL     OW11245   6.177   6.198   2.959
 3449SOL    HW111246   6.105   6.214   2.891
 3449SOL    HW211247   6.135   6.182   3.049
 3450SOL     OW11248   0.842   2.240   1.756
 3450SOL    HW111249   0.870   2.320   1.703
 3450SOL    HW211250   0.832   2.162   1.694
 3451SOL     OW11251   1.364   5.244   3.984
 3451SOL    HW111252   1.313   5.185   3.921
 3451SOL    HW211253   1.431   5.188   4.034
 3452SOL     OW11254   6.569   2.414   0.441
 3452SOL    HW111255   6.605   2.504   0.417
 3452SOL    HW211256   6.491   2.425   0.503
 3453SOL     OW11257   6.475   6.213   5.820
 3453SOL    HW111258   6.465   6.236   5.723
 3453SOL    HW211259   6.570   6.227   5.848
 3454SOL     OW11260   0.587   1.270   0.181
 3454SOL    HW111261   0.531   1.259   0.263
 3454SOL    HW211262   0.545   1.337   0.120
 3455SOL     OW11263   2.159   2.246   4.622
 3455SOL    HW111264   2.206   2.318   4.571
 3455SOL    HW211265   2.109   2.187   4.558
 3456SOL     OW11266   6.378   0.241   1.309
 3456SOL    HW111267   6.393   0.142   1.298
 3456SOL    HW211268   6.466   0.286   1.325
 3457SOL     OW11269   2.437   5.452   3.940
 3457SOL    HW111270   2.519   5.454   3.997
 3457SOL    HW211271   2.383   5.534   3.957
 3458SOL     OW11272   5.334   5.170   1.167
 3458SOL    HW111273   5.235   5.152   1.160
 3458SOL    HW211274   5.378   5.144   1.081
 3459SOL     OW11275   6.476   6.556   3.318
 3459SOL    HW111276   6.526   6.521   3.238
 3459SOL    HW211277   6.519   6.521   3.402
 3460SOL     OW11278   4.172   3.647   5.813
 3460SOL    HW111279   4.267   3.617   5.811
 3460SOL    HW211280   4.127   3.621   5.728
 3461SOL     OW11281   3.331   5.433   2.480
 3461SOL    HW111282   3.413   5.467   2.434
 3461SOL    HW211283   3.271   5.389   2.412
 3462SOL     OW11284   4.900   3.178   3.044
 3462SOL    HW111285   4.875   3.090   3.004
 3462SOL    HW211286   4.858   3.187   3.134
 3463SOL     OW11287   2.147   2.863   1.009
 3463SOL    HW111288   2.241   2.870   1.043
 3463SOL    HW211289   2.122   2.767   0.998
 3464SOL     OW11290   4.637   2.568   6.490
 3464SOL    HW111291   4.618   2.566   6.588
 3464SOL    HW211292   4.633   2.475   6.453
 3465SOL     OW11293   2.018   3.979   1.753
 3465SOL    HW111294   2.105   4.010   1.792
 3465SOL    HW211295   1.946   4.044   1.779
 3466SOL     OW11296   6.582   4.559   3.898
 3466SOL    HW111297   6.521   4.637   3.886
 3466SOL    HW211298   6.582   4.530   3.994
 3467SOL     OW11299   2.898   2.507   1.060
 3467SOL    HW111300   2.898   2.451   0.977
 3467SOL    HW211301   2.832   2.581   1.050
 3468SOL     OW11302   3.540   1.676   0.617
 3468SOL    HW111303   3.557   1.618   0.696
 3468SOL    HW211304   3.452   1.722   0.627
 3469SOL     OW11305   3.811   6.000   5.996
 3469SOL    HW111306   3.764   5.914   6.019
 3469SOL    HW211307   3.859   6.034   6.076
 3470SOL     OW11308   1.320   3.240   1.392
 3470SOL    HW111309   1.252   3.279   1.454
 3470SOL    HW211310   1.411   3.253   1.430
 3471SOL     OW11311   5.236   3.466   4.609
 3471SOL    HW111312   5.171   3.390   4.606
 3471SOL    HW211313   5.314   3.441   4.666
 3472SOL     OW11314   4.196   1.882   2.550
 3472SOL    HW111315   4.177   1.941   2.471
 3472SOL    HW211316   4.110   1.855   2.592
 3473SOL     OW11317   6.694   4.650   1.687
 3473SOL    HW111318   6.750   4.696   1.756
 3473SOL    HW211319   6.632   4.717   1.646
 3474SOL     OW11320   5.460   4.828   4.152
 3474SOL    HW111321   5.473   4.855   4.247
 3474SOL    HW211322   5.380   4.768   4.146
 3475SOL     OW11323   0.056   4.669   4.204
 3475SOL    HW111324   0.064   4.682   4.105
 3475SOL    HW211325   0.082   4.576   4.228
 3476SOL     OW11326   1.828   0.931   3.731
 3476SOL    HW111327   1.806   0.996   3.804
 3476SOL    HW211328   1.843   0.980   3.645
 3477SOL     OW11329   0.700   4.062   2.194
 3477SOL    HW111330   0.777   3.999   2.197
 3477SOL    HW211331   0.709   4.130   2.267
 3478SOL     OW11332   2.153   1.142   1.398
 3478SOL    HW111333   2.209   1.063   1.373
 3478SOL    HW211334   2.139   1.200   1.317
 3479SOL     OW11335   1.193   4.558   4.834
 3479SOL    HW111336   1.183   4.640   4.778
 3479SOL    HW211337   1.287   4.524   4.827
 3480SOL     OW11338   1.404   4.806   6.855
 3480SOL    HW111339   1.352   4.788   6.771
 3480SOL    HW211340   1.449   4.895   6.848
 3481SOL     OW11341   6.472   0.923   5.423
 3481SOL    HW111342   6.424   0.836   5.440
 3481SOL    HW211343   6.541   0.909   5.353
 3482SOL     OW11344   5.883   3.824   5.663
 3482SOL    HW111345   5.851   3.906   5.711
 3482SOL    HW211346   5.874   3.837   5.565
 3483SOL     OW11347   5.498   2.910   5.150
 3483SOL    HW111348   5.537   2.846   5.216
 3483SOL    HW211349   5.479   2.997   5.195
 3484SOL     OW11350   1.770   3.492   5.162
 3484SOL    HW111351   1.759   3.475   5.260
 3484SOL    HW211352   1.810   3.412   5.118
 3485SOL     OW11353   6.898   2.719   6.556
 3485SOL    HW111354   6.935   2.772   6.480
 3485SOL    HW211355   6.889   2.777   6.637
 3486SOL     OW11356   2.305   6.131   4.884
 3486SOL    HW111357   2.306   6.208   4.820
 3486SOL    HW211358   2.384   6.137   4.945
 3487SOL     OW11359   4.750   1.227   6.268
 3487SOL    HW111360   4.651   1.234   6.269
 3487SOL    HW211361   4.784   1.254   6.177
 3488SOL     OW11362   5.704   0.585   4.900
 3488SOL    HW111363   5.647   0.532   4.963
 3488SOL    HW211364   5.797   0.591   4.937
 3489SOL     OW11365   3.030   6.225   0.727
 3489SOL    HW111366   3.061   6.320   0.734
 3489SOL    HW211367   2.937   6.219   0.762
 3490SOL     OW11368   3.403   6.740   0.030
 3490SOL    HW111369   3.311   6.774   0.048
 3490SOL    HW211370   3.470   6.799   0.074
 3491SOL     OW11371   4.633   4.796   6.234
 3491SOL    HW111372   4.608   4.875   6.178
 3491SOL    HW211373   4.639   4.824   6.330
 3492SOL     OW11374   5.841   4.362   2.316
 3492SOL    HW111375   5.881   4.279   2.355
 3492SOL    HW211376   5.913   4.429   2.298
 3493SOL     OW11377   6.534   3.036   5.334
 3493SOL    HW111378   6.616   3.034   5.275
 3493SOL    HW211379   6.464   3.092   5.291
 3494SOL     OW11380   4.431   1.776   2.184
 3494SOL    HW111381   4.380   1.726   2.255
 3494SOL    HW211382   4.463   1.863   2.221
 3495SOL     OW11383   0.903   2.918   2.670
 3495SOL    HW111384   0.952   2.867   2.741
 3495SOL    HW211385   0.824   2.864   2.639
 3496SOL     OW11386   6.006   5.386   1.062
 3496SOL    HW111387   6.000   5.480   1.094
 3496SOL    HW211388   5.917   5.342   1.070
 3497SOL     OW11389   3.174   6.575   2.549
 3497SOL    HW111390   3.151   6.644   2.481
 3497SOL    HW211391   3.113   6.497   2.540
 3498SOL     OW11392   2.177   2.680   1.450
 3498SOL    HW111393   2.221   2.753   1.398
 3498SOL    HW211394   2.119   2.719   1.522
 3499SOL     OW11395   6.234   5.726   5.046
 3499SOL    HW111396   6.206   5.820   5.029
 3499SOL    HW211397   6.299   5.724   5.123
 3500SOL     OW11398   2.030   1.956   4.671
 3500SOL    HW111399   2.033   2.034   4.735
 3500SOL    HW211400   1.943   1.958   4.622
 3501SOL     OW11401   1.722   0.180   4.996
 3501SOL    HW111402   1.698   0.257   4.937
 3501SOL    HW211403   1.666   0.181   5.078
 3502SOL     OW11404   4.850   2.840   2.244
 3502SOL    HW111405   4.815   2.914   2.187
 3502SOL    HW211406   4.927   2.796   2.198
 3503SOL     OW11407   6.166   6.439   6.577
 3503SOL    HW111408   6.113   6.381   6.516
 3503SOL    HW211409   6.105   6.485   6.642
 3504SOL     OW11410   1.040   0.821   0.570
 3504SOL    HW111411   1.050   0.918   0.546
 3504SOL    HW211412   1.125   0.773   0.550
 3505SOL     OW11413   5.223   4.966   6.259
 3505SOL    HW111414   5.265   4.878   6.280
 3505SOL    HW211415   5.176   4.960   6.172
 3506SOL     OW11416   4.644   5.031   4.925
 3506SOL    HW111417   4.723   5.036   4.863
 3506SOL    HW211418   4.563   5.004   4.873
 3507SOL     OW11419   3.041   0.334   0.745
 3507SOL    HW111420   3.137   0.339   0.773
 3507SOL    HW211421   2.995   0.261   0.797
 3508SOL     OW11422   3.082   1.966   5.326
 3508SOL    HW111423   3.024   2.011   5.393
 3508SOL    HW211424   3.038   1.883   5.294
 3509SOL     OW11425   3.515   5.587   6.398
 3509SOL    HW111426   3.494   5.671   6.448
 3509SOL    HW211427   3.586   5.537   6.447
 3510SOL     OW11428   2.511   1.492   0.619
 3510SOL    HW111429   2.511   1.433   0.700
 3510SOL    HW211430   2.450   1.453   0.549
 3511SOL     OW11431   3.067   4.332   1.742
 3511SOL    HW111432   3.017   4.391   1.806
 3511SOL    HW211433   3.130   4.387   1.688
 3512SOL     OW11434   0.386   5.238   5.978
 3512SOL    HW111435   0.476   5.280   5.969
 3512SOL    HW211436   0.337   5.279   6.055
 3513SOL     OW11437   5.950   1.850   0.335
 3513SOL    HW111438   6.014   1.830   0.261
 3513SOL    HW211439   6.000   1.866   0.419
 3514SOL     OW11440   3.833   1.381   2.178
 3514SOL    HW111441   3.826   1.346   2.085
 3514SOL    HW211442   3.788   1.470   2.184
 3515SOL     OW11443   0.292   5.714   4.194
 3515SOL    HW111444   0.205   5.686   4.234
 3515SOL    HW211445   0.366   5.697   4.259
 3516SOL     OW11446   4.319   0.178   1.250
 3516SOL    HW111447   4.266   0.258   1.280
 3516SOL    HW211448   4.263   0.122   1.189
 3517SOL     OW11449   5.645   0.272   1.445
 3517SOL    HW111450   5.723   0.237   1.496
 3517SOL    HW211451   5.584   0.196   1.422
 3518SOL     OW11452   4.732   0.983   5.288
 3518SOL    HW111453   4.718   1.004   5.385
 3518SOL    HW211454   4.788   0.901   5.280
 3519SOL     OW11455   3.575   0.470   1.016
 3519SOL    HW111456   3.523   0.553   1.035
 3519SOL    HW211457   3.638   0.452   1.091
 3520SOL     OW11458   2.708   6.084   4.676
 3520SOL    HW111459   2.793   6.032   4.682
 3520SOL    HW211460   2.705   6.133   4.589
 3521SOL     OW11461   2.219   3.103   0.456
 3521SOL    HW111462   2.159   3.057   0.522
 3521SOL    HW211463   2.193   3.199   0.449
 3522SOL     OW11464   0.398   5.513   6.466
 3522SOL    HW111465   0.448   5.597   6.443
 3522SOL    HW211466   0.463   5.438   6.478
 3523SOL     OW11467   1.861   5.624   0.024
 3523SOL    HW111468   1.820   5.642   6.959
 3523SOL    HW211469   1.798   5.654   0.096
 3524SOL     OW11470   5.249   1.120   3.440
 3524SOL    HW111471   5.244   1.164   3.530
 3524SOL    HW211472   5.292   1.031   3.449
 3525SOL     OW11473   6.218   3.840   2.904
 3525SOL    HW111474   6.183   3.798   2.988
 3525SOL    HW211475   6.179   3.932   2.895
 3526SOL     OW11476   0.866   6.592   3.183
 3526SOL    HW111477   0.827   6.616   3.094
 3526SOL    HW211478   0.873   6.493   3.191
 3527SOL     OW11479   0.343   2.530   6.131
 3527SOL    HW111480   0.306   2.504   6.042
 3527SOL    HW211481   0.270   2.523   6.200
 3528SOL     OW11482   2.471   5.918   4.780
 3528SOL    HW111483   2.394   5.974   4.814
 3528SOL    HW211484   2.556   5.951   4.820
 3529SOL     OW11485   4.541   5.070   0.769
 3529SOL    HW111486   4.549   5.117   0.681
 3529SOL    HW211487   4.494   5.130   0.835
 3530SOL     OW11488   0.012   6.918   2.019
 3530SOL    HW111489   0.042   7.002   1.974
 3530SOL    HW211490   0.086   6.851   2.018
 3531SOL     OW11491   5.472   1.725   0.141
 3531SOL    HW111492   5.537   1.728   0.217
 3531SOL    HW211493   5.522   1.722   0.055
 3532SOL     OW11494   2.175   1.432   1.804
 3532SOL    HW111495   2.089   1.407   1.849
 3532SOL    HW211496   2.167   1.413   1.706
 3533SOL     OW11497   0.884   1.564   2.917
 3533SOL    HW111498   0.787   1.576   2.897
 3533SOL    HW211499   0.894   1.505   2.997
 3534SOL     OW11500   0.158   1.647   0.910
 3534SOL    HW111501   0.228   1.580   0.937
 3534SOL    HW211502   0.187   1.693   0.826
 3535SOL     OW11503   2.759   5.754   4.593
 3535SOL    HW111504   2.766   5.848   4.627
 3535SOL    HW211505   2.851   5.719   4.574
 3536SOL     OW11506   3.746   2.081   2.817
 3536SOL    HW111507   3.700   2.087   2.729
 3536SOL    HW211508   3.680   2.099   2.890
 3537SOL     OW11509   2.037   6.368   3.200
 3537SOL    HW111510   2.051   6.270   3.192
 3537SOL    HW211511   2.085   6.402   3.281
 3538SOL     OW11512   3.448   5.355   3.775
 3538SOL    HW111513   3.516   5.326   3.708
 3538SOL    HW211514   3.454   5.296   3.856
 3539SOL     OW11515   3.558   3.418   4.455
 3539SOL    HW111516   3.645   3.451   4.417
 3539SOL    HW211517   3.551   3.447   4.550
 3540SOL     OW11518   1.642   2.044   3.417
 3540SOL    HW111519   1.727   1.990   3.414
 3540SOL    HW211520   1.647   2.110   3.492
 3541SOL     OW11521   3.495   4.130   4.814
 3541SOL    HW111522   3.403   4.170   4.814
 3541SOL    HW211523   3.503   4.065   4.889
 3542SOL     OW11524   0.420   5.255   1.535
 3542SOL    HW111525   0.324   5.285   1.529
 3542SOL    HW211526   0.456   5.244   1.442
 3543SOL     OW11527   6.395   2.918   4.742
 3543SOL    HW111528   6.301   2.949   4.723
 3543SOL    HW211529   6.392   2.841   4.806
 3544SOL     OW11530   2.118   5.744   6.824
 3544SOL    HW111531   2.131   5.651   6.860
 3544SOL    HW211532   2.078   5.802   6.895
 3545SOL     OW11533   3.000   5.184   0.084
 3545SOL    HW111534   3.072   5.204   0.151
 3545SOL    HW211535   3.029   5.217   7.018
 3546SOL     OW11536   6.198   4.666   2.671
 3546SOL    HW111537   6.252   4.698   2.748
 3546SOL    HW211538   6.102   4.659   2.697
 3547SOL     OW11539   4.974   4.683   4.145
 3547SOL    HW111540   4.950   4.778   4.127
 3547SOL    HW211541   4.902   4.640   4.201
 3548SOL     OW11542   4.625   3.050   5.443
 3548SOL    HW111543   4.627   2.995   5.359
 3548SOL    HW211544   4.623   3.147   5.419
 3549SOL     OW11545   6.041   3.903   2.438
 3549SOL    HW111546   6.001   3.817   2.471
 3549SOL    HW211547   6.133   3.914   2.476
 3550SOL     OW11548   5.837   1.967   2.528
 3550SOL    HW111549   5.865   1.952   2.433
 3550SOL    HW211550   5.904   2.024   2.574
 3551SOL     OW11551   2.413   6.682   2.832
 3551SOL    HW111552   2.503   6.690   2.790
 3551SOL    HW211553   2.422   6.682   2.931
 3552SOL     OW11554   6.835   4.364   3.392
 3552SOL    HW111555   6.909   4.322   3.444
 3552SOL    HW211556   6.872   4.437   3.334
 3553SOL     OW11557   5.834   2.351   3.315
 3553SOL    HW111558   5.890   2.432   3.334
 3553SOL    HW211559   5.804   2.354   3.219
 3554SOL     OW11560   3.803   5.436   6.798
 3554SOL    HW111561   3.809   5.476   6.890
 3554SOL    HW211562   3.752   5.497   6.738
 3555SOL     OW11563   0.629   2.809   3.755
 3555SOL    HW111564   0.702   2.741   3.763
 3555SOL    HW211565   0.541   2.763   3.757
 3556SOL     OW11566   3.828   0.898   6.316
 3556SOL    HW111567   3.862   0.963   6.384
 3556SOL    HW211568   3.796   0.947   6.236
 3557SOL     OW11569   0.992   1.097   4.492
 3557SOL    HW111570   1.008   1.090   4.591
 3557SOL    HW211571   0.957   1.189   4.471
 3558SOL     OW11572   6.800   5.601   1.439
 3558SOL    HW111573   6.742   5.602   1.520
 3558SOL    HW211574   6.743   5.613   1.357
 3559SOL     OW11575   0.642   1.059   5.657
 3559SOL    HW111576   0.671   1.104   5.741
 3559SOL    HW211577   0.549   1.086   5.634
 3560SOL     OW11578   6.730   6.237   1.825
 3560SOL    HW111579   6.744   6.188   1.739
 3560SOL    HW211580   6.802   6.213   1.890
 3561SOL     OW11581   4.413   4.673   4.217
 3561SOL    HW111582   4.508   4.654   4.194
 3561SOL    HW211583   4.391   4.628   4.304
 3562SOL     OW11584   4.507   2.535   2.789
 3562SOL    HW111585   4.563   2.527   2.872
 3562SOL    HW211586   4.434   2.467   2.791
 3563SOL     OW11587   4.628   0.584   1.133
 3563SOL    HW111588   4.540   0.627   1.153
 3563SOL    HW211589   4.620   0.485   1.143
 3564SOL     OW11590   0.031   4.098   2.827
 3564SOL    HW111591   0.022   4.092   2.727
 3564SOL    HW211592   6.982   4.156   2.864
 3565SOL     OW11593   2.259   0.353   4.830
 3565SOL    HW111594   2.317   0.326   4.908
 3565SOL    HW211595   2.207   0.273   4.799
 3566SOL     OW11596   0.984   4.071   5.919
 3566SOL    HW111597   0.910   4.069   5.852
 3566SOL    HW211598   1.067   4.108   5.876
 3567SOL     OW11599   0.126   2.959   0.715
 3567SOL    HW111600   0.125   3.055   0.688
 3567SOL    HW211601   0.113   2.952   0.814
 3568SOL     OW11602   5.168   3.713   3.520
 3568SOL    HW111603   5.069   3.714   3.534
 3568SOL    HW211604   5.214   3.729   3.607
 3569SOL     OW11605   3.545   3.443   4.113
 3569SOL    HW111606   3.531   3.346   4.130
 3569SOL    HW211607   3.641   3.467   4.133
 3570SOL     OW11608   0.348   2.477   5.590
 3570SOL    HW111609   0.437   2.441   5.564
 3570SOL    HW211610   0.348   2.577   5.581
 3571SOL     OW11611   2.508   6.629   4.756
 3571SOL    HW111612   2.466   6.596   4.671
 3571SOL    HW211613   2.604   6.653   4.740
 3572SOL     OW11614   4.877   4.781   1.802
 3572SOL    HW111615   4.974   4.803   1.816
 3572SOL    HW211616   4.862   4.684   1.822
 3573SOL     OW11617   0.533   3.748   3.331
 3573SOL    HW111618   0.508   3.714   3.240
 3573SOL    HW211619   0.631   3.769   3.333
 3574SOL     OW11620   1.900   1.318   5.513
 3574SOL    HW111621   1.954   1.393   5.550
 3574SOL    HW211622   1.956   1.235   5.506
 3575SOL     OW11623   5.354   0.107   6.874
 3575SOL    HW111624   5.371   0.012   6.848
 3575SOL    HW211625   5.439   0.149   6.905
 3576SOL     OW11626   1.058   2.428   0.821
 3576SOL    HW111627   1.074   2.524   0.843
 3576SOL    HW211628   1.145   2.379   0.816
 3577SOL     OW11629   2.068   2.680   5.243
 3577SOL    HW111630   2.129   2.650   5.316
 3577SOL    HW211631   2.121   2.726   5.172
 3578SOL     OW11632   3.345   2.816   6.346
 3578SOL    HW111633   3.313   2.780   6.434
 3578SOL    HW211634   3.409   2.751   6.305
 3579SOL     OW11635   0.599   3.626   1.891
 3579SOL    HW111636   0.676   3.596   1.947
 3579SOL    HW211637   0.604   3.583   1.800
 3580SOL     OW11638   0.391   4.391   2.228
 3580SOL    HW111639   0.330   4.467   2.253
 3580SOL    HW211640   0.391   4.323   2.301
 3581SOL     OW11641   1.145   0.201   2.993
 3581SOL    HW111642   1.175   0.183   3.086
 3581SOL    HW211643   1.162   0.297   2.970
 3582SOL     OW11644   4.341   5.280   6.523
 3582SOL    HW111645   4.248   5.305   6.550
 3582SOL    HW211646   4.356   5.302   6.426
 3583SOL     OW11647   1.141   5.004   1.276
 3583SOL    HW111648   1.190   4.933   1.225
 3583SOL    HW211649   1.155   4.990   1.374
 3584SOL     OW11650   6.526   5.002   4.909
 3584SOL    HW111651   6.508   5.054   4.825
 3584SOL    HW211652   6.607   5.039   4.954
 3585SOL     OW11653   3.583   1.345   3.898
 3585SOL    HW111654   3.615   1.408   3.827
 3585SOL    HW211655   3.484   1.346   3.901
 3586SOL     OW11656   0.136   2.198   5.086
 3586SOL    HW111657   0.145   2.099   5.085
 3586SOL    HW211658   0.140   2.234   4.993
 3587SOL     OW11659   3.031   0.056   6.260
 3587SOL    HW111660   3.008   7.008   6.194
 3587SOL    HW211661   2.975   0.046   6.342
 3588SOL     OW11662   6.171   4.932   4.724
 3588SOL    HW111663   6.128   4.845   4.699
 3588SOL    HW211664   6.115   4.978   4.793
 3589SOL     OW11665   0.244   0.165   5.787
 3589SOL    HW111666   0.205   0.083   5.747
 3589SOL    HW211667   0.180   0.204   5.853
 3590SOL     OW11668   0.153   5.459   6.328
 3590SOL    HW111669   0.110   5.385   6.381
 3590SOL    HW211670   0.228   5.497   6.382
 3591SOL     OW11671   5.952   1.272   6.791
 3591SOL    HW111672   5.861   1.290   6.755
 3591SOL    HW211673   6.001   1.359   6.801
 3592SOL     OW11674   1.108   6.399   1.402
 3592SOL    HW111675   1.127   6.423   1.307
 3592SOL    HW211676   1.170   6.451   1.462
 3593SOL     OW11677   4.184   3.083   5.279
 3593SOL    HW111678   4.113   3.081   5.209
 3593SOL    HW211679   4.200   2.991   5.314
 3594SOL     OW11680   4.645   4.717   5.002
 3594SOL    HW111681   4.565   4.693   4.946
 3594SOL    HW211682   4.719   4.653   4.981
 3595SOL     OW11683   5.414   6.053   4.473
 3595SOL    HW111684   5.382   6.130   4.529
 3595SOL    HW211685   5.514   6.047   4.481
 3596SOL     OW11686   4.127   1.923   3.004
 3596SOL    HW111687   4.109   1.892   3.098
 3596SOL    HW211688   4.149   1.844   2.947
 3597SOL     OW11689   2.999   3.175   5.655
 3597SOL    HW111690   3.026   3.237   5.729
 3597SOL    HW211691   2.936   3.223   5.594
 3598SOL     OW11692   0.535   5.773   4.787
 3598SOL    HW111693   0.457   5.794   4.728
 3598SOL    HW211694   0.603   5.722   4.735
 3599SOL     OW11695   2.769   1.409   4.964
 3599SOL    HW111696   2.683   1.366   4.936
 3599SOL    HW211697   2.819   1.346   5.024
 3600SOL     OW11698   3.144   3.639   0.045
 3600SOL    HW111699   3.159   3.559   7.012
 3600SOL    HW211700   3.062   3.687   0.013
 3601SOL     OW11701   4.876   1.143   5.148
 3601SOL    HW111702   4.825   1.078   5.204
 3601SOL    HW211703   4.817   1.176   5.073
 3602SOL     OW11704   1.738   1.849   1.693
 3602SOL    HW111705   1.820   1.807   1.731
 3602SOL    HW211706   1.763   1.928   1.638
 3603SOL     OW11707   2.445   0.233   5.583
 3603SOL    HW111708   2.527   0.276   5.545
 3603SOL    HW211709   2.386   0.304   5.623
 3604SOL     OW11710   0.001   0.292   3.647
 3604SOL    HW111711   6.942   0.285   3.702
 3604SOL    HW211712   0.073   0.238   3.690
 3605SOL     OW11713   0.985   6.699   4.331
 3605SOL    HW111714   0.893   6.725   4.362
 3605SOL    HW211715   1.050   6.712   4.406
 3606SOL     OW11716   1.997   0.173   2.262
 3606SOL    HW111717   2.009   0.268   2.292
 3606SOL    HW211718   2.039   0.111   2.328
 3607SOL     OW11719   6.329   1.614   3.107
 3607SOL    HW111720   6.318   1.560   3.024
 3607SOL    HW211721   6.283   1.702   3.096
 3608SOL     OW11722   2.851   1.644   5.662
 3608SOL    HW111723   2.844   1.690   5.573
 3608SOL    HW211724   2.910   1.697   5.723
 3609SOL     OW11725   3.776   0.763   5.149
 3609SOL    HW111726   3.705   0.817   5.195
 3609SOL    HW211727   3.828   0.822   5.088
 3610SOL     OW11728   1.707   0.693   5.813
 3610SOL    HW111729   1.612   0.724   5.807
 3610SOL    HW211730   1.714   0.599   5.781
 3611SOL     OW11731   5.619   4.495   2.594
 3611SOL    HW111732   5.622   4.470   2.497
 3611SOL    HW211733   5.541   4.451   2.637
 3612SOL     OW11734   5.619   1.195   6.982
 3612SOL    HW111735   5.700   1.240   7.018
 3612SOL    HW211736   5.540   1.218   0.015
 3613SOL     OW11737   4.191   6.558   2.317
 3613SOL    HW111738   4.232   6.624   2.254
 3613SOL    HW211739   4.095   6.582   2.333
 3614SOL     OW11740   3.834   5.544   0.029
 3614SOL    HW111741   3.906   5.593   0.078
 3614SOL    HW211742   3.744   5.574   0.062
 3615SOL     OW11743   5.749   2.447   5.638
 3615SOL    HW111744   5.675   2.442   5.571
 3615SOL    HW211745   5.837   2.435   5.591
 3616SOL     OW11746   1.147   2.349   0.526
 3616SOL    HW111747   1.106   2.411   0.593
 3616SOL    HW211748   1.086   2.270   0.512
 3617SOL     OW11749   3.990   5.961   5.775
 3617SOL    HW111750   3.902   5.980   5.819
 3617SOL    HW211751   3.985   5.986   5.678
 3618SOL     OW11752   0.700   4.896   4.105
 3618SOL    HW111753   0.718   4.918   4.201
 3618SOL    HW211754   0.783   4.909   4.051
 3619SOL     OW11755   5.930   2.661   1.759
 3619SOL    HW111756   6.024   2.695   1.759
 3619SOL    HW211757   5.917   2.600   1.837
 3620SOL     OW11758   5.580   5.579   4.780
 3620SOL    HW111759   5.498   5.566   4.836
 3620SOL    HW211760   5.557   5.562   4.684
 3621SOL     OW11761   3.516   3.180   3.872
 3621SOL    HW111762   3.536   3.112   3.802
 3621SOL    HW211763   3.483   3.134   3.955
 3622SOL     OW11764   1.621   6.402   5.971
 3622SOL    HW111765   1.690   6.474   5.964
 3622SOL    HW211766   1.606   6.380   6.067
 3623SOL     OW11767   1.262   5.863   6.209
 3623SOL    HW111768   1.208   5.937   6.170
 3623SOL    HW211769   1.358   5.892   6.218
 3624SOL     OW11770   2.397   1.985   2.232
 3624SOL    HW111771   2.491   2.017   2.244
 3624SOL    HW211772   2.390   1.892   2.267
 3625SOL     OW11773   6.816   2.412   0.671
 3625SOL    HW111774   6.773   2.327   0.702
 3625SOL    HW211775   6.753   2.488   0.685
 3626SOL     OW11776   1.636   3.134   5.501
 3626SOL    HW111777   1.646   3.039   5.471
 3626SOL    HW211778   1.708   3.190   5.461
 3627SOL     OW11779   3.400   1.992   2.042
 3627SOL    HW111780   3.480   1.986   2.101
 3627SOL    HW211781   3.427   2.028   1.952
 3628SOL     OW11782   6.389   1.915   2.041
 3628SOL    HW111783   6.421   1.903   1.947
 3628SOL    HW211784   6.451   1.975   2.090
 3629SOL     OW11785   1.616   1.279   4.724
 3629SOL    HW111786   1.693   1.301   4.665
 3629SOL    HW211787   1.633   1.313   4.816
 3630SOL     OW11788   6.800   2.056   1.964
 3630SOL    HW111789   6.857   2.041   2.044
 3630SOL    HW211790   6.857   2.072   1.884
 3631SOL     OW11791   2.147   6.306   2.005
 3631SOL    HW111792   2.131   6.381   2.069
 3631SOL    HW211793   2.112   6.331   1.915
 3632SOL     OW11794   4.828   3.683   1.840
 3632SOL    HW111795   4.760   3.678   1.767
 3632SOL    HW211796   4.806   3.757   1.903
 3633SOL     OW11797   4.032   4.072   7.020
 3633SOL    HW111798   4.119   4.117   0.014
 3633SOL    HW211799   4.001   4.025   0.079
 3634SOL     OW11800   2.799   5.385   6.384
 3634SOL    HW111801   2.718   5.374   6.441
 3634SOL    HW211802   2.772   5.392   6.288
 3635SOL     OW11803   0.984   6.363   2.176
 3635SOL    HW111804   1.008   6.267   2.191
 3635SOL    HW211805   0.991   6.413   2.262
 3636SOL     OW11806   0.655   5.321   5.941
 3636SOL    HW111807   0.653   5.399   6.004
 3636SOL    HW211808   0.750   5.298   5.919
 3637SOL     OW11809   5.704   3.016   6.957
 3637SOL    HW111810   5.621   2.965   6.933
 3637SOL    HW211811   5.679   3.108   6.988
 3638SOL     OW11812   6.815   3.351   3.311
 3638SOL    HW111813   6.767   3.307   3.387
 3638SOL    HW211814   6.914   3.344   3.326
 3639SOL     OW11815   4.082   3.384   4.250
 3639SOL    HW111816   3.999   3.338   4.220
 3639SOL    HW211817   4.130   3.423   4.171
 3640SOL     OW11818   3.945   1.965   1.534
 3640SOL    HW111819   3.976   1.911   1.613
 3640SOL    HW211820   3.846   1.961   1.528
 3641SOL     OW11821   5.885   3.861   2.126
 3641SOL    HW111822   5.961   3.914   2.163
 3641SOL    HW211823   5.917   3.804   2.050
 3642SOL     OW11824   5.147   3.256   6.341
 3642SOL    HW111825   5.114   3.169   6.304
 3642SOL    HW211826   5.086   3.329   6.310
 3643SOL     OW11827   4.096   5.853   5.284
 3643SOL    HW111828   4.188   5.861   5.246
 3643SOL    HW211829   4.031   5.833   5.210
 3644SOL     OW11830   2.987   0.579   1.779
 3644SOL    HW111831   2.994   0.671   1.740
 3644SOL    HW211832   2.891   0.551   1.783
 3645SOL     OW11833   1.630   3.782   3.801
 3645SOL    HW111834   1.676   3.745   3.882
 3645SOL    HW211835   1.565   3.714   3.766
 3646SOL     OW11836   1.757   5.228   6.416
 3646SOL    HW111837   1.661   5.248   6.438
 3646SOL    HW211838   1.771   5.130   6.412
 3647SOL     OW11839   2.909   6.705   6.884
 3647SOL    HW111840   2.946   6.673   6.971
 3647SOL    HW211841   2.898   6.627   6.822
 3648SOL     OW11842   4.724   5.467   3.315
 3648SOL    HW111843   4.651   5.518   3.269
 3648SOL    HW211844   4.693   5.373   3.333
 3649SOL     OW11845   5.521   2.166   0.262
 3649SOL    HW111846   5.516   2.256   0.218
 3649SOL    HW211847   5.428   2.136   0.286
 3650SOL     OW11848   5.264   6.075   5.995
 3650SOL    HW111849   5.280   5.990   6.045
 3650SOL    HW211850   5.167   6.099   6.000
 3651SOL     OW11851   1.019   1.942   5.945
 3651SOL    HW111852   0.920   1.949   5.958
 3651SOL    HW211853   1.039   1.923   5.849
 3652SOL     OW11854   4.512   1.884   1.940
 3652SOL    HW111855   4.468   1.879   1.850
 3652SOL    HW211856   4.450   1.848   2.009
 3653SOL     OW11857   1.978   1.776   0.962
 3653SOL    HW111858   1.919   1.711   1.010
 3653SOL    HW211859   2.050   1.727   0.912
 3654SOL     OW11860   4.567   6.869   1.555
 3654SOL    HW111861   4.520   6.929   1.490
 3654SOL    HW211862   4.596   6.922   1.634
 3655SOL     OW11863   0.781   0.509   3.938
 3655SOL    HW111864   0.807   0.602   3.965
 3655SOL    HW211865   0.697   0.483   3.986
 3656SOL     OW11866   0.218   0.287   1.312
 3656SOL    HW111867   0.190   0.197   1.278
 3656SOL    HW211868   0.182   0.300   1.404
 3657SOL     OW11869   5.614   5.365   6.268
 3657SOL    HW111870   5.669   5.284   6.284
 3657SOL    HW211871   5.592   5.372   6.171
 3658SOL     OW11872   1.967   4.993   5.401
 3658SOL    HW111873   1.941   5.074   5.348
 3658SOL    HW211874   2.021   4.932   5.344
 3659SOL     OW11875   0.529   2.876   6.630
 3659SOL    HW111876   0.498   2.886   6.535
 3659SOL    HW211877   0.558   2.965   6.665
 3660SOL     OW11878   4.464   5.633   5.604
 3660SOL    HW111879   4.416   5.716   5.633
 3660SOL    HW211880   4.398   5.567   5.568
 3661SOL     OW11881   0.248   1.489   4.572
 3661SOL    HW111882   0.338   1.522   4.602
 3661SOL    HW211883   0.187   1.566   4.558
 3662SOL     OW11884   2.917   2.015   5.841
 3662SOL    HW111885   2.937   2.103   5.884
 3662SOL    HW211886   2.978   2.001   5.763
 3663SOL     OW11887   2.489   2.517   6.501
 3663SOL    HW111888   2.493   2.529   6.402
 3663SOL    HW211889   2.403   2.472   6.526
 3664SOL     OW11890   3.024   1.629   0.862
 3664SOL    HW111891   3.029   1.684   0.779
 3664SOL    HW211892   3.114   1.628   0.907
 3665SOL     OW11893   0.091   5.281   5.466
 3665SOL    HW111894   0.093   5.345   5.543
 3665SOL    HW211895   0.013   5.303   5.407
 3666SOL     OW11896   2.178   3.335   4.346
 3666SOL    HW111897   2.186   3.310   4.442
 3666SOL    HW211898   2.213   3.261   4.289
 3667SOL     OW11899   1.796   6.900   0.931
 3667SOL    HW111900   1.735   6.901   0.852
 3667SOL    HW211901   1.760   6.835   0.999
 3668SOL     OW11902   6.055   1.229   0.892
 3668SOL    HW111903   6.101   1.148   0.856
 3668SOL    HW211904   6.047   1.222   0.991
 3669SOL     OW11905   0.524   0.774   3.113
 3669SOL    HW111906   0.551   0.761   3.208
 3669SOL    HW211907   0.599   0.815   3.062
 3670SOL     OW11908   2.297   0.382   1.789
 3670SOL    HW111909   2.384   0.348   1.753
 3670SOL    HW211910   2.314   0.465   1.843
 3671SOL     OW11911   7.006   0.772   4.668
 3671SOL    HW111912   7.022   0.867   4.641
 3671SOL    HW211913   0.063   0.737   4.717
 3672SOL     OW11914   4.019   6.824   3.735
 3672SOL    HW111915   3.974   6.844   3.648
 3672SOL    HW211916   3.987   6.736   3.769
 3673SOL     OW11917   3.315   0.459   1.413
 3673SOL    HW111918   3.227   0.415   1.431
 3673SOL    HW211919   3.349   0.432   1.323
 3674SOL     OW11920   0.668   4.454   6.509
 3674SOL    HW111921   0.708   4.443   6.417
 3674SOL    HW211922   0.571   4.434   6.506
 3675SOL     OW11923   0.457   0.704   4.185
 3675SOL    HW111924   0.450   0.796   4.146
 3675SOL    HW211925   0.551   0.672   4.181
 3676SOL     OW11926   3.590   0.991   5.222
 3676SOL    HW111927   3.530   0.999   5.302
 3676SOL    HW211928   3.598   1.080   5.178
 3677SOL     OW11929   1.668   1.348   4.296
 3677SOL    HW111930   1.765   1.350   4.273
 3677SOL    HW211931   1.637   1.441   4.318
 3678SOL     OW11932   2.068   1.043   3.266
 3678SOL    HW111933   2.084   0.962   3.321
 3678SOL    HW211934   2.096   1.026   3.171
 3679SOL     OW11935   3.775   0.347   2.434
 3679SOL    HW111936   3.779   0.276   2.364
 3679SOL    HW211937   3.856   0.341   2.493
 3680SOL     OW11938   3.211   2.130   4.577
 3680SOL    HW111939   3.307   2.146   4.600
 3680SOL    HW211940   3.199   2.130   4.478
 3681SOL     OW11941   0.930   6.661   4.064
 3681SOL    HW111942   0.949   6.689   4.158
 3681SOL    HW211943   0.848   6.707   4.031
 3682SOL     OW11944   4.728   2.013   0.754
 3682SOL    HW111945   4.738   2.003   0.655
 3682SOL    HW211946   4.631   2.013   0.778
 3683SOL     OW11947   6.574   1.509   0.834
 3683SOL    HW111948   6.508   1.436   0.854
 3683SOL    HW211949   6.534   1.572   0.767
 3684SOL     OW11950   2.674   6.083   5.587
 3684SOL    HW111951   2.641   6.029   5.664
 3684SOL    HW211952   2.739   6.151   5.620
 3685SOL     OW11953   1.974   6.125   4.315
 3685SOL    HW111954   1.980   6.079   4.403
 3685SOL    HW211955   1.962   6.057   4.243
 3686SOL     OW11956   0.175   3.970   0.473
 3686SOL    HW111957   0.079   3.996   0.476
 3686SOL    HW211958   0.195   3.904   0.546
 3687SOL     OW11959   5.781   4.777   4.277
 3687SOL    HW111960   5.862   4.830   4.302
 3687SOL    HW211961   5.699   4.821   4.314
 3688SOL     OW11962   6.626   2.811   1.213
 3688SOL    HW111963   6.560   2.883   1.233
 3688SOL    HW211964   6.702   2.816   1.278
 3689SOL     OW11965   0.959   0.984   6.275
 3689SOL    HW111966   0.945   0.973   6.374
 3689SOL    HW211967   1.030   0.922   6.244
 3690SOL     OW11968   5.716   4.854   1.804
 3690SOL    HW111969   5.736   4.808   1.718
 3690SOL    HW211970   5.645   4.923   1.790
 3691SOL     OW11971   1.439   2.537   0.696
 3691SOL    HW111972   1.515   2.493   0.648
 3691SOL    HW211973   1.392   2.599   0.634
 3692SOL     OW11974   1.232   3.307   5.184
 3692SOL    HW111975   1.262   3.331   5.092
 3692SOL    HW211976   1.275   3.367   5.251
 3693SOL     OW11977   0.137   1.599   2.709
 3693SOL    HW111978   0.069   1.546   2.761
 3693SOL    HW211979   0.191   1.655   2.772
 3694SOL     OW11980   6.490   6.973   2.619
 3694SOL    HW111981   6.574   6.995   2.569
 3694SOL    HW211982   6.457   0.030   2.667
 3695SOL     OW11983   6.046   3.660   3.399
 3695SOL    HW111984   5.976   3.695   3.462
 3695SOL    HW211985   6.092   3.737   3.355
 3696SOL     OW11986   4.298   0.517   4.438
 3696SOL    HW111987   4.393   0.538   4.414
 3696SOL    HW211988   4.249   0.602   4.456
 3697SOL     OW11989   6.512   5.718   2.885
 3697SOL    HW111990   6.606   5.704   2.853
 3697SOL    HW211991   6.497   5.663   2.968
 3698SOL     OW11992   2.303   0.066   3.926
 3698SOL    HW111993   2.316   0.164   3.944
 3698SOL    HW211994   2.253   0.025   4.002
 3699SOL     OW11995   2.552   2.553   3.546
 3699SOL    HW111996   2.521   2.626   3.607
 3699SOL    HW211997   2.513   2.567   3.455
 3700SOL     OW11998   0.927   4.563   4.978
 3700SOL    HW111999   1.005   4.559   4.916
 3700SOL    HW212000   0.957   4.539   5.071
 3701SOL     OW12001   0.281   1.019   2.581
 3701SOL    HW112002   0.195   0.970   2.563
 3701SOL    HW212003   0.339   0.964   2.640
 3702SOL     OW12004   6.625   4.111   3.560
 3702SOL    HW112005   6.571   4.189   3.527
 3702SOL    HW212006   6.721   4.126   3.538
 3703SOL     OW12007   1.426   1.565   3.399
 3703SOL    HW112008   1.381   1.561   3.488
 3703SOL    HW212009   1.366   1.528   3.329
 3704SOL     OW12010   5.675   0.490   1.022
 3704SOL    HW112011   5.599   0.546   1.054
 3704SOL    HW212012   5.734   0.546   0.963
 3705SOL     OW12013   5.997   4.153   3.683
 3705SOL    HW112014   6.084   4.195   3.655
 3705SOL    HW212015   6.016   4.073   3.741
 3706SOL     OW12016   1.189   5.050   6.446
 3706SOL    HW112017   1.144   5.020   6.362
 3706SOL    HW212018   1.160   5.143   6.468
 3707SOL     OW12019   1.193   4.243   3.552
 3707SOL    HW112020   1.181   4.333   3.594
 3707SOL    HW212021   1.284   4.208   3.573
 3708SOL     OW12022   1.835   6.391   0.774
 3708SOL    HW112023   1.784   6.475   0.755
 3708SOL    HW212024   1.925   6.397   0.731
 3709SOL     OW12025   1.276   1.535   1.946
 3709SOL    HW112026   1.336   1.574   1.877
 3709SOL    HW212027   1.194   1.499   1.902
 3710SOL     OW12028   1.625   4.109   5.142
 3710SOL    HW112029   1.709   4.120   5.194
 3710SOL    HW212030   1.640   4.045   5.067
 3711SOL     OW12031   1.613   5.612   4.666
 3711SOL    HW112032   1.529   5.563   4.688
 3711SOL    HW212033   1.608   5.646   4.572
 3712SOL     OW12034   3.142   5.182   4.225
 3712SOL    HW112035   3.195   5.100   4.204
 3712SOL    HW212036   3.148   5.201   4.323
 3713SOL     OW12037   5.951   0.561   5.034
 3713SOL    HW112038   6.019   0.634   5.040
 3713SOL    HW212039   5.929   0.528   5.125
 3714SOL     OW12040   0.219   4.651   0.066
 3714SOL    HW112041   0.129   4.616   0.094
 3714SOL    HW212042   0.266   4.580   0.014
 3715SOL     OW12043   6.227   4.603   3.617
 3715SOL    HW112044   6.176   4.649   3.690
 3715SOL    HW212045   6.234   4.505   3.637
 3716SOL     OW12046   5.702   5.715   5.527
 3716SOL    HW112047   5.679   5.775   5.603
 3716SOL    HW212048   5.719   5.770   5.445
 3717SOL     OW12049   4.222   0.639   0.697
 3717SOL    HW112050   4.289   0.696   0.650
 3717SOL    HW212051   4.172   0.693   0.764
 3718SOL     OW12052   6.178   6.696   6.027
 3718SOL    HW112053   6.199   6.790   6.054
 3718SOL    HW212054   6.079   6.682   6.028
 3719SOL     OW12055   2.872   4.419   0.542
 3719SOL    HW112056   2.960   4.459   0.571
 3719SOL    HW212057   2.830   4.372   0.620
 3720SOL     OW12058   0.052   2.916   0.965
 3720SOL    HW112059   6.987   2.959   0.980
 3720SOL    HW212060   0.057   2.831   1.018
 3721SOL     OW12061   6.231   0.529   5.497
 3721SOL    HW112062   6.188   0.438   5.506
 3721SOL    HW212063   6.160   0.599   5.502
 3722SOL     OW12064   5.508   6.483   2.114
 3722SOL    HW112065   5.495   6.553   2.183
 3722SOL    HW212066   5.454   6.506   2.033
 3723SOL     OW12067   4.809   3.767   6.682
 3723SOL    HW112068   4.858   3.834   6.738
 3723SOL    HW212069   4.789   3.806   6.592
 3724SOL     OW12070   0.282   4.063   4.471
 3724SOL    HW112071   0.230   4.103   4.396
 3724SOL    HW212072   0.352   4.002   4.434
 3725SOL     OW12073   1.389   5.941   6.886
 3725SOL    HW112074   1.387   5.913   6.981
 3725SOL    HW212075   1.479   5.922   6.846
 3726SOL     OW12076   6.328   4.021   5.635
 3726SOL    HW112077   6.250   3.969   5.669
 3726SOL    HW212078   6.373   3.971   5.561
 3727SOL     OW12079   6.516   2.313   4.177
 3727SOL    HW112080   6.567   2.250   4.235
 3727SOL    HW212081   6.548   2.407   4.192
 3728SOL     OW12082   2.056   4.335   0.978
 3728SOL    HW112083   2.086   4.240   0.986
 3728SOL    HW212084   2.126   4.388   0.931
 3729SOL     OW12085   0.158   6.777   5.637
 3729SOL    HW112086   0.203   6.698   5.595
 3729SOL    HW212087   0.221   6.819   5.703
 3730SOL     OW12088   4.876   5.025   4.754
 3730SOL    HW112089   4.865   4.926   4.745
 3730SOL    HW212090   4.945   5.058   4.690
 3731SOL     OW12091   0.314   2.348   0.788
 3731SOL    HW112092   0.302   2.406   0.868
 3731SOL    HW212093   0.227   2.304   0.765
 3732SOL     OW12094   3.769   3.038   6.680
 3732SOL    HW112095   3.769   3.122   6.626
 3732SOL    HW212096   3.737   2.962   6.624
 3733SOL     OW12097   1.287   0.573   3.750
 3733SOL    HW112098   1.355   0.645   3.763
 3733SOL    HW212099   1.258   0.571   3.654
 3734SOL     OW12100   3.551   6.863   1.600
 3734SOL    HW112101   3.470   6.903   1.643
 3734SOL    HW212102   3.525   6.819   1.514
 3735SOL     OW12103   4.656   0.456   2.912
 3735SOL    HW112104   4.588   0.385   2.928
 3735SOL    HW212105   4.743   0.414   2.884
 3736SOL     OW12106   0.059   1.417   0.156
 3736SOL    HW112107   6.999   1.447   0.111
 3736SOL    HW212108   0.043   1.408   0.254
 3737SOL     OW12109   5.858   2.130   2.981
 3737SOL    HW112110   5.944   2.099   2.941
 3737SOL    HW212111   5.857   2.230   2.986
 3738SOL     OW12112   0.459   0.550   0.984
 3738SOL    HW112113   0.523   0.613   0.939
 3738SOL    HW212114   0.496   0.524   1.073
 3739SOL     OW12115   2.987   4.175   6.663
 3739SOL    HW112116   2.924   4.107   6.700
 3739SOL    HW212117   2.976   4.262   6.712
 3740SOL     OW12118   5.104   5.894   6.672
 3740SOL    HW112119   5.188   5.860   6.630
 3740SOL    HW212120   5.086   5.844   6.757
 3741SOL     OW12121   5.085   3.630   0.456
 3741SOL    HW112122   5.043   3.550   0.414
 3741SOL    HW212123   5.184   3.621   0.453
 3742SOL     OW12124   4.757   5.529   1.138
 3742SOL    HW112125   4.729   5.479   1.056
 3742SOL    HW212126   4.735   5.626   1.127
 3743SOL     OW12127   3.193   4.142   0.889
 3743SOL    HW112128   3.186   4.220   0.951
 3743SOL    HW212129   3.284   4.102   0.895
 3744SOL     OW12130   6.658   6.171   2.469
 3744SOL    HW112131   6.604   6.097   2.508
 3744SOL    HW212132   6.600   6.252   2.457
 3745SOL     OW12133   4.771   2.687   2.757
 3745SOL    HW112134   4.676   2.666   2.778
 3745SOL    HW212135   4.776   2.751   2.681
 3746SOL     OW12136   5.903   0.428   4.401
 3746SOL    HW112137   5.805   0.446   4.394
 3746SOL    HW212138   5.938   0.464   4.487
 3747SOL     OW12139   3.257   5.867   5.285
 3747SOL    HW112140   3.352   5.897   5.291
 3747SOL    HW212141   3.204   5.933   5.232
 3748SOL     OW12142   5.125   2.355   3.860
 3748SOL    HW112143   5.076   2.275   3.893
 3748SOL    HW212144   5.061   2.431   3.848
 3749SOL     OW12145   6.698   6.561   2.147
 3749SOL    HW112146   6.793   6.564   2.116
 3749SOL    HW212147   6.658   6.473   2.123
 3750SOL     OW12148   5.641   3.830   1.107
 3750SOL    HW112149   5.591   3.845   1.193
 3750SOL    HW212150   5.667   3.918   1.068
 3751SOL     OW12151   0.806   4.230   1.993
 3751SOL    HW112152   0.754   4.171   2.055
 3751SOL    HW212153   0.832   4.315   2.041
 3752SOL     OW12154   0.182   6.862   6.051
 3752SOL    HW112155   0.097   6.865   6.103
 3752SOL    HW212156   0.258   6.891   6.109
 3753SOL     OW12157   0.182   0.665   4.832
 3753SOL    HW112158   0.281   0.649   4.833
 3753SOL    HW212159   0.135   0.581   4.860
 3754SOL     OW12160   6.345   6.042   1.411
 3754SOL    HW112161   6.395   5.956   1.413
 3754SOL    HW212162   6.363   6.089   1.324
 3755SOL     OW12163   4.774   2.834   2.517
 3755SOL    HW112164   4.840   2.833   2.442
 3755SOL    HW212165   4.765   2.928   2.552
 3756SOL     OW12166   3.340   0.000   6.854
 3756SOL    HW112167   3.296   0.036   6.937
 3756SOL    HW212168   3.439   7.020   6.868
 3757SOL     OW12169   3.990   4.644   6.562
 3757SOL    HW112170   3.955   4.737   6.572
 3757SOL    HW212171   3.923   4.579   6.597
 3758SOL     OW12172   0.091   0.281   2.735
 3758SOL    HW112173   0.152   0.215   2.691
 3758SOL    HW212174   0.058   0.346   2.666
 3759SOL     OW12175   5.060   5.282   0.785
 3759SOL    HW112176   5.080   5.349   0.856
 3759SOL    HW212177   4.987   5.222   0.816
 3760SOL     OW12178   2.088   1.881   5.589
 3760SOL    HW112179   2.056   1.973   5.614
 3760SOL    HW212180   2.107   1.829   5.672
 3761SOL     OW12181   0.243   6.311   4.463
 3761SOL    HW112182   0.276   6.374   4.534
 3761SOL    HW212183   0.286   6.334   4.376
 3762SOL     OW12184   0.561   3.387   6.863
 3762SOL    HW112185   0.581   3.451   6.788
 3762SOL    HW212186   0.575   3.433   6.951
 3763SOL     OW12187   6.599   3.994   5.756
 3763SOL    HW112188   6.643   3.983   5.668
 3763SOL    HW212189   6.581   3.905   5.797
 3764SOL     OW12190   2.957   6.746   4.363
 3764SOL    HW112191   2.946   6.652   4.330
 3764SOL    HW212192   2.974   6.745   4.462
 3765SOL     OW12193   6.317   1.500   3.603
 3765SOL    HW112194   6.247   1.463   3.663
 3765SOL    HW212195   6.333   1.596   3.625
 3766SOL     OW12196   2.002   0.204   4.963
 3766SOL    HW112197   2.041   0.174   4.876
 3766SOL    HW212198   1.903   0.191   4.962
 3767SOL     OW12199   1.147   4.540   0.415
 3767SOL    HW112200   1.187   4.621   0.373
 3767SOL    HW212201   1.200   4.459   0.388
 3768SOL     OW12202   4.128   6.440   1.222
 3768SOL    HW112203   4.087   6.507   1.160
 3768SOL    HW212204   4.109   6.466   1.317
 3769SOL     OW12205   4.599   6.812   4.970
 3769SOL    HW112206   4.676   6.825   4.907
 3769SOL    HW212207   4.516   6.851   4.931
 3770SOL     OW12208   2.334   2.317   0.246
 3770SOL    HW112209   2.388   2.336   0.164
 3770SOL    HW212210   2.395   2.318   0.326
 3771SOL     OW12211   4.472   1.751   5.115
 3771SOL    HW112212   4.510   1.824   5.057
 3771SOL    HW212213   4.546   1.705   5.163
 3772SOL     OW12214   4.791   0.480   2.496
 3772SOL    HW112215   4.840   0.409   2.445
 3772SOL    HW212216   4.857   0.544   2.535
 3773SOL     OW12217   6.695   1.927   0.754
 3773SOL    HW112218   6.673   2.019   0.785
 3773SOL    HW212219   6.614   1.884   0.716
 3774SOL     OW12220   0.884   2.104   2.350
 3774SOL    HW112221   0.875   2.123   2.252
 3774SOL    HW212222   0.832   2.022   2.374
 3775SOL     OW12223   5.622   3.261   3.592
 3775SOL    HW112224   5.713   3.253   3.551
 3775SOL    HW212225   5.622   3.335   3.660
 3776SOL     OW12226   2.661   2.955   6.568
 3776SOL    HW112227   2.629   2.862   6.586
 3776SOL    HW212228   2.731   2.980   6.635
 3777SOL     OW12229   1.342   3.759   3.160
 3777SOL    HW112230   1.381   3.711   3.081
 3777SOL    HW212231   1.415   3.777   3.226
 3778SOL     OW12232   2.633   6.351   1.861
 3778SOL    HW112233   2.687   6.434   1.864
 3778SOL    HW212234   2.692   6.271   1.873
 3779SOL     OW12235   2.157   4.843   6.911
 3779SOL    HW112236   2.211   4.797   6.981
 3779SOL    HW212237   2.199   4.828   6.821
 3780SOL     OW12238   2.882   0.148   4.417
 3780SOL    HW112239   2.934   0.232   4.404
 3780SOL    HW212240   2.855   0.140   4.513
 3781SOL     OW12241   2.657   5.699   4.919
 3781SOL    HW112242   2.605   5.741   4.844
 3781SOL    HW212243   2.598   5.634   4.967
 3782SOL     OW12244   2.390   1.134   2.912
 3782SOL    HW112245   2.405   1.141   2.813
 3782SOL    HW212246   2.396   1.224   2.954
 3783SOL     OW12247   5.065   5.953   5.560
 3783SOL    HW112248   5.062   6.032   5.622
 3783SOL    HW212249   5.133   5.888   5.593
 3784SOL     OW12250   5.006   2.095   3.861
 3784SOL    HW112251   4.987   2.082   3.763
 3784SOL    HW212252   5.041   2.011   3.900
 3785SOL     OW12253   1.337   1.950   1.917
 3785SOL    HW112254   1.399   1.885   1.962
 3785SOL    HW212255   1.260   1.970   1.979
 3786SOL     OW12256   3.308   6.300   2.599
 3786SOL    HW112257   3.314   6.340   2.508
 3786SOL    HW212258   3.241   6.225   2.598
 3787SOL     OW12259   4.507   1.231   4.157
 3787SOL    HW112260   4.492   1.292   4.235
 3787SOL    HW212261   4.439   1.158   4.159
 3788SOL     OW12262   6.223   3.381   2.137
 3788SOL    HW112263   6.307   3.344   2.096
 3788SOL    HW212264   6.233   3.480   2.150
 3789SOL     OW12265   1.746   5.703   2.521
 3789SOL    HW112266   1.795   5.723   2.436
 3789SOL    HW212267   1.807   5.658   2.586
 3790SOL     OW12268   1.948   3.063   3.241
 3790SOL    HW112269   1.994   2.974   3.236
 3790SOL    HW212270   1.862   3.053   3.291
 3791SOL     OW12271   6.368   0.745   2.290
 3791SOL    HW112272   6.285   0.798   2.306
 3791SOL    HW212273   6.414   0.778   2.207
 3792SOL     OW12274   0.102   0.126   6.030
 3792SOL    HW112275   0.100   0.026   6.022
 3792SOL    HW212276   0.143   0.152   6.117
 3793SOL     OW12277   1.463   6.488   2.947
 3793SOL    HW112278   1.458   6.571   3.002
 3793SOL    HW212279   1.432   6.410   3.001
 3794SOL     OW12280   4.033   6.795   3.074
 3794SOL    HW112281   4.016   6.886   3.036
 3794SOL    HW212282   4.054   6.732   2.999
 3795SOL     OW12283   5.248   0.138   1.046
 3795SOL    HW112284   5.266   0.234   1.022
 3795SOL    HW212285   5.231   0.132   1.145
 3796SOL     OW12286   1.185   3.256   0.778
 3796SOL    HW112287   1.278   3.266   0.743
 3796SOL    HW212288   1.176   3.168   0.824
 3797SOL     OW12289   0.248   5.509   2.274
 3797SOL    HW112290   0.174   5.455   2.313
 3797SOL    HW212291   0.274   5.471   2.185
 3798SOL     OW12292   0.907   4.120   1.286
 3798SOL    HW112293   0.987   4.162   1.243
 3798SOL    HW212294   0.930   4.027   1.315
 3799SOL     OW12295   1.142   0.510   5.050
 3799SOL    HW112296   1.170   0.556   4.966
 3799SOL    HW212297   1.206   0.533   5.123
 3800SOL     OW12298   5.387   2.534   5.107
 3800SOL    HW112299   5.390   2.465   5.180
 3800SOL    HW212300   5.416   2.622   5.143
 3801SOL     OW12301   0.187   0.173   6.530
 3801SOL    HW112302   0.181   0.186   6.629
 3801SOL    HW212303   0.108   0.119   6.500
 3802SOL     OW12304   1.320   2.164   5.456
 3802SOL    HW112305   1.344   2.068   5.440
 3802SOL    HW212306   1.404   2.219   5.461
 3803SOL     OW12307   3.901   1.158   1.316
 3803SOL    HW112308   3.912   1.240   1.261
 3803SOL    HW212309   3.881   1.080   1.256
 3804SOL     OW12310   4.675   2.896   5.216
 3804SOL    HW112311   4.707   2.803   5.197
 3804SOL    HW212312   4.720   2.959   5.152
 3805SOL     OW12313   1.930   3.499   1.878
 3805SOL    HW112314   1.980   3.438   1.817
 3805SOL    HW212315   1.995   3.548   1.937
 3806SOL     OW12316   3.396   1.308   0.734
 3806SOL    HW112317   3.381   1.209   0.736
 3806SOL    HW212318   3.335   1.352   0.800
 3807SOL     OW12319   1.890   0.245   2.879
 3807SOL    HW112320   1.984   0.259   2.910
 3807SOL    HW212321   1.891   0.215   2.783
 3808SOL     OW12322   2.867   0.575   0.553
 3808SOL    HW112323   2.936   0.541   0.616
 3808SOL    HW212324   2.910   0.600   0.466
 3809SOL     OW12325   4.220   0.462   6.856
 3809SOL    HW112326   4.151   0.467   6.929
 3809SOL    HW212327   4.178   0.491   6.770
 3810SOL     OW12328   2.358   3.212   6.210
 3810SOL    HW112329   2.322   3.306   6.210
 3810SOL    HW212330   2.307   3.157   6.143
 3811SOL     OW12331   1.112   0.753   6.232
 3811SOL    HW112332   1.091   0.713   6.143
 3811SOL    HW212333   1.211   0.752   6.247
 3812SOL     OW12334   5.348   1.254   5.903
 3812SOL    HW112335   5.419   1.239   5.835
 3812SOL    HW212336   5.302   1.167   5.922
 3813SOL     OW12337   3.845   4.884   2.104
 3813SOL    HW112338   3.750   4.852   2.099
 3813SOL    HW212339   3.890   4.866   2.016
 3814SOL     OW12340   1.751   0.098   2.367
 3814SOL    HW112341   1.689   0.147   2.306
 3814SOL    HW212342   1.844   0.101   2.330
 3815SOL     OW12343   5.611   1.920   1.449
 3815SOL    HW112344   5.699   1.958   1.477
 3815SOL    HW212345   5.542   1.945   1.516
 3816SOL     OW12346   0.067   6.523   1.253
 3816SOL    HW112347   0.038   6.429   1.230
 3816SOL    HW212348   0.124   6.521   1.335
 3817SOL     OW12349   4.749   1.563   5.731
 3817SOL    HW112350   4.703   1.616   5.803
 3817SOL    HW212351   4.835   1.526   5.767
 3818SOL     OW12352   4.560   5.721   2.807
 3818SOL    HW112353   4.630   5.708   2.737
 3818SOL    HW212354   4.597   5.777   2.881
 3819SOL     OW12355   6.090   4.599   6.307
 3819SOL    HW112356   6.032   4.646   6.241
 3819SOL    HW212357   6.064   4.626   6.400
 3820SOL     OW12358   5.140   6.141   3.520
 3820SOL    HW112359   5.206   6.068   3.540
 3820SOL    HW212360   5.183   6.229   3.540
 3821SOL     OW12361   0.464   4.356   1.455
 3821SOL    HW112362   0.488   4.287   1.387
 3821SOL    HW212363   0.513   4.337   1.540
 3822SOL     OW12364   0.960   4.667   1.591
 3822SOL    HW112365   0.960   4.727   1.671
 3822SOL    HW212366   0.869   4.627   1.579
 3823SOL     OW12367   2.405   3.194   5.655
 3823SOL    HW112368   2.441   3.271   5.707
 3823SOL    HW212369   2.388   3.222   5.560
 3824SOL     OW12370   6.765   2.265   6.497
 3824SOL    HW112371   6.690   2.218   6.451
 3824SOL    HW212372   6.802   2.207   6.569
 3825SOL     OW12373   6.365   6.548   5.860
 3825SOL    HW112374   6.455   6.586   5.838
 3825SOL    HW212375   6.327   6.595   5.940
 3826SOL     OW12376   6.952   1.965   0.882
 3826SOL    HW112377   6.867   1.974   0.831
 3826SOL    HW212378   6.973   1.868   0.895
 3827SOL     OW12379   5.556   2.362   0.925
 3827SOL    HW112380   5.553   2.379   1.023
 3827SOL    HW212381   5.469   2.323   0.895
 3828SOL     OW12382   4.365   1.299   1.467
 3828SOL    HW112383   4.406   1.353   1.394
 3828SOL    HW212384   4.337   1.360   1.541
 3829SOL     OW12385   0.904   4.761   3.577
 3829SOL    HW112386   0.873   4.707   3.499
 3829SOL    HW212387   0.825   4.801   3.624
 3830SOL     OW12388   3.380   0.194   5.600
 3830SOL    HW112389   3.396   0.096   5.609
 3830SOL    HW212390   3.368   0.217   5.504
 3831SOL     OW12391   4.637   1.565   2.536
 3831SOL    HW112392   4.725   1.603   2.508
 3831SOL    HW212393   4.576   1.639   2.563
 3832SOL     OW12394   5.318   0.316   2.514
 3832SOL    HW112395   5.336   0.414   2.520
 3832SOL    HW212396   5.334   0.285   2.420
 3833SOL     OW12397   1.944   6.070   1.440
 3833SOL    HW112398   1.903   6.161   1.446
 3833SOL    HW212399   1.889   6.005   1.492
 3834SOL     OW12400   2.349   2.562   0.604
 3834SOL    HW112401   2.417   2.523   0.542
 3834SOL    HW212402   2.312   2.646   0.564
 3835SOL     OW12403   3.434   5.627   3.854
 3835SOL    HW112404   3.418   5.534   3.821
 3835SOL    HW212405   3.507   5.625   3.923
 3836SOL     OW12406   1.636   2.843   5.179
 3836SOL    HW112407   1.675   2.832   5.270
 3836SOL    HW212408   1.675   2.774   5.117
 3837SOL     OW12409   3.200   3.420   6.730
 3837SOL    HW112410   3.186   3.482   6.653
 3837SOL    HW212411   3.297   3.415   6.752
 3838SOL     OW12412   5.775   3.135   4.954
 3838SOL    HW112413   5.771   3.213   5.017
 3838SOL    HW212414   5.835   3.065   4.993
 3839SOL     OW12415   0.247   6.354   6.133
 3839SOL    HW112416   0.213   6.301   6.055
 3839SOL    HW212417   0.184   6.430   6.150
 3840SOL     OW12418   2.592   0.735   3.592
 3840SOL    HW112419   2.540   0.772   3.515
 3840SOL    HW212420   2.617   0.809   3.654
 3841SOL     OW12421   1.078   3.887   4.794
 3841SOL    HW112422   1.048   3.821   4.725
 3841SOL    HW212423   1.029   3.973   4.782
 3842SOL     OW12424   1.682   5.288   6.998
 3842SOL    HW112425   1.750   5.348   6.955
 3842SOL    HW212426   1.696   5.288   0.073
 3843SOL     OW12427   5.720   4.237   0.249
 3843SOL    HW112428   5.680   4.147   0.231
 3843SOL    HW212429   5.748   4.242   0.345
 3844SOL     OW12430   2.505   4.244   5.701
 3844SOL    HW112431   2.505   4.344   5.694
 3844SOL    HW212432   2.549   4.205   5.620
 3845SOL     OW12433   3.249   3.339   3.674
 3845SOL    HW112434   3.296   3.290   3.746
 3845SOL    HW212435   3.274   3.436   3.678
 3846SOL     OW12436   6.779   4.374   4.393
 3846SOL    HW112437   6.702   4.364   4.330
 3846SOL    HW212438   6.813   4.468   4.390
 3847SOL     OW12439   0.746   6.902   0.663
 3847SOL    HW112440   0.681   6.835   0.628
 3847SOL    HW212441   0.702   6.959   0.732
 3848SOL     OW12442   2.777   5.313   1.119
 3848SOL    HW112443   2.716   5.336   1.194
 3848SOL    HW212444   2.740   5.234   1.069
 3849SOL     OW12445   2.395   1.748   5.882
 3849SOL    HW112446   2.435   1.734   5.791
 3849SOL    HW212447   2.440   1.688   5.948
 3850SOL     OW12448   2.251   3.753   1.329
 3850SOL    HW112449   2.319   3.690   1.367
 3850SOL    HW212450   2.208   3.804   1.404
 3851SOL     OW12451   2.493   2.608   1.069
 3851SOL    HW112452   2.469   2.589   1.164
 3851SOL    HW212453   2.588   2.640   1.064
 3852SOL     OW12454   4.540   1.401   5.008
 3852SOL    HW112455   4.442   1.413   5.024
 3852SOL    HW212456   4.592   1.458   5.071
 3853SOL     OW12457   1.427   3.072   1.848
 3853SOL    HW112458   1.399   3.051   1.942
 3853SOL    HW212459   1.376   3.014   1.784
 3854SOL     OW12460   1.709   3.321   4.766
 3854SOL    HW112461   1.693   3.243   4.827
 3854SOL    HW212462   1.622   3.363   4.741
 3855SOL     OW12463   6.910   1.816   5.273
 3855SOL    HW112464   6.950   1.782   5.189
 3855SOL    HW212465   6.880   1.911   5.260
 3856SOL     OW12466   0.801   6.422   5.651
 3856SOL    HW112467   0.741   6.483   5.704
 3856SOL    HW212468   0.817   6.462   5.561
 3857SOL     OW12469   0.962   0.207   6.841
 3857SOL    HW112470   0.878   0.258   6.823
 3857SOL    HW212471   1.039   0.252   6.796
 3858SOL     OW12472   2.463   5.167   0.062
 3858SOL    HW112473   2.428   5.154   6.993
 3858SOL    HW212474   2.534   5.238   0.061
 3859SOL     OW12475   6.332   2.540   1.773
 3859SOL    HW112476   6.250   2.483   1.770
 3859SOL    HW212477   6.396   2.510   1.702
 3860SOL     OW12478   2.279   6.244   5.247
 3860SOL    HW112479   2.347   6.224   5.317
 3860SOL    HW212480   2.222   6.164   5.231
 3861SOL     OW12481   3.953   4.149   0.360
 3861SOL    HW112482   3.965   4.150   0.459
 3861SOL    HW212483   4.030   4.103   0.316
 3862SOL     OW12484   0.406   5.716   5.605
 3862SOL    HW112485   0.397   5.620   5.579
 3862SOL    HW212486   0.336   5.770   5.557
 3863SOL     OW12487   2.855   3.612   0.287
 3863SOL    HW112488   2.816   3.601   0.195
 3863SOL    HW212489   2.911   3.532   0.308
 3864SOL     OW12490   2.940   1.648   0.535
 3864SOL    HW112491   2.894   1.563   0.562
 3864SOL    HW212492   2.880   1.701   0.476
 3865SOL     OW12493   4.207   0.857   2.176
 3865SOL    HW112494   4.236   0.953   2.178
 3865SOL    HW212495   4.270   0.802   2.231
 3866SOL     OW12496   2.648   6.272   6.390
 3866SOL    HW112497   2.689   6.182   6.405
 3866SOL    HW212498   2.586   6.268   6.311
 3867SOL     OW12499   1.776   4.752   3.359
 3867SOL    HW112500   1.781   4.755   3.459
 3867SOL    HW212501   1.770   4.657   3.329
 3868SOL     OW12502   2.685   5.588   2.830
 3868SOL    HW112503   2.750   5.627   2.895
 3868SOL    HW212504   2.607   5.550   2.880
 3869SOL     OW12505   0.369   1.246   3.990
 3869SOL    HW112506   0.414   1.238   3.901
 3869SOL    HW212507   0.430   1.291   4.055
 3870SOL     OW12508   3.805   4.445   0.666
 3870SOL    HW112509   3.720   4.468   0.711
 3870SOL    HW212510   3.880   4.444   0.732
 3871SOL     OW12511   3.195   1.180   5.116
 3871SOL    HW112512   3.225   1.210   5.025
 3871SOL    HW212513   3.254   1.222   5.185
 3872SOL     OW12514   4.425   3.988   1.001
 3872SOL    HW112515   4.470   3.898   1.007
 3872SOL    HW212516   4.332   3.976   0.966
 3873SOL     OW12517   5.597   4.694   2.007
 3873SOL    HW112518   5.631   4.759   1.939
 3873SOL    HW212519   5.668   4.626   2.027
 3874SOL     OW12520   4.673   5.780   5.813
 3874SOL    HW112521   4.746   5.728   5.858
 3874SOL    HW212522   4.714   5.844   5.748
 3875SOL     OW12523   2.210   4.176   0.276
 3875SOL    HW112524   2.261   4.106   0.326
 3875SOL    HW212525   2.155   4.230   0.340
 3876SOL     OW12526   5.545   3.612   2.023
 3876SOL    HW112527   5.631   3.585   2.067
 3876SOL    HW212528   5.558   3.615   1.924
 3877SOL     OW12529   4.722   1.701   2.009
 3877SOL    HW112530   4.645   1.760   1.985
 3877SOL    HW212531   4.785   1.750   2.069
 3878SOL     OW12532   4.520   5.731   4.798
 3878SOL    HW112533   4.508   5.830   4.803
 3878SOL    HW212534   4.436   5.689   4.764
 3879SOL     OW12535   2.778   6.131   0.773
 3879SOL    HW112536   2.795   6.033   0.781
 3879SOL    HW212537   2.689   6.153   0.813
 3880SOL     OW12538   5.803   2.091   4.227
 3880SOL    HW112539   5.888   2.041   4.209
 3880SOL    HW212540   5.818   2.188   4.212
 3881SOL     OW12541   0.381   5.824   0.540
 3881SOL    HW112542   0.412   5.882   0.465
 3881SOL    HW212543   0.385   5.728   0.512
 3882SOL     OW12544   0.237   6.367   6.492
 3882SOL    HW112545   0.186   6.394   6.573
 3882SOL    HW212546   0.263   6.448   6.440
 3883SOL     OW12547   3.684   1.802   0.055
 3883SOL    HW112548   3.676   1.766   6.986
 3883SOL    HW212549   3.636   1.890   0.061
 3884SOL     OW12550   1.975   5.399   5.705
 3884SOL    HW112551   2.020   5.327   5.758
 3884SOL    HW212552   1.954   5.476   5.766
 3885SOL     OW12553   6.966   1.054   4.646
 3885SOL    HW112554   0.018   1.110   4.680
 3885SOL    HW212555   6.903   1.112   4.594
 3886SOL     OW12556   0.034   5.964   5.282
 3886SOL    HW112557   6.983   5.899   5.270
 3886SOL    HW212558   0.051   5.979   5.379
 3887SOL     OW12559   5.928   2.656   5.032
 3887SOL    HW112560   5.874   2.649   4.948
 3887SOL    HW212561   5.884   2.605   5.105
 3888SOL     OW12562   5.442   1.794   2.345
 3888SOL    HW112563   5.401   1.833   2.428
 3888SOL    HW212564   5.536   1.828   2.335
 3889SOL     OW12565   6.281   6.039   6.706
 3889SOL    HW112566   6.215   6.017   6.778
 3889SOL    HW212567   6.346   5.963   6.695
 3890SOL     OW12568   6.361   3.165   2.903
 3890SOL    HW112569   6.456   3.190   2.922
 3890SOL    HW212570   6.330   3.212   2.820
 3891SOL     OW12571   4.835   5.404   5.695
 3891SOL    HW112572   4.741   5.434   5.712
 3891SOL    HW212573   4.897   5.455   5.754
 3892SOL     OW12574   5.783   5.955   4.080
 3892SOL    HW112575   5.781   5.863   4.039
 3892SOL    HW212576   5.874   5.972   4.119
 3893SOL     OW12577   2.978   6.046   4.652
 3893SOL    HW112578   3.063   6.004   4.685
 3893SOL    HW212579   2.993   6.145   4.640
 3894SOL     OW12580   5.449   5.070   6.611
 3894SOL    HW112581   5.434   5.132   6.688
 3894SOL    HW212582   5.535   5.092   6.566
 3895SOL     OW12583   1.768   1.822   5.833
 3895SOL    HW112584   1.784   1.920   5.818
 3895SOL    HW212585   1.693   1.811   5.899
 3896SOL     OW12586   6.248   3.657   0.506
 3896SOL    HW112587   6.285   3.569   0.474
 3896SOL    HW212588   6.321   3.726   0.504
 3897SOL     OW12589   3.537   6.626   3.491
 3897SOL    HW112590   3.486   6.572   3.424
 3897SOL    HW212591   3.635   6.610   3.480
 3898SOL     OW12592   3.208   3.646   4.203
 3898SOL    HW112593   3.109   3.659   4.209
 3898SOL    HW212594   3.250   3.731   4.171
 3899SOL     OW12595   4.319   2.155   6.181
 3899SOL    HW112596   4.267   2.240   6.179
 3899SOL    HW212597   4.266   2.085   6.229
 3900SOL     OW12598   0.616   2.732   4.135
 3900SOL    HW112599   0.648   2.822   4.107
 3900SOL    HW212600   0.516   2.733   4.141
 3901SOL     OW12601   3.102   5.312   5.885
 3901SOL    HW112602   3.014   5.269   5.867
 3901SOL    HW212603   3.164   5.295   5.809
 3902SOL     OW12604   3.858   5.375   3.172
 3902SOL    HW112605   3.826   5.285   3.201
 3902SOL    HW212606   3.883   5.371   3.075
 3903SOL     OW12607   3.890   3.751   6.256
 3903SOL    HW112608   3.879   3.850   6.247
 3903SOL    HW212609   3.846   3.705   6.178
 3904SOL     OW12610   2.231   6.710   6.956
 3904SOL    HW112611   2.183   6.783   7.005
 3904SOL    HW212612   2.312   6.748   6.911
 3905SOL     OW12613   4.630   0.259   5.977
 3905SOL    HW112614   4.615   0.315   6.058
 3905SOL    HW212615   4.551   0.267   5.916
 3906SOL     OW12616   6.758   5.534   4.603
 3906SOL    HW112617   6.682   5.509   4.664
 3906SOL    HW212618   6.819   5.597   4.651
 3907SOL     OW12619   0.287   1.756   4.437
 3907SOL    HW112620   0.383   1.783   4.446
 3907SOL    HW212621   0.279   1.681   4.372
 3908SOL     OW12622   2.250   0.543   4.589
 3908SOL    HW112623   2.314   0.620   4.597
 3908SOL    HW212624   2.262   0.481   4.666
 3909SOL     OW12625   5.336   3.956   1.906
 3909SOL    HW112626   5.355   3.936   2.002
 3909SOL    HW212627   5.387   3.894   1.848
 3910SOL     OW12628   2.873   2.736   1.428
 3910SOL    HW112629   2.896   2.758   1.523
 3910SOL    HW212630   2.793   2.789   1.400
 3911SOL     OW12631   6.992   1.315   1.032
 3911SOL    HW112632   6.961   1.274   1.117
 3911SOL    HW212633   6.983   1.250   0.957
 3912SOL     OW12634   4.524   4.237   0.408
 3912SOL    HW112635   4.492   4.284   0.490
 3912SOL    HW212636   4.580   4.159   0.434
 3913SOL     OW12637   4.205   5.360   1.258
 3913SOL    HW112638   4.276   5.406   1.205
 3913SOL    HW212639   4.233   5.354   1.354
 3914SOL     OW12640   6.732   1.250   0.696
 3914SOL    HW112641   6.695   1.241   0.789
 3914SOL    HW212642   6.692   1.330   0.652
 3915SOL     OW12643   5.691   0.561   5.233
 3915SOL    HW112644   5.700   0.535   5.329
 3915SOL    HW212645   5.753   0.637   5.213
 3916SOL     OW12646   1.603   2.251   2.273
 3916SOL    HW112647   1.654   2.182   2.221
 3916SOL    HW212648   1.664   2.293   2.340
 3917SOL     OW12649   4.421   5.452   2.188
 3917SOL    HW112650   4.408   5.478   2.283
 3917SOL    HW212651   4.518   5.442   2.168
 3918SOL     OW12652   4.318   0.066   0.808
 3918SOL    HW112653   4.233   0.108   0.776
 3918SOL    HW212654   4.358   0.012   0.734
 3919SOL     OW12655   5.158   5.748   3.288
 3919SOL    HW112656   5.224   5.725   3.217
 3919SOL    HW212657   5.143   5.668   3.347
 3920SOL     OW12658   3.715   2.133   5.430
 3920SOL    HW112659   3.699   2.227   5.398
 3920SOL    HW212660   3.756   2.080   5.355
 3921SOL     OW12661   1.345   3.245   5.855
 3921SOL    HW112662   1.276   3.279   5.919
 3921SOL    HW212663   1.386   3.322   5.807
 3922SOL     OW12664   4.977   2.760   4.021
 3922SOL    HW112665   5.005   2.744   4.116
 3922SOL    HW212666   4.890   2.809   4.019
 3923SOL     OW12667   5.414   0.811   1.527
 3923SOL    HW112668   5.336   0.753   1.502
 3923SOL    HW212669   5.396   0.854   1.616
 3924SOL     OW12670   5.219   4.845   4.324
 3924SOL    HW112671   5.240   4.937   4.358
 3924SOL    HW212672   5.157   4.853   4.246
 3925SOL     OW12673   4.168   5.681   1.549
 3925SOL    HW112674   4.143   5.668   1.645
 3925SOL    HW212675   4.114   5.619   1.492
 3926SOL     OW12676   1.477   5.917   5.320
 3926SOL    HW112677   1.428   5.871   5.246
 3926SOL    HW212678   1.533   5.850   5.369
 3927SOL     OW12679   5.970   0.392   5.330
 3927SOL    HW112680   5.958   0.305   5.282
 3927SOL    HW212681   6.028   0.377   5.411
 3928SOL     OW12682   4.649   6.424   2.861
 3928SOL    HW112683   4.663   6.415   2.960
 3928SOL    HW212684   4.597   6.346   2.827
 3929SOL     OW12685   1.418   0.741   5.835
 3929SOL    HW112686   1.386   0.789   5.753
 3929SOL    HW212687   1.416   0.803   5.913
 3930SOL     OW12688   2.169   5.951   4.669
 3930SOL    HW112689   2.218   5.887   4.609
 3930SOL    HW212690   2.209   6.043   4.659
 3931SOL     OW12691   0.845   2.585   0.411
 3931SOL    HW112692   0.778   2.659   0.407
 3931SOL    HW212693   0.863   2.562   0.507
 3932SOL     OW12694   2.235   4.059   2.782
 3932SOL    HW112695   2.263   4.134   2.722
 3932SOL    HW212696   2.174   3.997   2.732
 3933SOL     OW12697   1.991   6.408   1.410
 3933SOL    HW112698   2.076   6.385   1.363
 3933SOL    HW212699   2.009   6.479   1.478
 3934SOL     OW12700   2.124   6.373   1.724
 3934SOL    HW112701   2.117   6.444   1.654
 3934SOL    HW212702   2.149   6.286   1.680
 3935SOL     OW12703   0.620   2.257   4.993
 3935SOL    HW112704   0.698   2.243   4.933
 3935SOL    HW212705   0.609   2.355   5.011
 3936SOL     OW12706   6.694   3.932   3.969
 3936SOL    HW112707   6.704   3.995   4.046
 3936SOL    HW212708   6.784   3.909   3.932
 3937SOL     OW12709   0.801   6.411   0.320
 3937SOL    HW112710   0.867   6.465   0.373
 3937SOL    HW212711   0.797   6.318   0.356
 3938SOL     OW12712   0.609   3.790   6.931
 3938SOL    HW112713   0.689   3.827   6.978
 3938SOL    HW212714   0.553   3.738   6.995
 3939SOL     OW12715   1.689   6.813   4.038
 3939SOL    HW112716   1.739   6.764   3.966
 3939SOL    HW212717   1.668   6.905   4.006
 3940SOL     OW12718   2.354   6.058   6.096
 3940SOL    HW112719   2.285   6.082   6.028
 3940SOL    HW212720   2.319   5.984   6.154
 3941SOL     OW12721   5.381   5.527   2.438
 3941SOL    HW112722   5.339   5.441   2.465
 3941SOL    HW212723   5.388   5.587   2.518
 3942SOL     OW12724   6.468   6.693   6.656
 3942SOL    HW112725   6.443   6.619   6.594
 3942SOL    HW212726   6.385   6.735   6.693
 3943SOL     OW12727   1.743   3.953   0.089
 3943SOL    HW112728   1.643   3.953   0.087
 3943SOL    HW212729   1.778   3.999   0.008
 3944SOL     OW12730   4.671   3.338   6.816
 3944SOL    HW112731   4.664   3.419   6.874
 3944SOL    HW212732   4.580   3.300   6.801
 3945SOL     OW12733   6.860   0.756   3.403
 3945SOL    HW112734   6.790   0.695   3.441
 3945SOL    HW212735   6.875   0.832   3.466
 3946SOL     OW12736   6.163   2.371   0.933
 3946SOL    HW112737   6.112   2.433   0.991
 3946SOL    HW212738   6.196   2.420   0.852
 3947SOL     OW12739   5.777   6.843   2.274
 3947SOL    HW112740   5.810   6.800   2.190
 3947SOL    HW212741   5.855   6.863   2.334
 3948SOL     OW12742   2.399   1.032   4.908
 3948SOL    HW112743   2.388   0.936   4.933
 3948SOL    HW212744   2.432   1.038   4.813
 3949SOL     OW12745   5.966   0.013   2.001
 3949SOL    HW112746   5.909   6.955   1.999
 3949SOL    HW212747   5.908   0.094   1.991
 3950SOL     OW12748   2.708   4.622   1.518
 3950SOL    HW112749   2.771   4.583   1.452
 3950SOL    HW212750   2.723   4.581   1.608
 3951SOL     OW12751   6.668   2.525   3.508
 3951SOL    HW112752   6.702   2.568   3.424
 3951SOL    HW212753   6.718   2.561   3.586
 3952SOL     OW12754   5.777   4.567   6.644
 3952SOL    HW112755   5.845   4.572   6.718
 3952SOL    HW212756   5.803   4.494   6.580
 3953SOL     OW12757   3.514   3.524   5.639
 3953SOL    HW112758   3.544   3.473   5.719
 3953SOL    HW212759   3.593   3.540   5.579
 3954SOL     OW12760   1.329   3.374   4.925
 3954SOL    HW112761   1.351   3.279   4.904
 3954SOL    HW212762   1.382   3.434   4.866
 3955SOL     OW12763   5.999   3.474   0.190
 3955SOL    HW112764   6.044   3.559   0.165
 3955SOL    HW212765   5.923   3.493   0.252
 3956SOL     OW12766   0.035   3.037   5.263
 3956SOL    HW112767   0.042   3.084   5.176
 3956SOL    HW212768   0.080   2.947   5.256
 3957SOL     OW12769   0.528   2.452   2.038
 3957SOL    HW112770   0.593   2.423   2.108
 3957SOL    HW212771   0.533   2.390   1.960
 3958SOL     OW12772   5.655   6.059   1.284
 3958SOL    HW112773   5.737   6.084   1.336
 3958SOL    HW212774   5.628   5.966   1.308
 3959SOL     OW12775   2.895   4.949   1.669
 3959SOL    HW112776   2.902   5.025   1.733
 3959SOL    HW212777   2.938   4.868   1.709
 3960SOL     OW12778   5.979   2.777   0.360
 3960SOL    HW112779   5.908   2.841   0.329
 3960SOL    HW212780   5.951   2.684   0.338
 3961SOL     OW12781   6.910   1.195   1.254
 3961SOL    HW112782   6.937   1.199   1.350
 3961SOL    HW212783   6.867   1.106   1.236
 3962SOL     OW12784   6.965   0.306   6.190
 3962SOL    HW112785   6.989   0.247   6.113
 3962SOL    HW212786   6.901   0.377   6.159
 3963SOL     OW12787   4.991   4.233   4.080
 3963SOL    HW112788   5.026   4.153   4.129
 3963SOL    HW212789   5.057   4.260   4.009
 3964SOL     OW12790   5.656   4.793   0.396
 3964SOL    HW112791   5.601   4.788   0.480
 3964SOL    HW212792   5.607   4.746   0.322
 3965SOL     OW12793   3.398   3.721   0.897
 3965SOL    HW112794   3.464   3.647   0.907
 3965SOL    HW212795   3.310   3.693   0.936
 3966SOL     OW12796   6.386   3.469   5.848
 3966SOL    HW112797   6.416   3.451   5.941
 3966SOL    HW212798   6.426   3.402   5.786
 3967SOL     OW12799   2.380   6.788   0.180
 3967SOL    HW112800   2.455   6.722   0.175
 3967SOL    HW212801   2.293   6.739   0.188
 3968SOL     OW12802   4.652   2.365   0.724
 3968SOL    HW112803   4.610   2.279   0.753
 3968SOL    HW212804   4.590   2.441   0.743
 3969SOL     OW12805   6.988   6.618   0.998
 3969SOL    HW112806   6.959   6.597   1.091
 3969SOL    HW212807   0.057   6.583   0.983
 3970SOL     OW12808   5.671   4.501   3.728
 3970SOL    HW112809   5.619   4.554   3.795
 3970SOL    HW212810   5.749   4.555   3.696
 3971SOL     OW12811   0.892   5.605   3.722
 3971SOL    HW112812   0.910   5.675   3.791
 3971SOL    HW212813   0.893   5.647   3.631
 3972SOL     OW12814   1.261   0.092   5.929
 3972SOL    HW112815   1.246   0.129   5.837
 3972SOL    HW212816   1.186   0.030   5.952
 3973SOL     OW12817   4.083   3.548   2.713
 3973SOL    HW112818   3.988   3.568   2.738
 3973SOL    HW212819   4.085   3.473   2.647
 3974SOL     OW12820   4.929   0.920   6.613
 3974SOL    HW112821   4.870   1.000   6.601
 3974SOL    HW212822   4.903   0.850   6.547
 3975SOL     OW12823   0.306   6.850   4.391
 3975SOL    HW112824   0.308   6.933   4.336
 3975SOL    HW212825   0.218   6.804   4.380
 3976SOL     OW12826   0.950   2.890   5.798
 3976SOL    HW112827   1.018   2.945   5.847
 3976SOL    HW212828   0.953   2.796   5.831
 3977SOL     OW12829   3.326   5.109   5.217
 3977SOL    HW112830   3.352   5.015   5.198
 3977SOL    HW212831   3.397   5.153   5.273
 3978SOL     OW12832   5.733   3.180   6.354
 3978SOL    HW112833   5.689   3.121   6.286
 3978SOL    HW212834   5.812   3.224   6.312
 3979SOL     OW12835   1.116   5.915   3.028
 3979SOL    HW112836   1.088   6.004   2.991
 3979SOL    HW212837   1.108   5.917   3.128
 3980SOL     OW12838   5.128   4.088   4.244
 3980SOL    HW112839   5.149   3.990   4.245
 3980SOL    HW212840   5.197   4.137   4.298
 3981SOL     OW12841   0.041   1.267   6.418
 3981SOL    HW112842   7.016   1.271   6.505
 3981SOL    HW212843   0.018   1.346   6.362
 3982SOL     OW12844   2.062   2.975   4.562
 3982SOL    HW112845   2.157   2.948   4.574
 3982SOL    HW212846   2.015   2.974   4.651
 3983SOL     OW12847   3.539   0.522   3.953
 3983SOL    HW112848   3.443   0.527   3.927
 3983SOL    HW212849   3.560   0.429   3.985
 3984SOL     OW12850   1.497   5.585   2.411
 3984SOL    HW112851   1.502   5.487   2.392
 3984SOL    HW212852   1.582   5.615   2.455
 3985SOL     OW12853   2.011   2.473   1.436
 3985SOL    HW112854   2.038   2.379   1.456
 3985SOL    HW212855   2.092   2.532   1.437
 3986SOL     OW12856   0.129   2.397   2.550
 3986SOL    HW112857   0.216   2.445   2.539
 3986SOL    HW212858   0.142   2.315   2.605
 3987SOL     OW12859   1.149   4.361   5.009
 3987SOL    HW112860   1.107   4.271   4.994
 3987SOL    HW212861   1.166   4.405   4.921
 3988SOL     OW12862   4.885   6.998   1.883
 3988SOL    HW112863   4.868   7.006   1.981
 3988SOL    HW212864   4.981   7.017   1.864
 3989SOL     OW12865   4.208   1.318   5.755
 3989SOL    HW112866   4.140   1.344   5.687
 3989SOL    HW212867   4.261   1.240   5.721
 3990SOL     OW12868   6.164   1.136   4.120
 3990SOL    HW112869   6.216   1.116   4.203
 3990SOL    HW212870   6.153   1.235   4.111
 3991SOL     OW12871   6.943   2.025   3.543
 3991SOL    HW112872   6.881   2.049   3.617
 3991SOL    HW212873   6.892   1.979   3.470
 3992SOL     OW12874   5.310   3.808   6.701
 3992SOL    HW112875   5.397   3.770   6.733
 3992SOL    HW212876   5.328   3.873   6.627
 3993SOL     OW12877   1.567   0.861   3.935
 3993SOL    HW112878   1.572   0.804   3.853
 3993SOL    HW212879   1.614   0.948   3.917
 3994SOL     OW12880   3.461   1.835   3.601
 3994SOL    HW112881   3.541   1.777   3.584
 3994SOL    HW212882   3.397   1.828   3.525
 3995SOL     OW12883   1.441   3.672   2.594
 3995SOL    HW112884   1.413   3.577   2.579
 3995SOL    HW212885   1.408   3.729   2.518
 3996SOL     OW12886   6.416   6.720   4.756
 3996SOL    HW112887   6.485   6.714   4.829
 3996SOL    HW212888   6.358   6.639   4.760
 3997SOL     OW12889   5.717   3.793   4.299
 3997SOL    HW112890   5.725   3.891   4.317
 3997SOL    HW212891   5.631   3.774   4.251
 3998SOL     OW12892   4.865   2.478   3.853
 3998SOL    HW112893   4.842   2.498   3.758
 3998SOL    HW212894   4.861   2.562   3.906
 3999SOL     OW12895   4.839   2.850   0.558
 3999SOL    HW112896   4.851   2.945   0.589
 3999SOL    HW212897   4.872   2.788   0.629
 4000SOL     OW12898   2.154   4.845   3.444
 4000SOL    HW112899   2.080   4.900   3.404
 4000SOL    HW212900   2.173   4.878   3.536
 4001SOL     OW12901   0.566   6.038   4.342
 4001SOL    HW112902   0.467   6.050   4.327
 4001SOL    HW212903   0.594   6.091   4.422
 4002SOL     OW12904   3.906   3.617   4.895
 4002SOL    HW112905   3.836   3.582   4.832
 4002SOL    HW212906   3.888   3.581   4.987
 4003SOL     OW12907   2.413   0.787   5.008
 4003SOL    HW112908   2.502   0.803   5.049
 4003SOL    HW212909   2.399   0.688   4.998
 4004SOL     OW12910   2.142   4.413   4.741
 4004SOL    HW112911   2.140   4.349   4.818
 4004SOL    HW212912   2.211   4.483   4.759
 4005SOL     OW12913   5.010   2.837   0.330
 4005SOL    HW112914   4.946   2.849   0.406
 4005SOL    HW212915   4.989   2.904   0.259
 4006SOL     OW12916   6.797   5.391   2.100
 4006SOL    HW112917   6.858   5.439   2.164
 4006SOL    HW212918   6.845   5.376   2.014
 4007SOL     OW12919   0.847   1.309   1.792
 4007SOL    HW112920   0.819   1.243   1.723
 4007SOL    HW212921   0.859   1.263   1.880
 4008SOL     OW12922   3.326   1.282   1.517
 4008SOL    HW112923   3.322   1.348   1.442
 4008SOL    HW212924   3.323   1.189   1.479
 4009SOL     OW12925   3.768   2.590   0.910
 4009SOL    HW112926   3.783   2.677   0.863
 4009SOL    HW212927   3.842   2.526   0.887
 4010SOL     OW12928   1.669   4.729   1.180
 4010SOL    HW112929   1.747   4.760   1.125
 4010SOL    HW212930   1.700   4.704   1.272
 4011SOL     OW12931   6.172   0.014   6.101
 4011SOL    HW112932   6.109   0.039   6.027
 4011SOL    HW212933   6.230   0.093   6.123
 4012SOL     OW12934   5.934   5.393   2.398
 4012SOL    HW112935   5.972   5.476   2.356
 4012SOL    HW212936   6.006   5.323   2.402
 4013SOL     OW12937   6.893   1.785   7.022
 4013SOL    HW112938   6.793   1.785   7.020
 4013SOL    HW212939   6.927   1.716   6.958
 4014SOL     OW12940   3.742   5.800   2.507
 4014SOL    HW112941   3.814   5.802   2.576
 4014SOL    HW212942   3.678   5.726   2.527
 4015SOL     OW12943   4.576   5.567   6.252
 4015SOL    HW112944   4.665   5.589   6.292
 4015SOL    HW212945   4.581   5.575   6.152
 4016SOL     OW12946   5.067   5.055   4.540
 4016SOL    HW112947   5.037   4.964   4.511
 4016SOL    HW212948   5.165   5.064   4.526
 4017SOL     OW12949   1.694   6.137   5.601
 4017SOL    HW112950   1.704   6.102   5.507
 4017SOL    HW212951   1.785   6.149   5.641
 4018SOL     OW12952   4.424   5.472   1.138
 4018SOL    HW112953   4.485   5.394   1.128
 4018SOL    HW212954   4.411   5.516   1.049
 4019SOL     OW12955   6.795   3.506   2.127
 4019SOL    HW112956   6.765   3.411   2.119
 4019SOL    HW212957   6.845   3.532   2.044
 4020SOL     OW12958   6.784   5.618   4.343
 4020SOL    HW112959   6.784   5.579   4.435
 4020SOL    HW212960   6.696   5.662   4.325
 4021SOL     OW12961   4.448   5.000   6.500
 4021SOL    HW112962   4.493   4.911   6.504
 4021SOL    HW212963   4.506   5.066   6.452
 4022SOL     OW12964   2.869   6.487   1.154
 4022SOL    HW112965   2.829   6.567   1.110
 4022SOL    HW212966   2.802   6.412   1.154
 4023SOL     OW12967   0.541   1.821   4.401
 4023SOL    HW112968   0.516   1.815   4.304
 4023SOL    HW212969   0.571   1.732   4.434
 4024SOL     OW12970   0.163   6.447   5.510
 4024SOL    HW112971   0.136   6.509   5.436
 4024SOL    HW212972   0.235   6.385   5.477
 4025SOL     OW12973   0.059   4.729   3.945
 4025SOL    HW112974   7.001   4.739   3.888
 4025SOL    HW212975   0.139   4.715   3.887
 4026SOL     OW12976   0.548   6.569   4.131
 4026SOL    HW112977   0.548   6.600   4.036
 4026SOL    HW212978   0.623   6.504   4.145
 4027SOL     OW12979   3.819   4.953   4.925
 4027SOL    HW112980   3.903   4.905   4.953
 4027SOL    HW212981   3.748   4.938   4.994
 4028SOL     OW12982   5.008   1.327   3.890
 4028SOL    HW112983   4.936   1.370   3.836
 4028SOL    HW212984   5.091   1.382   3.884
 4029SOL     OW12985   1.151   6.667   0.714
 4029SOL    HW112986   1.160   6.766   0.720
 4029SOL    HW212987   1.110   6.632   0.798
 4030SOL     OW12988   0.288   1.720   1.876
 4030SOL    HW112989   0.326   1.668   1.952
 4030SOL    HW212990   0.312   1.675   1.790
 4031SOL     OW12991   5.791   5.990   0.209
 4031SOL    HW112992   5.791   6.053   0.286
 4031SOL    HW212993   5.704   5.940   0.206
 4032SOL     OW12994   5.248   1.248   2.937
 4032SOL    HW112995   5.216   1.342   2.948
 4032SOL    HW212996   5.346   1.244   2.959
 4033SOL     OW12997   2.071   2.839   3.207
 4033SOL    HW112998   2.103   2.788   3.287
 4033SOL    HW212999   2.147   2.855   3.145
 4034SOL     OW13000   1.626   2.452   4.940
 4034SOL    HW113001   1.691   2.382   4.912
 4034SOL    HW213002   1.541   2.442   4.888
 4035SOL     OW13003   4.606   2.125   2.053
 4035SOL    HW113004   4.559   2.207   2.022
 4035SOL    HW213005   4.577   2.047   1.998
 4036SOL     OW13006   3.372   5.885   3.308
 4036SOL    HW113007   3.444   5.949   3.280
 4036SOL    HW213008   3.374   5.806   3.247
 4037SOL     OW13009   1.737   1.932   6.419
 4037SOL    HW113010   1.711   1.901   6.511
 4037SOL    HW213011   1.746   2.032   6.418
 4038SOL     OW13012   3.364   4.700   6.012
 4038SOL    HW113013   3.443   4.719   6.070
 4038SOL    HW213014   3.338   4.783   5.963
 4039SOL     OW13015   5.785   4.717   1.564
 4039SOL    HW113016   5.772   4.634   1.619
 4039SOL    HW213017   5.815   4.692   1.472
 4040SOL     OW13018   3.556   0.646   4.930
 4040SOL    HW113019   3.499   0.715   4.973
 4040SOL    HW213020   3.599   0.589   5.000
 4041SOL     OW13021   1.399   5.297   2.313
 4041SOL    HW113022   1.400   5.275   2.411
 4041SOL    HW213023   1.475   5.249   2.268
 4042SOL     OW13024   0.085   1.587   3.098
 4042SOL    HW113025   0.163   1.600   3.038
 4042SOL    HW213026   0.044   1.675   3.120
 4043SOL     OW13027   5.108   2.789   6.025
 4043SOL    HW113028   5.098   2.868   6.086
 4043SOL    HW213029   5.018   2.751   6.005
 4044SOL     OW13030   4.749   4.189   3.057
 4044SOL    HW113031   4.773   4.112   3.116
 4044SOL    HW213032   4.796   4.272   3.088
 4045SOL     OW13033   4.483   1.339   5.435
 4045SOL    HW113034   4.466   1.248   5.399
 4045SOL    HW213035   4.577   1.366   5.416
 4046SOL     OW13036   5.445   1.796   3.863
 4046SOL    HW113037   5.362   1.782   3.917
 4046SOL    HW213038   5.462   1.894   3.853
 4047SOL     OW13039   3.325   2.578   6.750
 4047SOL    HW113040   3.373   2.637   6.815
 4047SOL    HW213041   3.269   2.634   6.689
 4048SOL     OW13042   4.919   1.914   2.608
 4048SOL    HW113043   5.015   1.886   2.614
 4048SOL    HW213044   4.892   1.956   2.694
 4049SOL     OW13045   4.140   3.952   0.925
 4049SOL    HW113046   4.141   3.888   1.002
 4049SOL    HW213047   4.049   3.994   0.918
 4050SOL     OW13048   0.444   5.235   2.696
 4050SOL    HW113049   0.474   5.193   2.610
 4050SOL    HW213050   0.403   5.324   2.677
 4051SOL     OW13051   5.373   0.582   5.277
 4051SOL    HW113052   5.463   0.560   5.241
 4051SOL    HW213053   5.378   0.588   5.377
 4052SOL     OW13054   5.244   2.011   3.637
 4052SOL    HW113055   5.278   1.931   3.588
 4052SOL    HW213056   5.292   2.020   3.723
 4053SOL     OW13057   1.022   4.589   3.896
 4053SOL    HW113058   1.059   4.631   3.812
 4053SOL    HW213059   1.078   4.616   3.974
 4054SOL     OW13060   4.540   4.055   1.281
 4054SOL    HW113061   4.500   4.042   1.372
 4054SOL    HW213062   4.541   4.153   1.259
 4055SOL     OW13063   0.401   4.483   0.362
 4055SOL    HW113064   0.361   4.448   0.277
 4055SOL    HW213065   0.376   4.423   0.438
 4056SOL     OW13066   5.194   3.357   6.876
 4056SOL    HW113067   5.211   3.340   6.779
 4056SOL    HW213068   5.201   3.455   6.895
 4057SOL     OW13069   0.147   3.794   0.130
 4057SOL    HW113070   0.113   3.738   0.206
 4057SOL    HW213071   0.071   3.828   0.076
 4058SOL     OW13072   3.009   0.468   4.711
 4058SOL    HW113073   2.985   0.549   4.657
 4058SOL    HW213074   3.101   0.478   4.747
 4059SOL     OW13075   0.493   1.409   3.774
 4059SOL    HW113076   0.585   1.445   3.762
 4059SOL    HW213077   0.451   1.392   3.685
 4060SOL     OW13078   7.003   5.869   4.540
 4060SOL    HW113079   0.044   5.940   4.512
 4060SOL    HW213080   6.909   5.903   4.528
 4061SOL     OW13081   1.098   4.972   1.547
 4061SOL    HW113082   1.038   4.911   1.599
 4061SOL    HW213083   1.152   5.028   1.609
 4062SOL     OW13084   1.687   3.708   0.781
 4062SOL    HW113085   1.686   3.801   0.743
 4062SOL    HW213086   1.755   3.702   0.853
 4063SOL     OW13087   4.053   0.222   0.672
 4063SOL    HW113088   4.004   0.221   0.585
 4063SOL    HW213089   4.019   0.147   0.729
 4064SOL     OW13090   1.917   1.055   5.726
 4064SOL    HW113091   1.901   1.040   5.628
 4064SOL    HW213092   1.931   0.968   5.772
 4065SOL     OW13093   2.157   0.631   1.260
 4065SOL    HW113094   2.210   0.598   1.182
 4065SOL    HW213095   2.101   0.557   1.296
 4066SOL     OW13096   0.742   3.527   3.784
 4066SOL    HW113097   0.817   3.521   3.849
 4066SOL    HW213098   0.775   3.568   3.699
 4067SOL     OW13099   5.652   4.992   0.778
 4067SOL    HW113100   5.639   5.000   0.679
 4067SOL    HW213101   5.735   5.042   0.804
 4068SOL     OW13102   2.285   2.736   5.062
 4068SOL    HW113103   2.333   2.821   5.041
 4068SOL    HW213104   2.233   2.707   4.982
 4069SOL     OW13105   5.019   6.193   6.374
 4069SOL    HW113106   4.994   6.206   6.278
 4069SOL    HW213107   4.991   6.274   6.426
 4070SOL     OW13108   1.416   3.864   3.977
 4070SOL    HW113109   1.455   3.923   3.907
 4070SOL    HW213110   1.472   3.781   3.986
 4071SOL     OW13111   1.390   0.874   5.328
 4071SOL    HW113112   1.476   0.926   5.331
 4071SOL    HW213113   1.339   0.899   5.245
 4072SOL     OW13114   2.881   6.094   2.690
 4072SOL    HW113115   2.837   6.004   2.696
 4072SOL    HW213116   2.812   6.166   2.696
 4073SOL     OW13117   4.250   5.029   6.682
 4073SOL    HW113118   4.312   5.062   6.611
 4073SOL    HW213119   4.290   5.048   6.772
 4074SOL     OW13120   1.902   5.748   3.035
 4074SOL    HW113121   1.976   5.735   2.970
 4074SOL    HW213122   1.921   5.696   3.118
 4075SOL     OW13123   6.302   0.515   0.714
 4075SOL    HW113124   6.365   0.543   0.641
 4075SOL    HW213125   6.354   0.491   0.796
 4076SOL     OW13126   2.131   5.369   4.279
 4076SOL    HW113127   2.222   5.409   4.282
 4076SOL    HW213128   2.064   5.435   4.311
 4077SOL     OW13129   2.895   0.691   2.043
 4077SOL    HW113130   2.928   0.649   1.958
 4077SOL    HW213131   2.940   0.647   2.121
 4078SOL     OW13132   3.602   4.868   2.324
 4078SOL    HW113133   3.505   4.868   2.348
 4078SOL    HW213134   3.615   4.818   2.238
 4079SOL     OW13135   0.228   2.276   3.815
 4079SOL    HW113136   0.295   2.215   3.773
 4079SOL    HW213137   0.161   2.223   3.867
 4080SOL     OW13138   6.809   2.081   5.356
 4080SOL    HW113139   6.843   2.158   5.410
 4080SOL    HW213140   6.819   2.102   5.259
 4081SOL     OW13141   0.673   3.235   3.811
 4081SOL    HW113142   0.689   3.328   3.779
 4081SOL    HW213143   0.577   3.211   3.799
 4082SOL     OW13144   0.570   3.918   0.603
 4082SOL    HW113145   0.565   4.008   0.648
 4082SOL    HW213146   0.629   3.925   0.522
 4083SOL     OW13147   6.583   3.037   4.926
 4083SOL    HW113148   6.502   2.990   4.890
 4083SOL    HW213149   6.640   3.069   4.850
 4084SOL     OW13150   6.584   1.312   4.367
 4084SOL    HW113151   6.626   1.360   4.444
 4084SOL    HW213152   6.641   1.236   4.339
 4085SOL     OW13153   2.565   6.484   0.558
 4085SOL    HW113154   2.475   6.522   0.538
 4085SOL    HW213155   2.574   6.394   0.514
 4086SOL     OW13156   1.097   4.104   0.979
 4086SOL    HW113157   1.177   4.088   0.920
 4086SOL    HW213158   1.027   4.035   0.961
 4087SOL     OW13159   2.402   1.569   2.675
 4087SOL    HW113160   2.494   1.582   2.638
 4087SOL    HW213161   2.402   1.592   2.772
 4088SOL     OW13162   6.447   1.792   0.404
 4088SOL    HW113163   6.364   1.847   0.393
 4088SOL    HW213164   6.508   1.807   0.325
 4089SOL     OW13165   1.137   1.339   5.527
 4089SOL    HW113166   1.185   1.259   5.562
 4089SOL    HW213167   1.146   1.342   5.427
 4090SOL     OW13168   2.321   4.743   6.109
 4090SOL    HW113169   2.309   4.716   6.205
 4090SOL    HW213170   2.418   4.735   6.084
 4091SOL     OW13171   3.780   0.006   0.507
 4091SOL    HW113172   3.850   0.063   0.463
 4091SOL    HW213173   3.704   0.063   0.536
 4092SOL     OW13174   6.967   2.055   4.813
 4092SOL    HW113175   0.024   2.060   4.872
 4092SOL    HW213176   6.994   2.075   4.719
 4093SOL     OW13177   5.710   6.731   4.587
 4093SOL    HW113178   5.792   6.735   4.644
 4093SOL    HW213179   5.709   6.809   4.524
 4094SOL     OW13180   3.103   4.570   5.338
 4094SOL    HW113181   3.057   4.581   5.250
 4094SOL    HW213182   3.200   4.592   5.328
 4095SOL     OW13183   1.845   3.360   5.636
 4095SOL    HW113184   1.865   3.411   5.720
 4095SOL    HW213185   1.865   3.263   5.651
 4096SOL     OW13186   4.361   4.659   2.278
 4096SOL    HW113187   4.278   4.708   2.251
 4096SOL    HW213188   4.431   4.669   2.207
 4097SOL     OW13189   3.010   3.848   3.908
 4097SOL    HW113190   3.006   3.835   3.809
 4097SOL    HW213191   3.046   3.939   3.929
 4098SOL     OW13192   0.252   2.983   2.347
 4098SOL    HW113193   0.195   2.917   2.297
 4098SOL    HW213194   0.293   3.047   2.282
 4099SOL     OW13195   3.030   6.415   1.704
 4099SOL    HW113196   3.007   6.374   1.792
 4099SOL    HW213197   3.003   6.352   1.631
 4100SOL     OW13198   3.770   6.269   3.234
 4100SOL    HW113199   3.865   6.291   3.256
 4100SOL    HW213200   3.757   6.273   3.135
 4101SOL     OW13201   4.467   1.433   6.792
 4101SOL    HW113202   4.533   1.399   6.860
 4101SOL    HW213203   4.514   1.493   6.727
 4102SOL     OW13204   5.273   1.172   0.347
 4102SOL    HW113205   5.363   1.139   0.377
 4102SOL    HW213206   5.228   1.100   0.295
 4103SOL     OW13207   0.099   0.253   2.265
 4103SOL    HW113208   0.157   0.178   2.232
 4103SOL    HW213209   0.155   0.319   2.314
 4104SOL     OW13210   1.660   4.745   2.496
 4104SOL    HW113211   1.642   4.658   2.541
 4104SOL    HW213212   1.759   4.762   2.494
 4105SOL     OW13213   5.658   5.069   0.522
 4105SOL    HW113214   5.663   4.977   0.482
 4105SOL    HW213215   5.624   5.133   0.454
 4106SOL     OW13216   0.182   3.606   4.800
 4106SOL    HW113217   0.277   3.611   4.831
 4106SOL    HW213218   0.136   3.691   4.822
 4107SOL     OW13219   6.694   0.831   0.796
 4107SOL    HW113220   6.744   0.810   0.880
 4107SOL    HW213221   6.618   0.893   0.817
 4108SOL     OW13222   6.732   3.102   5.171
 4108SOL    HW113223   6.669   3.082   5.096
 4108SOL    HW213224   6.824   3.115   5.135
 4109SOL     OW13225   2.858   6.477   3.427
 4109SOL    HW113226   2.797   6.514   3.497
 4109SOL    HW213227   2.949   6.518   3.437
 4110SOL     OW13228   4.307   3.143   5.507
 4110SOL    HW113229   4.403   3.116   5.502
 4110SOL    HW213230   4.267   3.138   5.416
 4111SOL     OW13231   4.153   3.457   6.664
 4111SOL    HW113232   4.224   3.526   6.679
 4111SOL    HW213233   4.174   3.405   6.581
 4112SOL     OW13234   3.648   0.737   4.463
 4112SOL    HW113235   3.690   0.737   4.553
 4112SOL    HW213236   3.664   0.649   4.418
 4113SOL     OW13237   3.873   5.637   4.649
 4113SOL    HW113238   3.817   5.554   4.663
 4113SOL    HW213239   3.895   5.646   4.552
 4114SOL     OW13240   3.502   2.056   2.684
 4114SOL    HW113241   3.462   2.019   2.767
 4114SOL    HW213242   3.429   2.077   2.619
 4115SOL     OW13243   5.452   4.643   2.318
 4115SOL    HW113244   5.488   4.552   2.300
 4115SOL    HW213245   5.517   4.695   2.372
 4116SOL     OW13246   3.580   1.048   2.604
 4116SOL    HW113247   3.481   1.034   2.612
 4116SOL    HW213248   3.606   1.132   2.652
 4117SOL     OW13249   0.851   5.545   1.863
 4117SOL    HW113250   0.795   5.465   1.886
 4117SOL    HW213251   0.836   5.571   1.768
 4118SOL     OW13252   2.397   6.950   0.637
 4118SOL    HW113253   2.323   7.008   0.671
 4118SOL    HW213254   2.394   6.948   0.537
 4119SOL     OW13255   4.613   1.000   3.401
 4119SOL    HW113256   4.695   1.055   3.417
 4119SOL    HW213257   4.622   0.952   3.314
 4120SOL     OW13258   4.015   1.137   2.444
 4120SOL    HW113259   3.954   1.124   2.366
 4120SOL    HW213260   3.987   1.076   2.519
 4121SOL     OW13261   6.901   2.976   4.931
 4121SOL    HW113262   6.834   2.910   4.965
 4121SOL    HW213263   6.882   2.997   4.835
 4122SOL     OW13264   1.583   5.735   6.663
 4122SOL    HW113265   1.494   5.751   6.621
 4122SOL    HW213266   1.646   5.807   6.635
 4123SOL     OW13267   4.828   4.402   6.126
 4123SOL    HW113268   4.900   4.446   6.179
 4123SOL    HW213269   4.760   4.470   6.098
 4124SOL     OW13270   4.862   6.684   3.901
 4124SOL    HW113271   4.833   6.765   3.851
 4124SOL    HW213272   4.929   6.710   3.971
 4125SOL     OW13273   5.100   0.889   0.923
 4125SOL    HW113274   5.073   0.950   0.997
 4125SOL    HW213275   5.119   0.943   0.841
 4126SOL     OW13276   2.198   5.171   4.453
 4126SOL    HW113277   2.188   5.243   4.385
 4126SOL    HW213278   2.115   5.115   4.455
 4127SOL     OW13279   5.953   4.056   4.873
 4127SOL    HW113280   6.048   4.037   4.897
 4127SOL    HW213281   5.945   4.152   4.844
 4128SOL     OW13282   1.101   1.994   2.134
 4128SOL    HW113283   1.023   2.019   2.077
 4128SOL    HW213284   1.146   2.077   2.167
 4129SOL     OW13285   5.885   2.192   6.413
 4129SOL    HW113286   5.802   2.206   6.467
 4129SOL    HW213287   5.861   2.181   6.317
 4130SOL     OW13288   6.082   3.257   1.330
 4130SOL    HW113289   6.102   3.298   1.241
 4130SOL    HW213290   6.085   3.327   1.401
 4131SOL     OW13291   6.939   4.085   3.454
 4131SOL    HW113292   7.023   4.086   3.507
 4131SOL    HW213293   6.961   4.073   3.357
 4132SOL     OW13294   5.072   2.118   4.405
 4132SOL    HW113295   5.032   2.095   4.494
 4132SOL    HW213296   5.026   2.067   4.333
 4133SOL     OW13297   2.731   2.243   1.325
 4133SOL    HW113298   2.735   2.342   1.336
 4133SOL    HW213299   2.651   2.219   1.270
 4134SOL     OW13300   1.458   1.891   6.898
 4134SOL    HW113301   1.398   1.812   6.898
 4134SOL    HW213302   1.405   1.974   6.917
 4135SOL     OW13303   1.378   0.613   1.094
 4135SOL    HW113304   1.397   0.522   1.131
 4135SOL    HW213305   1.305   0.607   1.027
 4136SOL     OW13306   0.952   1.735   3.321
 4136SOL    HW113307   0.961   1.636   3.312
 4136SOL    HW213308   1.043   1.776   3.327
 4137SOL     OW13309   3.920   3.900   5.654
 4137SOL    HW113310   3.942   3.987   5.699
 4137SOL    HW213311   4.001   3.867   5.605
 4138SOL     OW13312   3.866   5.485   2.749
 4138SOL    HW113313   3.953   5.520   2.781
 4138SOL    HW213314   3.840   5.404   2.803
 4139SOL     OW13315   2.258   0.787   0.231
 4139SOL    HW113316   2.252   0.879   0.193
 4139SOL    HW213317   2.269   0.721   0.157
 4140SOL     OW13318   4.327   1.987   5.354
 4140SOL    HW113319   4.414   1.942   5.334
 4140SOL    HW213320   4.280   1.937   5.426
 4141SOL     OW13321   5.814   5.426   0.640
 4141SOL    HW113322   5.721   5.435   0.677
 4141SOL    HW213323   5.840   5.329   0.639
 4142SOL     OW13324   6.614   2.535   1.309
 4142SOL    HW113325   6.639   2.626   1.276
 4142SOL    HW213326   6.517   2.534   1.334
 4143SOL     OW13327   0.920   2.480   1.652
 4143SOL    HW113328   0.991   2.549   1.664
 4143SOL    HW213329   0.855   2.512   1.582
 4144SOL     OW13330   4.586   0.591   2.135
 4144SOL    HW113331   4.561   0.666   2.073
 4144SOL    HW213332   4.504   0.539   2.157
 4145SOL     OW13333   3.582   6.981   2.747
 4145SOL    HW113334   3.645   6.957   2.673
 4145SOL    HW213335   3.488   6.964   2.719
 4146SOL     OW13336   5.054   5.607   0.105
 4146SOL    HW113337   5.008   5.519   0.119
 4146SOL    HW213338   5.107   5.629   0.187
 4147SOL     OW13339   2.845   2.554   5.664
 4147SOL    HW113340   2.848   2.560   5.564
 4147SOL    HW213341   2.756   2.520   5.693
 4148SOL     OW13342   5.914   0.381   2.920
 4148SOL    HW113343   5.854   0.455   2.888
 4148SOL    HW213344   5.880   0.346   3.008
 4149SOL     OW13345   5.345   4.711   1.422
 4149SOL    HW113346   5.247   4.731   1.427
 4149SOL    HW213347   5.395   4.795   1.402
 4150SOL     OW13348   4.815   0.675   5.735
 4150SOL    HW113349   4.847   0.632   5.651
 4150SOL    HW213350   4.837   0.773   5.732
 4151SOL     OW13351   0.353   5.569   0.399
 4151SOL    HW113352   0.337   5.471   0.409
 4151SOL    HW213353   0.411   5.586   0.320
 4152SOL     OW13354   3.795   4.301   1.377
 4152SOL    HW113355   3.789   4.342   1.468
 4152SOL    HW213356   3.850   4.217   1.383
 4153SOL     OW13357   6.069   5.383   5.842
 4153SOL    HW113358   6.143   5.320   5.865
 4153SOL    HW213359   5.997   5.335   5.792
 4154SOL     OW13360   4.801   2.614   5.580
 4154SOL    HW113361   4.826   2.707   5.556
 4154SOL    HW213362   4.754   2.571   5.503
 4155SOL     OW13363   1.618   3.338   1.008
 4155SOL    HW113364   1.560   3.419   0.999
 4155SOL    HW213365   1.569   3.269   1.063
 4156SOL     OW13366   6.331   0.034   5.280
 4156SOL    HW113367   6.317   0.084   5.365
 4156SOL    HW213368   6.424   7.022   5.277
 4157SOL     OW13369   3.296   0.645   4.154
 4157SOL    HW113370   3.309   0.633   4.056
 4157SOL    HW213371   3.342   0.728   4.185
 4158SOL     OW13372   0.752   0.227   4.193
 4158SOL    HW113373   0.788   0.281   4.269
 4158SOL    HW213374   0.661   0.193   4.217
 4159SOL     OW13375   0.898   3.513   5.406
 4159SOL    HW113376   0.974   3.487   5.465
 4159SOL    HW213377   0.910   3.474   5.315
 4160SOL     OW13378   1.462   1.007   0.837
 4160SOL    HW113379   1.556   0.986   0.862
 4160SOL    HW213380   1.455   1.024   0.739
 4161SOL     OW13381   6.227   1.975   0.376
 4161SOL    HW113382   6.150   2.014   0.427
 4161SOL    HW213383   6.282   2.049   0.337
 4162SOL     OW13384   7.019   6.601   4.991
 4162SOL    HW113385   6.933   6.553   5.009
 4162SOL    HW213386   0.067   6.534   4.974
 4163SOL     OW13387   6.293   0.857   4.413
 4163SOL    HW113388   6.365   0.799   4.376
 4163SOL    HW213389   6.205   0.831   4.372
 4164SOL     OW13390   2.526   6.688   6.223
 4164SOL    HW113391   2.487   6.778   6.241
 4164SOL    HW213392   2.453   6.620   6.217
 4165SOL     OW13393   2.756   5.849   2.646
 4165SOL    HW113394   2.697   5.776   2.683
 4165SOL    HW213395   2.700   5.912   2.591
 4166SOL     OW13396   5.930   2.537   1.012
 4166SOL    HW113397   5.943   2.552   0.914
 4166SOL    HW213398   5.849   2.587   1.043
 4167SOL     OW13399   2.348   2.889   1.389
 4167SOL    HW113400   2.337   2.966   1.326
 4167SOL    HW213401   2.394   2.920   1.472
 4168SOL     OW13402   1.379   4.354   0.956
 4168SOL    HW113403   1.460   4.398   0.917
 4168SOL    HW213404   1.384   4.358   1.056
 4169SOL     OW13405   6.103   3.744   4.644
 4169SOL    HW113406   6.076   3.763   4.739
 4169SOL    HW213407   6.125   3.647   4.634
 4170SOL     OW13408   4.094   2.033   5.211
 4170SOL    HW113409   4.017   1.974   5.235
 4170SOL    HW213410   4.179   1.989   5.241
 4171SOL     OW13411   5.412   3.463   1.308
 4171SOL    HW113412   5.397   3.428   1.216
 4171SOL    HW213413   5.389   3.393   1.376
 4172SOL     OW13414   2.692   1.015   6.922
 4172SOL    HW113415   2.621   1.063   6.974
 4172SOL    HW213416   2.687   1.041   6.826
 4173SOL     OW13417   5.650   3.704   5.733
 4173SOL    HW113418   5.661   3.708   5.833
 4173SOL    HW213419   5.739   3.719   5.690
 4174SOL     OW13420   5.294   0.795   4.302
 4174SOL    HW113421   5.353   0.718   4.328
 4174SOL    HW213422   5.284   0.798   4.203
 4175SOL     OW13423   3.697   1.690   3.527
 4175SOL    HW113424   3.767   1.749   3.567
 4175SOL    HW213425   3.667   1.728   3.440
 4176SOL     OW13426   5.933   5.271   3.034
 4176SOL    HW113427   5.935   5.290   3.132
 4176SOL    HW213428   6.004   5.204   3.012
 4177SOL     OW13429   6.686   5.044   2.976
 4177SOL    HW113430   6.725   4.986   3.047
 4177SOL    HW213431   6.628   5.114   3.018
 4178SOL     OW13432   4.005   3.243   5.983
 4178SOL    HW113433   4.034   3.204   6.070
 4178SOL    HW213434   3.945   3.179   5.935
 4179SOL     OW13435   6.612   2.671   6.791
 4179SOL    HW113436   6.598   2.661   6.693
 4179SOL    HW213437   6.666   2.754   6.809
 4180SOL     OW13438   4.346   3.617   1.724
 4180SOL    HW113439   4.310   3.530   1.759
 4180SOL    HW213440   4.272   3.671   1.684
 4181SOL     OW13441   6.775   1.013   0.570
 4181SOL    HW113442   6.750   1.104   0.602
 4181SOL    HW213443   6.777   0.950   0.647
 4182SOL     OW13444   5.282   1.153   3.720
 4182SOL    HW113445   5.303   1.247   3.747
 4182SOL    HW213446   5.367   1.105   3.700
 4183SOL     OW13447   2.122   1.952   1.323
 4183SOL    HW113448   2.115   1.892   1.403
 4183SOL    HW213449   2.208   1.934   1.275
 4184SOL     OW13450   4.019   4.821   6.895
 4184SOL    HW113451   3.969   4.903   6.866
 4184SOL    HW213452   4.091   4.846   6.959
 4185SOL     OW13453   0.049   6.600   4.098
 4185SOL    HW113454   0.032   6.503   4.080
 4185SOL    HW213455   0.136   6.611   4.146
 4186SOL     OW13456   3.712   4.210   1.824
 4186SOL    HW113457   3.747   4.117   1.819
 4186SOL    HW213458   3.685   4.230   1.918
 4187SOL     OW13459   4.205   4.913   6.390
 4187SOL    HW113460   4.267   4.955   6.456
 4187SOL    HW213461   4.240   4.824   6.362
 4188SOL     OW13462   5.356   6.334   4.630
 4188SOL    HW113463   5.308   6.396   4.568
 4188SOL    HW213464   5.330   6.354   4.725
 4189SOL     OW13465   1.799   3.564   3.326
 4189SOL    HW113466   1.898   3.575   3.316
 4189SOL    HW213467   1.768   3.611   3.408
 4190SOL     OW13468   2.604   0.096   1.480
 4190SOL    HW113469   2.511   0.107   1.513
 4190SOL    HW213470   2.656   0.041   1.546
 4191SOL     OW13471   0.799   2.885   2.214
 4191SOL    HW113472   0.884   2.935   2.232
 4191SOL    HW213473   0.779   2.888   2.116
 4192SOL     OW13474   6.050   0.967   2.628
 4192SOL    HW113475   5.950   0.974   2.628
 4192SOL    HW213476   6.082   0.942   2.719
 4193SOL     OW13477   2.248   6.527   2.467
 4193SOL    HW113478   2.347   6.533   2.456
 4193SOL    HW213479   2.206   6.614   2.440
 4194SOL     OW13480   6.404   1.084   3.726
 4194SOL    HW113481   6.436   1.001   3.681
 4194SOL    HW213482   6.416   1.076   3.824
 4195SOL     OW13483   5.340   0.940   3.124
 4195SOL    HW113484   5.318   1.031   3.088
 4195SOL    HW213485   5.413   0.948   3.192
 4196SOL     OW13486   4.410   2.433   3.510
 4196SOL    HW113487   4.342   2.488   3.559
 4196SOL    HW213488   4.381   2.422   3.415
 4197SOL     OW13489   4.798   3.982   4.445
 4197SOL    HW113490   4.846   3.966   4.531
 4197SOL    HW213491   4.848   3.937   4.370
 4198SOL     OW13492   5.790   4.217   6.188
 4198SOL    HW113493   5.883   4.253   6.193
 4198SOL    HW213494   5.785   4.131   6.238
 4199SOL     OW13495   3.386   3.743   5.442
 4199SOL    HW113496   3.384   3.817   5.509
 4199SOL    HW213497   3.295   3.734   5.400
 4200SOL     OW13498   2.402   0.386   6.209
 4200SOL    HW113499   2.322   0.394   6.149
 4200SOL    HW213500   2.381   0.427   6.298
 4201SOL     OW13501   5.862   0.028   4.507
 4201SOL    HW113502   5.884   6.982   4.575
 4201SOL    HW213503   5.930   0.024   4.433
 4202SOL     OW13504   5.538   3.876   4.972
 4202SOL    HW113505   5.526   3.786   5.013
 4202SOL    HW213506   5.612   3.873   4.905
 4203SOL     OW13507   4.747   5.171   3.918
 4203SOL    HW113508   4.715   5.265   3.907
 4203SOL    HW213509   4.732   5.141   4.012
 4204SOL     OW13510   1.815   4.542   0.951
 4204SOL    HW113511   1.889   4.556   1.017
 4204SOL    HW213512   1.854   4.510   0.865
 4205SOL     OW13513   2.800   6.185   3.204
 4205SOL    HW113514   2.831   6.271   3.164
 4205SOL    HW213515   2.774   6.121   3.132
 4206SOL     OW13516   5.457   6.356   3.956
 4206SOL    HW113517   5.444   6.379   4.052
 4206SOL    HW213518   5.546   6.313   3.944
 4207SOL     OW13519   0.718   0.793   0.546
 4207SOL    HW113520   0.696   0.704   0.506
 4207SOL    HW213521   0.814   0.815   0.530
 4208SOL     OW13522   1.017   2.702   0.810
 4208SOL    HW113523   0.922   2.729   0.800
 4208SOL    HW213524   1.074   2.760   0.752
 4209SOL     OW13525   2.915   0.733   5.222
 4209SOL    HW113526   2.955   0.647   5.190
 4209SOL    HW213527   2.976   0.809   5.198
 4210SOL     OW13528   4.813   2.575   0.192
 4210SOL    HW113529   4.764   2.491   0.167
 4210SOL    HW213530   4.756   2.629   0.253
 4211SOL     OW13531   5.325   3.753   3.747
 4211SOL    HW113532   5.297   3.831   3.803
 4211SOL    HW213533   5.337   3.672   3.805
 4212SOL     OW13534   6.455   6.504   2.486
 4212SOL    HW113535   6.434   6.503   2.583
 4212SOL    HW213536   6.519   6.579   2.466
 4213SOL     OW13537   0.793   6.946   1.442
 4213SOL    HW113538   0.762   6.851   1.444
 4213SOL    HW213539   0.850   6.964   1.523
 4214SOL     OW13540   3.069   5.166   4.946
 4214SOL    HW113541   2.982   5.149   4.993
 4214SOL    HW213542   3.124   5.230   5.000
 4215SOL     OW13543   0.931   5.927   5.526
 4215SOL    HW113544   0.833   5.939   5.507
 4215SOL    HW213545   0.969   6.013   5.559
 4216SOL     OW13546   2.685   3.022   5.368
 4216SOL    HW113547   2.597   3.011   5.321
 4216SOL    HW213548   2.739   3.091   5.320
 4217SOL     OW13549   6.890   0.996   3.544
 4217SOL    HW113550   6.844   1.009   3.632
 4217SOL    HW213551   6.959   1.067   3.531
 4218SOL     OW13552   3.337   6.156   2.152
 4218SOL    HW113553   3.350   6.110   2.064
 4218SOL    HW213554   3.353   6.091   2.226
 4219SOL     OW13555   4.991   7.009   3.041
 4219SOL    HW113556   4.945   0.037   2.969
 4219SOL    HW213557   4.938   6.927   3.062
 4220SOL     OW13558   0.807   3.775   3.300
 4220SOL    HW113559   0.775   3.781   3.205
 4220SOL    HW213560   0.903   3.801   3.305
 4221SOL     OW13561   5.628   6.182   5.748
 4221SOL    HW113562   5.658   6.268   5.708
 4221SOL    HW213563   5.531   6.167   5.728
 4222SOL     OW13564   2.875   3.058   6.747
 4222SOL    HW113565   2.919   3.141   6.782
 4222SOL    HW213566   2.806   3.027   6.812
 4223SOL     OW13567   2.910   3.256   2.616
 4223SOL    HW113568   2.839   3.198   2.576
 4223SOL    HW213569   2.916   3.341   2.564
 4224SOL     OW13570   3.756   2.102   5.716
 4224SOL    HW113571   3.763   2.137   5.622
 4224SOL    HW213572   3.681   2.149   5.763
 4225SOL     OW13573   5.473   0.603   4.393
 4225SOL    HW113574   5.506   0.542   4.322
 4225SOL    HW213575   5.436   0.550   4.469
 4226SOL     OW13576   1.243   1.486   3.196
 4226SOL    HW113577   1.197   1.565   3.155
 4226SOL    HW213578   1.259   1.417   3.125
 4227SOL     OW13579   5.705   3.886   6.854
 4227SOL    HW113580   5.623   3.921   6.900
 4227SOL    HW213581   5.738   3.804   6.901
 4228SOL     OW13582   5.478   5.371   3.259
 4228SOL    HW113583   5.382   5.368   3.233
 4228SOL    HW213584   5.525   5.291   3.222
 4229SOL     OW13585   4.416   4.934   5.356
 4229SOL    HW113586   4.494   4.912   5.414
 4229SOL    HW213587   4.331   4.905   5.400
 4230SOL     OW13588   3.351   0.517   5.186
 4230SOL    HW113589   3.354   0.574   5.104
 4230SOL    HW213590   3.442   0.482   5.205
 4231SOL     OW13591   3.926   6.644   6.050
 4231SOL    HW113592   4.009   6.688   6.087
 4231SOL    HW213593   3.893   6.697   5.972
 4232SOL     OW13594   2.466   4.414   1.519
 4232SOL    HW113595   2.385   4.432   1.575
 4232SOL    HW213596   2.548   4.431   1.573
 4233SOL     OW13597   5.551   6.317   1.195
 4233SOL    HW113598   5.469   6.294   1.143
 4233SOL    HW213599   5.592   6.234   1.231
 4234SOL     OW13600   3.634   3.850   5.359
 4234SOL    HW113601   3.547   3.806   5.382
 4234SOL    HW213602   3.636   3.943   5.394
 4235SOL     OW13603   0.487   3.958   5.119
 4235SOL    HW113604   0.454   3.930   5.028
 4235SOL    HW213605   0.440   4.041   5.147
 4236SOL     OW13606   0.763   3.725   5.006
 4236SOL    HW113607   0.752   3.626   5.007
 4236SOL    HW213608   0.808   3.752   4.921
 4237SOL     OW13609   5.651   4.307   5.702
 4237SOL    HW113610   5.739   4.339   5.666
 4237SOL    HW213611   5.595   4.387   5.728
 4238SOL     OW13612   4.684   4.506   4.664
 4238SOL    HW113613   4.702   4.408   4.667
 4238SOL    HW213614   4.595   4.525   4.706
 4239SOL     OW13615   5.449   5.934   5.508
 4239SOL    HW113616   5.397   5.987   5.575
 4239SOL    HW213617   5.520   5.992   5.468
 4240SOL     OW13618   2.520   5.109   6.416
 4240SOL    HW113619   2.439   5.063   6.379
 4240SOL    HW213620   2.599   5.091   6.356
 4241SOL     OW13621   4.257   1.613   0.505
 4241SOL    HW113622   4.202   1.618   0.588
 4241SOL    HW213623   4.292   1.705   0.483
 4242SOL     OW13624   1.595   0.621   2.415
 4242SOL    HW113625   1.631   0.532   2.446
 4242SOL    HW213626   1.496   0.624   2.430
 4243SOL     OW13627   1.343   2.722   2.748
 4243SOL    HW113628   1.363   2.732   2.650
 4243SOL    HW213629   1.379   2.801   2.798
 4244SOL     OW13630   3.394   0.138   0.849
 4244SOL    HW113631   3.357   0.095   0.932
 4244SOL    HW213632   3.379   0.237   0.854
 4245SOL     OW13633   6.715   1.565   1.065
 4245SOL    HW113634   6.752   1.477   1.093
 4245SOL    HW213635   6.645   1.551   0.994
 4246SOL     OW13636   4.744   2.889   3.582
 4246SOL    HW113637   4.715   2.830   3.506
 4246SOL    HW213638   4.830   2.856   3.619
 4247SOL     OW13639   1.820   5.031   6.857
 4247SOL    HW113640   1.884   5.026   6.934
 4247SOL    HW213641   1.785   5.124   6.848
 4248SOL     OW13642   2.389   0.863   3.231
 4248SOL    HW113643   2.426   0.954   3.212
 4248SOL    HW213644   2.360   0.859   3.327
 4249SOL     OW13645   5.708   0.667   5.904
 4249SOL    HW113646   5.763   0.622   5.974
 4249SOL    HW213647   5.690   0.762   5.930
 4250SOL     OW13648   7.017   5.913   4.992
 4250SOL    HW113649   7.024   5.922   5.092
 4250SOL    HW213650   6.990   5.820   4.969
 4251SOL     OW13651   4.650   2.094   5.519
 4251SOL    HW113652   4.657   2.146   5.434
 4251SOL    HW213653   4.734   2.108   5.573
 4252SOL     OW13654   0.232   0.257   6.810
 4252SOL    HW113655   0.214   0.352   6.788
 4252SOL    HW213656   0.182   0.231   6.892
 4253SOL     OW13657   4.258   6.501   2.897
 4253SOL    HW113658   4.249   6.435   2.822
 4253SOL    HW213659   4.194   6.576   2.884
 4254SOL     OW13660   1.244   2.052   6.083
 4254SOL    HW113661   1.250   2.007   6.172
 4254SOL    HW213662   1.164   2.017   6.034
 4255SOL     OW13663   1.041   2.811   3.154
 4255SOL    HW113664   1.077   2.869   3.227
 4255SOL    HW213665   1.070   2.716   3.170
 4256SOL     OW13666   6.329   6.067   1.103
 4256SOL    HW113667   6.252   6.005   1.086
 4256SOL    HW213668   6.313   6.153   1.054
 4257SOL     OW13669   6.468   0.733   3.424
 4257SOL    HW113670   6.500   0.815   3.375
 4257SOL    HW213671   6.479   0.653   3.365
 4258SOL     OW13672   3.002   5.783   0.697
 4258SOL    HW113673   3.038   5.849   0.631
 4258SOL    HW213674   3.014   5.690   0.661
 4259SOL     OW13675   1.129   0.064   0.488
 4259SOL    HW113676   1.199   0.020   0.430
 4259SOL    HW213677   1.047   0.080   0.433
 4260SOL     OW13678   5.989   0.403   4.788
 4260SOL    HW113679   5.966   0.453   4.871
 4260SOL    HW213680   6.088   0.402   4.776
 4261SOL     OW13681   2.368   6.196   3.774
 4261SOL    HW113682   2.335   6.106   3.746
 4261SOL    HW213683   2.459   6.212   3.736
 4262SOL     OW13684   1.797   5.070   5.126
 4262SOL    HW113685   1.753   5.127   5.195
 4262SOL    HW213686   1.730   5.044   5.057
 4263SOL     OW13687   2.593   1.485   3.009
 4263SOL    HW113688   2.501   1.463   3.041
 4263SOL    HW213689   2.641   1.540   3.077
 4264SOL     OW13690   4.739   2.182   6.424
 4264SOL    HW113691   4.839   2.182   6.421
 4264SOL    HW213692   4.708   2.222   6.510
 4265SOL     OW13693   2.771   6.045   6.496
 4265SOL    HW113694   2.715   6.023   6.576
 4265SOL    HW213695   2.856   6.088   6.526
 4266SOL     OW13696   1.127   5.060   1.850
 4266SOL    HW113697   1.123   5.077   1.949
 4266SOL    HW213698   1.161   5.141   1.803
 4267SOL     OW13699   1.092   3.501   4.190
 4267SOL    HW113700   1.097   3.568   4.264
 4267SOL    HW213701   1.023   3.432   4.211
 4268SOL     OW13702   1.103   4.512   5.888
 4268SOL    HW113703   1.117   4.413   5.892
 4268SOL    HW213704   1.187   4.556   5.857
 4269SOL     OW13705   2.929   1.161   4.287
 4269SOL    HW113706   2.880   1.245   4.312
 4269SOL    HW213707   2.986   1.132   4.364
 4270SOL     OW13708   4.423   4.107   0.692
 4270SOL    HW113709   4.488   4.037   0.724
 4270SOL    HW213710   4.422   4.183   0.758
 4271SOL     OW13711   6.696   0.748   1.228
 4271SOL    HW113712   6.616   0.748   1.288
 4271SOL    HW213713   6.731   0.655   1.219
 4272SOL     OW13714   6.970   1.568   5.716
 4272SOL    HW113715   6.991   1.576   5.619
 4272SOL    HW213716   0.028   1.544   5.767
 4273SOL     OW13717   2.940   6.018   3.721
 4273SOL    HW113718   2.959   6.036   3.625
 4273SOL    HW213719   2.969   6.096   3.776
 4274SOL     OW13720   0.540   1.349   1.932
 4274SOL    HW113721   0.493   1.435   1.948
 4274SOL    HW213722   0.627   1.366   1.886
 4275SOL     OW13723   6.709   2.368   3.856
 4275SOL    HW113724   6.721   2.282   3.806
 4275SOL    HW213725   6.617   2.370   3.896
 4276SOL     OW13726   1.243   6.750   2.494
 4276SOL    HW113727   1.278   6.760   2.587
 4276SOL    HW213728   1.164   6.810   2.481
 4277SOL     OW13729   6.845   5.330   3.316
 4277SOL    HW113730   6.891   5.241   3.316
 4277SOL    HW213731   6.811   5.350   3.408
 4278SOL     OW13732   0.630   6.709   1.175
 4278SOL    HW113733   0.592   6.748   1.092
 4278SOL    HW213734   0.684   6.779   1.223
 4279SOL     OW13735   0.858   2.275   3.426
 4279SOL    HW113736   0.829   2.183   3.401
 4279SOL    HW213737   0.899   2.320   3.347
 4280SOL     OW13738   1.805   6.465   6.714
 4280SOL    HW113739   1.709   6.447   6.734
 4280SOL    HW213740   1.821   6.563   6.712
 4281SOL     OW13741   6.350   5.878   3.331
 4281SOL    HW113742   6.350   5.895   3.430
 4281SOL    HW213743   6.309   5.956   3.284
 4282SOL     OW13744   5.359   5.295   1.898
 4282SOL    HW113745   5.265   5.293   1.866
 4282SOL    HW213746   5.360   5.303   1.998
 4283SOL     OW13747   6.277   1.057   4.681
 4283SOL    HW113748   6.197   0.998   4.671
 4283SOL    HW213749   6.359   1.008   4.652
 4284SOL     OW13750   4.893   6.091   6.645
 4284SOL    HW113751   4.985   6.119   6.616
 4284SOL    HW213752   4.893   5.992   6.661
 4285SOL     OW13753   3.135   1.452   6.537
 4285SOL    HW113754   3.192   1.447   6.455
 4285SOL    HW213755   3.178   1.402   6.611
 4286SOL     OW13756   5.087   6.605   0.161
 4286SOL    HW113757   5.016   6.674   0.176
 4286SOL    HW213758   5.071   6.528   0.222
 4287SOL     OW13759   3.291   0.848   1.263
 4287SOL    HW113760   3.277   0.946   1.275
 4287SOL    HW213761   3.334   0.810   1.346
 4288SOL     OW13762   0.026   5.857   1.978
 4288SOL    HW113763   7.007   5.886   1.892
 4288SOL    HW213764   7.022   5.918   2.052
 4289SOL     OW13765   0.258   4.605   4.965
 4289SOL    HW113766   0.250   4.515   4.923
 4289SOL    HW213767   0.315   4.598   5.047
 4290SOL     OW13768   6.816   1.663   3.472
 4290SOL    HW113769   6.805   1.661   3.571
 4290SOL    HW213770   6.784   1.576   3.433
 4291SOL     OW13771   4.291   4.721   6.691
 4291SOL    HW113772   4.277   4.819   6.676
 4291SOL    HW213773   4.276   4.699   6.787
 4292SOL     OW13774   6.360   0.783   1.814
 4292SOL    HW113775   6.430   0.715   1.793
 4292SOL    HW213776   6.281   0.737   1.856
 4293SOL     OW13777   3.893   2.897   6.944
 4293SOL    HW113778   3.874   2.915   0.016
 4293SOL    HW213779   3.813   2.918   6.889
 4294SOL     OW13780   3.114   1.740   6.672
 4294SOL    HW113781   3.075   1.823   6.634
 4294SOL    HW213782   3.075   1.660   6.627
 4295SOL     OW13783   4.905   6.349   2.795
 4295SOL    HW113784   4.942   6.297   2.872
 4295SOL    HW213785   4.809   6.371   2.813
 4296SOL     OW13786   2.199   5.877   2.320
 4296SOL    HW113787   2.281   5.934   2.315
 4296SOL    HW213788   2.139   5.911   2.393
 4297SOL     OW13789   4.829   5.161   0.320
 4297SOL    HW113790   4.799   5.066   0.334
 4297SOL    HW213791   4.927   5.162   0.298
 4298SOL     OW13792   1.661   0.096   0.632
 4298SOL    HW113793   1.623   0.011   0.669
 4298SOL    HW213794   1.657   0.167   0.701
 4299SOL     OW13795   0.885   3.189   6.385
 4299SOL    HW113796   0.878   3.288   6.376
 4299SOL    HW213797   0.838   3.145   6.308
 4300SOL     OW13798   3.357   0.524   2.375
 4300SOL    HW113799   3.305   0.596   2.331
 4300SOL    HW213800   3.301   0.480   2.445
 4301SOL     OW13801   2.050   6.147   5.453
 4301SOL    HW113802   2.031   6.216   5.383
 4301SOL    HW213803   1.999   6.169   5.536
 4302SOL     OW13804   3.656   4.894   6.409
 4302SOL    HW113805   3.630   4.924   6.501
 4302SOL    HW213806   3.681   4.973   6.353
 4303SOL     OW13807   4.524   5.355   3.851
 4303SOL    HW113808   4.536   5.413   3.771
 4303SOL    HW213809   4.525   5.259   3.823
 4304SOL     OW13810   2.994   4.045   1.761
 4304SOL    HW113811   2.933   4.055   1.683
 4304SOL    HW213812   3.027   4.136   1.789
 4305SOL     OW13813   0.744   6.323   5.948
 4305SOL    HW113814   0.711   6.417   5.957
 4305SOL    HW213815   0.775   6.308   5.854
 4306SOL     OW13816   5.789   3.400   5.085
 4306SOL    HW113817   5.809   3.453   5.168
 4306SOL    HW213818   5.784   3.462   5.007
 4307SOL     OW13819   6.930   1.390   5.473
 4307SOL    HW113820   6.835   1.384   5.441
 4307SOL    HW213821   6.992   1.362   5.400
 4308SOL     OW13822   4.096   5.418   6.599
 4308SOL    HW113823   4.169   5.455   6.657
 4308SOL    HW213824   4.061   5.490   6.539
 4309SOL     OW13825   2.543   1.842   0.837
 4309SOL    HW113826   2.555   1.941   0.830
 4309SOL    HW213827   2.563   1.800   0.748
 4310SOL     OW13828   6.209   1.998   3.572
 4310SOL    HW113829   6.204   1.900   3.591
 4310SOL    HW213830   6.130   2.025   3.517
 4311SOL     OW13831   0.240   6.906   1.404
 4311SOL    HW113832   0.283   6.829   1.357
 4311SOL    HW213833   0.309   6.957   1.455
 4312SOL     OW13834   6.934   3.689   2.260
 4312SOL    HW113835   6.876   3.754   2.309
 4312SOL    HW213836   6.876   3.621   2.214
 4313SOL     OW13837   1.059   3.772   0.284
 4313SOL    HW113838   1.116   3.821   0.350
 4313SOL    HW213839   1.105   3.687   0.258
 4314SOL     OW13840   1.678   1.371   5.385
 4314SOL    HW113841   1.671   1.470   5.377
 4314SOL    HW213842   1.750   1.348   5.451
 4315SOL     OW13843   2.309   2.162   5.532
 4315SOL    HW113844   2.340   2.078   5.575
 4315SOL    HW213845   2.381   2.197   5.473
 4316SOL     OW13846   4.315   5.421   1.767
 4316SOL    HW113847   4.341   5.501   1.713
 4316SOL    HW213848   4.249   5.448   1.837
 4317SOL     OW13849   4.979   0.640   4.965
 4317SOL    HW113850   4.991   0.609   4.871
 4317SOL    HW213851   4.917   0.718   4.966
 4318SOL     OW13852   1.713   6.069   4.057
 4318SOL    HW113853   1.665   6.088   3.971
 4318SOL    HW213854   1.647   6.067   4.132
 4319SOL     OW13855   1.356   4.327   2.450
 4319SOL    HW113856   1.369   4.347   2.353
 4319SOL    HW213857   1.379   4.232   2.468
 4320SOL     OW13858   3.717   6.946   0.967
 4320SOL    HW113859   3.661   7.001   1.028
 4320SOL    HW213860   3.782   6.891   1.020
 4321SOL     OW13861   6.987   6.039   3.001
 4321SOL    HW113862   6.992   5.950   2.956
 4321SOL    HW213863   0.052   6.084   2.994
 4322SOL     OW13864   2.381   2.208   3.780
 4322SOL    HW113865   2.332   2.294   3.779
 4322SOL    HW213866   2.435   2.198   3.697
 4323SOL     OW13867   4.654   4.652   0.884
 4323SOL    HW113868   4.725   4.600   0.932
 4323SOL    HW213869   4.679   4.661   0.788
 4324SOL     OW13870   0.160   4.397   6.101
 4324SOL    HW113871   0.220   4.317   6.096
 4324SOL    HW213872   0.204   4.475   6.056
 4325SOL     OW13873   1.440   0.015   1.053
 4325SOL    HW113874   1.485   0.090   1.103
 4325SOL    HW213875   1.509   6.981   1.010
 4326SOL     OW13876   4.616   2.532   2.541
 4326SOL    HW113877   4.559   2.519   2.622
 4326SOL    HW213878   4.667   2.618   2.550
 4327SOL     OW13879   2.958   6.271   3.835
 4327SOL    HW113880   2.976   6.354   3.889
 4327SOL    HW213881   2.861   6.265   3.814
 4328SOL     OW13882   5.983   0.292   3.192
 4328SOL    HW113883   5.944   0.247   3.273
 4328SOL    HW213884   6.037   0.226   3.140
 4329SOL     OW13885   6.148   3.709   0.163
 4329SOL    HW113886   6.176   3.796   0.204
 4329SOL    HW213887   6.159   3.715   0.064
 4330SOL     OW13888   2.483   4.822   4.504
 4330SOL    HW113889   2.391   4.812   4.543
 4330SOL    HW213890   2.519   4.913   4.526
 4331SOL     OW13891   5.713   1.776   2.264
 4331SOL    HW113892   5.655   1.781   2.182
 4331SOL    HW213893   5.782   1.848   2.260
 4332SOL     OW13894   6.992   5.633   1.115
 4332SOL    HW113895   0.046   5.686   1.083
 4332SOL    HW213896   6.990   5.635   1.215
 4333SOL     OW13897   3.810   2.829   6.191
 4333SOL    HW113898   3.887   2.890   6.208
 4333SOL    HW213899   3.824   2.742   6.239
 4334SOL     OW13900   0.025   3.017   4.023
 4334SOL    HW113901   0.051   3.107   3.987
 4334SOL    HW213902   0.078   2.997   4.105
 4335SOL     OW13903   2.666   4.208   1.704
 4335SOL    HW113904   2.757   4.179   1.674
 4335SOL    HW213905   2.615   4.128   1.737
 4336SOL     OW13906   2.964   5.321   5.335
 4336SOL    HW113907   3.039   5.254   5.329
 4336SOL    HW213908   2.923   5.333   5.245
 4337SOL     OW13909   0.020   4.479   3.592
 4337SOL    HW113910   6.946   4.491   3.580
 4337SOL    HW213911   0.069   4.550   3.542
 4338SOL     OW13912   3.062   2.472   6.445
 4338SOL    HW113913   3.071   2.436   6.351
 4338SOL    HW213914   2.969   2.455   6.478
 4339SOL     OW13915   4.264   4.704   5.241
 4339SOL    HW113916   4.257   4.609   5.209
 4339SOL    HW213917   4.317   4.758   5.176
 4340SOL     OW13918   0.097   4.107   1.209
 4340SOL    HW113919   0.041   4.083   1.288
 4340SOL    HW213920   0.125   4.024   1.161
 4341SOL     OW13921   6.038   5.658   1.539
 4341SOL    HW113922   6.075   5.689   1.627
 4341SOL    HW213923   5.992   5.734   1.493
 4342SOL     OW13924   5.304   3.060   2.496
 4342SOL    HW113925   5.231   3.072   2.429
 4342SOL    HW213926   5.320   3.146   2.545
 4343SOL     OW13927   3.613   0.414   6.393
 4343SOL    HW113928   3.599   0.362   6.477
 4343SOL    HW213929   3.676   0.364   6.334
 4344SOL     OW13930   0.907   3.909   2.709
 4344SOL    HW113931   0.928   3.962   2.792
 4344SOL    HW213932   0.962   3.826   2.708
 4345SOL     OW13933   3.760   3.671   3.000
 4345SOL    HW113934   3.774   3.603   2.927
 4345SOL    HW213935   3.832   3.660   3.069
 4346SOL     OW13936   0.748   3.155   2.644
 4346SOL    HW113937   0.810   3.079   2.664
 4346SOL    HW213938   0.720   3.151   2.548
 4347SOL     OW13939   6.142   5.300   0.566
 4347SOL    HW113940   6.235   5.307   0.530
 4347SOL    HW213941   6.143   5.322   0.664
 4348SOL     OW13942   5.995   4.636   5.720
 4348SOL    HW113943   5.926   4.708   5.734
 4348SOL    HW213944   5.949   4.548   5.709
 4349SOL     OW13945   0.687   3.544   4.072
 4349SOL    HW113946   0.715   3.448   4.074
 4349SOL    HW213947   0.752   3.597   4.019
 4350SOL     OW13948   4.420   0.956   4.210
 4350SOL    HW113949   4.369   0.980   4.127
 4350SOL    HW213950   4.454   0.862   4.201
 4351SOL     OW13951   0.313   5.570   1.282
 4351SOL    HW113952   0.271   5.534   1.365
 4351SOL    HW213953   0.367   5.651   1.303
 4352SOL     OW13954   3.724   4.956   1.854
 4352SOL    HW113955   3.690   4.862   1.846
 4352SOL    HW213956   3.704   4.991   1.945
 4353SOL     OW13957   2.577   3.770   0.754
 4353SOL    HW113958   2.596   3.688   0.700
 4353SOL    HW213959   2.478   3.787   0.755
 4354SOL     OW13960   5.710   5.683   2.552
 4354SOL    HW113961   5.658   5.598   2.559
 4354SOL    HW213962   5.783   5.683   2.620
 4355SOL     OW13963   2.242   4.993   3.037
 4355SOL    HW113964   2.306   5.016   3.111
 4355SOL    HW213965   2.272   4.908   2.993
 4356SOL     OW13966   6.017   3.107   5.295
 4356SOL    HW113967   5.953   3.179   5.322
 4356SOL    HW213968   5.984   3.062   5.213
 4357SOL     OW13969   5.585   6.366   2.366
 4357SOL    HW113970   5.583   6.436   2.437
 4357SOL    HW213971   5.544   6.401   2.282
 4358SOL     OW13972   2.769   1.216   0.450
 4358SOL    HW113973   2.816   1.246   0.367
 4358SOL    HW213974   2.674   1.193   0.428
 4359SOL     OW13975   2.610   2.089   1.630
 4359SOL    HW113976   2.625   2.070   1.533
 4359SOL    HW213977   2.687   2.143   1.665
 4360SOL     OW13978   2.399   5.727   4.035
 4360SOL    HW113979   2.481   5.737   3.979
 4360SOL    HW213980   2.402   5.791   4.112
 4361SOL     OW13981   1.112   1.824   0.378
 4361SOL    HW113982   1.164   1.907   0.399
 4361SOL    HW213983   1.025   1.849   0.336
 4362SOL     OW13984   1.138   5.044   3.217
 4362SOL    HW113985   1.182   5.116   3.270
 4362SOL    HW213986   1.168   4.955   3.249
 4363SOL     OW13987   3.803   0.739   1.857
 4363SOL    HW113988   3.734   0.670   1.880
 4363SOL    HW213989   3.880   0.732   1.921
 4364SOL     OW13990   2.963   3.754   2.751
 4364SOL    HW113991   2.973   3.819   2.826
 4364SOL    HW213992   2.995   3.795   2.666
 4365SOL     OW13993   2.211   1.115   1.020
 4365SOL    HW113994   2.291   1.152   0.973
 4365SOL    HW213995   2.170   1.187   1.076
 4366SOL     OW13996   4.819   6.006   4.621
 4366SOL    HW113997   4.886   6.037   4.555
 4366SOL    HW213998   4.770   6.085   4.658
 4367SOL     OW13999   2.431   5.991   2.244
 4367SOL    HW114000   2.486   6.003   2.161
 4367SOL    HW214001   2.467   6.050   2.317
 4368SOL     OW14002   4.895   3.835   4.213
 4368SOL    HW114003   4.911   3.750   4.264
 4368SOL    HW214004   4.938   3.827   4.123
 4369SOL     OW14005   5.832   4.191   3.460
 4369SOL    HW114006   5.891   4.132   3.516
 4369SOL    HW214007   5.761   4.231   3.518
 4370SOL     OW14008   4.037   5.151   0.482
 4370SOL    HW114009   4.098   5.228   0.497
 4370SOL    HW214010   3.945   5.184   0.461
 4371SOL     OW14011   3.583   1.187   2.915
 4371SOL    HW114012   3.528   1.270   2.925
 4371SOL    HW214013   3.525   1.112   2.883
 4372SOL     OW14014   1.868   4.727   4.533
 4372SOL    HW114015   1.918   4.641   4.549
 4372SOL    HW214016   1.883   4.757   4.438
 4373SOL     OW14017   4.414   0.623   0.385
 4373SOL    HW114018   4.415   0.524   0.372
 4373SOL    HW214019   4.503   0.661   0.359
 4374SOL     OW14020   2.662   6.947   0.215
 4374SOL    HW114021   2.601   6.923   0.291
 4374SOL    HW214022   2.653   0.021   0.195
 4375SOL     OW14023   3.734   1.610   5.689
 4375SOL    HW114024   3.733   1.649   5.597
 4375SOL    HW214025   3.819   1.636   5.735
 4376SOL     OW14026   2.180   5.836   0.201
 4376SOL    HW114027   2.130   5.758   0.237
 4376SOL    HW214028   2.272   5.807   0.175
 4377SOL     OW14029   5.121   5.785   6.915
 4377SOL    HW114030   5.112   5.715   6.987
 4377SOL    HW214031   5.074   5.868   6.943
 4378SOL     OW14032   2.853   4.774   2.637
 4378SOL    HW114033   2.854   4.720   2.722
 4378SOL    HW214034   2.923   4.845   2.642
 4379SOL     OW14035   0.287   6.699   1.188
 4379SOL    HW114036   0.309   6.645   1.107
 4379SOL    HW214037   0.193   6.680   1.216
 4380SOL     OW14038   1.932   5.565   3.966
 4380SOL    HW114039   2.016   5.619   3.960
 4380SOL    HW214040   1.853   5.626   3.972
 4381SOL     OW14041   4.739   5.678   5.542
 4381SOL    HW114042   4.652   5.676   5.592
 4381SOL    HW214043   4.734   5.745   5.468
 4382SOL     OW14044   5.591   3.808   2.836
 4382SOL    HW114045   5.542   3.893   2.817
 4382SOL    HW214046   5.528   3.731   2.832
 4383SOL     OW14047   1.051   1.575   0.470
 4383SOL    HW114048   1.047   1.668   0.432
 4383SOL    HW214049   1.079   1.511   0.399
 4384SOL     OW14050   3.825   6.593   1.520
 4384SOL    HW114051   3.862   6.514   1.471
 4384SOL    HW214052   3.735   6.616   1.483
 4385SOL     OW14053   5.987   2.389   2.584
 4385SOL    HW114054   6.051   2.381   2.660
 4385SOL    HW214055   6.035   2.373   2.498
 4386SOL     OW14056   2.081   3.931   6.815
 4386SOL    HW114057   2.048   3.949   6.907
 4386SOL    HW214058   2.060   4.010   6.756
 4387SOL     OW14059   6.545   2.433   1.609
 4387SOL    HW114060   6.478   2.361   1.587
 4387SOL    HW214061   6.582   2.471   1.525
 4388SOL     OW14062   3.118   1.978   5.636
 4388SOL    HW114063   3.168   1.892   5.623
 4388SOL    HW214064   3.102   2.022   5.548
 4389SOL     OW14065   6.028   2.077   2.731
 4389SOL    HW114066   6.037   1.988   2.776
 4389SOL    HW214067   6.085   2.144   2.779
 4390SOL     OW14068   3.940   2.732   1.152
 4390SOL    HW114069   3.944   2.661   1.082
 4390SOL    HW214070   3.886   2.809   1.118
 4391SOL     OW14071   0.250   6.446   0.286
 4391SOL    HW114072   0.219   6.468   0.378
 4391SOL    HW214073   0.196   6.497   0.219
 4392SOL     OW14074   5.269   4.282   5.069
 4392SOL    HW114075   5.235   4.368   5.031
 4392SOL    HW214076   5.272   4.212   4.997
 4393SOL     OW14077   5.387   6.059   3.231
 4393SOL    HW114078   5.358   5.974   3.274
 4393SOL    HW214079   5.311   6.099   3.181
 4394SOL     OW14080   4.678   0.808   2.531
 4394SOL    HW114081   4.630   0.863   2.462
 4394SOL    HW214082   4.755   0.761   2.488
 4395SOL     OW14083   5.355   1.654   1.189
 4395SOL    HW114084   5.387   1.587   1.121
 4395SOL    HW214085   5.261   1.681   1.166
 4396SOL     OW14086   1.610   1.242   3.607
 4396SOL    HW114087   1.579   1.251   3.512
 4396SOL    HW214088   1.700   1.197   3.609
 4397SOL     OW14089   5.315   0.209   6.191
 4397SOL    HW114090   5.411   0.184   6.200
 4397SOL    HW214091   5.261   0.127   6.170
 4398SOL     OW14092   0.494   5.632   4.365
 4398SOL    HW114093   0.573   5.612   4.307
 4398SOL    HW214094   0.488   5.565   4.438
 4399SOL     OW14095   3.437   1.296   2.588
 4399SOL    HW114096   3.382   1.368   2.632
 4399SOL    HW214097   3.387   1.210   2.588
 4400SOL     OW14098   4.072   5.797   3.446
 4400SOL    HW114099   4.097   5.790   3.543
 4400SOL    HW214100   4.055   5.705   3.410
 4401SOL     OW14101   5.845   5.637   4.809
 4401SOL    HW114102   5.866   5.613   4.904
 4401SOL    HW214103   5.748   5.658   4.801
 4402SOL     OW14104   6.808   6.228   2.231
 4402SOL    HW114105   6.779   6.209   2.325
 4402SOL    HW214106   6.732   6.269   2.180
 4403SOL     OW14107   0.147   0.868   2.902
 4403SOL    HW114108   0.176   0.833   2.992
 4403SOL    HW214109   0.136   0.967   2.908
 4404SOL     OW14110   1.997   4.854   2.787
 4404SOL    HW114111   1.938   4.897   2.856
 4404SOL    HW214112   2.074   4.810   2.832
 4405SOL     OW14113   2.869   3.938   5.779
 4405SOL    HW114114   2.888   4.028   5.739
 4405SOL    HW214115   2.856   3.948   5.878
 4406SOL     OW14116   5.727   3.148   1.934
 4406SOL    HW114117   5.825   3.125   1.934
 4406SOL    HW214118   5.703   3.192   2.021
 4407SOL     OW14119   6.813   0.683   6.861
 4407SOL    HW114120   6.747   0.612   6.839
 4407SOL    HW214121   6.800   0.713   6.955
 4408SOL     OW14122   4.108   6.244   0.876
 4408SOL    HW114123   4.128   6.165   0.818
 4408SOL    HW214124   4.159   6.236   0.961
 4409SOL     OW14125   2.636   1.735   2.865
 4409SOL    HW114126   2.612   1.644   2.899
 4409SOL    HW214127   2.634   1.734   2.765
 4410SOL     OW14128   2.040   5.474   1.362
 4410SOL    HW114129   2.049   5.572   1.381
 4410SOL    HW214130   1.955   5.441   1.402
 4411SOL     OW14131   4.001   3.777   2.582
 4411SOL    HW114132   3.944   3.816   2.654
 4411SOL    HW214133   4.071   3.718   2.623
 4412SOL     OW14134   3.324   1.695   5.966
 4412SOL    HW114135   3.269   1.753   6.026
 4412SOL    HW214136   3.374   1.628   6.021
 4413SOL     OW14137   4.656   5.122   3.625
 4413SOL    HW114138   4.567   5.119   3.670
 4413SOL    HW214139   4.718   5.057   3.669
 4414SOL     OW14140   3.407   5.346   1.612
 4414SOL    HW114141   3.368   5.292   1.687
 4414SOL    HW214142   3.365   5.319   1.526
 4415SOL     OW14143   4.638   1.470   1.113
 4415SOL    HW114144   4.671   1.475   1.019
 4415SOL    HW214145   4.621   1.562   1.148
 4416SOL     OW14146   2.411   2.174   4.746
 4416SOL    HW114147   2.469   2.256   4.751
 4416SOL    HW214148   2.327   2.195   4.697
 4417SOL     OW14149   5.920   0.150   1.191
 4417SOL    HW114150   5.956   0.166   1.283
 4417SOL    HW214151   5.891   0.236   1.151
 4418SOL     OW14152   4.921   1.246   3.571
 4418SOL    HW114153   4.903   1.190   3.653
 4418SOL    HW214154   4.898   1.193   3.489
 4419SOL     OW14155   6.394   5.296   6.295
 4419SOL    HW114156   6.391   5.377   6.354
 4419SOL    HW214157   6.478   5.296   6.242
 4420SOL     OW14158   4.205   0.929   0.320
 4420SOL    HW114159   4.259   0.953   0.239
 4420SOL    HW214160   4.263   0.936   0.402
 4421SOL     OW14161   0.782   1.761   3.542
 4421SOL    HW114162   0.838   1.748   3.461
 4421SOL    HW214163   0.760   1.672   3.582
 4422SOL     OW14164   1.922   4.839   5.991
 4422SOL    HW114165   1.841   4.856   5.935
 4422SOL    HW214166   1.933   4.741   6.005
 4423SOL     OW14167   0.102   1.613   6.448
 4423SOL    HW114168   0.015   1.641   6.407
 4423SOL    HW214169   0.126   1.521   6.417
 4424SOL     OW14170   1.024   6.050   3.295
 4424SOL    HW114171   1.084   6.040   3.374
 4424SOL    HW214172   0.930   6.030   3.322
 4425SOL     OW14173   5.005   4.377   0.658
 4425SOL    HW114174   5.067   4.398   0.582
 4425SOL    HW214175   5.003   4.453   0.721
 4426SOL     OW14176   0.732   0.530   6.018
 4426SOL    HW114177   0.688   0.589   6.086
 4426SOL    HW214178   0.816   0.492   6.056
 4427SOL     OW14179   1.249   5.757   3.576
 4427SOL    HW114180   1.180   5.830   3.569
 4427SOL    HW214181   1.203   5.670   3.591
 4428SOL     OW14182   1.886   6.845   3.255
 4428SOL    HW114183   1.913   6.805   3.342
 4428SOL    HW214184   1.925   6.792   3.180
 4429SOL     OW14185   3.198   0.138   3.133
 4429SOL    HW114186   3.240   0.137   3.223
 4429SOL    HW214187   3.239   0.068   3.075
 4430SOL     OW14188   1.281   0.401   2.042
 4430SOL    HW114189   1.342   0.474   2.009
 4430SOL    HW214190   1.221   0.372   1.968
 4431SOL     OW14191   2.448   2.042   3.234
 4431SOL    HW114192   2.442   1.945   3.254
 4431SOL    HW214193   2.533   2.079   3.272
 4432SOL     OW14194   3.001   3.239   3.691
 4432SOL    HW114195   2.927   3.293   3.650
 4432SOL    HW214196   3.079   3.299   3.711
 4433SOL     OW14197   6.326   0.398   3.146
 4433SOL    HW114198   6.247   0.421   3.203
 4433SOL    HW214199   6.326   0.457   3.064
 4434SOL     OW14200   4.922   2.459   4.499
 4434SOL    HW114201   4.850   2.402   4.459
 4434SOL    HW214202   4.886   2.509   4.578
 4435SOL     OW14203   3.790   3.402   2.205
 4435SOL    HW114204   3.703   3.356   2.187
 4435SOL    HW214205   3.866   3.341   2.185
 4436SOL     OW14206   5.175   7.015   0.811
 4436SOL    HW114207   5.232   0.034   0.741
 4436SOL    HW214208   5.173   0.049   0.892
 4437SOL     OW14209   3.599   0.417   5.212
 4437SOL    HW114210   3.597   0.318   5.199
 4437SOL    HW214211   3.649   0.438   5.296
 4438SOL     OW14212   4.110   3.330   6.322
 4438SOL    HW114213   4.075   3.418   6.354
 4438SOL    HW214214   4.209   3.336   6.310
 4439SOL     OW14215   2.139   4.929   2.384
 4439SOL    HW114216   2.235   4.935   2.409
 4439SOL    HW214217   2.130   4.902   2.289
 4440SOL     OW14218   6.150   1.118   0.516
 4440SOL    HW114219   6.228   1.172   0.485
 4440SOL    HW214220   6.065   1.167   0.498
 4441SOL     OW14221   6.015   1.183   3.429
 4441SOL    HW114222   6.114   1.190   3.440
 4441SOL    HW214223   5.994   1.107   3.367
 4442SOL     OW14224   1.525   5.707   1.854
 4442SOL    HW114225   1.493   5.712   1.948
 4442SOL    HW214226   1.472   5.771   1.797
 4443SOL     OW14227   2.566   1.439   6.739
 4443SOL    HW114228   2.474   1.446   6.779
 4443SOL    HW214229   2.624   1.512   6.777
 4444SOL     OW14230   4.697   1.265   3.112
 4444SOL    HW114231   4.743   1.236   3.028
 4444SOL    HW214232   4.709   1.194   3.182
 4445SOL     OW14233   0.908   0.726   6.418
 4445SOL    HW114234   0.992   0.728   6.365
 4445SOL    HW214235   0.909   0.799   6.486
 4446SOL     OW14236   5.283   5.009   3.708
 4446SOL    HW114237   5.254   4.926   3.756
 4446SOL    HW214238   5.345   5.061   3.766
 4447SOL     OW14239   5.028   2.955   5.190
 4447SOL    HW114240   5.105   2.937   5.129
 4447SOL    HW214241   5.040   2.903   5.275
 4448SOL     OW14242   2.045   3.480   6.779
 4448SOL    HW114243   1.963   3.429   6.805
 4448SOL    HW214244   2.111   3.417   6.736
 4449SOL     OW14245   0.391   1.284   5.276
 4449SOL    HW114246   0.481   1.316   5.248
 4449SOL    HW214247   0.325   1.359   5.270
 4450SOL     OW14248   3.404   3.626   2.334
 4450SOL    HW114249   3.504   3.620   2.336
 4450SOL    HW214250   3.375   3.673   2.251
 4451SOL     OW14251   0.147   3.911   0.981
 4451SOL    HW114252   0.179   3.845   1.049
 4451SOL    HW214253   0.048   3.904   0.972
 4452SOL     OW14254   6.439   3.706   6.179
 4452SOL    HW114255   6.378   3.736   6.105
 4452SOL    HW214256   6.532   3.738   6.161
 4453SOL     OW14257   4.861   1.645   0.646
 4453SOL    HW114258   4.879   1.681   0.555
 4453SOL    HW214259   4.905   1.704   0.714
 4454SOL     OW14260   4.685   2.614   1.476
 4454SOL    HW114261   4.593   2.602   1.439
 4454SOL    HW214262   4.732   2.526   1.476
 4455SOL     OW14263   4.207   2.166   2.010
 4455SOL    HW114264   4.108   2.166   2.021
 4455SOL    HW214265   4.250   2.203   2.092
 4456SOL     OW14266   1.265   5.768   2.617
 4456SOL    HW114267   1.198   5.708   2.661
 4456SOL    HW214268   1.245   5.774   2.519
 4457SOL     OW14269   4.683   1.707   6.740
 4457SOL    HW114270   4.726   1.617   6.739
 4457SOL    HW214271   4.721   1.764   6.666
 4458SOL     OW14272   4.055   1.651   0.748
 4458SOL    HW114273   3.966   1.615   0.721
 4458SOL    HW214274   4.052   1.751   0.747
 4459SOL     OW14275   5.542   6.693   5.141
 4459SOL    HW114276   5.595   6.700   5.226
 4459SOL    HW214277   5.483   6.612   5.145
 4460SOL     OW14278   1.314   1.329   6.676
 4460SOL    HW114279   1.231   1.314   6.729
 4460SOL    HW214280   1.305   1.413   6.623
 4461SOL     OW14281   2.043   6.585   2.151
 4461SOL    HW114282   1.984   6.525   2.205
 4461SOL    HW214283   2.099   6.642   2.212
 4462SOL     OW14284   0.127   4.782   0.552
 4462SOL    HW114285   0.169   4.734   0.475
 4462SOL    HW214286   0.084   4.716   0.614
 4463SOL     OW14287   1.358   4.114   6.204
 4463SOL    HW114288   1.408   4.081   6.285
 4463SOL    HW214289   1.274   4.060   6.193
 4464SOL     OW14290   6.438   2.820   0.105
 4464SOL    HW114291   6.381   2.774   0.038
 4464SOL    HW214292   6.483   2.898   0.063
 4465SOL     OW14293   0.773   5.905   0.406
 4465SOL    HW114294   0.756   5.810   0.433
 4465SOL    HW214295   0.832   5.906   0.326
 4466SOL     OW14296   6.752   2.939   3.069
 4466SOL    HW114297   6.851   2.932   3.059
 4466SOL    HW214298   6.707   2.897   2.990
 4467SOL     OW14299   1.469   0.075   3.274
 4467SOL    HW114300   1.549   0.024   3.243
 4467SOL    HW214301   1.481   0.172   3.250
 4468SOL     OW14302   2.109   2.251   0.583
 4468SOL    HW114303   2.076   2.240   0.677
 4468SOL    HW214304   2.083   2.342   0.549
 4469SOL     OW14305   4.712   0.081   0.263
 4469SOL    HW114306   4.659   0.129   0.193
 4469SOL    HW214307   4.675   0.101   0.353
 4470SOL     OW14308   4.838   4.982   1.187
 4470SOL    HW114309   4.860   4.919   1.113
 4470SOL    HW214310   4.768   4.941   1.246
 4471SOL     OW14311   6.202   2.539   0.690
 4471SOL    HW114312   6.243   2.462   0.641
 4471SOL    HW214313   6.197   2.619   0.630
 4472SOL     OW14314   1.942   4.650   1.440
 4472SOL    HW114315   1.919   4.587   1.514
 4472SOL    HW214316   2.036   4.682   1.451
 4473SOL     OW14317   0.112   0.499   6.502
 4473SOL    HW114318   0.033   0.558   6.487
 4473SOL    HW214319   0.144   0.463   6.415
 4474SOL     OW14320   5.903   0.545   4.172
 4474SOL    HW114321   5.843   0.505   4.102
 4474SOL    HW214322   5.905   0.484   4.251
 4475SOL     OW14323   1.608   4.125   0.825
 4475SOL    HW114324   1.602   4.225   0.822
 4475SOL    HW214325   1.700   4.098   0.853
 4476SOL     OW14326   5.130   6.709   2.465
 4476SOL    HW114327   5.058   6.667   2.520
 4476SOL    HW214328   5.216   6.710   2.517
 4477SOL     OW14329   1.241   1.719   0.827
 4477SOL    HW114330   1.176   1.795   0.819
 4477SOL    HW214331   1.276   1.696   0.737
 4478SOL     OW14332   1.648   4.567   2.095
 4478SOL    HW114333   1.611   4.660   2.095
 4478SOL    HW214334   1.653   4.534   2.001
 4479SOL     OW14335   0.882   0.144   6.013
 4479SOL    HW114336   0.894   0.176   6.107
 4479SOL    HW214337   0.951   0.074   5.993
 4480SOL     OW14338   7.014   4.115   3.838
 4480SOL    HW114339   0.059   4.104   3.909
 4480SOL    HW214340   6.926   4.139   3.881
 4481SOL     OW14341   0.531   0.402   4.018
 4481SOL    HW114342   0.595   0.326   4.005
 4481SOL    HW214343   0.487   0.395   4.107
 4482SOL     OW14344   1.154   3.846   3.685
 4482SOL    HW114345   1.104   3.762   3.664
 4482SOL    HW214346   1.131   3.877   3.777
 4483SOL     OW14347   5.542   3.088   1.018
 4483SOL    HW114348   5.631   3.118   1.053
 4483SOL    HW214349   5.502   3.022   1.081
 4484SOL     OW14350   3.490   3.711   6.077
 4484SOL    HW114351   3.586   3.714   6.048
 4484SOL    HW214352   3.479   3.640   6.147
 4485SOL     OW14353   4.349   0.577   0.019
 4485SOL    HW114354   4.275   0.614   0.075
 4485SOL    HW214355   4.312   0.522   6.969
 4486SOL     OW14356   5.879   3.362   3.790
 4486SOL    HW114357   5.868   3.290   3.722
 4486SOL    HW214358   5.874   3.452   3.746
 4487SOL     OW14359   2.912   3.026   5.860
 4487SOL    HW114360   2.997   3.044   5.908
 4487SOL    HW214361   2.901   3.091   5.785
 4488SOL     OW14362   6.715   1.451   6.362
 4488SOL    HW114363   6.666   1.481   6.281
 4488SOL    HW214364   6.743   1.355   6.350
 4489SOL     OW14365   0.129   1.142   2.883
 4489SOL    HW114366   0.063   1.214   2.860
 4489SOL    HW214367   0.210   1.183   2.924
 4490SOL     OW14368   6.690   2.090   3.734
 4490SOL    HW114369   6.629   2.015   3.757
 4490SOL    HW214370   6.672   2.122   3.641
 4491SOL     OW14371   1.928   3.747   2.734
 4491SOL    HW114372   1.846   3.732   2.679
 4491SOL    HW214373   1.996   3.796   2.679
 4492SOL     OW14374   5.091   4.978   6.032
 4492SOL    HW114375   5.124   4.907   5.970
 4492SOL    HW214376   5.059   5.057   5.979
 4493SOL     OW14377   6.052   4.790   3.748
 4493SOL    HW114378   6.019   4.790   3.843
 4493SOL    HW214379   6.118   4.863   3.736
 4494SOL     OW14380   5.769   2.945   3.060
 4494SOL    HW114381   5.775   2.865   3.000
 4494SOL    HW214382   5.825   2.930   3.141
 4495SOL     OW14383   4.589   6.042   2.064
 4495SOL    HW114384   4.654   6.043   1.988
 4495SOL    HW214385   4.625   6.095   2.140
 4496SOL     OW14386   5.424   4.354   6.006
 4496SOL    HW114387   5.466   4.410   5.935
 4496SOL    HW214388   5.394   4.267   5.967
 4497SOL     OW14389   6.395   5.249   0.880
 4497SOL    HW114390   6.396   5.339   0.924
 4497SOL    HW214391   6.482   5.235   0.831
 4498SOL     OW14392   0.942   4.113   0.223
 4498SOL    HW114393   0.902   4.140   0.135
 4498SOL    HW214394   0.874   4.124   0.295
 4499SOL     OW14395   5.515   3.383   6.282
 4499SOL    HW114396   5.569   3.315   6.332
 4499SOL    HW214397   5.502   3.464   6.340
 4500SOL     OW14398   3.086   4.004   3.411
 4500SOL    HW114399   3.073   3.996   3.312
 4500SOL    HW214400   3.178   4.036   3.431
 4501SOL     OW14401   1.671   4.969   4.863
 4501SOL    HW114402   1.602   5.010   4.802
 4501SOL    HW214403   1.626   4.905   4.925
 4502SOL     OW14404   6.655   3.122   6.800
 4502SOL    HW114405   6.574   3.068   6.824
 4502SOL    HW214406   6.679   3.183   6.875
 4503SOL     OW14407   1.865   3.438   2.570
 4503SOL    HW114408   1.847   3.387   2.654
 4503SOL    HW214409   1.814   3.524   2.571
 4504SOL     OW14410   4.347   2.450   4.000
 4504SOL    HW114411   4.420   2.467   3.933
 4504SOL    HW214412   4.281   2.386   3.962
 4505SOL     OW14413   1.503   5.050   6.982
 4505SOL    HW114414   1.595   5.089   6.969
 4505SOL    HW214415   1.437   5.102   6.928
 4506SOL     OW14416   4.356   6.905   4.922
 4506SOL    HW114417   4.270   6.886   4.970
 4506SOL    HW214418   4.355   6.999   4.889
 4507SOL     OW14419   6.439   3.254   2.012
 4507SOL    HW114420   6.427   3.321   1.939
 4507SOL    HW214421   6.400   3.167   1.985
 4508SOL     OW14422   2.390   3.817   6.812
 4508SOL    HW114423   2.292   3.798   6.800
 4508SOL    HW214424   2.402   3.880   6.888
 4509SOL     OW14425   0.414   2.094   3.702
 4509SOL    HW114426   0.510   2.121   3.692
 4509SOL    HW214427   0.409   1.995   3.717
 4510SOL     OW14428   3.887   6.409   5.732
 4510SOL    HW114429   3.812   6.356   5.773
 4510SOL    HW214430   3.891   6.391   5.634
 4511SOL     OW14431   6.385   2.198   6.175
 4511SOL    HW114432   6.322   2.242   6.111
 4511SOL    HW214433   6.392   2.101   6.154
 4512SOL     OW14434   2.571   4.594   6.717
 4512SOL    HW114435   2.578   4.618   6.620
 4512SOL    HW214436   2.642   4.642   6.768
 4513SOL     OW14437   5.693   1.475   2.115
 4513SOL    HW114438   5.785   1.480   2.152
 4513SOL    HW214439   5.630   1.446   2.187
 4514SOL     OW14440   3.601   0.904   5.751
 4514SOL    HW114441   3.617   0.931   5.846
 4514SOL    HW214442   3.559   0.979   5.701
 4515SOL     OW14443   6.596   4.791   0.867
 4515SOL    HW114444   6.542   4.784   0.951
 4515SOL    HW214445   6.562   4.726   0.799
 4516SOL     OW14446   0.767   6.851   3.916
 4516SOL    HW114447   0.774   6.900   4.003
 4516SOL    HW214448   0.855   6.853   3.869
 4517SOL     OW14449   3.781   0.278   6.231
 4517SOL    HW114450   3.816   0.285   6.137
 4517SOL    HW214451   3.733   0.191   6.242
 4518SOL     OW14452   1.397   0.308   3.543
 4518SOL    HW114453   1.417   0.211   3.559
 4518SOL    HW214454   1.448   0.364   3.608
 4519SOL     OW14455   6.412   2.706   4.931
 4519SOL    HW114456   6.444   2.677   5.021
 4519SOL    HW214457   6.312   2.698   4.927
 4520SOL     OW14458   0.024   4.095   2.563
 4520SOL    HW114459   0.026   4.139   2.473
 4520SOL    HW214460   0.040   3.997   2.553
 4521SOL     OW14461   5.011   1.616   6.321
 4521SOL    HW114462   4.950   1.692   6.297
 4521SOL    HW214463   5.105   1.649   6.324
 4522SOL     OW14464   5.503   0.502   3.148
 4522SOL    HW114465   5.511   0.419   3.094
 4522SOL    HW214466   5.569   0.498   3.224
 4523SOL     OW14467   4.825   3.035   6.382
 4523SOL    HW114468   4.744   3.081   6.345
 4523SOL    HW214469   4.827   3.049   6.481
 4524SOL     OW14470   6.272   0.454   4.826
 4524SOL    HW114471   6.368   0.435   4.806
 4524SOL    HW214472   6.264   0.495   4.917
 4525SOL     OW14473   6.329   2.158   5.340
 4525SOL    HW114474   6.398   2.187   5.273
 4525SOL    HW214475   6.374   2.134   5.426
 4526SOL     OW14476   3.420   0.718   1.040
 4526SOL    HW114477   3.361   0.762   1.108
 4526SOL    HW214478   3.456   0.788   0.978
 4527SOL     OW14479   4.632   6.523   3.630
 4527SOL    HW114480   4.676   6.460   3.695
 4527SOL    HW214481   4.548   6.481   3.595
 4528SOL     OW14482   4.864   6.965   5.976
 4528SOL    HW114483   4.911   6.930   6.057
 4528SOL    HW214484   4.918   0.013   5.934
 4529SOL     OW14485   4.106   0.152   3.751
 4529SOL    HW114486   4.025   0.109   3.792
 4529SOL    HW214487   4.124   0.239   3.796
 4530SOL     OW14488   0.675   2.898   5.064
 4530SOL    HW114489   0.611   2.824   5.041
 4530SOL    HW214490   0.703   2.890   5.160
 4531SOL     OW14491   6.855   3.839   3.576
 4531SOL    HW114492   6.858   3.909   3.505
 4531SOL    HW214493   6.948   3.812   3.600
 4532SOL     OW14494   6.865   1.687   0.386
 4532SOL    HW114495   6.927   1.625   0.435
 4532SOL    HW214496   6.918   1.754   0.335
 4533SOL     OW14497   3.414   6.005   2.354
 4533SOL    HW114498   3.361   5.957   2.423
 4533SOL    HW214499   3.500   6.038   2.394
 4534SOL     OW14500   0.101   4.151   5.477
 4534SOL    HW114501   0.089   4.140   5.576
 4534SOL    HW214502   0.148   4.070   5.441
 4535SOL     OW14503   4.984   2.643   3.230
 4535SOL    HW114504   4.953   2.552   3.202
 4535SOL    HW214505   5.043   2.635   3.311
 4536SOL     OW14506   6.674   0.479   4.236
 4536SOL    HW114507   6.665   0.454   4.333
 4536SOL    HW214508   6.767   0.460   4.205
 4537SOL     OW14509   4.604   3.109   6.222
 4537SOL    HW114510   4.510   3.080   6.243
 4537SOL    HW214511   4.602   3.171   6.144
 4538SOL     OW14512   3.272   1.852   1.812
 4538SOL    HW114513   3.261   1.895   1.901
 4538SOL    HW214514   3.200   1.883   1.750
 4539SOL     OW14515   2.323   2.282   2.495
 4539SOL    HW114516   2.396   2.264   2.561
 4539SOL    HW214517   2.236   2.291   2.543
 4540SOL     OW14518   3.295   3.239   5.062
 4540SOL    HW114519   3.269   3.192   5.147
 4540SOL    HW214520   3.300   3.337   5.078
 4541SOL     OW14521   6.261   1.151   1.666
 4541SOL    HW114522   6.288   1.141   1.762
 4541SOL    HW214523   6.180   1.210   1.661
 4542SOL     OW14524   4.813   6.836   3.166
 4542SOL    HW114525   4.744   6.772   3.199
 4542SOL    HW214526   4.769   6.923   3.143
 4543SOL     OW14527   5.855   1.994   1.525
 4543SOL    HW114528   5.881   2.006   1.620
 4543SOL    HW214529   5.886   2.073   1.471
 4544SOL     OW14530   4.236   4.913   0.038
 4544SOL    HW114531   4.249   4.994   7.005
 4544SOL    HW214532   4.325   4.873   0.060
 4545SOL     OW14533   4.327   3.772   6.049
 4545SOL    HW114534   4.267   3.824   5.988
 4545SOL    HW214535   4.272   3.723   6.117
 4546SOL     OW14536   0.043   6.288   6.751
 4546SOL    HW114537   0.027   6.196   6.717
 4546SOL    HW214538   7.007   6.352   6.703
 4547SOL     OW14539   4.420   1.680   1.743
 4547SOL    HW114540   4.338   1.708   1.693
 4547SOL    HW214541   4.393   1.653   1.836
 4548SOL     OW14542   0.975   3.589   3.953
 4548SOL    HW114543   1.016   3.556   4.038
 4548SOL    HW214544   1.036   3.568   3.876
 4549SOL     OW14545   4.325   1.654   1.974
 4549SOL    HW114546   4.333   1.647   2.073
 4549SOL    HW214547   4.235   1.690   1.950
 4550SOL     OW14548   1.673   5.923   4.565
 4550SOL    HW114549   1.630   5.848   4.514
 4550SOL    HW214550   1.765   5.938   4.528
 4551SOL     OW14551   6.928   2.999   0.391
 4551SOL    HW114552   7.008   2.959   0.345
 4551SOL    HW214553   6.849   2.993   0.330
 4552SOL     OW14554   6.264   3.078   4.160
 4552SOL    HW114555   6.324   3.157   4.170
 4552SOL    HW214556   6.250   3.058   4.063
 4553SOL     OW14557   5.334   4.862   0.330
 4553SOL    HW114558   5.396   4.938   0.349
 4553SOL    HW214559   5.372   4.804   0.258
 4554SOL     OW14560   5.804   6.888   3.357
 4554SOL    HW114561   5.725   6.929   3.311
 4554SOL    HW214562   5.831   6.945   3.434
 4555SOL     OW14563   4.168   2.014   6.611
 4555SOL    HW114564   4.164   1.979   6.517
 4555SOL    HW214565   4.176   2.114   6.608
 4556SOL     OW14566   4.881   0.770   5.279
 4556SOL    HW114567   4.971   0.803   5.308
 4556SOL    HW214568   4.889   0.727   5.189
 4557SOL     OW14569   5.334   0.630   4.872
 4557SOL    HW114570   5.359   0.548   4.924
 4557SOL    HW214571   5.253   0.611   4.818
 4558SOL     OW14572   6.052   3.315   5.882
 4558SOL    HW114573   6.117   3.356   5.947
 4558SOL    HW214574   6.005   3.388   5.832
 4559SOL     OW14575   0.787   6.197   1.439
 4559SOL    HW114576   0.883   6.187   1.466
 4559SOL    HW214577   0.782   6.219   1.341
 4560SOL     OW14578   5.205   2.581   2.392
 4560SOL    HW114579   5.248   2.612   2.476
 4560SOL    HW214580   5.142   2.506   2.412
 4561SOL     OW14581   3.146   0.841   6.304
 4561SOL    HW114582   3.235   0.873   6.335
 4561SOL    HW214583   3.134   0.745   6.328
 4562SOL     OW14584   2.174   4.816   5.488
 4562SOL    HW114585   2.167   4.727   5.533
 4562SOL    HW214586   2.237   4.809   5.410
 4563SOL     OW14587   5.486   2.581   6.521
 4563SOL    HW114588   5.461   2.547   6.431
 4563SOL    HW214589   5.585   2.594   6.526
 4564SOL     OW14590   0.875   5.405   6.795
 4564SOL    HW114591   0.883   5.311   6.764
 4564SOL    HW214592   0.821   5.457   6.728
 4565SOL     OW14593   2.644   0.877   4.079
 4565SOL    HW114594   2.635   0.779   4.093
 4565SOL    HW214595   2.589   0.925   4.148
 4566SOL     OW14596   1.752   1.393   0.707
 4566SOL    HW114597   1.670   1.425   0.754
 4566SOL    HW214598   1.833   1.437   0.746
 4567SOL     OW14599   5.948   1.042   1.320
 4567SOL    HW114600   5.905   0.980   1.386
 4567SOL    HW214601   5.945   1.136   1.356
 4568SOL     OW14602   3.669   5.022   4.136
 4568SOL    HW114603   3.758   4.979   4.124
 4568SOL    HW214604   3.622   4.981   4.214
 4569SOL     OW14605   0.288   2.112   3.409
 4569SOL    HW114606   0.225   2.189   3.423
 4569SOL    HW214607   0.288   2.054   3.490
 4570SOL     OW14608   5.774   5.475   4.419
 4570SOL    HW114609   5.679   5.485   4.450
 4570SOL    HW214610   5.809   5.386   4.448
 4571SOL     OW14611   3.707   3.007   4.314
 4571SOL    HW114612   3.789   3.009   4.371
 4571SOL    HW214613   3.634   2.958   4.362
 4572SOL     OW14614   2.093   5.425   2.053
 4572SOL    HW114615   2.124   5.403   1.960
 4572SOL    HW214616   2.172   5.440   2.112
 4573SOL     OW14617   4.699   0.017   0.898
 4573SOL    HW114618   4.757   7.024   0.977
 4573SOL    HW214619   4.753   0.005   0.814
 4574SOL     OW14620   0.415   3.951   1.421
 4574SOL    HW114621   0.502   3.902   1.426
 4574SOL    HW214622   0.430   4.040   1.378
 4575SOL     OW14623   0.008   6.184   2.408
 4575SOL    HW114624   0.047   6.096   2.437
 4575SOL    HW214625   6.974   6.170   2.329
 4576SOL     OW14626   3.637   6.279   3.653
 4576SOL    HW114627   3.586   6.363   3.666
 4576SOL    HW214628   3.574   6.201   3.651
 4577SOL     OW14629   1.482   2.390   4.012
 4577SOL    HW114630   1.433   2.468   4.051
 4577SOL    HW214631   1.420   2.336   3.955
 4578SOL     OW14632   0.554   4.710   3.967
 4578SOL    HW114633   0.600   4.789   4.008
 4578SOL    HW214634   0.599   4.626   3.996
 4579SOL     OW14635   5.373   1.898   4.601
 4579SOL    HW114636   5.444   1.828   4.596
 4579SOL    HW214637   5.377   1.957   4.521
 4580SOL     OW14638   0.039   5.623   7.022
 4580SOL    HW114639   0.137   5.601   7.018
 4580SOL    HW214640   0.027   5.719   0.020
 4581SOL     OW14641   3.213   6.207   3.592
 4581SOL    HW114642   3.127   6.156   3.591
 4581SOL    HW214643   3.219   6.264   3.509
 4582SOL     OW14644   5.024   6.544   3.257
 4582SOL    HW114645   5.021   6.630   3.308
 4582SOL    HW214646   4.974   6.555   3.171
 4583SOL     OW14647   3.583   1.386   5.630
 4583SOL    HW114648   3.494   1.426   5.607
 4583SOL    HW214649   3.648   1.459   5.651
 4584SOL     OW14650   1.384   5.207   6.231
 4584SOL    HW114651   1.300   5.154   6.222
 4584SOL    HW214652   1.452   5.174   6.165
 4585SOL     OW14653   3.142   6.377   2.138
 4585SOL    HW114654   3.205   6.453   2.125
 4585SOL    HW214655   3.193   6.294   2.161
 4586SOL     OW14656   2.937   6.075   1.908
 4586SOL    HW114657   2.942   6.051   2.005
 4586SOL    HW214658   2.949   5.992   1.853
 4587SOL     OW14659   3.086   4.958   0.644
 4587SOL    HW114660   3.022   5.001   0.580
 4587SOL    HW214661   3.064   4.987   0.737
 4588SOL     OW14662   3.759   4.421   5.289
 4588SOL    HW114663   3.855   4.448   5.299
 4588SOL    HW214664   3.748   4.369   5.204
 4589SOL     OW14665   1.011   1.911   3.050
 4589SOL    HW114666   1.015   1.947   2.956
 4589SOL    HW214667   0.916   1.889   3.073
 4590SOL     OW14668   4.238   6.293   3.072
 4590SOL    HW114669   4.242   6.325   2.977
 4590SOL    HW214670   4.316   6.329   3.123
 4591SOL     OW14671   6.432   6.705   5.299
 4591SOL    HW114672   6.431   6.654   5.213
 4591SOL    HW214673   6.404   6.645   5.374
 4592SOL     OW14674   3.314   1.271   5.965
 4592SOL    HW114675   3.413   1.273   5.949
 4592SOL    HW214676   3.289   1.184   6.008
 4593SOL     OW14677   4.754   6.310   1.430
 4593SOL    HW114678   4.780   6.222   1.389
 4593SOL    HW214679   4.780   6.384   1.368
 4594SOL     OW14680   3.572   1.806   2.516
 4594SOL    HW114681   3.493   1.792   2.457
 4594SOL    HW214682   3.561   1.892   2.566
 4595SOL     OW14683   5.007   3.532   6.340
 4595SOL    HW114684   5.045   3.611   6.389
 4595SOL    HW214685   4.918   3.509   6.379
 4596SOL     OW14686   5.209   0.678   2.409
 4596SOL    HW114687   5.187   0.720   2.496
 4596SOL    HW214688   5.302   0.641   2.411
 4597SOL     OW14689   6.570   4.868   5.970
 4597SOL    HW114690   6.600   4.773   5.960
 4597SOL    HW214691   6.471   4.871   5.976
 4598SOL     OW14692   3.432   3.750   0.626
 4598SOL    HW114693   3.440   3.723   0.722
 4598SOL    HW214694   3.481   3.685   0.569
 4599SOL     OW14695   2.101   5.250   0.397
 4599SOL    HW114696   2.053   5.253   0.309
 4599SOL    HW214697   2.043   5.287   0.469
 4600SOL     OW14698   3.549   4.663   1.415
 4600SOL    HW114699   3.504   4.612   1.488
 4600SOL    HW214700   3.579   4.600   1.343
 4601SOL     OW14701   1.565   5.673   4.397
 4601SOL    HW114702   1.497   5.691   4.325
 4601SOL    HW214703   1.655   5.702   4.365
 4602SOL     OW14704   1.610   0.782   1.104
 4602SOL    HW114705   1.674   0.724   1.055
 4602SOL    HW214706   1.522   0.734   1.114
 4603SOL     OW14707   2.907   1.534   1.973
 4603SOL    HW114708   2.935   1.611   1.915
 4603SOL    HW214709   2.854   1.469   1.919
 4604SOL     OW14710   1.685   0.712   1.977
 4604SOL    HW114711   1.594   0.685   2.007
 4604SOL    HW214712   1.682   0.738   1.880
 4605SOL     OW14713   4.776   6.571   5.913
 4605SOL    HW114714   4.858   6.612   5.951
 4605SOL    HW214715   4.797   6.481   5.876
 4606SOL     OW14716   6.542   6.205   5.055
 4606SOL    HW114717   6.551   6.287   4.999
 4606SOL    HW214718   6.625   6.149   5.045
 4607SOL     OW14719   2.748   2.499   1.355
 4607SOL    HW114720   2.738   2.519   1.452
 4607SOL    HW214721   2.824   2.552   1.317
 4608SOL     OW14722   1.719   3.817   4.913
 4608SOL    HW114723   1.690   3.897   4.860
 4608SOL    HW214724   1.765   3.752   4.853
 4609SOL     OW14725   3.217   0.104   0.086
 4609SOL    HW114726   3.238   0.034   0.155
 4609SOL    HW214727   3.130   0.148   0.108
 4610SOL     OW14728   0.008   2.900   7.020
 4610SOL    HW114729   0.085   2.948   6.977
 4610SOL    HW214730   0.018   2.906   0.096
 4611SOL     OW14731   1.173   3.727   6.793
 4611SOL    HW114732   1.107   3.764   6.858
 4611SOL    HW214733   1.254   3.696   6.843
 4612SOL     OW14734   2.469   0.334   6.559
 4612SOL    HW114735   2.533   0.380   6.498
 4612SOL    HW214736   2.519   0.275   6.623
 4613SOL     OW14737   3.565   5.054   1.671
 4613SOL    HW114738   3.629   5.001   1.727
 4613SOL    HW214739   3.607   5.140   1.644
 4614SOL     OW14740   2.320   4.951   0.149
 4614SOL    HW114741   2.367   5.034   0.117
 4614SOL    HW214742   2.324   4.948   0.249
 4615SOL     OW14743   6.891   3.273   0.397
 4615SOL    HW114744   6.897   3.174   0.389
 4615SOL    HW214745   6.802   3.298   0.436
 4616SOL     OW14746   6.048   0.495   0.592
 4616SOL    HW114747   6.067   0.398   0.604
 4616SOL    HW214748   6.125   0.549   0.625
 4617SOL     OW14749   0.259   4.051   2.270
 4617SOL    HW114750   0.207   3.982   2.320
 4617SOL    HW214751   0.316   4.103   2.334
 4618SOL     OW14752   0.725   2.835   6.295
 4618SOL    HW114753   0.664   2.899   6.340
 4618SOL    HW214754   0.686   2.807   6.207
 4619SOL     OW14755   3.608   0.253   3.592
 4619SOL    HW114756   3.604   0.155   3.577
 4619SOL    HW214757   3.704   0.281   3.602
 4620SOL     OW14758   2.420   5.460   6.207
 4620SOL    HW114759   2.511   5.419   6.208
 4620SOL    HW214760   2.366   5.418   6.133
 4621SOL     OW14761   0.267   0.178   6.253
 4621SOL    HW114762   0.233   0.187   6.346
 4621SOL    HW214763   0.359   0.141   6.254
 4622SOL     OW14764   2.271   3.380   1.019
 4622SOL    HW114765   2.315   3.466   1.046
 4622SOL    HW214766   2.310   3.349   0.932
 4623SOL     OW14767   5.673   5.082   2.455
 4623SOL    HW114768   5.579   5.051   2.442
 4623SOL    HW214769   5.715   5.101   2.365
 4624SOL     OW14770   4.870   0.126   5.576
 4624SOL    HW114771   4.815   0.088   5.651
 4624SOL    HW214772   4.809   0.158   5.503
 4625SOL     OW14773   1.560   3.868   6.159
 4625SOL    HW114774   1.484   3.825   6.208
 4625SOL    HW214775   1.602   3.802   6.097
 4626SOL     OW14776   5.729   5.564   2.066
 4626SOL    HW114777   5.651   5.529   2.119
 4626SOL    HW214778   5.812   5.558   2.122
 4627SOL     OW14779   1.851   0.030   5.642
 4627SOL    HW114780   1.829   6.993   5.718
 4627SOL    HW214781   1.766   0.072   5.608
 4628SOL     OW14782   0.153   2.879   1.942
 4628SOL    HW114783   0.110   2.830   1.866
 4628SOL    HW214784   0.093   2.955   1.971
 4629SOL     OW14785   4.093   4.824   4.683
 4629SOL    HW114786   4.048   4.877   4.755
 4629SOL    HW214787   4.110   4.731   4.715
 4630SOL     OW14788   1.495   6.938   2.418
 4630SOL    HW114789   1.484   6.851   2.466
 4630SOL    HW214790   1.588   6.973   2.434
 4631SOL     OW14791   1.886   0.605   2.878
 4631SOL    HW114792   1.981   0.605   2.909
 4631SOL    HW214793   1.866   0.690   2.831
 4632SOL     OW14794   5.849   5.667   4.226
 4632SOL    HW114795   5.927   5.706   4.275
 4632SOL    HW214796   5.800   5.604   4.286
 4633SOL     OW14797   5.506   2.489   5.500
 4633SOL    HW114798   5.468   2.435   5.424
 4633SOL    HW214799   5.453   2.471   5.583
 4634SOL     OW14800   3.700   4.733   0.850
 4634SOL    HW114801   3.754   4.776   0.778
 4634SOL    HW214802   3.625   4.681   0.808
 4635SOL     OW14803   5.118   3.323   1.442
 4635SOL    HW114804   5.163   3.405   1.479
 4635SOL    HW214805   5.186   3.251   1.428
 4636SOL     OW14806   0.891   5.840   1.519
 4636SOL    HW114807   0.825   5.901   1.476
 4636SOL    HW214808   0.950   5.800   1.449
 4637SOL     OW14809   1.506   0.683   4.685
 4637SOL    HW114810   1.522   0.627   4.603
 4637SOL    HW214811   1.586   0.740   4.702
 4638SOL     OW14812   4.510   4.458   6.266
 4638SOL    HW114813   4.498   4.364   6.235
 4638SOL    HW214814   4.542   4.515   6.190
 4639SOL     OW14815   0.254   2.492   5.004
 4639SOL    HW114816   0.176   2.540   5.044
 4639SOL    HW214817   0.223   2.408   4.959
 4640SOL     OW14818   6.231   4.623   2.406
 4640SOL    HW114819   6.238   4.631   2.506
 4640SOL    HW214820   6.287   4.694   2.363
 4641SOL     OW14821   3.055   3.816   5.591
 4641SOL    HW114822   2.983   3.856   5.648
 4641SOL    HW214823   3.052   3.858   5.500
 4642SOL     OW14824   6.712   5.975   3.964
 4642SOL    HW114825   6.768   5.907   3.915
 4642SOL    HW214826   6.760   6.062   3.965
 4643SOL     OW14827   3.853   2.857   0.877
 4643SOL    HW114828   3.768   2.900   0.907
 4643SOL    HW214829   3.912   2.926   0.833
 4644SOL     OW14830   3.350   4.847   5.164
 4644SOL    HW114831   3.377   4.764   5.213
 4644SOL    HW214832   3.256   4.836   5.130
 4645SOL     OW14833   1.770   6.330   4.693
 4645SOL    HW114834   1.855   6.382   4.682
 4645SOL    HW214835   1.762   6.300   4.788
 4646SOL     OW14836   3.892   0.678   1.322
 4646SOL    HW114837   3.813   0.731   1.351
 4646SOL    HW214838   3.948   0.732   1.260
 4647SOL     OW14839   6.889   0.481   5.200
 4647SOL    HW114840   6.846   0.396   5.230
 4647SOL    HW214841   6.850   0.558   5.251
 4648SOL     OW14842   1.975   5.190   2.769
 4648SOL    HW114843   2.027   5.192   2.683
 4648SOL    HW214844   1.928   5.102   2.778
 4649SOL     OW14845   5.658   6.337   5.963
 4649SOL    HW114846   5.576   6.394   5.971
 4649SOL    HW214847   5.642   6.265   5.896
 4650SOL     OW14848   0.110   4.482   1.627
 4650SOL    HW114849   0.077   4.418   1.558
 4650SOL    HW214850   0.102   4.442   1.718
 4651SOL     OW14851   5.918   1.973   2.263
 4651SOL    HW114852   5.861   2.021   2.196
 4651SOL    HW214853   6.011   2.009   2.259
 4652SOL     OW14854   0.035   6.078   5.539
 4652SOL    HW114855   0.107   6.031   5.590
 4652SOL    HW214856   6.973   6.070   5.589
 4653SOL     OW14857   0.516   5.615   6.802
 4653SOL    HW114858   0.581   5.582   6.733
 4653SOL    HW214859   0.474   5.700   6.771
 4654SOL     OW14860   1.076   1.704   6.359
 4654SOL    HW114861   0.991   1.666   6.322
 4654SOL    HW214862   1.126   1.632   6.407
 4655SOL     OW14863   0.500   5.276   3.456
 4655SOL    HW114864   0.403   5.277   3.430
 4655SOL    HW214865   0.532   5.371   3.465
 4656SOL     OW14866   2.384   0.075   3.123
 4656SOL    HW114867   2.437   7.019   3.154
 4656SOL    HW214868   2.311   0.045   3.062
 4657SOL     OW14869   6.103   0.451   6.431
 4657SOL    HW114870   6.058   0.525   6.481
 4657SOL    HW214871   6.038   0.377   6.417
 4658SOL     OW14872   4.920   0.892   3.708
 4658SOL    HW114873   4.855   0.965   3.727
 4658SOL    HW214874   4.879   0.804   3.731
 4659SOL     OW14875   2.255   2.435   4.478
 4659SOL    HW114876   2.187   2.475   4.417
 4659SOL    HW214877   2.324   2.504   4.500
 4660SOL     OW14878   6.935   0.982   5.702
 4660SOL    HW114879   7.022   0.967   5.654
 4660SOL    HW214880   6.920   1.080   5.713
 4661SOL     OW14881   4.134   3.371   3.589
 4661SOL    HW114882   4.133   3.465   3.624
 4661SOL    HW214883   4.126   3.307   3.666
 4662SOL     OW14884   5.661   0.272   3.559
 4662SOL    HW114885   5.590   0.202   3.569
 4662SOL    HW214886   5.648   0.342   3.629
 4663SOL     OW14887   0.863   2.031   1.943
 4663SOL    HW114888   0.881   2.106   1.879
 4663SOL    HW214889   0.889   1.944   1.900
 4664SOL     OW14890   4.023   3.742   0.403
 4664SOL    HW114891   3.981   3.770   0.489
 4664SOL    HW214892   3.953   3.708   0.340
 4665SOL     OW14893   5.120   0.514   6.690
 4665SOL    HW114894   5.136   0.575   6.612
 4665SOL    HW214895   5.185   0.438   6.688
 4666SOL     OW14896   2.071   1.654   0.142
 4666SOL    HW114897   2.094   1.747   0.116
 4666SOL    HW214898   2.102   1.637   0.236
 4667SOL     OW14899   0.515   5.219   4.416
 4667SOL    HW114900   0.503   5.285   4.490
 4667SOL    HW214901   0.560   5.137   4.452
 4668SOL     OW14902   5.297   1.331   5.574
 4668SOL    HW114903   5.309   1.426   5.602
 4668SOL    HW214904   5.383   1.281   5.583
 4669SOL     OW14905   2.721   0.802   1.356
 4669SOL    HW114906   2.769   0.884   1.386
 4669SOL    HW214907   2.779   0.750   1.293
 4670SOL     OW14908   2.353   1.485   4.663
 4670SOL    HW114909   2.287   1.557   4.643
 4670SOL    HW214910   2.364   1.476   4.762
 4671SOL     OW14911   5.521   2.375   1.196
 4671SOL    HW114912   5.430   2.333   1.191
 4671SOL    HW214913   5.578   2.323   1.260
 4672SOL     OW14914   2.818   2.775   5.412
 4672SOL    HW114915   2.889   2.806   5.475
 4672SOL    HW214916   2.761   2.852   5.385
 4673SOL     OW14917   4.428   0.803   2.360
 4673SOL    HW114918   4.496   0.851   2.304
 4673SOL    HW214919   4.378   0.869   2.416
 4674SOL     OW14920   5.303   6.490   5.133
 4674SOL    HW114921   5.210   6.458   5.117
 4674SOL    HW214922   5.366   6.412   5.134
 4675SOL     OW14923   1.112   4.277   6.232
 4675SOL    HW114924   1.155   4.199   6.186
 4675SOL    HW214925   1.176   4.354   6.232
 4676SOL     OW14926   0.633   4.458   4.063
 4676SOL    HW114927   0.671   4.453   3.970
 4676SOL    HW214928   0.570   4.381   4.077
 4677SOL     OW14929   1.436   3.318   0.694
 4677SOL    HW114930   1.516   3.265   0.668
 4677SOL    HW214931   1.462   3.388   0.760
 4678SOL     OW14932   1.021   4.406   2.014
 4678SOL    HW114933   1.047   4.502   2.025
 4678SOL    HW214934   1.011   4.385   1.917
 4679SOL     OW14935   4.281   6.996   1.731
 4679SOL    HW114936   4.369   0.018   1.739
 4679SOL    HW214937   4.222   0.001   1.806
 4680SOL     OW14938   2.034   0.437   6.701
 4680SOL    HW114939   2.111   0.393   6.655
 4680SOL    HW214940   1.998   0.511   6.643
 4681SOL     OW14941   5.216   5.529   2.089
 4681SOL    HW114942   5.229   5.626   2.109
 4681SOL    HW214943   5.300   5.479   2.109
 4682SOL     OW14944   3.533   3.996   6.307
 4682SOL    HW114945   3.628   3.985   6.280
 4682SOL    HW214946   3.478   4.025   6.228
 4683SOL     OW14947   5.870   4.660   3.610
 4683SOL    HW114948   5.950   4.688   3.663
 4683SOL    HW214949   5.896   4.588   3.546
 4684SOL     OW14950   5.429   6.200   6.442
 4684SOL    HW114951   5.337   6.182   6.478
 4684SOL    HW214952   5.488   6.231   6.516
 4685SOL     OW14953   3.374   4.132   4.299
 4685SOL    HW114954   3.411   4.147   4.390
 4685SOL    HW214955   3.448   4.129   4.232
 4686SOL     OW14956   1.429   6.737   0.029
 4686SOL    HW114957   1.513   6.748   0.081
 4686SOL    HW214958   1.386   6.827   0.016
 4687SOL     OW14959   2.416   0.439   2.824
 4687SOL    HW114960   2.506   0.483   2.827
 4687SOL    HW214961   2.390   0.425   2.728
 4688SOL     OW14962   5.231   2.324   5.967
 4688SOL    HW114963   5.203   2.398   6.029
 4688SOL    HW214964   5.157   2.259   5.957
 4689SOL     OW14965   6.797   1.028   1.659
 4689SOL    HW114966   6.768   1.124   1.668
 4689SOL    HW214967   6.854   1.002   1.736
 4690SOL     OW14968   2.723   2.152   0.959
 4690SOL    HW114969   2.694   2.187   1.048
 4690SOL    HW214970   2.792   2.213   0.920
 4691SOL     OW14971   6.117   4.016   2.185
 4691SOL    HW114972   6.198   4.067   2.155
 4691SOL    HW214973   6.123   4.000   2.284
 4692SOL     OW14974   5.093   2.998   2.689
 4692SOL    HW114975   5.098   2.902   2.719
 4692SOL    HW214976   5.175   3.020   2.636
 4693SOL     OW14977   0.969   0.707   2.553
 4693SOL    HW114978   0.972   0.754   2.641
 4693SOL    HW214979   1.028   0.626   2.556
 4694SOL     OW14980   2.068   0.386   6.381
 4694SOL    HW114981   2.124   0.344   6.453
 4694SOL    HW214982   2.006   0.318   6.342
 4695SOL     OW14983   2.390   5.237   2.957
 4695SOL    HW114984   2.343   5.239   3.045
 4695SOL    HW214985   2.416   5.143   2.935
 4696SOL     OW14986   1.228   6.183   6.113
 4696SOL    HW114987   1.316   6.168   6.158
 4696SOL    HW214988   1.232   6.149   6.019
 4697SOL     OW14989   4.494   5.633   1.353
 4697SOL    HW114990   4.462   5.563   1.289
 4697SOL    HW214991   4.594   5.636   1.351
 4698SOL     OW14992   5.795   1.220   4.820
 4698SOL    HW114993   5.729   1.212   4.894
 4698SOL    HW214994   5.866   1.285   4.846
 4699SOL     OW14995   1.731   0.508   3.104
 4699SOL    HW114996   1.794   0.547   3.037
 4699SOL    HW214997   1.722   0.410   3.088
 4700SOL     OW14998   6.035   1.815   2.823
 4700SOL    HW114999   5.935   1.821   2.812
 4700SOL    HW215000   6.073   1.759   2.750
 4701SOL     OW15001   3.143   2.497   1.687
 4701SOL    HW115002   3.072   2.488   1.756
 4701SOL    HW215003   3.232   2.507   1.732
 4702SOL     OW15004   5.756   5.308   6.687
 4702SOL    HW115005   5.703   5.352   6.760
 4702SOL    HW215006   5.769   5.372   6.612
 4703SOL     OW15007   0.723   4.838   3.145
 4703SOL    HW115008   0.802   4.898   3.129
 4703SOL    HW215009   0.686   4.808   3.058
 4704SOL     OW15010   1.077   5.005   4.252
 4704SOL    HW115011   1.041   5.017   4.160
 4704SOL    HW215012   1.097   4.908   4.268
 4705SOL     OW15013   3.507   1.821   1.699
 4705SOL    HW115014   3.574   1.787   1.765
 4705SOL    HW215015   3.428   1.858   1.747
 4706SOL     OW15016   2.550   0.746   1.549
 4706SOL    HW115017   2.472   0.808   1.548
 4706SOL    HW215018   2.611   0.768   1.473
 4707SOL     OW15019   1.483   5.201   2.555
 4707SOL    HW115020   1.563   5.227   2.502
 4707SOL    HW215021   1.497   5.109   2.594
 4708SOL     OW15022   1.762   2.661   5.019
 4708SOL    HW115023   1.814   2.692   4.939
 4708SOL    HW215024   1.702   2.586   4.992
 4709SOL     OW15025   5.485   4.504   5.783
 4709SOL    HW115026   5.529   4.581   5.736
 4709SOL    HW215027   5.400   4.480   5.737
 4710SOL     OW15028   5.902   6.194   5.173
 4710SOL    HW115029   5.914   6.123   5.243
 4710SOL    HW215030   5.966   6.178   5.098
 4711SOL     OW15031   4.933   4.390   2.171
 4711SOL    HW115032   4.836   4.398   2.146
 4711SOL    HW215033   4.979   4.477   2.155
 4712SOL     OW15034   4.686   4.025   5.785
 4712SOL    HW115035   4.653   4.114   5.755
 4712SOL    HW215036   4.608   3.971   5.818
 4713SOL     OW15037   5.335   4.194   0.840
 4713SOL    HW115038   5.298   4.163   0.752
 4713SOL    HW215039   5.266   4.247   0.888
 4714SOL     OW15040   4.234   2.277   6.576
 4714SOL    HW115041   4.322   2.302   6.535
 4714SOL    HW215042   4.161   2.331   6.536
 4715SOL     OW15043   6.705   1.306   1.477
 4715SOL    HW115044   6.621   1.357   1.461
 4715SOL    HW215045   6.780   1.370   1.493
 4716SOL     OW15046   3.702   4.790   5.688
 4716SOL    HW115047   3.688   4.708   5.633
 4716SOL    HW215048   3.616   4.818   5.730
 4717SOL     OW15049   2.200   4.576   5.628
 4717SOL    HW115050   2.144   4.506   5.584
 4717SOL    HW215051   2.192   4.568   5.727
 4718SOL     OW15052   4.821   4.519   1.082
 4718SOL    HW115053   4.761   4.501   1.160
 4718SOL    HW215054   4.914   4.535   1.114
 4719SOL     OW15055   6.766   4.220   3.905
 4719SOL    HW115056   6.788   4.288   3.974
 4719SOL    HW215057   6.697   4.257   3.842
 4720SOL     OW15058   2.394   3.338   6.863
 4720SOL    HW115059   2.439   3.265   6.812
 4720SOL    HW215060   2.317   3.299   6.915
 4721SOL     OW15061   0.444   2.639   3.389
 4721SOL    HW115062   0.448   2.737   3.408
 4721SOL    HW215063   0.359   2.601   3.426
 4722SOL     OW15064   0.873   5.719   6.817
 4722SOL    HW115065   0.850   5.738   6.722
 4722SOL    HW215066   0.971   5.730   6.831
 4723SOL     OW15067   3.213   4.775   6.596
 4723SOL    HW115068   3.116   4.795   6.583
 4723SOL    HW215069   3.247   4.720   6.520
 4724SOL     OW15070   0.712   0.207   4.558
 4724SOL    HW115071   0.634   0.144   4.560
 4724SOL    HW215072   0.797   0.154   4.557
 4725SOL     OW15073   5.593   5.521   1.352
 4725SOL    HW115074   5.606   5.491   1.257
 4725SOL    HW215075   5.496   5.515   1.375
 4726SOL     OW15076   1.892   2.651   5.478
 4726SOL    HW115077   1.924   2.597   5.556
 4726SOL    HW215078   1.956   2.642   5.402
 4727SOL     OW15079   6.859   4.404   1.239
 4727SOL    HW115080   6.864   4.484   1.178
 4727SOL    HW215081   6.828   4.434   1.329
 4728SOL     OW15082   5.695   1.936   4.402
 4728SOL    HW115083   5.731   1.997   4.332
 4728SOL    HW215084   5.755   1.938   4.482
 4729SOL     OW15085   5.750   1.262   1.926
 4729SOL    HW115086   5.783   1.355   1.910
 4729SOL    HW215087   5.717   1.254   2.020
 4730SOL     OW15088   3.876   0.315   3.596
 4730SOL    HW115089   3.922   0.376   3.531
 4730SOL    HW215090   3.932   0.233   3.609
 4731SOL     OW15091   2.772   6.705   0.907
 4731SOL    HW115092   2.724   6.623   0.877
 4731SOL    HW215093   2.707   6.779   0.925
 4732SOL     OW15094   0.565   5.025   4.990
 4732SOL    HW115095   0.659   5.002   5.013
 4732SOL    HW215096   0.512   5.038   5.073
 4733SOL     OW15097   1.697   4.070   2.726
 4733SOL    HW115098   1.745   4.070   2.638
 4733SOL    HW215099   1.622   4.004   2.723
 4734SOL     OW15100   4.728   4.215   7.009
 4734SOL    HW115101   4.721   4.263   6.922
 4734SOL    HW215102   4.743   4.281   0.059
 4735SOL     OW15103   0.660   0.198   5.133
 4735SOL    HW115104   0.700   0.217   5.044
 4735SOL    HW215105   0.560   0.202   5.127
 4736SOL     OW15106   6.752   1.681   3.759
 4736SOL    HW115107   6.837   1.667   3.809
 4736SOL    HW215108   6.695   1.599   3.766
 4737SOL     OW15109   1.982   4.780   6.681
 4737SOL    HW115110   1.883   4.774   6.671
 4737SOL    HW215111   2.004   4.819   6.770
 4738SOL     OW15112   1.023   5.234   4.038
 4738SOL    HW115113   0.998   5.146   3.998
 4738SOL    HW215114   1.040   5.300   3.964
 4739SOL     OW15115   5.742   3.313   3.010
 4739SOL    HW115116   5.759   3.279   2.918
 4739SOL    HW215117   5.651   3.284   3.041
 4740SOL     OW15118   1.289   0.263   0.601
 4740SOL    HW115119   1.250   0.321   0.673
 4740SOL    HW215120   1.219   0.203   0.565
 4741SOL     OW15121   5.566   4.807   1.186
 4741SOL    HW115122   5.656   4.824   1.224
 4741SOL    HW215123   5.498   4.861   1.234
 4742SOL     OW15124   2.429   5.693   2.524
 4742SOL    HW115125   2.499   5.723   2.460
 4742SOL    HW215126   2.366   5.631   2.478
 4743SOL     OW15127   2.708   3.582   0.584
 4743SOL    HW115128   2.624   3.568   0.532
 4743SOL    HW215129   2.776   3.627   0.526
 4744SOL     OW15130   2.559   1.876   5.266
 4744SOL    HW115131   2.477   1.885   5.322
 4744SOL    HW215132   2.535   1.836   5.177
 4745SOL     OW15133   3.903   5.160   5.055
 4745SOL    HW115134   3.980   5.125   5.108
 4745SOL    HW215135   3.860   5.084   5.006
 4746SOL     OW15136   5.998   1.303   1.622
 4746SOL    HW115137   6.021   1.335   1.530
 4746SOL    HW215138   5.903   1.272   1.624
 4747SOL     OW15139   0.513   2.853   1.767
 4747SOL    HW115140   0.483   2.768   1.809
 4747SOL    HW215141   0.441   2.923   1.779
 4748SOL     OW15142   1.752   0.587   0.980
 4748SOL    HW115143   1.822   0.632   0.923
 4748SOL    HW215144   1.669   0.574   0.927
 4749SOL     OW15145   2.656   6.984   6.324
 4749SOL    HW115146   2.706   6.904   6.356
 4749SOL    HW215147   2.714   0.014   6.264
 4750SOL     OW15148   0.734   1.688   4.675
 4750SOL    HW115149   0.766   1.766   4.727
 4750SOL    HW215150   0.796   1.611   4.688
 4751SOL     OW15151   1.261   3.693   5.531
 4751SOL    HW115152   1.219   3.626   5.592
 4751SOL    HW215153   1.196   3.767   5.512
 4752SOL     OW15154   1.662   5.930   1.292
 4752SOL    HW115155   1.596   5.886   1.353
 4752SOL    HW215156   1.717   5.859   1.247
 4753SOL     OW15157   0.251   6.499   5.750
 4753SOL    HW115158   0.334   6.546   5.718
 4753SOL    HW215159   0.200   6.464   5.672
 4754SOL     OW15160   1.015   1.017   6.860
 4754SOL    HW115161   1.091   0.957   6.832
 4754SOL    HW215162   1.045   1.112   6.858
 4755SOL     OW15163   2.995   0.656   1.392
 4755SOL    HW115164   3.046   0.646   1.307
 4755SOL    HW215165   3.052   0.702   1.460
 4756SOL     OW15166   4.930   2.707   1.640
 4756SOL    HW115167   4.843   2.670   1.605
 4756SOL    HW215168   4.915   2.746   1.731
 4757SOL     OW15169   2.344   1.469   1.308
 4757SOL    HW115170   2.294   1.412   1.374
 4757SOL    HW215171   2.356   1.561   1.345
 4758SOL     OW15172   5.560   3.949   5.389
 4758SOL    HW115173   5.494   4.024   5.400
 4758SOL    HW215174   5.609   3.935   5.475
 4759SOL     OW15175   6.103   3.989   6.212
 4759SOL    HW115176   6.048   4.064   6.248
 4759SOL    HW215177   6.113   3.999   6.113
 4760SOL     OW15178   1.794   2.833   0.496
 4760SOL    HW115179   1.700   2.834   0.463
 4760SOL    HW215180   1.802   2.770   0.573
 4761SOL     OW15181   1.513   5.766   5.709
 4761SOL    HW115182   1.434   5.827   5.705
 4761SOL    HW215183   1.526   5.734   5.803
 4762SOL     OW15184   4.004   6.828   2.160
 4762SOL    HW115185   3.945   6.760   2.203
 4762SOL    HW215186   4.098   6.793   2.158
 4763SOL     OW15187   5.698   4.981   4.768
 4763SOL    HW115188   5.784   5.033   4.767
 4763SOL    HW215189   5.709   4.897   4.714
 4764SOL     OW15190   3.757   3.792   4.321
 4764SOL    HW115191   3.740   3.752   4.412
 4764SOL    HW215192   3.739   3.890   4.324
 4765SOL     OW15193   6.932   4.748   5.747
 4765SOL    HW115194   6.841   4.709   5.757
 4765SOL    HW215195   6.946   4.819   5.816
 4766SOL     OW15196   3.276   0.414   3.347
 4766SOL    HW115197   3.354   0.361   3.381
 4766SOL    HW215198   3.191   0.378   3.385
 4767SOL     OW15199   4.005   6.409   6.780
 4767SOL    HW115200   3.943   6.454   6.844
 4767SOL    HW215201   3.976   6.429   6.686
 4768SOL     OW15202   0.957   0.906   5.093
 4768SOL    HW115203   0.922   0.972   5.160
 4768SOL    HW215204   0.923   0.815   5.116
 4769SOL     OW15205   3.588   1.048   1.457
 4769SOL    HW115206   3.630   0.967   1.417
 4769SOL    HW215207   3.559   1.028   1.550
 4770SOL     OW15208   1.994   0.393   4.079
 4770SOL    HW115209   1.970   0.490   4.074
 4770SOL    HW215210   1.931   0.346   4.141
 4771SOL     OW15211   4.082   4.422   5.343
 4771SOL    HW115212   4.162   4.432   5.284
 4771SOL    HW215213   4.060   4.324   5.352
 4772SOL     OW15214   2.202   3.259   7.011
 4772SOL    HW115215   2.127   3.283   0.049
 4772SOL    HW215216   2.171   3.187   6.949
 4773SOL     OW15217   0.279   5.325   4.036
 4773SOL    HW115218   0.321   5.399   3.983
 4773SOL    HW215219   0.295   5.238   3.990
 4774SOL     OW15220   1.770   4.436   6.739
 4774SOL    HW115221   1.692   4.374   6.746
 4774SOL    HW215222   1.839   4.397   6.678
 4775SOL     OW15223   2.111   1.578   2.601
 4775SOL    HW115224   2.097   1.558   2.504
 4775SOL    HW215225   2.209   1.595   2.617
 4776SOL     OW15226   4.143   4.842   2.184
 4776SOL    HW115227   4.157   4.938   2.210
 4776SOL    HW215228   4.047   4.818   2.195
 4777SOL     OW15229   3.006   3.973   1.413
 4777SOL    HW115230   3.099   3.950   1.444
 4777SOL    HW215231   2.988   4.070   1.432
 4778SOL     OW15232   5.134   4.031   2.943
 4778SOL    HW115233   5.065   4.009   3.011
 4778SOL    HW215234   5.215   3.975   2.958
 4779SOL     OW15235   4.856   0.677   2.850
 4779SOL    HW115236   4.829   0.755   2.793
 4779SOL    HW215237   4.934   0.702   2.907
 4780SOL     OW15238   1.590   0.106   5.534
 4780SOL    HW115239   1.555   0.198   5.516
 4780SOL    HW215240   1.623   0.066   5.448
 4781SOL     OW15241   2.687   5.803   3.069
 4781SOL    HW115242   2.623   5.740   3.114
 4781SOL    HW215243   2.777   5.795   3.111
 4782SOL     OW15244   5.893   5.718   0.283
 4782SOL    HW115245   5.988   5.709   0.316
 4782SOL    HW215246   5.882   5.808   0.240
 4783SOL     OW15247   6.351   3.948   2.385
 4783SOL    HW115248   6.378   3.991   2.299
 4783SOL    HW215249   6.384   4.003   2.461
 4784SOL     OW15250   5.750   4.306   5.040
 4784SOL    HW115251   5.730   4.212   5.066
 4784SOL    HW215252   5.668   4.362   5.050
 4785SOL     OW15253   5.890   6.710   0.672
 4785SOL    HW115254   5.809   6.764   0.650
 4785SOL    HW215255   5.971   6.767   0.663
 4786SOL     OW15256   1.503   2.959   2.240
 4786SOL    HW115257   1.573   2.948   2.169
 4786SOL    HW215258   1.414   2.971   2.198
 4787SOL     OW15259   4.347   2.337   2.901
 4787SOL    HW115260   4.310   2.286   2.823
 4787SOL    HW215261   4.298   2.311   2.984
 4788SOL     OW15262   1.719   6.417   5.583
 4788SOL    HW115263   1.817   6.432   5.569
 4788SOL    HW215264   1.694   6.325   5.550
 4789SOL     OW15265   5.706   6.878   0.541
 4789SOL    HW115266   5.645   6.802   0.518
 4789SOL    HW215267   5.659   6.965   0.523
 4790SOL     OW15268   5.336   0.337   6.657
 4790SOL    HW115269   5.382   0.312   6.743
 4790SOL    HW215270   5.396   0.314   6.580
 4791SOL     OW15271   4.715   1.781   3.164
 4791SOL    HW115272   4.770   1.704   3.195
 4791SOL    HW215273   4.771   1.864   3.166
 4792SOL     OW15274   3.048   2.273   1.273
 4792SOL    HW115275   3.086   2.361   1.303
 4792SOL    HW215276   2.950   2.272   1.288
 4793SOL     OW15277   0.727   0.431   6.888
 4793SOL    HW115278   0.645   0.487   6.896
 4793SOL    HW215279   0.800   0.485   6.846
 4794SOL     OW15280   4.430   1.142   1.820
 4794SOL    HW115281   4.359   1.079   1.849
 4794SOL    HW215282   4.468   1.112   1.732
 4795SOL     OW15283   5.573   2.872   4.326
 4795SOL    HW115284   5.651   2.931   4.345
 4795SOL    HW215285   5.529   2.847   4.412
 4796SOL     OW15286   5.746   3.753   0.760
 4796SOL    HW115287   5.690   3.829   0.792
 4796SOL    HW215288   5.829   3.789   0.717
 4797SOL     OW15289   0.406   4.916   4.786
 4797SOL    HW115290   0.335   4.982   4.761
 4797SOL    HW215291   0.455   4.948   4.866
 4798SOL     OW15292   0.027   4.526   5.689
 4798SOL    HW115293   7.012   4.486   5.773
 4798SOL    HW215294   7.022   4.621   5.682
 4799SOL     OW15295   3.923   1.255   5.115
 4799SOL    HW115296   3.982   1.290   5.187
 4799SOL    HW215297   3.845   1.316   5.102
 4800SOL     OW15298   2.004   2.052   3.635
 4800SOL    HW115299   2.088   2.004   3.609
 4800SOL    HW215300   1.929   1.987   3.641
 4801SOL     OW15301   0.769   2.849   0.817
 4801SOL    HW115302   0.753   2.833   0.719
 4801SOL    HW215303   0.764   2.947   0.836
 4802SOL     OW15304   1.927   0.325   1.768
 4802SOL    HW115305   2.017   0.366   1.753
 4802SOL    HW215306   1.916   0.304   1.865
 4803SOL     OW15307   0.543   0.171   1.083
 4803SOL    HW115308   0.508   0.200   1.172
 4803SOL    HW215309   0.466   0.148   1.023
 4804SOL     OW15310   3.936   5.297   0.134
 4804SOL    HW115311   3.912   5.241   0.213
 4804SOL    HW215312   3.858   5.356   0.111
 4805SOL     OW15313   0.412   0.881   1.024
 4805SOL    HW115314   0.352   0.820   0.972
 4805SOL    HW215315   0.357   0.955   1.063
 4806SOL     OW15316   0.058   2.686   3.297
 4806SOL    HW115317   0.089   2.607   3.351
 4806SOL    HW215318   0.136   2.745   3.276
 4807SOL     OW15319   0.593   6.447   1.845
 4807SOL    HW115320   0.652   6.441   1.764
 4807SOL    HW215321   0.619   6.377   1.911
 4808SOL     OW15322   5.310   2.902   0.899
 4808SOL    HW115323   5.339   2.811   0.929
 4808SOL    HW215324   5.390   2.955   0.870
 4809SOL     OW15325   4.190   6.761   6.635
 4809SOL    HW115326   4.270   6.705   6.614
 4809SOL    HW215327   4.108   6.715   6.601
 4810SOL     OW15328   1.037   0.249   1.212
 4810SOL    HW115329   0.981   0.326   1.184
 4810SOL    HW215330   1.046   0.185   1.135
 4811SOL     OW15331   5.343   5.410   2.835
 4811SOL    HW115332   5.333   5.311   2.848
 4811SOL    HW215333   5.432   5.429   2.795
 4812SOL     OW15334   6.540   5.227   4.143
 4812SOL    HW115335   6.556   5.276   4.228
 4812SOL    HW215336   6.582   5.277   4.067
 4813SOL     OW15337   5.537   3.317   2.766
 4813SOL    HW115338   5.455   3.325   2.709
 4813SOL    HW215339   5.519   3.357   2.856
 4814SOL     OW15340   6.320   3.630   1.696
 4814SOL    HW115341   6.380   3.554   1.721
 4814SOL    HW215342   6.366   3.717   1.715
 4815SOL     OW15343   4.350   0.281   2.953
 4815SOL    HW115344   4.274   0.217   2.940
 4815SOL    HW215345   4.436   0.231   2.953
 4816SOL     OW15346   5.237   4.722   3.279
 4816SOL    HW115347   5.180   4.718   3.197
 4816SOL    HW215348   5.212   4.803   3.333
 4817SOL     OW15349   6.834   1.438   0.019
 4817SOL    HW115350   6.846   1.509   6.973
 4817SOL    HW215351   6.765   1.468   0.085
 4818SOL     OW15352   0.809   5.915   3.603
 4818SOL    HW115353   0.881   5.948   3.664
 4818SOL    HW215354   0.719   5.932   3.644
 4819SOL     OW15355   2.021   3.278   0.975
 4819SOL    HW115356   2.100   3.338   0.988
 4819SOL    HW215357   1.987   3.248   1.064
 4820SOL     OW15358   0.340   2.943   2.827
 4820SOL    HW115359   0.435   2.970   2.846
 4820SOL    HW215360   0.319   2.958   2.730
 4821SOL     OW15361   0.600   5.563   3.624
 4821SOL    HW115362   0.682   5.545   3.677
 4821SOL    HW215363   0.622   5.563   3.527
 4822SOL     OW15364   2.355   4.420   4.287
 4822SOL    HW115365   2.377   4.340   4.343
 4822SOL    HW215366   2.391   4.503   4.331
 4823SOL     OW15367   1.699   3.046   1.025
 4823SOL    HW115368   1.694   3.117   0.954
 4823SOL    HW215369   1.691   2.956   0.982
 4824SOL     OW15370   6.129   1.547   0.083
 4824SOL    HW115371   6.049   1.570   0.027
 4824SOL    HW215372   6.106   1.471   0.144
 4825SOL     OW15373   1.475   6.947   3.598
 4825SOL    HW115374   1.521   0.006   3.630
 4825SOL    HW215375   1.539   6.870   3.605
 4826SOL     OW15376   3.559   6.283   1.043
 4826SOL    HW115377   3.536   6.338   0.962
 4826SOL    HW215378   3.636   6.224   1.022
 4827SOL     OW15379   6.900   1.694   1.307
 4827SOL    HW115380   6.853   1.747   1.236
 4827SOL    HW215381   6.839   1.681   1.384
 4828SOL     OW15382   5.298   1.567   5.686
 4828SOL    HW115383   5.234   1.644   5.684
 4828SOL    HW215384   5.292   1.521   5.775
 4829SOL     OW15385   4.081   6.274   5.287
 4829SOL    HW115386   4.051   6.366   5.260
 4829SOL    HW215387   4.019   6.206   5.248
 4830SOL     OW15388   1.988   6.358   3.658
 4830SOL    HW115389   2.011   6.396   3.748
 4830SOL    HW215390   2.054   6.390   3.590
 4831SOL     OW15391   3.138   4.848   5.440
 4831SOL    HW115392   3.115   4.761   5.396
 4831SOL    HW215393   3.065   4.872   5.504
 4832SOL     OW15394   4.131   3.640   4.441
 4832SOL    HW115395   4.106   3.737   4.439
 4832SOL    HW215396   4.131   3.604   4.348
 4833SOL     OW15397   6.490   2.666   5.197
 4833SOL    HW115398   6.553   2.632   5.267
 4833SOL    HW215399   6.396   2.646   5.225
 4834SOL     OW15400   1.256   5.276   1.679
 4834SOL    HW115401   1.309   5.335   1.618
 4834SOL    HW215402   1.172   5.247   1.633
 4835SOL     OW15403   0.285   3.202   6.549
 4835SOL    HW115404   0.361   3.183   6.612
 4835SOL    HW215405   0.220   3.126   6.552
 4836SOL     OW15406   4.262   2.092   5.763
 4836SOL    HW115407   4.243   2.185   5.734
 4836SOL    HW215408   4.202   2.028   5.714
 4837SOL     OW15409   1.159   3.619   4.450
 4837SOL    HW115410   1.220   3.691   4.418
 4837SOL    HW215411   1.213   3.537   4.474
 4838SOL     OW15412   1.861   3.856   6.093
 4838SOL    HW115413   1.801   3.846   6.013
 4838SOL    HW215414   1.811   3.904   6.166
 4839SOL     OW15415   2.712   1.015   1.043
 4839SOL    HW115416   2.769   1.061   1.111
 4839SOL    HW215417   2.668   0.935   1.085
 4840SOL     OW15418   5.081   3.264   5.206
 4840SOL    HW115419   5.108   3.292   5.114
 4840SOL    HW215420   5.020   3.334   5.246
 4841SOL     OW15421   2.679   6.837   2.896
 4841SOL    HW115422   2.747   6.911   2.889
 4841SOL    HW215423   2.673   6.790   2.808
 4842SOL     OW15424   3.748   5.787   3.482
 4842SOL    HW115425   3.713   5.737   3.402
 4842SOL    HW215426   3.779   5.877   3.454
 4843SOL     OW15427   6.351   1.341   0.632
 4843SOL    HW115428   6.278   1.398   0.670
 4843SOL    HW215429   6.398   1.294   0.707
 4844SOL     OW15430   1.357   5.790   6.518
 4844SOL    HW115431   1.356   5.799   6.419
 4844SOL    HW215432   1.275   5.833   6.557
 4845SOL     OW15433   4.823   3.852   5.135
 4845SOL    HW115434   4.784   3.909   5.063
 4845SOL    HW215435   4.842   3.760   5.099
 4846SOL     OW15436   6.463   3.653   4.942
 4846SOL    HW115437   6.386   3.689   4.889
 4846SOL    HW215438   6.513   3.586   4.887
 4847SOL     OW15439   2.898   6.965   6.809
 4847SOL    HW115440   2.874   6.983   6.714
 4847SOL    HW215441   2.884   6.868   6.829
 4848SOL     OW15442   4.600   1.820   3.643
 4848SOL    HW115443   4.639   1.750   3.583
 4848SOL    HW215444   4.520   1.781   3.690
 4849SOL     OW15445   2.105   6.611   1.574
 4849SOL    HW115446   2.167   6.660   1.512
 4849SOL    HW215447   2.023   6.666   1.590
 4850SOL     OW15448   3.381   6.475   1.627
 4850SOL    HW115449   3.360   6.500   1.532
 4850SOL    HW215450   3.344   6.383   1.646
 4851SOL     OW15451   4.159   4.594   6.911
 4851SOL    HW115452   4.180   4.551   6.999
 4851SOL    HW215453   4.094   4.669   6.925
 4852SOL     OW15454   5.039   5.170   5.849
 4852SOL    HW115455   5.076   5.116   5.774
 4852SOL    HW215456   4.945   5.198   5.827
 4853SOL     OW15457   4.267   0.515   2.849
 4853SOL    HW115458   4.330   0.540   2.775
 4853SOL    HW215459   4.311   0.447   2.908
 4854SOL     OW15460   4.593   6.695   2.531
 4854SOL    HW115461   4.579   6.788   2.497
 4854SOL    HW215462   4.636   6.639   2.460
 4855SOL     OW15463   4.948   5.439   5.449
 4855SOL    HW115464   4.932   5.423   5.546
 4855SOL    HW215465   4.896   5.373   5.395
 4856SOL     OW15466   0.085   3.156   3.110
 4856SOL    HW115467   0.039   3.069   3.092
 4856SOL    HW215468   0.067   3.185   3.204
 4857SOL     OW15469   2.179   2.663   4.792
 4857SOL    HW115470   2.204   2.568   4.812
 4857SOL    HW215471   2.110   2.665   4.720
 4858SOL     OW15472   1.333   6.048   4.978
 4858SOL    HW115473   1.414   6.029   4.922
 4858SOL    HW215474   1.306   6.144   4.965
 4859SOL     OW15475   6.762   5.653   3.393
 4859SOL    HW115476   6.750   5.719   3.467
 4859SOL    HW215477   6.830   5.584   3.420
 4860SOL     OW15478   3.628   5.503   1.928
 4860SOL    HW115479   3.529   5.505   1.913
 4860SOL    HW215480   3.653   5.417   1.974
 4861SOL     OW15481   0.384   4.542   5.673
 4861SOL    HW115482   0.391   4.468   5.740
 4861SOL    HW215483   0.336   4.620   5.715
 4862SOL     OW15484   1.753   6.296   4.389
 4862SOL    HW115485   1.807   6.220   4.355
 4862SOL    HW215486   1.715   6.273   4.479
 4863SOL     OW15487   5.826   1.503   1.824
 4863SOL    HW115488   5.792   1.477   1.733
 4863SOL    HW215489   5.850   1.600   1.824
 4864SOL     OW15490   2.497   2.234   1.206
 4864SOL    HW115491   2.474   2.246   1.110
 4864SOL    HW215492   2.440   2.293   1.263
 4865SOL     OW15493   3.916   6.603   4.738
 4865SOL    HW115494   3.890   6.509   4.759
 4865SOL    HW215495   3.950   6.648   4.821
 4866SOL     OW15496   0.609   5.439   1.536
 4866SOL    HW115497   0.536   5.371   1.534
 4866SOL    HW215498   0.684   5.409   1.477
 4867SOL     OW15499   5.406   4.919   4.780
 4867SOL    HW115500   5.423   4.852   4.852
 4867SOL    HW215501   5.477   4.911   4.710
 4868SOL     OW15502   1.573   5.418   1.954
 4868SOL    HW115503   1.616   5.493   1.904
 4868SOL    HW215504   1.475   5.435   1.962
 4869SOL     OW15505   6.622   1.635   1.986
 4869SOL    HW115506   6.661   1.572   2.053
 4869SOL    HW215507   6.607   1.724   2.029
 4870SOL     OW15508   5.857   1.044   1.034
 4870SOL    HW115509   5.946   1.018   0.996
 4870SOL    HW215510   5.858   1.031   1.133
 4871SOL     OW15511   1.505   3.860   4.574
 4871SOL    HW115512   1.417   3.899   4.548
 4871SOL    HW215513   1.564   3.932   4.612
 4872SOL     OW15514   1.235   1.362   3.954
 4872SOL    HW115515   1.331   1.349   3.929
 4872SOL    HW215516   1.213   1.303   4.032
 4873SOL     OW15517   1.259   6.572   5.352
 4873SOL    HW115518   1.312   6.488   5.358
 4873SOL    HW215519   1.206   6.584   5.436
 4874SOL     OW15520   6.207   2.543   3.174
 4874SOL    HW115521   6.293   2.506   3.141
 4874SOL    HW215522   6.136   2.529   3.105
 4875SOL     OW15523   0.053   2.982   6.114
 4875SOL    HW115524   0.043   2.883   6.120
 4875SOL    HW215525   0.005   3.025   6.191
 4876SOL     OW15526   6.932   1.587   6.822
 4876SOL    HW115527   0.002   1.621   6.808
 4876SOL    HW215528   6.895   1.557   6.734
 4877SOL     OW15529   5.770   1.155   1.616
 4877SOL    HW115530   5.672   1.149   1.594
 4877SOL    HW215531   5.793   1.084   1.683
 4878SOL     OW15532   0.625   3.093   1.519
 4878SOL    HW115533   0.635   3.182   1.474
 4878SOL    HW215534   0.702   3.077   1.580
 4879SOL     OW15535   4.410   5.897   3.161
 4879SOL    HW115536   4.454   5.820   3.206
 4879SOL    HW215537   4.311   5.887   3.165
 4880SOL     OW15538   5.931   1.842   5.509
 4880SOL    HW115539   5.853   1.865   5.452
 4880SOL    HW215540   6.008   1.813   5.451
 4881SOL     OW15541   2.872   5.744   5.874
 4881SOL    HW115542   2.955   5.698   5.841
 4881SOL    HW215543   2.795   5.720   5.815
 4882SOL     OW15544   5.040   6.291   0.131
 4882SOL    HW115545   5.130   6.299   0.088
 4882SOL    HW215546   4.972   6.263   0.063
 4883SOL     OW15547   6.306   5.112   6.470
 4883SOL    HW115548   6.349   5.167   6.398
 4883SOL    HW215549   6.305   5.016   6.442
 4884SOL     OW15550   4.307   6.728   1.887
 4884SOL    HW115551   4.290   6.777   1.801
 4884SOL    HW215552   4.386   6.669   1.877
 4885SOL     OW15553   2.066   0.009   2.477
 4885SOL    HW115554   2.019   6.981   2.549
 4885SOL    HW215555   2.149   0.051   2.516
 4886SOL     OW15556   5.920   0.935   5.720
 4886SOL    HW115557   6.008   0.888   5.731
 4886SOL    HW215558   5.935   1.034   5.723
 4887SOL     OW15559   0.582   1.862   5.304
 4887SOL    HW115560   0.640   1.794   5.259
 4887SOL    HW215561   0.549   1.927   5.236
 4888SOL     OW15562   3.444   6.118   1.858
 4888SOL    HW115563   3.348   6.145   1.844
 4888SOL    HW215564   3.466   6.042   1.797
 4889SOL     OW15565   1.299   3.519   6.622
 4889SOL    HW115566   1.269   3.596   6.678
 4889SOL    HW215567   1.330   3.444   6.681
 4890SOL     OW15568   0.235   0.535   4.150
 4890SOL    HW115569   0.195   0.506   4.237
 4890SOL    HW215570   0.318   0.587   4.167
 4891SOL     OW15571   1.249   4.588   0.840
 4891SOL    HW115572   1.203   4.520   0.896
 4891SOL    HW215573   1.311   4.542   0.776
 4892SOL     OW15574   2.039   5.386   2.389
 4892SOL    HW115575   1.983   5.386   2.307
 4892SOL    HW215576   1.994   5.440   2.460
 4893SOL     OW15577   0.422   3.952   6.809
 4893SOL    HW115578   0.490   3.900   6.859
 4893SOL    HW215579   0.331   3.911   6.822
 4894SOL     OW15580   0.856   0.193   2.811
 4894SOL    HW115581   0.923   0.243   2.756
 4894SOL    HW215582   0.904   0.135   2.877
 4895SOL     OW15583   5.691   4.204   6.754
 4895SOL    HW115584   5.691   4.107   6.777
 4895SOL    HW215585   5.628   4.221   6.679
 4896SOL     OW15586   4.320   6.547   3.683
 4896SOL    HW115587   4.303   6.559   3.585
 4896SOL    HW215588   4.238   6.512   3.727
 4897SOL     OW15589   2.335   5.806   6.663
 4897SOL    HW115590   2.264   5.779   6.729
 4897SOL    HW215591   2.316   5.898   6.630
 4898SOL     OW15592   6.217   1.830   4.681
 4898SOL    HW115593   6.272   1.778   4.616
 4898SOL    HW215594   6.120   1.823   4.656
 4899SOL     OW15595   5.002   4.788   4.457
 4899SOL    HW115596   4.968   4.695   4.448
 4899SOL    HW215597   5.079   4.802   4.393
 4900SOL     OW15598   0.675   6.418   4.684
 4900SOL    HW115599   0.716   6.448   4.598
 4900SOL    HW215600   0.705   6.478   4.758
 4901SOL     OW15601   0.213   6.577   3.107
 4901SOL    HW115602   0.197   6.505   3.175
 4901SOL    HW215603   0.148   6.567   3.032
 4902SOL     OW15604   3.177   4.459   1.285
 4902SOL    HW115605   3.232   4.542   1.299
 4902SOL    HW215606   3.238   4.379   1.279
 4903SOL     OW15607   5.512   5.392   6.016
 4903SOL    HW115608   5.451   5.436   5.951
 4903SOL    HW215609   5.607   5.411   5.990
 4904SOL     OW15610   2.638   0.209   3.388
 4904SOL    HW115611   2.649   0.126   3.334
 4904SOL    HW215612   2.678   0.286   3.338
 4905SOL     OW15613   6.409   2.937   3.185
 4905SOL    HW115614   6.400   3.037   3.185
 4905SOL    HW215615   6.322   2.895   3.160
 4906SOL     OW15616   4.962   0.646   0.969
 4906SOL    HW115617   5.024   0.724   0.968
 4906SOL    HW215618   4.870   0.677   0.945
 4907SOL     OW15619   2.592   1.711   2.027
 4907SOL    HW115620   2.492   1.704   2.017
 4907SOL    HW215621   2.635   1.635   1.978
 4908SOL     OW15622   4.205   6.076   0.683
 4908SOL    HW115623   4.265   6.007   0.723
 4908SOL    HW215624   4.196   6.060   0.585
 4909SOL     OW15625   6.615   0.192   5.092
 4909SOL    HW115626   6.655   0.117   5.145
 4909SOL    HW215627   6.633   0.279   5.139
 4910SOL     OW15628   5.921   6.634   6.065
 4910SOL    HW115629   5.842   6.695   6.060
 4910SOL    HW215630   5.894   6.548   6.109
 4911SOL     OW15631   0.898   4.002   6.625
 4911SOL    HW115632   0.798   4.001   6.625
 4911SOL    HW215633   0.932   3.961   6.540
 4912SOL     OW15634   2.346   2.484   1.565
 4912SOL    HW115635   2.279   2.537   1.514
 4912SOL    HW215636   2.363   2.527   1.654
 4913SOL     OW15637   2.768   3.047   1.787
 4913SOL    HW115638   2.826   3.098   1.849
 4913SOL    HW215639   2.697   3.107   1.750
 4914SOL     OW15640   1.338   0.079   2.295
 4914SOL    HW115641   1.406   0.015   2.330
 4914SOL    HW215642   1.369   0.173   2.310
 4915SOL     OW15643   2.871   6.438   3.150
 4915SOL    HW115644   2.917   6.521   3.119
 4915SOL    HW215645   2.858   6.442   3.249
 4916SOL     OW15646   1.770   1.971   2.543
 4916SOL    HW115647   1.825   2.054   2.544
 4916SOL    HW215648   1.721   1.964   2.456
 4917SOL     OW15649   1.976   4.259   5.997
 4917SOL    HW115650   1.898   4.215   6.042
 4917SOL    HW215651   1.957   4.357   5.985
 4918SOL     OW15652   2.135   0.336   3.858
 4918SOL    HW115653   2.231   0.336   3.886
 4918SOL    HW215654   2.077   0.344   3.939
 4919SOL     OW15655   2.589   3.305   1.728
 4919SOL    HW115656   2.519   3.345   1.787
 4919SOL    HW215657   2.664   3.371   1.716
 4920SOL     OW15658   3.431   0.839   0.038
 4920SOL    HW115659   3.366   0.803   6.996
 4920SOL    HW215660   3.489   0.764   0.072
 4921SOL     OW15661   0.024   4.756   1.517
 4921SOL    HW115662   0.086   4.769   1.440
 4921SOL    HW215663   0.059   4.684   1.577
 4922SOL     OW15664   1.071   2.777   6.096
 4922SOL    HW115665   1.015   2.720   6.156
 4922SOL    HW215666   1.069   2.739   6.003
 4923SOL     OW15667   2.784   2.337   6.858
 4923SOL    HW115668   2.812   2.306   6.767
 4923SOL    HW215669   2.863   2.336   6.919
 4924SOL     OW15670   6.917   3.596   4.433
 4924SOL    HW115671   6.828   3.596   4.479
 4924SOL    HW215672   6.904   3.615   4.335
 4925SOL     OW15673   4.698   5.875   6.127
 4925SOL    HW115674   4.793   5.843   6.134
 4925SOL    HW215675   4.682   5.911   6.035
 4926SOL     OW15676   4.263   3.264   0.593
 4926SOL    HW115677   4.278   3.343   0.534
 4926SOL    HW215678   4.219   3.293   0.678
 4927SOL     OW15679   2.935   3.375   2.089
 4927SOL    HW115680   2.852   3.403   2.136
 4927SOL    HW215681   3.014   3.426   2.124
 4928SOL     OW15682   0.583   0.559   0.430
 4928SOL    HW115683   0.605   0.462   0.423
 4928SOL    HW215684   0.573   0.598   0.339
 4929SOL     OW15685   1.239   4.790   4.335
 4929SOL    HW115686   1.271   4.801   4.429
 4929SOL    HW215687   1.316   4.761   4.277
 4930SOL     OW15688   0.195   3.086   0.322
 4930SOL    HW115689   0.163   3.007   0.374
 4930SOL    HW215690   0.253   3.056   0.247
 4931SOL     OW15691   6.137   6.376   1.312
 4931SOL    HW115692   6.092   6.440   1.374
 4931SOL    HW215693   6.128   6.283   1.348
 4932SOL     OW15694   3.278   1.410   1.173
 4932SOL    HW115695   3.200   1.451   1.219
 4932SOL    HW215696   3.357   1.472   1.179
 4933SOL     OW15697   3.031   0.156   4.868
 4933SOL    HW115698   2.943   0.109   4.881
 4933SOL    HW215699   3.018   0.234   4.808
 4934SOL     OW15700   2.405   5.877   5.301
 4934SOL    HW115701   2.409   5.781   5.274
 4934SOL    HW215702   2.497   5.909   5.325
 4935SOL     OW15703   2.089   1.991   0.490
 4935SOL    HW115704   2.027   1.926   0.536
 4935SOL    HW215705   2.089   2.077   0.540
 4936SOL     OW15706   5.325   5.450   1.189
 4936SOL    HW115707   5.308   5.381   1.119
 4936SOL    HW215708   5.297   5.414   1.278
 4937SOL     OW15709   1.008   3.448   4.672
 4937SOL    HW115710   1.030   3.503   4.753
 4937SOL    HW215711   1.093   3.421   4.626
 4938SOL     OW15712   3.392   4.658   1.689
 4938SOL    HW115713   3.367   4.753   1.669
 4938SOL    HW215714   3.473   4.657   1.748
 4939SOL     OW15715   0.927   1.439   0.899
 4939SOL    HW115716   0.841   1.434   0.848
 4939SOL    HW215717   1.000   1.470   0.838
 4940SOL     OW15718   0.987   1.861   5.697
 4940SOL    HW115719   1.065   1.798   5.691
 4940SOL    HW215720   0.950   1.876   5.605
 4941SOL     OW15721   3.972   2.568   5.383
 4941SOL    HW115722   4.044   2.553   5.316
 4941SOL    HW215723   3.936   2.480   5.413
 4942SOL     OW15724   0.068   1.435   3.325
 4942SOL    HW115725   6.999   1.403   3.342
 4942SOL    HW215726   0.071   1.482   3.237
 4943SOL     OW15727   4.957   2.402   6.875
 4943SOL    HW115728   5.055   2.419   6.882
 4943SOL    HW215729   4.935   2.365   6.785
 4944SOL     OW15730   1.057   4.818   0.401
 4944SOL    HW115731   0.976   4.869   0.373
 4944SOL    HW215732   1.030   4.745   0.463
 4945SOL     OW15733   2.830   0.121   5.710
 4945SOL    HW115734   2.900   0.185   5.742
 4945SOL    HW215735   2.782   0.082   5.789
 4946SOL     OW15736   2.707   5.619   0.093
 4946SOL    HW115737   2.641   5.544   0.082
 4946SOL    HW215738   2.788   5.599   0.038
 4947SOL     OW15739   0.587   0.442   0.735
 4947SOL    HW115740   0.570   0.532   0.774
 4947SOL    HW215741   0.632   0.451   0.647
 4948SOL     OW15742   1.637   2.258   1.854
 4948SOL    HW115743   1.732   2.274   1.828
 4948SOL    HW215744   1.584   2.235   1.773
 4949SOL     OW15745   6.978   4.280   5.900
 4949SOL    HW115746   7.019   4.330   5.976
 4949SOL    HW215747   6.904   4.222   5.934
 4950SOL     OW15748   3.831   4.354   5.701
 4950SOL    HW115749   3.873   4.430   5.651
 4950SOL    HW215750   3.818   4.380   5.797
 4951SOL     OW15751   4.962   5.288   2.875
 4951SOL    HW115752   5.025   5.331   2.810
 4951SOL    HW215753   4.929   5.201   2.836
 4952SOL     OW15754   1.300   1.013   6.908
 4952SOL    HW115755   1.263   1.102   6.936
 4952SOL    HW215756   1.394   1.005   6.940
 4953SOL     OW15757   1.227   2.135   4.831
 4953SOL    HW115758   1.206   2.233   4.823
 4953SOL    HW215759   1.270   2.103   4.747
 4954SOL     OW15760   2.973   3.953   5.344
 4954SOL    HW115761   2.873   3.953   5.354
 4954SOL    HW215762   3.002   4.039   5.302
 4955SOL     OW15763   3.760   5.881   6.611
 4955SOL    HW115764   3.748   5.927   6.699
 4955SOL    HW215765   3.855   5.890   6.581
 4956SOL     OW15766   2.827   7.000   4.963
 4956SOL    HW115767   2.897   6.976   5.030
 4956SOL    HW215768   2.739   6.960   4.992
 4957SOL     OW15769   5.801   4.997   6.893
 4957SOL    HW115770   5.737   5.063   6.853
 4957SOL    HW215771   5.838   5.033   6.978
 4958SOL     OW15772   3.363   5.313   0.566
 4958SOL    HW115773   3.411   5.274   0.645
 4958SOL    HW215774   3.372   5.252   0.487
 4959SOL     OW15775   6.527   2.380   2.717
 4959SOL    HW115776   6.602   2.324   2.752
 4959SOL    HW215777   6.440   2.334   2.735
 4960SOL     OW15778   5.088   4.498   3.769
 4960SOL    HW115779   5.183   4.522   3.790
 4960SOL    HW215780   5.048   4.568   3.709
 4961SOL     OW15781   3.652   2.507   1.702
 4961SOL    HW115782   3.592   2.483   1.625
 4961SOL    HW215783   3.668   2.426   1.758
 4962SOL     OW15784   1.541   2.859   0.377
 4962SOL    HW115785   1.476   2.797   0.422
 4962SOL    HW215786   1.497   2.904   0.300
 4963SOL     OW15787   0.864   4.184   6.163
 4963SOL    HW115788   0.941   4.227   6.211
 4963SOL    HW215789   0.898   4.137   6.082
 4964SOL     OW15790   1.841   5.394   4.663
 4964SOL    HW115791   1.770   5.463   4.678
 4964SOL    HW215792   1.907   5.429   4.596
 4965SOL     OW15793   2.087   6.704   3.091
 4965SOL    HW115794   2.158   6.651   3.137
 4965SOL    HW215795   2.098   6.696   2.992
 4966SOL     OW15796   4.338   0.083   5.337
 4966SOL    HW115797   4.326   0.136   5.421
 4966SOL    HW215798   4.307   0.136   5.259
 4967SOL     OW15799   4.112   4.801   4.326
 4967SOL    HW115800   4.052   4.750   4.387
 4967SOL    HW215801   4.203   4.759   4.325
 4968SOL     OW15802   0.079   2.928   3.689
 4968SOL    HW115803   7.008   2.902   3.673
 4968SOL    HW215804   0.083   3.024   3.718
 4969SOL     OW15805   0.402   6.117   3.916
 4969SOL    HW115806   0.475   6.178   3.886
 4969SOL    HW215807   0.438   6.054   3.985
 4970SOL     OW15808   1.974   1.533   1.487
 4970SOL    HW115809   1.939   1.601   1.422
 4970SOL    HW215810   1.953   1.561   1.580
 4971SOL     OW15811   0.248   6.180   1.743
 4971SOL    HW115812   0.304   6.152   1.820
 4971SOL    HW215813   0.307   6.223   1.673
 4972SOL     OW15814   0.676   4.364   0.350
 4972SOL    HW115815   0.589   4.410   0.331
 4972SOL    HW215816   0.742   4.388   0.279
 4973SOL     OW15817   5.899   1.250   0.479
 4973SOL    HW115818   5.850   1.207   0.403
 4973SOL    HW215819   5.862   1.217   0.566
 4974SOL     OW15820   3.468   0.067   4.773
 4974SOL    HW115821   3.517   7.005   4.790
 4974SOL    HW215822   3.387   0.048   4.717
 4975SOL     OW15823   5.249   4.670   1.050
 4975SOL    HW115824   5.246   4.758   1.096
 4975SOL    HW215825   5.323   4.669   0.983
 4976SOL     OW15826   0.767   6.830   3.611
 4976SOL    HW115827   0.826   6.841   3.692
 4976SOL    HW215828   0.688   6.890   3.619
 4977SOL     OW15829   1.701   3.811   5.823
 4977SOL    HW115830   1.637   3.787   5.750
 4977SOL    HW215831   1.787   3.842   5.783
 4978SOL     OW15832   6.172   4.529   4.491
 4978SOL    HW115833   6.125   4.443   4.471
 4978SOL    HW215834   6.184   4.581   4.406
 4979SOL     OW15835   2.363   6.840   6.618
 4979SOL    HW115836   2.367   6.877   6.710
 4979SOL    HW215837   2.439   6.775   6.605
 4980SOL     OW15838   5.766   2.818   4.009
 4980SOL    HW115839   5.757   2.793   4.106
 4980SOL    HW215840   5.713   2.901   3.991
 4981SOL     OW15841   3.404   5.668   3.166
 4981SOL    HW115842   3.483   5.610   3.184
 4981SOL    HW215843   3.332   5.613   3.123
 4982SOL     OW15844   3.676   2.095   5.150
 4982SOL    HW115845   3.675   2.185   5.195
 4982SOL    HW215846   3.588   2.049   5.166
 4983SOL     OW15847   5.928   4.145   2.425
 4983SOL    HW115848   5.920   4.162   2.523
 4983SOL    HW215849   5.967   4.054   2.410
 4984SOL     OW15850   4.924   3.823   4.767
 4984SOL    HW115851   4.981   3.764   4.709
 4984SOL    HW215852   4.891   3.770   4.846
 4985SOL     OW15853   5.836   0.667   2.335
 4985SOL    HW115854   5.904   0.668   2.409
 4985SOL    HW215855   5.837   0.577   2.291
 4986SOL     OW15856   0.700   5.465   1.103
 4986SOL    HW115857   0.704   5.484   1.201
 4986SOL    HW215858   0.717   5.368   1.087
 4987SOL     OW15859   1.702   1.698   2.924
 4987SOL    HW115860   1.751   1.630   2.869
 4987SOL    HW215861   1.714   1.789   2.882
 4988SOL     OW15862   6.406   5.561   3.884
 4988SOL    HW115863   6.473   5.489   3.904
 4988SOL    HW215864   6.370   5.597   3.970
 4989SOL     OW15865   5.808   0.048   3.562
 4989SOL    HW115866   5.763   0.136   3.545
 4989SOL    HW215867   5.750   7.015   3.620
 4990SOL     OW15868   4.587   2.079   6.162
 4990SOL    HW115869   4.488   2.089   6.170
 4990SOL    HW215870   4.631   2.120   6.242
 4991SOL     OW15871   1.639   5.737   5.979
 4991SOL    HW115872   1.718   5.731   5.917
 4991SOL    HW215873   1.663   5.695   6.067
 4992SOL     OW15874   1.279   3.820   4.254
 4992SOL    HW115875   1.314   3.911   4.277
 4992SOL    HW215876   1.318   3.791   4.166
 4993SOL     OW15877   2.384   6.269   4.032
 4993SOL    HW115878   2.390   6.257   3.933
 4993SOL    HW215879   2.427   6.355   4.057
 4994SOL     OW15880   4.257   5.273   5.690
 4994SOL    HW115881   4.234   5.368   5.708
 4994SOL    HW215882   4.194   5.213   5.740
 4995SOL     OW15883   0.404   0.714   6.083
 4995SOL    HW115884   0.438   0.766   6.162
 4995SOL    HW215885   0.468   0.725   6.006
 4996SOL     OW15886   0.045   0.842   4.008
 4996SOL    HW115887   0.138   0.868   3.984
 4996SOL    HW215888   0.041   0.820   4.106
 4997SOL     OW15889   3.863   1.329   0.669
 4997SOL    HW115890   3.857   1.266   0.591
 4997SOL    HW215891   3.955   1.325   0.708
 4998SOL     OW15892   0.780   3.570   3.516
 4998SOL    HW115893   0.770   3.657   3.467
 4998SOL    HW215894   0.709   3.507   3.487
 4999SOL     OW15895   0.836   2.609   3.700
 4999SOL    HW115896   0.928   2.635   3.671
 4999SOL    HW215897   0.781   2.587   3.620
 5000SOL     OW15898   2.615   6.766   3.474
 5000SOL    HW115899   2.687   6.767   3.404
 5000SOL    HW215900   2.542   6.829   3.448
 5001SOL     OW15901   0.201   6.012   3.301
 5001SOL    HW115902   0.210   6.111   3.292
 5001SOL    HW215903   0.106   5.986   3.281
 5002SOL     OW15904   1.413   4.753   4.102
 5002SOL    HW115905   1.339   4.786   4.044
 5002SOL    HW215906   1.418   4.653   4.096
 5003SOL     OW15907   3.837   0.653   2.776
 5003SOL    HW115908   3.912   0.606   2.822
 5003SOL    HW215909   3.756   0.595   2.777
 5004SOL     OW15910   3.746   6.080   0.093
 5004SOL    HW115911   3.799   6.068   0.009
 5004SOL    HW215912   3.749   5.996   0.147
 5005SOL     OW15913   3.085   2.481   0.765
 5005SOL    HW115914   3.170   2.479   0.713
 5005SOL    HW215915   3.068   2.574   0.798
 5006SOL     OW15916   5.231   1.179   2.469
 5006SOL    HW115917   5.315   1.230   2.453
 5006SOL    HW215918   5.168   1.194   2.393
 5007SOL     OW15919   6.149   5.732   1.783
 5007SOL    HW115920   6.222   5.766   1.843
 5007SOL    HW215921   6.090   5.670   1.835
 5008SOL     OW15922   5.444   0.666   3.423
 5008SOL    HW115923   5.533   0.621   3.420
 5008SOL    HW215924   5.374   0.603   3.390
 5009SOL     OW15925   0.087   2.206   0.771
 5009SOL    HW115926   0.054   2.286   0.822
 5009SOL    HW215927   0.047   2.123   0.809
 5010SOL     OW15928   4.458   3.778   1.234
 5010SOL    HW115929   4.415   3.804   1.320
 5010SOL    HW215930   4.506   3.857   1.196
 5011SOL     OW15931   1.632   2.931   6.435
 5011SOL    HW115932   1.613   3.027   6.456
 5011SOL    HW215933   1.700   2.926   6.362
 5012SOL     OW15934   6.082   1.237   6.333
 5012SOL    HW115935   5.987   1.260   6.350
 5012SOL    HW215936   6.096   1.139   6.351
 5013SOL     OW15937   5.173   6.965   5.822
 5013SOL    HW115938   5.228   6.966   5.906
 5013SOL    HW215939   5.117   0.024   5.819
 5014SOL     OW15940   5.329   3.154   1.303
 5014SOL    HW115941   5.350   3.066   1.346
 5014SOL    HW215942   5.314   3.140   1.205
 5015SOL     OW15943   6.239   5.572   4.396
 5015SOL    HW115944   6.248   5.663   4.437
 5015SOL    HW215945   6.193   5.511   4.460
 5016SOL     OW15946   1.828   3.310   6.145
 5016SOL    HW115947   1.819   3.405   6.173
 5016SOL    HW215948   1.739   3.264   6.153
 5017SOL     OW15949   0.324   3.065   1.837
 5017SOL    HW115950   0.319   3.083   1.739
 5017SOL    HW215951   0.247   3.007   1.864
 5018SOL     OW15952   1.111   0.721   6.794
 5018SOL    HW115953   1.131   0.752   6.887
 5018SOL    HW215954   1.195   0.686   6.751
 5019SOL     OW15955   1.615   4.337   4.238
 5019SOL    HW115956   1.594   4.301   4.328
 5019SOL    HW215957   1.530   4.349   4.187
 5020SOL     OW15958   2.203   0.134   4.415
 5020SOL    HW115959   2.235   0.217   4.369
 5020SOL    HW215960   2.278   0.094   4.468
 5021SOL     OW15961   2.384   1.008   1.242
 5021SOL    HW115962   2.441   1.075   1.290
 5021SOL    HW215963   2.356   1.046   1.153
 5022SOL     OW15964   6.802   2.905   1.015
 5022SOL    HW115965   6.743   2.896   0.934
 5022SOL    HW215966   6.750   2.880   1.096
 5023SOL     OW15967   0.530   4.145   2.653
 5023SOL    HW115968   0.598   4.143   2.726
 5023SOL    HW215969   0.471   4.065   2.660
 5024SOL     OW15970   4.631   3.760   0.963
 5024SOL    HW115971   4.622   3.661   0.977
 5024SOL    HW215972   4.675   3.801   1.043
 5025SOL     OW15973   4.626   1.540   4.667
 5025SOL    HW115974   4.582   1.603   4.732
 5025SOL    HW215975   4.663   1.461   4.717
 5026SOL     OW15976   5.241   6.549   4.473
 5026SOL    HW115977   5.320   6.607   4.490
 5026SOL    HW215978   5.161   6.606   4.455
 5027SOL     OW15979   5.373   6.349   0.783
 5027SOL    HW115980   5.330   6.260   0.797
 5027SOL    HW215981   5.360   6.405   0.865
 5028SOL     OW15982   5.773   2.119   2.089
 5028SOL    HW115983   5.792   2.150   1.995
 5028SOL    HW215984   5.732   2.194   2.140
 5029SOL     OW15985   5.573   1.781   1.989
 5029SOL    HW115986   5.474   1.770   1.981
 5029SOL    HW215987   5.617   1.691   1.984
 5030SOL     OW15988   0.720   3.528   6.681
 5030SOL    HW115989   0.661   3.598   6.639
 5030SOL    HW215990   0.812   3.534   6.641
 5031SOL     OW15991   6.342   0.233   6.063
 5031SOL    HW115992   6.314   0.323   6.096
 5031SOL    HW215993   6.440   0.221   6.080
 5032SOL     OW15994   2.769   3.458   5.747
 5032SOL    HW115995   2.857   3.506   5.738
 5032SOL    HW215996   2.764   3.386   5.679
 5033SOL     OW15997   2.251   0.132   6.114
 5033SOL    HW115998   2.324   0.138   6.183
 5033SOL    HW215999   2.292   0.120   6.024
 5034SOL     OW16000   4.140   6.319   4.612
 5034SOL    HW116001   4.084   6.253   4.662
 5034SOL    HW216002   4.102   6.334   4.521
 5035SOL     OW16003   2.172   3.684   4.167
 5035SOL    HW116004   2.117   3.648   4.243
 5035SOL    HW216005   2.233   3.612   4.134
 5036SOL     OW16006   1.396   2.470   4.796
 5036SOL    HW116007   1.401   2.465   4.697
 5036SOL    HW216008   1.301   2.462   4.825
 5037SOL     OW16009   4.516   4.261   1.023
 5037SOL    HW116010   4.423   4.284   1.052
 5037SOL    HW216011   4.516   4.170   0.981
 5038SOL     OW16012   3.417   3.272   3.253
 5038SOL    HW116013   3.345   3.221   3.300
 5038SOL    HW216014   3.505   3.253   3.296
 5039SOL     OW16015   1.459   3.932   0.039
 5039SOL    HW116016   1.449   3.839   0.075
 5039SOL    HW216017   1.371   3.979   0.044
 5040SOL     OW16018   0.207   1.626   6.105
 5040SOL    HW116019   0.181   1.709   6.153
 5040SOL    HW216020   0.291   1.590   6.144
 5041SOL     OW16021   6.906   2.164   1.145
 5041SOL    HW116022   6.933   2.096   1.077
 5041SOL    HW216023   6.813   2.194   1.127
 5042SOL     OW16024   1.301   2.454   5.918
 5042SOL    HW116025   1.245   2.530   5.885
 5042SOL    HW216026   1.290   2.376   5.857
 5043SOL     OW16027   3.657   6.234   1.612
 5043SOL    HW116028   3.707   6.173   1.674
 5043SOL    HW216029   3.652   6.326   1.652
 5044SOL     OW16030   6.647   5.371   6.993
 5044SOL    HW116031   6.707   5.432   0.020
 5044SOL    HW216032   6.597   5.312   0.033
 5045SOL     OW16033   5.534   2.674   6.965
 5045SOL    HW116034   5.479   2.629   6.894
 5045SOL    HW216035   5.617   2.621   6.981
 5046SOL     OW16036   3.802   3.508   2.459
 5046SOL    HW116037   3.876   3.457   2.503
 5046SOL    HW216038   3.785   3.471   2.368
 5047SOL     OW16039   2.149   3.730   3.906
 5047SOL    HW116040   2.133   3.825   3.879
 5047SOL    HW216041   2.180   3.727   4.001
 5048SOL     OW16042   2.585   0.600   6.457
 5048SOL    HW116043   2.645   0.678   6.476
 5048SOL    HW216044   2.641   0.519   6.441
 5049SOL     OW16045   4.430   2.008   6.817
 5049SOL    HW116046   4.395   2.034   6.727
 5049SOL    HW216047   4.376   1.931   6.852
 5050SOL     OW16048   1.846   0.442   0.704
 5050SOL    HW116049   1.798   0.381   0.767
 5050SOL    HW216050   1.838   0.536   0.737
 5051SOL     OW16051   5.075   5.103   1.087
 5051SOL    HW116052   5.041   5.087   1.180
 5051SOL    HW216053   5.003   5.144   1.031
 5052SOL     OW16054   2.328   1.980   4.971
 5052SOL    HW116055   2.255   1.916   4.945
 5052SOL    HW216056   2.325   2.059   4.911
 5053SOL     OW16057   0.478   1.171   1.532
 5053SOL    HW116058   0.430   1.185   1.445
 5053SOL    HW216059   0.411   1.167   1.606
 5054SOL     OW16060   4.019   5.909   3.952
 5054SOL    HW116061   3.995   5.930   3.857
 5054SOL    HW216062   4.117   5.921   3.965
 5055SOL     OW16063   0.102   3.880   6.232
 5055SOL    HW116064   0.055   3.896   6.319
 5055SOL    HW216065   0.041   3.831   6.169
 5056SOL     OW16066   5.721   3.928   3.775
 5056SOL    HW116067   5.657   3.921   3.851
 5056SOL    HW216068   5.812   3.951   3.810
 5057SOL     OW16069   0.672   5.366   2.361
 5057SOL    HW116070   0.701   5.454   2.326
 5057SOL    HW216071   0.752   5.309   2.380
 5058SOL     OW16072   2.617   5.376   5.751
 5058SOL    HW116073   2.684   5.376   5.677
 5058SOL    HW216074   2.526   5.392   5.713
 5059SOL     OW16075   6.624   0.543   2.139
 5059SOL    HW116076   6.587   0.461   2.184
 5059SOL    HW216077   6.702   0.577   2.192
 5060SOL     OW16078   7.004   2.471   6.080
 5060SOL    HW116079   0.023   2.394   6.126
 5060SOL    HW216080   6.928   2.505   6.135
 5061SOL     OW16081   5.158   4.394   0.967
 5061SOL    HW116082   5.153   4.472   0.905
 5061SOL    HW216083   5.099   4.411   1.046
 5062SOL     OW16084   6.490   0.576   1.115
 5062SOL    HW116085   6.432   0.504   1.153
 5062SOL    HW216086   6.527   0.632   1.189
 5063SOL     OW16087   1.499   6.107   2.085
 5063SOL    HW116088   1.491   6.062   2.174
 5063SOL    HW216089   1.408   6.116   2.044
 5064SOL     OW16090   5.072   3.297   0.125
 5064SOL    HW116091   5.062   3.304   0.026
 5064SOL    HW216092   5.161   3.256   0.146
 5065SOL     OW16093   2.773   6.632   5.774
 5065SOL    HW116094   2.802   6.676   5.689
 5065SOL    HW216095   2.820   6.545   5.785
 5066SOL     OW16096   4.867   5.192   1.346
 5066SOL    HW116097   4.842   5.113   1.292
 5066SOL    HW216098   4.909   5.162   1.432
 5067SOL     OW16099   5.245   1.240   6.844
 5067SOL    HW116100   5.283   1.286   6.764
 5067SOL    HW216101   5.277   1.286   6.927
 5068SOL     OW16102   3.551   4.952   1.387
 5068SOL    HW116103   3.578   4.857   1.400
 5068SOL    HW216104   3.541   4.996   1.476
 5069SOL     OW16105   0.116   5.060   2.510
 5069SOL    HW116106   0.084   5.096   2.598
 5069SOL    HW216107   0.145   5.137   2.453
 5070SOL     OW16108   4.932   3.500   4.285
 5070SOL    HW116109   5.031   3.510   4.289
 5070SOL    HW216110   4.898   3.470   4.374
 5071SOL     OW16111   3.933   0.922   6.884
 5071SOL    HW116112   3.956   1.005   6.833
 5071SOL    HW216113   3.861   0.942   6.951
 5072SOL     OW16114   1.254   4.241   1.357
 5072SOL    HW116115   1.189   4.278   1.290
 5072SOL    HW216116   1.208   4.229   1.445
 5073SOL     OW16117   4.414   1.957   4.392
 5073SOL    HW116118   4.486   1.961   4.323
 5073SOL    HW216119   4.453   1.921   4.477
 5074SOL     OW16120   3.924   4.826   5.265
 5074SOL    HW116121   3.952   4.904   5.321
 5074SOL    HW216122   3.837   4.790   5.299
 5075SOL     OW16123   6.514   6.827   3.818
 5075SOL    HW116124   6.554   6.897   3.760
 5075SOL    HW216125   6.438   6.783   3.771
 5076SOL     OW16126   4.007   0.647   0.910
 5076SOL    HW116127   3.955   0.569   0.876
 5076SOL    HW216128   4.088   0.613   0.958
 5077SOL     OW16129   6.914   2.554   2.617
 5077SOL    HW116130   6.977   2.480   2.592
 5077SOL    HW216131   6.941   2.638   2.571
 5078SOL     OW16132   6.930   1.085   3.935
 5078SOL    HW116133   6.987   1.006   3.956
 5078SOL    HW216134   6.982   1.151   3.880
 5079SOL     OW16135   4.343   4.816   5.006
 5079SOL    HW116136   4.356   4.873   4.925
 5079SOL    HW216137   4.318   4.723   4.977
 5080SOL     OW16138   5.815   0.494   5.721
 5080SOL    HW116139   5.770   0.566   5.775
 5080SOL    HW216140   5.903   0.472   5.763
 5081SOL     OW16141   3.130   3.692   3.026
 5081SOL    HW116142   3.219   3.665   2.990
 5081SOL    HW216143   3.060   3.631   2.991
 5082SOL     OW16144   6.867   0.532   5.956
 5082SOL    HW116145   6.963   0.523   5.982
 5082SOL    HW216146   6.826   0.606   6.009
 5083SOL     OW16147   1.213   5.862   2.082
 5083SOL    HW116148   1.169   5.796   2.021
 5083SOL    HW216149   1.218   5.951   2.036
 5084SOL     OW16150   2.053   5.716   2.808
 5084SOL    HW116151   2.149   5.689   2.804
 5084SOL    HW216152   1.995   5.635   2.801
 5085SOL     OW16153   6.829   2.875   6.778
 5085SOL    HW116154   6.785   2.960   6.750
 5085SOL    HW216155   6.879   2.890   6.863
 5086SOL     OW16156   7.017   5.116   4.279
 5086SOL    HW116157   7.017   5.050   4.204
 5086SOL    HW216158   0.088   5.132   4.308
 5087SOL     OW16159   6.940   5.380   5.295
 5087SOL    HW116160   6.900   5.342   5.211
 5087SOL    HW216161   6.877   5.445   5.337
 5088SOL     OW16162   5.922   0.867   0.361
 5088SOL    HW116163   6.014   0.867   0.401
 5088SOL    HW216164   5.926   0.832   0.267
 5089SOL     OW16165   5.512   2.680   3.992
 5089SOL    HW116166   5.460   2.765   3.998
 5089SOL    HW216167   5.610   2.700   3.994
 5090SOL     OW16168   1.348   5.318   0.585
 5090SOL    HW116169   1.369   5.229   0.627
 5090SOL    HW216170   1.283   5.304   0.511
 5091SOL     OW16171   1.430   6.798   3.350
 5091SOL    HW116172   1.521   6.758   3.355
 5091SOL    HW216173   1.420   6.868   3.421
 5092SOL     OW16174   3.561   2.964   1.305
 5092SOL    HW116175   3.546   2.866   1.291
 5092SOL    HW216176   3.551   2.985   1.402
 5093SOL     OW16177   1.268   2.101   1.252
 5093SOL    HW116178   1.362   2.128   1.270
 5093SOL    HW216179   1.251   2.100   1.154
 5094SOL     OW16180   6.887   0.292   6.929
 5094SOL    HW116181   6.921   0.270   7.021
 5094SOL    HW216182   6.934   0.374   6.895
 5095SOL     OW16183   3.540   0.144   5.141
 5095SOL    HW116184   3.479   0.082   5.190
 5095SOL    HW216185   3.497   0.175   5.057
 5096SOL     OW16186   3.481   5.794   2.747
 5096SOL    HW116187   3.539   5.875   2.759
 5096SOL    HW216188   3.534   5.722   2.701
 5097SOL     OW16189   0.840   1.589   6.283
 5097SOL    HW116190   0.860   1.493   6.263
 5097SOL    HW216191   0.787   1.629   6.209
 5098SOL     OW16192   6.632   2.865   2.823
 5098SOL    HW116193   6.668   2.922   2.748
 5098SOL    HW216194   6.655   2.769   2.806
 5099SOL     OW16195   0.881   0.384   4.400
 5099SOL    HW116196   0.910   0.465   4.451
 5099SOL    HW216197   0.841   0.318   4.464
 5100SOL     OW16198   4.862   5.556   6.274
 5100SOL    HW116199   4.935   5.529   6.212
 5100SOL    HW216200   4.902   5.585   6.361
 5101SOL     OW16201   4.367   6.353   0.518
 5101SOL    HW116202   4.285   6.295   0.512
 5101SOL    HW216203   4.373   6.393   0.609
 5102SOL     OW16204   3.901   5.707   4.125
 5102SOL    HW116205   3.834   5.644   4.086
 5102SOL    HW216206   3.920   5.780   4.060
 5103SOL     OW16207   1.569   1.146   4.118
 5103SOL    HW116208   1.549   1.185   4.208
 5103SOL    HW216209   1.489   1.097   4.084
 5104SOL     OW16210   0.956   0.213   0.929
 5104SOL    HW116211   0.861   0.240   0.944
 5104SOL    HW216212   0.962   0.157   0.846
 5105SOL     OW16213   2.362   2.938   6.588
 5105SOL    HW116214   2.370   2.958   6.686
 5105SOL    HW216215   2.307   3.010   6.544
 5106SOL     OW16216   2.597   0.063   2.261
 5106SOL    HW116217   2.613   0.123   2.339
 5106SOL    HW216218   2.526   7.020   2.284
 5107SOL     OW16219   1.707   0.501   6.369
 5107SOL    HW116220   1.679   0.470   6.278
 5107SOL    HW216221   1.753   0.589   6.361
 5108SOL     OW16222   2.968   3.564   3.611
 5108SOL    HW116223   3.030   3.566   3.689
 5108SOL    HW216224   2.925   3.653   3.600
 5109SOL     OW16225   0.268   1.526   1.478
 5109SOL    HW116226   0.294   1.619   1.454
 5109SOL    HW216227   0.242   1.476   1.396
 5110SOL     OW16228   2.375   5.610   5.248
 5110SOL    HW116229   2.347   5.518   5.276
 5110SOL    HW216230   2.442   5.604   5.175
 5111SOL     OW16231   1.677   1.549   0.040
 5111SOL    HW116232   1.645   1.474   7.005
 5111SOL    HW216233   1.761   1.588   0.001
 5112SOL     OW16234   0.276   0.178   3.507
 5112SOL    HW116235   0.317   0.269   3.504
 5112SOL    HW216236   0.245   0.153   3.415
 5113SOL     OW16237   0.637   0.406   6.275
 5113SOL    HW116238   0.648   0.368   6.367
 5113SOL    HW216239   0.656   0.505   6.278
 5114SOL     OW16240   4.055   5.355   6.921
 5114SOL    HW116241   3.982   5.367   6.855
 5114SOL    HW216242   4.017   5.352   7.014
 5115SOL     OW16243   2.129   3.836   4.935
 5115SOL    HW116244   2.066   3.790   4.997
 5115SOL    HW216245   2.216   3.851   4.981
 5116SOL     OW16246   6.460   3.385   0.818
 5116SOL    HW116247   6.411   3.472   0.810
 5116SOL    HW216248   6.496   3.376   0.911
 5117SOL     OW16249   2.831   5.066   3.347
 5117SOL    HW116250   2.835   4.967   3.330
 5117SOL    HW216251   2.835   5.083   3.445
 5118SOL     OW16252   4.103   6.255   1.691
 5118SOL    HW116253   4.078   6.285   1.599
 5118SOL    HW216254   4.202   6.262   1.703
 5119SOL     OW16255   6.208   0.335   2.253
 5119SOL    HW116256   6.244   0.386   2.331
 5119SOL    HW216257   6.112   0.359   2.238
 5120SOL     OW16258   3.482   1.507   2.368
 5120SOL    HW116259   3.484   1.441   2.442
 5120SOL    HW216260   3.502   1.461   2.281
 5121SOL     OW16261   0.969   3.079   4.113
 5121SOL    HW116262   0.968   3.087   4.213
 5121SOL    HW216263   1.060   3.098   4.079
 5122SOL     OW16264   2.241   5.880   3.361
 5122SOL    HW116265   2.141   5.887   3.366
 5122SOL    HW216266   2.270   5.794   3.403
 5123SOL     OW16267   5.979   3.689   1.915
 5123SOL    HW116268   6.000   3.592   1.915
 5123SOL    HW216269   5.984   3.725   1.821
 5124SOL     OW16270   2.427   6.750   0.815
 5124SOL    HW116271   2.439   6.833   0.761
 5124SOL    HW216272   2.510   6.695   0.811
 5125SOL     OW16273   6.972   1.922   5.702
 5125SOL    HW116274   0.020   1.942   5.769
 5125SOL    HW216275   7.006   1.855   5.636
 5126SOL     OW16276   4.247   2.303   6.858
 5126SOL    HW116277   4.209   2.215   6.887
 5126SOL    HW216278   4.258   2.304   6.758
 5127SOL     OW16279   5.708   3.126   6.625
 5127SOL    HW116280   5.707   3.137   6.526
 5127SOL    HW216281   5.614   3.130   6.660
 5128SOL     OW16282   6.887   0.006   6.663
 5128SOL    HW116283   6.808   0.066   6.680
 5128SOL    HW216284   6.923   0.024   6.571
 5129SOL     OW16285   4.702   2.707   3.388
 5129SOL    HW116286   4.646   2.657   3.322
 5129SOL    HW216287   4.765   2.768   3.340
 5130SOL     OW16288   1.056   6.630   4.974
 5130SOL    HW116289   1.051   6.630   4.874
 5130SOL    HW216290   1.146   6.661   5.002
 5131SOL     OW16291   3.881   4.922   3.754
 5131SOL    HW116292   3.825   4.979   3.814
 5131SOL    HW216293   3.825   4.845   3.721
 5132SOL     OW16294   3.781   1.950   6.734
 5132SOL    HW116295   3.701   2.006   6.759
 5132SOL    HW216296   3.838   2.000   6.670
 5133SOL     OW16297   4.864   4.669   6.903
 5133SOL    HW116298   4.917   4.587   6.879
 5133SOL    HW216299   4.772   4.642   6.931
 5134SOL     OW16300   6.179   6.092   0.299
 5134SOL    HW116301   6.102   6.154   0.310
 5134SOL    HW216302   6.177   6.053   0.207
 5135SOL     OW16303   6.830   2.643   2.235
 5135SOL    HW116304   6.808   2.741   2.238
 5135SOL    HW216305   6.755   2.591   2.277
 5136SOL     OW16306   0.892   1.265   5.245
 5136SOL    HW116307   0.950   1.220   5.312
 5136SOL    HW216308   0.836   1.196   5.198
 5137SOL     OW16309   5.311   0.441   3.341
 5137SOL    HW116310   5.227   0.394   3.313
 5137SOL    HW216311   5.363   0.466   3.260
 5138SOL     OW16312   3.445   2.885   2.442
 5138SOL    HW116313   3.393   2.873   2.527
 5138SOL    HW216314   3.382   2.894   2.365
 5139SOL     OW16315   4.201   0.618   5.092
 5139SOL    HW116316   4.196   0.662   5.002
 5139SOL    HW216317   4.123   0.646   5.147
 5140SOL     OW16318   3.336   3.632   6.560
 5140SOL    HW116319   3.394   3.623   6.641
 5140SOL    HW216320   3.330   3.728   6.534
 5141SOL     OW16321   1.084   2.723   1.654
 5141SOL    HW116322   1.150   2.791   1.686
 5141SOL    HW216323   1.114   2.686   1.566
 5142SOL     OW16324   0.627   0.299   2.462
 5142SOL    HW116325   0.650   0.241   2.383
 5142SOL    HW216326   0.630   0.395   2.435
 5143SOL     OW16327   0.008   5.960   2.235
 5143SOL    HW116328   0.059   6.036   2.194
 5143SOL    HW216329   0.066   5.912   2.300
 5144SOL     OW16330   2.213   3.199   5.162
 5144SOL    HW116331   2.259   3.115   5.133
 5144SOL    HW216332   2.259   3.235   5.243
 5145SOL     OW16333   2.619   5.676   5.786
 5145SOL    HW116334   2.635   5.642   5.693
 5145SOL    HW216335   2.555   5.752   5.783
 5146SOL     OW16336   5.716   5.767   6.406
 5146SOL    HW116337   5.622   5.799   6.402
 5146SOL    HW216338   5.719   5.678   6.452
 5147SOL     OW16339   5.678   2.224   3.515
 5147SOL    HW116340   5.632   2.137   3.497
 5147SOL    HW216341   5.727   2.254   3.433
 5148SOL     OW16342   6.719   1.204   0.229
 5148SOL    HW116343   6.747   1.204   0.133
 5148SOL    HW216344   6.704   1.298   0.260
 5149SOL     OW16345   4.338   5.524   3.958
 5149SOL    HW116346   4.401   5.448   3.947
 5149SOL    HW216347   4.383   5.598   4.009
 5150SOL     OW16348   6.386   0.457   3.846
 5150SOL    HW116349   6.387   0.495   3.754
 5150SOL    HW216350   6.302   0.486   3.893
 5151SOL     OW16351   5.503   5.504   1.757
 5151SOL    HW116352   5.601   5.522   1.746
 5151SOL    HW216353   5.490   5.432   1.825
 5152SOL     OW16354   2.095   1.904   0.047
 5152SOL    HW116355   2.136   1.976   0.102
 5152SOL    HW216356   2.127   1.912   6.976
 5153SOL     OW16357   2.204   2.085   0.230
 5153SOL    HW116358   2.190   2.058   0.325
 5153SOL    HW216359   2.237   2.180   0.227
 5154SOL     OW16360   0.606   2.718   0.380
 5154SOL    HW116361   0.512   2.691   0.358
 5154SOL    HW216362   0.641   2.780   0.310
 5155SOL     OW16363   1.670   1.426   0.430
 5155SOL    HW116364   1.712   1.408   0.519
 5155SOL    HW216365   1.719   1.500   0.384
 5156SOL     OW16366   5.621   4.967   5.587
 5156SOL    HW116367   5.530   4.928   5.568
 5156SOL    HW216368   5.631   5.054   5.539
 5157SOL     OW16369   3.537   0.947   1.719
 5157SOL    HW116370   3.551   1.016   1.790
 5157SOL    HW216371   3.501   0.863   1.761
 5158SOL     OW16372   1.487   2.275   1.624
 5158SOL    HW116373   1.514   2.196   1.569
 5158SOL    HW216374   1.520   2.358   1.579
 5159SOL     OW16375   6.471   3.433   6.114
 5159SOL    HW116376   6.473   3.353   6.175
 5159SOL    HW216377   6.473   3.517   6.168
 5160SOL     OW16378   6.472   0.138   3.526
 5160SOL    HW116379   6.416   0.107   3.449
 5160SOL    HW216380   6.413   0.156   3.605
 5161SOL     OW16381   1.139   2.029   6.670
 5161SOL    HW116382   1.074   1.977   6.615
 5161SOL    HW216383   1.091   2.105   6.715
 5162SOL     OW16384   0.135   0.050   4.831
 5162SOL    HW116385   0.146   0.075   4.927
 5162SOL    HW216386   0.038   0.036   4.811
 5163SOL     OW16387   2.884   0.048   2.179
 5163SOL    HW116388   2.809   0.071   2.241
 5163SOL    HW216389   2.920   0.131   2.136
 5164SOL     OW16390   3.024   3.950   0.219
 5164SOL    HW116391   2.983   3.965   0.309
 5164SOL    HW216392   2.953   3.948   0.149
 5165SOL     OW16393   1.633   4.907   6.669
 5165SOL    HW116394   1.712   4.939   6.721
 5165SOL    HW216395   1.555   4.968   6.686
 5166SOL     OW16396   0.221   5.094   6.781
 5166SOL    HW116397   0.237   4.996   6.771
 5166SOL    HW216398   0.124   5.114   6.766
 5167SOL     OW16399   5.783   4.012   5.829
 5167SOL    HW116400   5.728   4.090   5.800
 5167SOL    HW216401   5.730   3.955   5.892
 5168SOL     OW16402   4.476   2.026   2.920
 5168SOL    HW116403   4.412   2.043   2.846
 5168SOL    HW216404   4.543   2.100   2.924
 5169SOL     OW16405   5.483   5.809   4.297
 5169SOL    HW116406   5.555   5.846   4.355
 5169SOL    HW216407   5.430   5.884   4.258
 5170SOL     OW16408   2.322   4.020   5.801
 5170SOL    HW116409   2.351   3.989   5.891
 5170SOL    HW216410   2.390   4.082   5.763
 5171SOL     OW16411   2.071   6.907   5.951
 5171SOL    HW116412   2.027   6.949   6.030
 5171SOL    HW216413   2.125   6.828   5.980
 5172SOL     OW16414   5.752   6.038   6.219
 5172SOL    HW116415   5.794   6.122   6.185
 5172SOL    HW216416   5.783   5.960   6.164
 5173SOL     OW16417   4.297   5.587   4.674
 5173SOL    HW116418   4.261   5.662   4.619
 5173SOL    HW216419   4.229   5.561   4.744
 5174SOL     OW16420   1.372   6.725   2.724
 5174SOL    HW116421   1.434   6.678   2.662
 5174SOL    HW216422   1.350   6.666   2.801
 5175SOL     OW16423   2.704   2.684   6.294
 5175SOL    HW116424   2.610   2.714   6.313
 5175SOL    HW216425   2.765   2.764   6.297
 5176SOL     OW16426   6.385   6.061   6.368
 5176SOL    HW116427   6.314   6.046   6.437
 5176SOL    HW216428   6.442   6.138   6.395
 5177SOL     OW16429   5.632   6.563   0.556
 5177SOL    HW116430   5.661   6.550   0.651
 5177SOL    HW216431   5.713   6.568   0.497
 5178SOL     OW16432   0.855   4.289   1.507
 5178SOL    HW116433   0.880   4.242   1.423
 5178SOL    HW216434   0.813   4.378   1.484
 5179SOL     OW16435   4.832   5.760   3.178
 5179SOL    HW116436   4.907   5.816   3.214
 5179SOL    HW216437   4.858   5.664   3.178
 5180SOL     OW16438   1.433   4.315   2.203
 5180SOL    HW116439   1.456   4.412   2.194
 5180SOL    HW216440   1.433   4.272   2.113
 5181SOL     OW16441   6.879   1.290   6.022
 5181SOL    HW116442   6.804   1.352   6.046
 5181SOL    HW216443   6.893   1.292   5.923
 5182SOL     OW16444   2.555   6.162   2.409
 5182SOL    HW116445   2.573   6.135   2.504
 5182SOL    HW216446   2.579   6.258   2.396
 5183SOL     OW16447   4.533   2.555   3.220
 5183SOL    HW116448   4.585   2.499   3.155
 5183SOL    HW216449   4.437   2.530   3.216
 5184SOL     OW16450   2.157   1.692   3.191
 5184SOL    HW116451   2.062   1.663   3.175
 5184SOL    HW216452   2.159   1.789   3.213
 5185SOL     OW16453   6.635   0.160   2.015
 5185SOL    HW116454   6.688   0.196   2.091
 5185SOL    HW216455   6.539   0.151   2.043
 5186SOL     OW16456   6.168   2.811   6.675
 5186SOL    HW116457   6.212   2.795   6.763
 5186SOL    HW216458   6.175   2.728   6.618
 5187SOL     OW16459   1.530   4.591   5.277
 5187SOL    HW116460   1.594   4.633   5.213
 5187SOL    HW216461   1.443   4.575   5.231
 5188SOL     OW16462   7.002   0.891   1.851
 5188SOL    HW116463   0.004   0.947   1.929
 5188SOL    HW216464   6.910   0.854   1.867
 5189SOL     OW16465   4.718   6.190   0.231
 5189SOL    HW116466   4.746   6.227   0.143
 5189SOL    HW216467   4.639   6.130   0.219
 5190SOL     OW16468   1.839   4.570   0.403
 5190SOL    HW116469   1.783   4.510   0.345
 5190SOL    HW216470   1.783   4.645   0.437
 5191SOL     OW16471   2.663   4.460   1.734
 5191SOL    HW116472   2.747   4.495   1.776
 5191SOL    HW216473   2.665   4.360   1.735
 5192SOL     OW16474   0.809   4.781   2.645
 5192SOL    HW116475   0.790   4.695   2.597
 5192SOL    HW216476   0.734   4.845   2.628
 5193SOL     OW16477   4.672   0.991   5.550
 5193SOL    HW116478   4.763   0.977   5.589
 5193SOL    HW216479   4.636   1.080   5.578
 5194SOL     OW16480   4.702   1.608   5.237
 5194SOL    HW116481   4.766   1.601   5.161
 5194SOL    HW216482   4.709   1.526   5.294
 5195SOL     OW16483   1.282   0.630   5.267
 5195SOL    HW116484   1.202   0.640   5.326
 5195SOL    HW216485   1.330   0.717   5.260
 5196SOL     OW16486   5.441   6.588   2.983
 5196SOL    HW116487   5.483   6.663   2.931
 5196SOL    HW216488   5.390   6.626   3.060
 5197SOL     OW16489   0.920   3.182   4.635
 5197SOL    HW116490   0.934   3.279   4.656
 5197SOL    HW216491   0.860   3.141   4.704
 5198SOL     OW16492   5.763   4.683   3.002
 5198SOL    HW116493   5.678   4.630   3.002
 5198SOL    HW216494   5.807   4.676   3.092
 5199SOL     OW16495   0.269   4.368   0.748
 5199SOL    HW116496   0.347   4.415   0.791
 5199SOL    HW216497   0.292   4.348   0.653
 5200SOL     OW16498   6.222   3.632   5.293
 5200SOL    HW116499   6.237   3.544   5.339
 5200SOL    HW216500   6.186   3.616   5.201
 5201SOL     OW16501   0.759   6.092   4.668
 5201SOL    HW116502   0.677   6.132   4.626
 5201SOL    HW216503   0.796   6.020   4.610
 5202SOL     OW16504   0.546   4.821   2.190
 5202SOL    HW116505   0.497   4.783   2.111
 5202SOL    HW216506   0.634   4.775   2.199
 5203SOL     OW16507   6.184   2.978   6.993
 5203SOL    HW116508   6.124   3.045   6.948
 5203SOL    HW216509   6.189   2.997   0.067
 5204SOL     OW16510   5.235   5.357   6.497
 5204SOL    HW116511   5.176   5.381   6.574
 5204SOL    HW216512   5.239   5.257   6.487
 5205SOL     OW16513   2.446   6.899   6.883
 5205SOL    HW116514   2.532   6.853   6.907
 5205SOL    HW216515   2.413   6.951   6.962
 5206SOL     OW16516   0.406   3.898   4.865
 5206SOL    HW116517   0.421   3.800   4.883
 5206SOL    HW216518   0.308   3.916   4.860
 5207SOL     OW16519   1.970   4.455   3.534
 5207SOL    HW116520   1.893   4.478   3.592
 5207SOL    HW216521   2.053   4.500   3.567
 5208SOL     OW16522   4.905   0.806   6.906
 5208SOL    HW116523   4.894   0.833   6.811
 5208SOL    HW216524   4.999   0.775   6.922
 5209SOL     OW16525   5.529   5.634   3.180
 5209SOL    HW116526   5.536   5.553   3.238
 5209SOL    HW216527   5.603   5.634   3.114
 5210SOL     OW16528   5.104   4.396   2.765
 5210SOL    HW116529   5.069   4.404   2.858
 5210SOL    HW216530   5.095   4.301   2.734
 5211SOL     OW16531   3.180   3.768   2.097
 5211SOL    HW116532   3.197   3.866   2.106
 5211SOL    HW216533   3.200   3.739   2.004
 5212SOL     OW16534   0.864   0.623   6.757
 5212SOL    HW116535   0.948   0.675   6.772
 5212SOL    HW216536   0.811   0.666   6.684
 5213SOL     OW16537   4.455   2.292   6.400
 5213SOL    HW116538   4.387   2.226   6.368
 5213SOL    HW216539   4.513   2.321   6.324
 5214SOL     OW16540   5.041   1.484   0.014
 5214SOL    HW116541   4.951   1.523   7.019
 5214SOL    HW216542   5.047   1.459   0.111
 5215SOL     OW16543   5.131   4.916   3.111
 5215SOL    HW116544   5.072   4.993   3.088
 5215SOL    HW216545   5.221   4.950   3.138
 5216SOL     OW16546   4.540   5.701   1.880
 5216SOL    HW116547   4.462   5.706   1.818
 5216SOL    HW216548   4.567   5.606   1.893
 5217SOL     OW16549   3.083   4.840   3.402
 5217SOL    HW116550   3.105   4.895   3.483
 5217SOL    HW216551   2.984   4.826   3.398
 5218SOL     OW16552   1.940   0.073   4.333
 5218SOL    HW116553   1.898   7.023   4.385
 5218SOL    HW216554   2.030   0.094   4.371
 5219SOL     OW16555   2.259   0.016   1.044
 5219SOL    HW116556   2.328   0.089   1.050
 5219SOL    HW216557   2.249   6.996   1.133
 5220SOL     OW16558   0.859   6.648   1.840
 5220SOL    HW116559   0.910   6.689   1.765
 5220SOL    HW216560   0.883   6.551   1.848
 5221SOL     OW16561   4.418   1.307   6.483
 5221SOL    HW116562   4.320   1.322   6.476
 5221SOL    HW216563   4.436   1.239   6.555
 5222SOL     OW16564   0.614   6.878   2.858
 5222SOL    HW116565   0.530   6.823   2.858
 5222SOL    HW216566   0.599   6.963   2.909
 5223SOL     OW16567   4.900   6.710   0.787
 5223SOL    HW116568   4.914   6.809   0.800
 5223SOL    HW216569   4.828   6.679   0.849
 5224SOL     OW16570   5.379   1.554   3.292
 5224SOL    HW116571   5.442   1.611   3.239
 5224SOL    HW216572   5.339   1.608   3.366
 5225SOL     OW16573   6.761   6.919   5.582
 5225SOL    HW116574   6.707   6.941   5.500
 5225SOL    HW216575   6.734   6.830   5.617
 5226SOL     OW16576   2.924   6.231   4.139
 5226SOL    HW116577   3.004   6.283   4.109
 5226SOL    HW216578   2.917   6.147   4.086
 5227SOL     OW16579   4.885   3.585   3.633
 5227SOL    HW116580   4.845   3.508   3.584
 5227SOL    HW216581   4.920   3.553   3.722
 5228SOL     OW16582   5.151   1.029   1.503
 5228SOL    HW116583   5.220   1.045   1.433
 5228SOL    HW216584   5.096   0.950   1.478
 5229SOL     OW16585   1.181   3.968   3.923
 5229SOL    HW116586   1.257   3.909   3.950
 5229SOL    HW216587   1.096   3.935   3.965
 5230SOL     OW16588   1.143   6.507   6.165
 5230SOL    HW116589   1.128   6.467   6.075
 5230SOL    HW216590   1.090   6.457   6.233
 5231SOL     OW16591   3.624   3.349   2.827
 5231SOL    HW116592   3.587   3.283   2.761
 5231SOL    HW216593   3.552   3.375   2.891
 5232SOL     OW16594   4.828   3.081   5.068
 5232SOL    HW116595   4.895   3.028   5.121
 5232SOL    HW216596   4.874   3.154   5.019
 5233SOL     OW16597   0.644   0.092   2.992
 5233SOL    HW116598   0.674   0.063   3.083
 5233SOL    HW216599   0.712   0.155   2.953
 5234SOL     OW16600   3.928   5.353   1.454
 5234SOL    HW116601   3.888   5.444   1.462
 5234SOL    HW216602   3.862   5.291   1.411
 5235SOL     OW16603   0.501   3.335   1.193
 5235SOL    HW116604   0.406   3.330   1.223
 5235SOL    HW216605   0.561   3.334   1.273
 5236SOL     OW16606   5.687   3.495   1.355
 5236SOL    HW116607   5.589   3.476   1.351
 5236SOL    HW216608   5.716   3.535   1.267
 5237SOL     OW16609   1.945   1.846   3.883
 5237SOL    HW116610   1.896   1.855   3.797
 5237SOL    HW216611   1.989   1.933   3.906
 5238SOL     OW16612   2.041   3.622   1.203
 5238SOL    HW116613   2.131   3.659   1.229
 5238SOL    HW216614   2.031   3.530   1.241
 5239SOL     OW16615   3.259   3.674   4.877
 5239SOL    HW116616   3.313   3.620   4.812
 5239SOL    HW216617   3.172   3.700   4.835
 5240SOL     OW16618   3.483   1.643   4.759
 5240SOL    HW116619   3.523   1.734   4.773
 5240SOL    HW216620   3.384   1.651   4.753
 5241SOL     OW16621   3.066   5.702   5.635
 5241SOL    HW116622   3.055   5.636   5.562
 5241SOL    HW216623   3.085   5.655   5.721
 5242SOL     OW16624   4.436   1.080   5.322
 5242SOL    HW116625   4.523   1.050   5.283
 5242SOL    HW216626   4.410   1.019   5.396
 5243SOL     OW16627   0.514   4.144   0.057
 5243SOL    HW116628   0.484   4.051   0.080
 5243SOL    HW216629   0.614   4.148   0.058
 5244SOL     OW16630   6.182   3.263   0.250
 5244SOL    HW116631   6.105   3.315   0.212
 5244SOL    HW216632   6.159   3.166   0.253
 5245SOL     OW16633   4.546   4.751   6.556
 5245SOL    HW116634   4.484   4.719   6.627
 5245SOL    HW216635   4.638   4.714   6.573
 5246SOL     OW16636   1.109   3.065   3.008
 5246SOL    HW116637   1.117   2.970   2.978
 5246SOL    HW216638   1.042   3.113   2.951
 5247SOL     OW16639   0.064   4.547   0.758
 5247SOL    HW116640   0.106   4.459   0.780
 5247SOL    HW216641   6.993   4.548   0.790
 5248SOL     OW16642   4.915   0.237   0.323
 5248SOL    HW116643   4.835   0.184   0.292
 5248SOL    HW216644   4.994   0.214   0.267
 5249SOL     OW16645   1.447   5.545   5.972
 5249SOL    HW116646   1.401   5.519   6.057
 5249SOL    HW216647   1.506   5.624   5.989
 5250SOL     OW16648   1.175   1.666   5.663
 5250SOL    HW116649   1.269   1.698   5.680
 5250SOL    HW216650   1.178   1.584   5.606
 5251SOL     OW16651   0.820   3.241   1.179
 5251SOL    HW116652   0.787   3.233   1.085
 5251SOL    HW216653   0.889   3.171   1.197
 5252SOL     OW16654   4.690   6.482   1.163
 5252SOL    HW116655   4.592   6.499   1.178
 5252SOL    HW216656   4.734   6.566   1.132
 5253SOL     OW16657   6.007   2.558   3.342
 5253SOL    HW116658   6.042   2.600   3.425
 5253SOL    HW216659   6.080   2.554   3.274
 5254SOL     OW16660   4.881   0.352   4.166
 5254SOL    HW116661   4.970   0.336   4.208
 5254SOL    HW216662   4.839   0.265   4.142
 5255SOL     OW16663   3.287   6.220   4.827
 5255SOL    HW116664   3.222   6.146   4.843
 5255SOL    HW216665   3.351   6.226   4.904
 5256SOL     OW16666   5.524   6.710   2.319
 5256SOL    HW116667   5.610   6.758   2.301
 5256SOL    HW216668   5.461   6.771   2.367
 5257SOL     OW16669   3.533   1.014   3.470
 5257SOL    HW116670   3.573   0.988   3.382
 5257SOL    HW216671   3.569   0.954   3.541
 5258SOL     OW16672   5.741   1.734   1.601
 5258SOL    HW116673   5.706   1.802   1.536
 5258SOL    HW216674   5.824   1.693   1.565
 5259SOL     OW16675   5.477   4.552   1.570
 5259SOL    HW116676   5.418   4.525   1.646
 5259SOL    HW216677   5.424   4.601   1.501
 5260SOL     OW16678   4.944   3.146   2.076
 5260SOL    HW116679   4.866   3.088   2.053
 5260SOL    HW216680   5.025   3.114   2.026
 5261SOL     OW16681   2.543   2.420   4.750
 5261SOL    HW116682   2.526   2.456   4.842
 5261SOL    HW216683   2.638   2.389   4.744
 5262SOL     OW16684   1.995   0.168   1.995
 5262SOL    HW116685   1.987   0.171   2.095
 5262SOL    HW216686   1.934   0.097   1.959
 5263SOL     OW16687   0.242   6.447   6.912
 5263SOL    HW116688   0.174   6.394   6.863
 5263SOL    HW216689   0.325   6.455   6.856
 5264SOL     OW16690   0.706   1.713   1.039
 5264SOL    HW116691   0.630   1.747   1.095
 5264SOL    HW216692   0.738   1.786   0.978
 5265SOL     OW16693   5.431   5.055   2.846
 5265SOL    HW116694   5.426   5.061   2.946
 5265SOL    HW216695   5.491   4.979   2.820
 5266SOL     OW16696   0.979   6.825   1.109
 5266SOL    HW116697   1.047   6.890   1.075
 5266SOL    HW216698   0.892   6.874   1.125
 5267SOL     OW16699   4.603   3.582   5.378
 5267SOL    HW116700   4.630   3.678   5.382
 5267SOL    HW216701   4.638   3.541   5.294
 5268SOL     OW16702   5.840   5.318   5.355
 5268SOL    HW116703   5.859   5.263   5.274
 5268SOL    HW216704   5.924   5.363   5.385
 5269SOL     OW16705   2.044   4.587   6.012
 5269SOL    HW116706   2.136   4.572   5.977
 5269SOL    HW216707   2.035   4.543   6.101
 5270SOL     OW16708   6.229   2.539   2.730
 5270SOL    HW116709   6.187   2.564   2.643
 5270SOL    HW216710   6.320   2.579   2.736
 5271SOL     OW16711   5.144   4.468   5.433
 5271SOL    HW116712   5.203   4.498   5.358
 5271SOL    HW216713   5.060   4.522   5.433
 5272SOL     OW16714   1.759   1.104   3.925
 5272SOL    HW116715   1.701   1.127   4.004
 5272SOL    HW216716   1.840   1.162   3.926
 5273SOL     OW16717   0.361   0.324   4.798
 5273SOL    HW116718   0.386   0.313   4.894
 5273SOL    HW216719   0.269   0.363   4.792
 5274SOL     OW16720   0.291   5.984   4.287
 5274SOL    HW116721   0.205   5.992   4.337
 5274SOL    HW216722   0.290   5.900   4.233
 5275SOL     OW16723   1.811   6.762   0.016
 5275SOL    HW116724   1.757   6.846   0.007
 5275SOL    HW216725   1.849   6.738   6.951
 5276SOL     OW16726   0.093   0.292   0.615
 5276SOL    HW116727   0.043   0.366   0.571
 5276SOL    HW216728   0.167   0.261   0.556
 5277SOL     OW16729   1.316   1.547   2.251
 5277SOL    HW116730   1.314   1.551   2.152
 5277SOL    HW216731   1.363   1.463   2.280
 5278SOL     OW16732   0.336   3.771   6.326
 5278SOL    HW116733   0.398   3.791   6.250
 5278SOL    HW216734   0.242   3.790   6.298
 5279SOL     OW16735   2.261   6.031   6.524
 5279SOL    HW116736   2.246   5.981   6.439
 5279SOL    HW216737   2.175   6.075   6.551
 5280SOL     OW16738   4.883   6.661   5.219
 5280SOL    HW116739   4.976   6.670   5.254
 5280SOL    HW216740   4.823   6.726   5.266
 5281SOL     OW16741   2.526   6.695   5.333
 5281SOL    HW116742   2.534   6.655   5.425
 5281SOL    HW216743   2.597   6.657   5.274
 5282SOL     OW16744   0.955   0.069   0.709
 5282SOL    HW116745   0.963   0.126   0.627
 5282SOL    HW216746   0.910   7.007   0.686
 5283SOL     OW16747   1.052   0.830   3.709
 5283SOL    HW116748   1.027   0.736   3.686
 5283SOL    HW216749   1.151   0.842   3.703
 5284SOL     OW16750   4.772   3.043   1.655
 5284SOL    HW116751   4.734   3.035   1.748
 5284SOL    HW216752   4.802   2.953   1.624
 5285SOL     OW16753   1.147   1.740   3.972
 5285SOL    HW116754   1.151   1.757   4.071
 5285SOL    HW216755   1.226   1.686   3.945
 5286SOL     OW16756   6.231   3.046   1.404
 5286SOL    HW116757   6.188   2.958   1.382
 5286SOL    HW216758   6.168   3.120   1.380
 5287SOL     OW16759   1.424   5.246   0.958
 5287SOL    HW116760   1.487   5.321   0.941
 5287SOL    HW216761   1.412   5.193   0.874
 5288SOL     OW16762   4.175   0.408   1.276
 5288SOL    HW116763   4.115   0.425   1.354
 5288SOL    HW216764   4.122   0.372   1.200
 5289SOL     OW16765   2.293   4.422   5.904
 5289SOL    HW116766   2.258   4.334   5.873
 5289SOL    HW216767   2.364   4.453   5.840
 5290SOL     OW16768   2.152   3.350   4.923
 5290SOL    HW116769   2.163   3.448   4.939
 5290SOL    HW216770   2.171   3.300   5.008
 5291SOL     OW16771   3.503   4.994   4.419
 5291SOL    HW116772   3.511   5.092   4.400
 5291SOL    HW216773   3.420   4.959   4.375
 5292SOL     OW16774   0.465   3.553   5.384
 5292SOL    HW116775   0.501   3.510   5.467
 5292SOL    HW216776   0.430   3.644   5.406
 5293SOL     OW16777   2.306   6.849   4.693
 5293SOL    HW116778   2.399   6.813   4.693
 5293SOL    HW216779   2.268   6.845   4.785
 5294SOL     OW16780   4.907   7.013   5.140
 5294SOL    HW116781   4.996   6.969   5.138
 5294SOL    HW216782   4.913   0.079   5.097
 5295SOL     OW16783   2.169   0.746   2.703
 5295SOL    HW116784   2.075   0.777   2.694
 5295SOL    HW216785   2.231   0.819   2.673
 5296SOL     OW16786   4.561   4.659   1.676
 5296SOL    HW116787   4.472   4.614   1.676
 5296SOL    HW216788   4.633   4.591   1.691
 5297SOL     OW16789   2.749   5.489   5.956
 5297SOL    HW116790   2.723   5.585   5.952
 5297SOL    HW216791   2.718   5.443   5.873
 5298SOL     OW16792   2.095   1.315   0.703
 5298SOL    HW116793   2.163   1.278   0.766
 5298SOL    HW216794   2.051   1.239   0.654
 5299SOL     OW16795   2.603   1.432   1.615
 5299SOL    HW116796   2.558   1.517   1.644
 5299SOL    HW216797   2.688   1.421   1.667
 5300SOL     OW16798   2.750   4.812   6.817
 5300SOL    HW116799   2.798   4.861   6.889
 5300SOL    HW216800   2.688   4.875   6.769
 5301SOL     OW16801   5.878   0.057   6.141
 5301SOL    HW116802   5.922   0.062   6.051
 5301SOL    HW216803   5.871   6.985   6.169
 5302SOL     OW16804   5.652   5.972   2.598
 5302SOL    HW116805   5.687   6.003   2.687
 5302SOL    HW216806   5.653   5.872   2.596
 5303SOL     OW16807   0.956   5.265   5.863
 5303SOL    HW116808   0.970   5.362   5.843
 5303SOL    HW216809   0.932   5.255   5.959
 5304SOL     OW16810   0.124   0.500   3.031
 5304SOL    HW116811   0.089   0.407   3.038
 5304SOL    HW216812   0.223   0.498   3.015
 5305SOL     OW16813   0.198   4.899   3.647
 5305SOL    HW116814   0.281   4.948   3.622
 5305SOL    HW216815   0.217   4.836   3.722
 5306SOL     OW16816   0.401   2.816   6.084
 5306SOL    HW116817   0.335   2.873   6.034
 5306SOL    HW216818   0.367   2.723   6.090
 5307SOL     OW16819   6.661   1.897   1.603
 5307SOL    HW116820   6.660   1.936   1.512
 5307SOL    HW216821   6.724   1.819   1.605
 5308SOL     OW16822   1.520   3.913   3.340
 5308SOL    HW116823   1.595   3.901   3.276
 5308SOL    HW216824   1.469   3.996   3.317
 5309SOL     OW16825   6.382   5.181   3.205
 5309SOL    HW116826   6.460   5.223   3.252
 5309SOL    HW216827   6.298   5.229   3.231
 5310SOL     OW16828   5.725   2.433   2.588
 5310SOL    HW116829   5.708   2.494   2.510
 5310SOL    HW216830   5.814   2.389   2.576
 5311SOL     OW16831   5.809   0.277   0.503
 5311SOL    HW116832   5.815   0.208   0.575
 5311SOL    HW216833   5.821   0.368   0.543
 5312SOL     OW16834   6.267   6.612   0.455
 5312SOL    HW116835   6.219   6.583   0.537
 5312SOL    HW216836   6.364   6.588   0.463
 5313SOL     OW16837   0.955   6.172   5.649
 5313SOL    HW116838   0.891   6.244   5.625
 5313SOL    HW216839   1.039   6.212   5.686
 5314SOL     OW16840   5.911   0.881   1.711
 5314SOL    HW116841   5.948   0.964   1.753
 5314SOL    HW216842   5.953   0.800   1.754
 5315SOL     OW16843   4.676   1.622   4.174
 5315SOL    HW116844   4.595   1.681   4.174
 5315SOL    HW216845   4.681   1.573   4.087
 5316SOL     OW16846   0.858   2.173   4.857
 5316SOL    HW116847   0.933   2.213   4.804
 5316SOL    HW216848   0.885   2.167   4.953
 5317SOL     OW16849   5.831   2.764   6.885
 5317SOL    HW116850   5.823   2.850   6.935
 5317SOL    HW216851   5.832   2.782   6.786
 5318SOL     OW16852   6.987   4.057   6.802
 5318SOL    HW116853   6.916   4.089   6.864
 5318SOL    HW216854   6.973   4.097   6.711
 5319SOL     OW16855   4.280   6.768   2.153
 5319SOL    HW116856   4.287   6.762   2.054
 5319SOL    HW216857   4.343   6.838   2.187
 5320SOL     OW16858   4.034   5.561   1.021
 5320SOL    HW116859   4.036   5.651   1.064
 5320SOL    HW216860   4.126   5.523   1.018
 5321SOL     OW16861   1.921   4.352   5.266
 5321SOL    HW116862   1.873   4.330   5.350
 5321SOL    HW216863   2.012   4.310   5.267
 5322SOL     OW16864   5.104   6.692   2.081
 5322SOL    HW116865   5.112   6.767   2.146
 5322SOL    HW216866   5.016   6.647   2.092
 5323SOL     OW16867   4.551   0.561   5.939
 5323SOL    HW116868   4.620   0.566   5.868
 5323SOL    HW216869   4.590   0.590   6.026
 5324SOL     OW16870   1.978   2.008   1.096
 5324SOL    HW116871   2.035   1.979   1.173
 5324SOL    HW216872   1.985   1.942   1.022
 5325SOL     OW16873   2.070   1.784   4.990
 5325SOL    HW116874   2.010   1.852   5.031
 5325SOL    HW216875   2.022   1.738   4.915
 5326SOL     OW16876   6.363   6.453   2.226
 5326SOL    HW116877   6.389   6.477   2.320
 5326SOL    HW216878   6.370   6.535   2.168
 5327SOL     OW16879   0.232   3.272   5.762
 5327SOL    HW116880   0.245   3.237   5.669
 5327SOL    HW216881   0.292   3.350   5.777
 5328SOL     OW16882   4.856   5.428   0.207
 5328SOL    HW116883   4.774   5.450   0.153
 5328SOL    HW216884   4.839   5.345   0.261
 5329SOL     OW16885   1.103   6.689   6.443
 5329SOL    HW116886   1.071   6.599   6.415
 5329SOL    HW216887   1.089   6.755   6.369
 5330SOL     OW16888   2.199   4.754   1.475
 5330SOL    HW116889   2.199   4.759   1.575
 5330SOL    HW216890   2.249   4.832   1.437
 5331SOL     OW16891   6.319   0.796   6.646
 5331SOL    HW116892   6.310   0.895   6.645
 5331SOL    HW216893   6.235   0.755   6.682
 5332SOL     OW16894   0.361   4.581   1.533
 5332SOL    HW116895   0.403   4.501   1.490
 5332SOL    HW216896   0.284   4.552   1.589
 5333SOL     OW16897   1.113   6.379   4.608
 5333SOL    HW116898   1.117   6.296   4.664
 5333SOL    HW216899   1.205   6.408   4.584
 5334SOL     OW16900   3.638   0.379   4.497
 5334SOL    HW116901   3.726   0.331   4.499
 5334SOL    HW216902   3.586   0.351   4.416
 5335SOL     OW16903   6.805   5.581   0.088
 5335SOL    HW116904   6.788   5.680   0.091
 5335SOL    HW216905   6.890   5.563   0.038
 5336SOL     OW16906   0.795   3.640   2.152
 5336SOL    HW116907   0.707   3.639   2.199
 5336SOL    HW216908   0.835   3.731   2.157
 5337SOL     OW16909   5.400   4.125   1.463
 5337SOL    HW116910   5.315   4.174   1.482
 5337SOL    HW216911   5.471   4.155   1.527
 5338SOL     OW16912   6.366   1.385   6.752
 5338SOL    HW116913   6.357   1.361   6.655
 5338SOL    HW216914   6.285   1.435   6.782
 5339SOL     OW16915   6.275   0.522   2.458
 5339SOL    HW116916   6.363   0.501   2.501
 5339SOL    HW216917   6.283   0.605   2.403
 5340SOL     OW16918   5.396   2.365   5.759
 5340SOL    HW116919   5.488   2.331   5.782
 5340SOL    HW216920   5.335   2.350   5.837
 5341SOL     OW16921   4.156   0.139   0.170
 5341SOL    HW116922   4.078   0.099   0.122
 5341SOL    HW216923   4.136   0.234   0.193
 5342SOL     OW16924   2.731   0.989   6.094
 5342SOL    HW116925   2.787   0.994   6.176
 5342SOL    HW216926   2.788   0.959   6.017
 5343SOL     OW16927   3.259   4.036   2.106
 5343SOL    HW116928   3.201   4.107   2.065
 5343SOL    HW216929   3.354   4.064   2.101
 5344SOL     OW16930   2.627   2.458   3.145
 5344SOL    HW116931   2.566   2.480   3.069
 5344SOL    HW216932   2.573   2.445   3.228
 5345SOL     OW16933   4.611   6.945   1.865
 5345SOL    HW116934   4.701   6.969   1.831
 5345SOL    HW216935   4.602   6.846   1.870
 5346SOL     OW16936   2.336   6.613   3.412
 5346SOL    HW116937   2.392   6.617   3.329
 5346SOL    HW216938   2.286   6.699   3.422
 5347SOL     OW16939   0.047   1.978   2.361
 5347SOL    HW116940   0.012   1.930   2.280
 5347SOL    HW216941   0.041   2.077   2.346
 5348SOL     OW16942   6.703   0.661   0.355
 5348SOL    HW116943   6.772   0.635   0.422
 5348SOL    HW216944   6.696   0.761   0.352
 5349SOL     OW16945   6.561   0.369   1.712
 5349SOL    HW116946   6.474   0.323   1.695
 5349SOL    HW216947   6.579   0.436   1.640
 5350SOL     OW16948   2.403   0.839   6.699
 5350SOL    HW116949   2.407   0.867   6.603
 5350SOL    HW216950   2.375   0.917   6.755
 5351SOL     OW16951   4.212   1.007   1.892
 5351SOL    HW116952   4.214   0.910   1.867
 5351SOL    HW216953   4.208   1.016   1.991
 5352SOL     OW16954   2.993   6.102   3.450
 5352SOL    HW116955   2.933   6.173   3.411
 5352SOL    HW216956   3.037   6.051   3.376
 5353SOL     OW16957   5.741   0.431   5.475
 5353SOL    HW116958   5.829   0.410   5.432
 5353SOL    HW216959   5.755   0.446   5.573
 5354SOL     OW16960   1.184   3.720   1.304
 5354SOL    HW116961   1.222   3.810   1.284
 5354SOL    HW216962   1.109   3.701   1.241
 5355SOL     OW16963   4.327   1.880   4.871
 5355SOL    HW116964   4.344   1.883   4.969
 5355SOL    HW216965   4.232   1.907   4.852
 5356SOL     OW16966   5.841   3.649   1.085
 5356SOL    HW116967   5.758   3.704   1.077
 5356SOL    HW216968   5.851   3.592   1.003
 5357SOL     OW16969   3.316   0.025   0.401
 5357SOL    HW116970   3.340   6.985   0.474
 5357SOL    HW216971   3.389   0.025   0.332
 5358SOL     OW16972   4.517   3.128   1.273
 5358SOL    HW116973   4.504   3.062   1.347
 5358SOL    HW216974   4.494   3.084   1.186
 5359SOL     OW16975   2.603   0.164   6.726
 5359SOL    HW116976   2.702   0.158   6.710
 5359SOL    HW216977   2.586   0.201   6.817
 5360SOL     OW16978   4.155   7.015   6.559
 5360SOL    HW116979   4.161   6.917   6.580
 5360SOL    HW216980   4.070   0.009   6.509
 5361SOL     OW16981   2.025   0.824   6.112
 5361SOL    HW116982   2.080   0.745   6.138
 5361SOL    HW216983   2.085   0.900   6.088
 5362SOL     OW16984   4.298   5.952   3.927
 5362SOL    HW116985   4.328   5.942   3.832
 5362SOL    HW216986   4.363   5.907   3.988
 5363SOL     OW16987   0.560   5.356   5.647
 5363SOL    HW116988   0.576   5.334   5.743
 5363SOL    HW216989   0.637   5.410   5.612
 5364SOL     OW16990   0.504   6.466   6.734
 5364SOL    HW116991   0.472   6.522   6.658
 5364SOL    HW216992   0.538   6.378   6.700
 5365SOL     OW16993   3.859   2.217   6.192
 5365SOL    HW116994   3.791   2.242   6.123
 5365SOL    HW216995   3.903   2.131   6.166
 5366SOL     OW16996   3.713   4.180   6.986
 5366SOL    HW116997   3.738   4.109   6.920
 5366SOL    HW216998   3.613   4.188   6.989
 5367SOL     OW16999   0.528   4.304   0.951
 5367SOL    HW117000   0.524   4.395   0.909
 5367SOL    HW217001   0.599   4.303   1.021
 5368SOL     OW17002   6.290   0.742   3.970
 5368SOL    HW117003   6.380   0.724   3.930
 5368SOL    HW217004   6.242   0.656   3.986
 5369SOL     OW17005   1.481   3.926   2.706
 5369SOL    HW117006   1.397   3.971   2.675
 5369SOL    HW217007   1.485   3.833   2.669
 5370SOL     OW17008   3.844   2.944   1.494
 5370SOL    HW117009   3.908   2.997   1.549
 5370SOL    HW217010   3.755   2.942   1.539
 5371SOL     OW17011   1.395   4.130   5.319
 5371SOL    HW117012   1.375   4.033   5.332
 5371SOL    HW217013   1.484   4.141   5.275
 5372SOL     OW17014   2.957   5.055   2.978
 5372SOL    HW117015   2.956   5.127   3.047
 5372SOL    HW217016   2.864   5.038   2.946
 5373SOL     OW17017   2.430   4.921   3.961
 5373SOL    HW117018   2.528   4.942   3.955
 5373SOL    HW217019   2.394   4.955   4.048
 5374SOL     OW17020   3.164   2.520   0.420
 5374SOL    HW117021   3.243   2.582   0.415
 5374SOL    HW217022   3.157   2.483   0.512
 5375SOL     OW17023   1.692   4.612   4.314
 5375SOL    HW117024   1.656   4.550   4.244
 5375SOL    HW217025   1.772   4.660   4.278
 5376SOL     OW17026   2.959   4.146   6.960
 5376SOL    HW117027   2.935   4.240   6.936
 5376SOL    HW217028   3.057   4.140   6.977
 5377SOL     OW17029   0.676   1.379   1.251
 5377SOL    HW117030   0.732   1.459   1.272
 5377SOL    HW217031   0.732   1.296   1.257
 5378SOL     OW17032   4.484   6.837   0.209
 5378SOL    HW117033   4.578   6.829   0.244
 5378SOL    HW217034   4.425   6.775   0.261
 5379SOL     OW17035   6.667   6.584   1.547
 5379SOL    HW117036   6.677   6.683   1.546
 5379SOL    HW217037   6.695   6.549   1.637
 5380SOL     OW17038   2.695   0.395   4.350
 5380SOL    HW117039   2.620   0.348   4.396
 5380SOL    HW217040   2.782   0.354   4.379
 5381SOL     OW17041   5.321   3.716   1.439
 5381SOL    HW117042   5.358   3.627   1.413
 5381SOL    HW217043   5.315   3.722   1.538
 5382SOL     OW17044   1.653   0.323   1.714
 5382SOL    HW117045   1.619   0.241   1.759
 5382SOL    HW217046   1.752   0.315   1.699
 5383SOL     OW17047   2.001   2.223   4.847
 5383SOL    HW117048   2.043   2.267   4.927
 5383SOL    HW217049   2.037   2.266   4.763
 5384SOL     OW17050   5.825   6.936   4.114
 5384SOL    HW117051   5.728   6.949   4.095
 5384SOL    HW217052   5.840   6.843   4.147
 5385SOL     OW17053   2.947   3.473   2.431
 5385SOL    HW117054   2.910   3.561   2.401
 5385SOL    HW217055   3.047   3.479   2.439
 5386SOL     OW17056   5.401   0.167   5.659
 5386SOL    HW117057   5.375   0.184   5.754
 5386SOL    HW217058   5.375   0.246   5.603
 5387SOL     OW17059   3.026   5.219   1.277
 5387SOL    HW117060   2.932   5.217   1.244
 5387SOL    HW217061   3.088   5.244   1.202
 5388SOL     OW17062   6.031   6.730   2.271
 5388SOL    HW117063   5.978   6.737   2.187
 5388SOL    HW217064   6.108   6.795   2.267
 5389SOL     OW17065   4.606   2.116   1.082
 5389SOL    HW117066   4.694   2.109   1.035
 5389SOL    HW217067   4.593   2.035   1.140
 5390SOL     OW17068   6.297   4.846   6.004
 5390SOL    HW117069   6.213   4.853   6.057
 5390SOL    HW217070   6.276   4.842   5.906
 5391SOL     OW17071   2.711   3.865   0.095
 5391SOL    HW117072   2.711   3.912   0.007
 5391SOL    HW217073   2.750   3.774   0.084
 5392SOL     OW17074   6.102   2.698   2.513
 5392SOL    HW117075   6.062   2.653   2.433
 5392SOL    HW217076   6.167   2.768   2.484
 5393SOL     OW17077   6.144   6.740   6.477
 5393SOL    HW117078   6.216   6.677   6.446
 5393SOL    HW217079   6.141   6.818   6.415
 5394SOL     OW17080   1.452   4.309   5.829
 5394SOL    HW117081   1.484   4.239   5.892
 5394SOL    HW217082   1.529   4.345   5.777
 5395SOL     OW17083   4.537   0.758   0.099
 5395SOL    HW117084   4.480   0.683   0.066
 5395SOL    HW217085   4.565   0.740   0.194
 5396SOL     OW17086   5.120   3.090   2.286
 5396SOL    HW117087   5.060   3.140   2.223
 5396SOL    HW217088   5.108   2.991   2.272
 5397SOL     OW17089   0.466   2.927   1.372
 5397SOL    HW117090   0.556   2.964   1.396
 5397SOL    HW217091   0.472   2.881   1.283
 5398SOL     OW17092   3.607   3.182   1.796
 5398SOL    HW117093   3.588   3.116   1.722
 5398SOL    HW217094   3.706   3.190   1.808
 5399SOL     OW17095   1.183   6.281   0.302
 5399SOL    HW117096   1.139   6.334   0.229
 5399SOL    HW217097   1.148   6.188   0.300
 5400SOL     OW17098   2.376   4.361   6.614
 5400SOL    HW117099   2.343   4.279   6.661
 5400SOL    HW217100   2.472   4.349   6.589
 5401SOL     OW17101   6.328   2.267   1.499
 5401SOL    HW117102   6.350   2.352   1.452
 5401SOL    HW217103   6.354   2.189   1.442
 5402SOL     OW17104   1.691   6.252   2.576
 5402SOL    HW117105   1.713   6.278   2.671
 5402SOL    HW217106   1.635   6.324   2.535
 5403SOL     OW17107   6.186   3.459   6.908
 5403SOL    HW117108   6.267   3.403   6.890
 5403SOL    HW217109   6.110   3.399   6.935
 5404SOL     OW17110   1.488   2.931   2.903
 5404SOL    HW117111   1.445   2.964   2.987
 5404SOL    HW217112   1.587   2.945   2.909
 5405SOL     OW17113   6.737   4.105   5.960
 5405SOL    HW117114   6.713   4.070   5.869
 5405SOL    HW217115   6.659   4.093   6.021
 5406SOL     OW17116   1.822   6.948   4.521
 5406SOL    HW117117   1.724   6.967   4.520
 5406SOL    HW217118   1.839   6.859   4.563
 5407SOL     OW17119   4.151   3.313   6.911
 5407SOL    HW117120   4.156   3.214   6.900
 5407SOL    HW217121   4.118   3.354   6.826
 5408SOL     OW17122   3.142   1.442   0.235
 5408SOL    HW117123   3.239   1.466   0.238
 5408SOL    HW217124   3.087   1.525   0.246
 5409SOL     OW17125   4.013   0.721   2.550
 5409SOL    HW117126   3.946   0.681   2.612
 5409SOL    HW217127   3.967   0.786   2.489
 5410SOL     OW17128   1.625   2.561   2.504
 5410SOL    HW117129   1.684   2.532   2.580
 5410SOL    HW217130   1.559   2.488   2.484
 5411SOL     OW17131   1.155   4.996   4.533
 5411SOL    HW117132   1.234   5.057   4.525
 5411SOL    HW217133   1.126   4.967   4.442
 5412SOL     OW17134   5.904   2.603   1.481
 5412SOL    HW117135   5.812   2.627   1.449
 5412SOL    HW217136   5.917   2.637   1.574
 5413SOL     OW17137   2.755   0.435   2.140
 5413SOL    HW117138   2.778   0.441   2.237
 5413SOL    HW217139   2.701   0.353   2.123
 5414SOL     OW17140   4.397   0.814   5.883
 5414SOL    HW117141   4.321   0.800   5.820
 5414SOL    HW217142   4.448   0.729   5.892
 5415SOL     OW17143   5.689   4.273   2.034
 5415SOL    HW117144   5.763   4.217   1.997
 5415SOL    HW217145   5.620   4.213   2.074
 5416SOL     OW17146   4.527   5.286   4.224
 5416SOL    HW117147   4.563   5.379   4.213
 5416SOL    HW217148   4.434   5.291   4.260
 5417SOL     OW17149   3.825   0.066   5.124
 5417SOL    HW117150   3.743   0.113   5.158
 5417SOL    HW217151   3.897   0.073   5.193
 5418SOL     OW17152   3.494   0.295   2.958
 5418SOL    HW117153   3.518   0.353   3.036
 5418SOL    HW217154   3.432   0.223   2.988
 5419SOL     OW17155   3.404   4.239   6.869
 5419SOL    HW117156   3.354   4.295   6.935
 5419SOL    HW217157   3.395   4.281   6.778
 5420SOL     OW17158   1.294   1.647   2.592
 5420SOL    HW117159   1.247   1.657   2.504
 5420SOL    HW217160   1.226   1.633   2.664
 5421SOL     OW17161   1.575   3.264   1.451
 5421SOL    HW117162   1.662   3.226   1.418
 5421SOL    HW217163   1.594   3.335   1.520
 5422SOL     OW17164   1.935   4.000   0.802
 5422SOL    HW117165   1.960   3.949   0.720
 5422SOL    HW217166   2.017   4.038   0.844
 5423SOL     OW17167   5.795   3.682   6.215
 5423SOL    HW117168   5.893   3.675   6.237
 5423SOL    HW217169   5.767   3.602   6.162
 5424SOL     OW17170   5.567   3.692   5.242
 5424SOL    HW117171   5.477   3.651   5.258
 5424SOL    HW217172   5.574   3.778   5.292
 5425SOL     OW17173   5.450   0.829   4.747
 5425SOL    HW117174   5.435   0.747   4.802
 5425SOL    HW217175   5.382   0.833   4.673
 5426SOL     OW17176   7.013   6.888   5.092
 5426SOL    HW117177   7.019   6.807   5.033
 5426SOL    HW217178   6.984   6.861   5.183
 5427SOL     OW17179   4.232   6.085   0.123
 5427SOL    HW117180   4.222   6.100   0.025
 5427SOL    HW217181   4.183   6.001   0.149
 5428SOL     OW17182   1.398   0.454   6.464
 5428SOL    HW117183   1.387   0.362   6.504
 5428SOL    HW217184   1.495   0.477   6.462
 5429SOL     OW17185   1.687   2.642   6.703
 5429SOL    HW117186   1.698   2.549   6.738
 5429SOL    HW217187   1.777   2.686   6.696
 5430SOL     OW17188   1.926   2.021   5.045
 5430SOL    HW117189   1.923   2.094   4.977
 5430SOL    HW217190   1.928   2.061   5.137
 5431SOL     OW17191   3.707   6.121   4.509
 5431SOL    HW117192   3.743   6.209   4.538
 5431SOL    HW217193   3.616   6.133   4.470
 5432SOL     OW17194   5.851   6.162   1.437
 5432SOL    HW117195   5.862   6.261   1.449
 5432SOL    HW217196   5.939   6.121   1.413
 5433SOL     OW17197   6.983   2.117   4.547
 5433SOL    HW117198   0.033   2.175   4.513
 5433SOL    HW217199   6.897   2.143   4.503
 5434SOL     OW17200   2.863   6.726   5.534
 5434SOL    HW117201   2.841   6.819   5.503
 5434SOL    HW217202   2.963   6.716   5.540
 5435SOL     OW17203   4.480   1.065   1.542
 5435SOL    HW117204   4.423   1.146   1.528
 5435SOL    HW217205   4.568   1.078   1.497
 5436SOL     OW17206   5.433   3.679   2.450
 5436SOL    HW117207   5.392   3.770   2.459
 5436SOL    HW217208   5.395   3.633   2.370
 5437SOL     OW17209   3.380   3.874   6.499
 5437SOL    HW117210   3.441   3.914   6.431
 5437SOL    HW217211   3.377   3.932   6.580
 5438SOL     OW17212   6.652   1.525   1.736
 5438SOL    HW117213   6.646   1.593   1.809
 5438SOL    HW217214   6.561   1.489   1.716
 5439SOL     OW17215   1.629   2.491   1.085
 5439SOL    HW117216   1.540   2.463   1.120
 5439SOL    HW217217   1.678   2.543   1.155
 5440SOL     OW17218   1.560   1.988   0.637
 5440SOL    HW117219   1.539   2.068   0.693
 5440SOL    HW217220   1.642   2.006   0.583
 5441SOL     OW17221   4.420   1.773   4.162
 5441SOL    HW117222   4.435   1.851   4.102
 5441SOL    HW217223   4.352   1.711   4.120
 5442SOL     OW17224   3.578   0.474   2.727
 5442SOL    HW117225   3.555   0.429   2.813
 5442SOL    HW217226   3.536   0.424   2.651
 5443SOL     OW17227   3.141   6.726   5.606
 5443SOL    HW117228   3.240   6.716   5.594
 5443SOL    HW217229   3.121   6.818   5.641
 5444SOL     OW17230   0.158   6.672   3.668
 5444SOL    HW117231   0.115   6.735   3.731
 5444SOL    HW217232   0.091   6.639   3.601
 5445SOL     OW17233   5.646   3.541   1.774
 5445SOL    HW117234   5.635   3.457   1.721
 5445SOL    HW217235   5.736   3.581   1.754
 5446SOL     OW17236   6.774   5.871   5.793
 5446SOL    HW117237   6.741   5.799   5.731
 5446SOL    HW217238   6.709   5.882   5.868
 5447SOL     OW17239   3.118   1.993   0.808
 5447SOL    HW117240   3.129   2.088   0.838
 5447SOL    HW217241   3.028   1.959   0.835
 5448SOL     OW17242   5.487   2.227   6.062
 5448SOL    HW117243   5.523   2.320   6.063
 5448SOL    HW217244   5.390   2.229   6.037
 5449SOL     OW17245   0.557   3.532   0.059
 5449SOL    HW117246   0.600   3.552   0.147
 5449SOL    HW217247   0.458   3.531   0.069
 5450SOL     OW17248   2.112   6.805   0.577
 5450SOL    HW117249   2.022   6.762   0.586
 5450SOL    HW217250   2.134   6.854   0.661
 5451SOL     OW17251   1.604   0.372   2.615
 5451SOL    HW117252   1.572   0.417   2.698
 5451SOL    HW217253   1.674   0.304   2.638
 5452SOL     OW17254   2.948   4.226   5.682
 5452SOL    HW117255   2.896   4.292   5.736
 5452SOL    HW217256   2.934   4.242   5.585
 5453SOL     OW17257   6.284   4.879   6.340
 5453SOL    HW117258   6.333   4.793   6.334
 5453SOL    HW217259   6.230   4.892   6.257
 5454SOL     OW17260   0.294   4.100   6.065
 5454SOL    HW117261   0.238   4.026   6.103
 5454SOL    HW217262   0.389   4.089   6.094
 5455SOL     OW17263   6.964   3.166   0.806
 5455SOL    HW117264   6.974   3.067   0.817
 5455SOL    HW217265   6.868   3.192   0.820
 5456SOL     OW17266   3.226   6.260   1.025
 5456SOL    HW117267   3.274   6.227   0.944
 5456SOL    HW217268   3.267   6.345   1.057
 5457SOL     OW17269   5.651   3.768   0.470
 5457SOL    HW117270   5.688   3.675   0.478
 5457SOL    HW217271   5.725   3.831   0.447
 5458SOL     OW17272   2.577   4.696   6.459
 5458SOL    HW117273   2.655   4.753   6.433
 5458SOL    HW217274   2.581   4.610   6.409
 5459SOL     OW17275   2.171   4.879   5.932
 5459SOL    HW117276   2.072   4.867   5.941
 5459SOL    HW217277   2.217   4.829   6.005
 5460SOL     OW17278   3.507   0.019   1.926
 5460SOL    HW117279   3.540   0.091   1.865
 5460SOL    HW217280   3.409   0.032   1.942
 5461SOL     OW17281   4.854   6.508   5.003
 5461SOL    HW117282   4.822   6.527   4.910
 5461SOL    HW217283   4.857   6.593   5.056
 5462SOL     OW17284   0.992   7.004   1.612
 5462SOL    HW117285   1.026   7.015   1.706
 5462SOL    HW217286   1.022   0.057   1.556
 5463SOL     OW17287   6.679   3.217   0.805
 5463SOL    HW117288   6.662   3.214   0.904
 5463SOL    HW217289   6.625   3.290   0.764
 5464SOL     OW17290   2.270   6.557   4.284
 5464SOL    HW117291   2.238   6.464   4.263
 5464SOL    HW217292   2.320   6.594   4.206
 5465SOL     OW17293   2.320   6.491   6.210
 5465SOL    HW117294   2.374   6.408   6.198
 5465SOL    HW217295   2.260   6.480   6.289
 5466SOL     OW17296   5.122   4.735   4.774
 5466SOL    HW117297   5.159   4.821   4.740
 5466SOL    HW217298   5.022   4.738   4.767
 5467SOL     OW17299   5.989   1.723   2.039
 5467SOL    HW117300   5.939   1.729   1.952
 5467SOL    HW217301   6.013   1.816   2.068
 5468SOL     OW17302   4.172   1.868   5.609
 5468SOL    HW117303   4.169   1.785   5.665
 5468SOL    HW217304   4.154   1.845   5.514
 5469SOL     OW17305   4.451   4.662   0.452
 5469SOL    HW117306   4.353   4.646   0.464
 5469SOL    HW217307   4.501   4.581   0.482
 5470SOL     OW17308   0.893   5.101   3.133
 5470SOL    HW117309   0.986   5.081   3.165
 5470SOL    HW217310   0.841   5.145   3.207
 5471SOL     OW17311   6.351   4.920   2.381
 5471SOL    HW117312   6.432   4.904   2.324
 5471SOL    HW217313   6.282   4.970   2.328
 5472SOL     OW17314   4.210   5.267   6.086
 5472SOL    HW117315   4.145   5.214   6.140
 5472SOL    HW217316   4.193   5.365   6.098
 5473SOL     OW17317   1.373   3.322   3.732
 5473SOL    HW117318   1.277   3.293   3.728
 5473SOL    HW217319   1.416   3.285   3.814
 5474SOL     OW17320   1.720   6.307   3.667
 5474SOL    HW117321   1.814   6.335   3.649
 5474SOL    HW217322   1.660   6.387   3.668
 5475SOL     OW17323   3.069   2.529   1.419
 5475SOL    HW117324   3.095   2.516   1.515
 5475SOL    HW217325   2.996   2.597   1.413
 5476SOL     OW17326   1.322   3.779   6.362
 5476SOL    HW117327   1.388   3.707   6.340
 5476SOL    HW217328   1.338   3.812   6.455
 5477SOL     OW17329   1.936   2.855   2.290
 5477SOL    HW117330   1.916   2.951   2.267
 5477SOL    HW217331   1.855   2.800   2.274
 5478SOL     OW17332   6.841   6.155   6.351
 5478SOL    HW117333   6.813   6.223   6.283
 5478SOL    HW217334   6.821   6.064   6.316
 5479SOL     OW17335   4.720   0.272   4.570
 5479SOL    HW117336   4.623   0.287   4.587
 5479SOL    HW217337   4.763   0.359   4.546
 5480SOL     OW17338   0.761   2.858   5.327
 5480SOL    HW117339   0.748   2.759   5.318
 5480SOL    HW217340   0.684   2.897   5.377
 5481SOL     OW17341   4.663   6.584   4.111
 5481SOL    HW117342   4.581   6.613   4.062
 5481SOL    HW217343   4.744   6.610   4.059
 5482SOL     OW17344   1.443   4.237   1.943
 5482SOL    HW117345   1.499   4.312   1.908
 5482SOL    HW217346   1.410   4.182   1.866
 5483SOL     OW17347   0.799   3.045   6.085
 5483SOL    HW117348   0.850   2.960   6.070
 5483SOL    HW217349   0.807   3.103   6.003
 5484SOL     OW17350   5.359   0.281   4.825
 5484SOL    HW117351   5.453   0.272   4.792
 5484SOL    HW217352   5.359   0.310   4.920
 5485SOL     OW17353   3.795   0.199   4.876
 5485SOL    HW117354   3.698   0.182   4.855
 5485SOL    HW217355   3.823   0.142   4.953
 5486SOL     OW17356   2.805   5.333   4.434
 5486SOL    HW117357   2.813   5.374   4.525
 5486SOL    HW217358   2.832   5.236   4.440
 5487SOL     OW17359   3.212   5.247   5.643
 5487SOL    HW117360   3.251   5.156   5.636
 5487SOL    HW217361   3.227   5.297   5.557
 5488SOL     OW17362   5.446   1.884   0.509
 5488SOL    HW117363   5.451   1.920   0.602
 5488SOL    HW217364   5.538   1.886   0.468
 5489SOL     OW17365   6.936   3.545   3.797
 5489SOL    HW117366   7.022   3.509   3.760
 5489SOL    HW217367   6.941   3.645   3.800
 5490SOL     OW17368   1.546   5.851   2.650
 5490SOL    HW117369   1.452   5.822   2.632
 5490SOL    HW217370   1.610   5.787   2.607
 5491SOL     OW17371   6.102   4.037   0.499
 5491SOL    HW117372   6.088   4.131   0.531
 5491SOL    HW217373   6.180   3.997   0.547
 5492SOL     OW17374   0.050   1.888   6.166
 5492SOL    HW117375   7.015   1.953   6.214
 5492SOL    HW217376   0.143   1.925   6.161
 5493SOL     OW17377   4.193   4.020   0.570
 5493SOL    HW117378   4.274   4.047   0.622
 5493SOL    HW217379   4.217   4.012   0.473
 5494SOL     OW17380   5.871   3.318   5.419
 5494SOL    HW117381   5.889   3.412   5.393
 5494SOL    HW217382   5.857   3.312   5.518
 5495SOL     OW17383   5.481   6.848   0.143
 5495SOL    HW117384   5.531   6.882   0.223
 5495SOL    HW217385   5.502   6.751   0.129
 5496SOL     OW17386   4.131   6.877   5.133
 5496SOL    HW117387   4.200   6.832   5.189
 5496SOL    HW217388   4.098   6.959   5.181
 5497SOL     OW17389   0.761   0.264   4.871
 5497SOL    HW117390   0.828   0.225   4.808
 5497SOL    HW217391   0.704   0.330   4.821
 5498SOL     OW17392   0.208   5.367   1.139
 5498SOL    HW117393   0.259   5.441   1.183
 5498SOL    HW217394   0.117   5.360   1.180
 5499SOL     OW17395   2.188   0.093   4.754
 5499SOL    HW117396   2.112   0.130   4.701
 5499SOL    HW217397   2.219   0.007   4.712
 5500SOL     OW17398   2.764   0.491   1.342
 5500SOL    HW117399   2.696   0.522   1.409
 5500SOL    HW217400   2.851   0.538   1.360
 5501SOL     OW17401   3.915   3.325   0.013
 5501SOL    HW117402   3.904   3.276   0.099
 5501SOL    HW217403   4.007   3.309   7.001
 5502SOL     OW17404   5.115   3.484   6.607
 5502SOL    HW117405   5.015   3.485   6.599
 5502SOL    HW217406   5.153   3.414   6.546
 5503SOL     OW17407   5.977   3.227   0.981
 5503SOL    HW117408   6.052   3.165   0.957
 5503SOL    HW217409   5.917   3.184   1.048
 5504SOL     OW17410   4.437   2.179   0.038
 5504SOL    HW117411   4.434   2.128   6.976
 5504SOL    HW217412   4.416   2.276   0.020
 5505SOL     OW17413   3.231   4.913   3.189
 5505SOL    HW117414   3.174   4.863   3.254
 5505SOL    HW217415   3.196   4.899   3.096
 5506SOL     OW17416   6.383   2.672   6.169
 5506SOL    HW117417   6.466   2.695   6.118
 5506SOL    HW217418   6.306   2.723   6.132
 5507SOL     OW17419   3.596   7.019   6.880
 5507SOL    HW117420   3.653   6.961   6.821
 5507SOL    HW217421   3.622   0.091   6.868
 5508SOL     OW17422   0.509   0.906   6.229
 5508SOL    HW117423   0.489   0.949   6.141
 5508SOL    HW217424   0.425   0.893   6.281
 5509SOL     OW17425   6.393   4.962   0.441
 5509SOL    HW117426   6.444   4.981   0.525
 5509SOL    HW217427   6.425   4.876   0.401
 5510SOL     OW17428   5.109   5.457   6.717
 5510SOL    HW117429   5.045   5.431   6.789
 5510SOL    HW217430   5.081   5.544   6.677
 5511SOL     OW17431   0.898   2.578   6.179
 5511SOL    HW117432   0.891   2.608   6.274
 5511SOL    HW217433   0.829   2.626   6.124
 5512SOL     OW17434   2.000   0.447   2.363
 5512SOL    HW117435   2.002   0.448   2.463
 5512SOL    HW217436   1.994   0.541   2.329
 5513SOL     OW17437   3.698   4.529   0.166
 5513SOL    HW117438   3.748   4.516   0.080
 5513SOL    HW217439   3.755   4.500   0.242
 5514SOL     OW17440   3.703   1.008   7.013
 5514SOL    HW117441   3.689   1.106   0.008
 5514SOL    HW217442   3.621   0.957   0.017
 5515SOL     OW17443   2.807   5.331   2.108
 5515SOL    HW117444   2.712   5.298   2.114
 5515SOL    HW217445   2.808   5.431   2.113
 5516SOL     OW17446   1.966   2.076   5.329
 5516SOL    HW117447   2.014   2.154   5.369
 5516SOL    HW217448   2.008   1.991   5.361
 5517SOL     OW17449   1.437   2.403   3.384
 5517SOL    HW117450   1.350   2.419   3.431
 5517SOL    HW217451   1.446   2.466   3.307
 5518SOL     OW17452   4.659   5.168   6.930
 5518SOL    HW117453   4.659   5.079   6.975
 5518SOL    HW217454   4.569   5.184   6.889
 5519SOL     OW17455   4.958   2.676   4.961
 5519SOL    HW117456   4.965   2.662   5.060
 5519SOL    HW217457   4.992   2.767   4.938
 5520SOL     OW17458   4.632   0.479   1.480
 5520SOL    HW117459   4.600   0.574   1.473
 5520SOL    HW217460   4.560   0.417   1.446
 5521SOL     OW17461   4.723   6.444   2.391
 5521SOL    HW117462   4.660   6.383   2.342
 5521SOL    HW217463   4.808   6.452   2.340
 5522SOL     OW17464   6.027   6.264   0.525
 5522SOL    HW117465   6.057   6.305   0.439
 5522SOL    HW217466   5.971   6.330   0.575
 5523SOL     OW17467   5.101   1.811   0.732
 5523SOL    HW117468   5.102   1.838   0.636
 5523SOL    HW217469   5.148   1.723   0.743
 5524SOL     OW17470   2.633   1.446   3.563
 5524SOL    HW117471   2.556   1.496   3.603
 5524SOL    HW217472   2.600   1.391   3.486
 5525SOL     OW17473   6.145   1.154   1.142
 5525SOL    HW117474   6.115   1.187   1.231
 5525SOL    HW217475   6.244   1.138   1.143
 5526SOL     OW17476   5.352   4.584   3.806
 5526SOL    HW117477   5.361   4.640   3.723
 5526SOL    HW217478   5.362   4.642   3.887
 5527SOL     OW17479   6.354   0.348   2.771
 5527SOL    HW117480   6.270   0.297   2.756
 5527SOL    HW217481   6.388   0.330   2.863
 5528SOL     OW17482   1.259   2.088   6.930
 5528SOL    HW117483   1.218   2.153   6.994
 5528SOL    HW217484   1.198   2.009   6.920
 5529SOL     OW17485   3.644   0.702   2.563
 5529SOL    HW117486   3.575   0.675   2.496
 5529SOL    HW217487   3.655   0.630   2.630
 5530SOL     OW17488   6.927   1.732   1.005
 5530SOL    HW117489   6.848   1.672   1.016
 5530SOL    HW217490   7.008   1.678   0.984
 5531SOL     OW17491   1.804   4.174   1.805
 5531SOL    HW117492   1.866   4.212   1.874
 5531SOL    HW217493   1.710   4.199   1.828
 5532SOL     OW17494   0.886   3.004   6.843
 5532SOL    HW117495   0.952   2.932   6.860
 5532SOL    HW217496   0.909   3.052   6.759
 5533SOL     OW17497   3.824   1.191   2.755
 5533SOL    HW117498   3.752   1.184   2.824
 5533SOL    HW217499   3.912   1.169   2.798
 5534SOL     OW17500   1.172   0.402   4.504
 5534SOL    HW117501   1.163   0.336   4.579
 5534SOL    HW217502   1.123   0.367   4.424
 5535SOL     OW17503   0.186   2.028   3.017
 5535SOL    HW117504   0.268   2.086   3.018
 5535SOL    HW217505   0.195   1.959   2.945
 5536SOL     OW17506   4.984   6.457   4.659
 5536SOL    HW117507   4.897   6.498   4.684
 5536SOL    HW217508   4.967   6.373   4.607
 5537SOL     OW17509   2.928   2.096   3.449
 5537SOL    HW117510   2.947   2.000   3.425
 5537SOL    HW217511   2.985   2.123   3.526
 5538SOL     OW17512   4.711   5.093   4.269
 5538SOL    HW117513   4.628   5.148   4.260
 5538SOL    HW217514   4.788   5.152   4.294
 5539SOL     OW17515   2.241   4.706   6.690
 5539SOL    HW117516   2.277   4.775   6.627
 5539SOL    HW217517   2.149   4.679   6.662
 5540SOL     OW17518   3.994   5.279   1.943
 5540SOL    HW117519   3.963   5.348   1.877
 5540SOL    HW217520   4.071   5.316   1.996
 5541SOL     OW17521   4.609   1.331   5.698
 5541SOL    HW117522   4.554   1.338   5.615
 5541SOL    HW217523   4.666   1.413   5.707
 5542SOL     OW17524   5.328   4.461   6.613
 5542SOL    HW117525   5.409   4.451   6.671
 5542SOL    HW217526   5.255   4.506   6.664
 5543SOL     OW17527   0.459   2.019   5.094
 5543SOL    HW117528   0.473   2.116   5.075
 5543SOL    HW217529   0.364   2.004   5.121
 5544SOL     OW17530   5.471   0.863   6.728
 5544SOL    HW117531   5.451   0.846   6.825
 5544SOL    HW217532   5.403   0.816   6.671
 5545SOL     OW17533   2.417   2.564   1.805
 5545SOL    HW117534   2.449   2.656   1.783
 5545SOL    HW217535   2.488   2.516   1.857
 5546SOL     OW17536   4.278   4.929   6.020
 5546SOL    HW117537   4.349   4.993   6.047
 5546SOL    HW217538   4.220   4.972   5.950
 5547SOL     OW17539   3.452   6.074   4.384
 5547SOL    HW117540   3.486   6.006   4.319
 5547SOL    HW217541   3.354   6.087   4.371
 5548SOL     OW17542   0.515   1.981   4.680
 5548SOL    HW117543   0.514   1.909   4.611
 5548SOL    HW217544   0.457   2.057   4.651
 5549SOL     OW17545   3.012   4.872   6.932
 5549SOL    HW117546   3.096   4.822   6.912
 5549SOL    HW217547   2.991   4.935   6.857
 5550SOL     OW17548   2.611   5.768   2.307
 5550SOL    HW117549   2.698   5.811   2.331
 5550SOL    HW217550   2.557   5.832   2.252
 5551SOL     OW17551   0.603   1.552   2.907
 5551SOL    HW117552   0.573   1.457   2.892
 5551SOL    HW217553   0.569   1.583   2.996
 5552SOL     OW17554   1.053   2.542   2.363
 5552SOL    HW117555   1.107   2.509   2.440
 5552SOL    HW217556   1.023   2.465   2.308
 5553SOL     OW17557   4.531   5.961   6.598
 5553SOL    HW117558   4.572   5.939   6.509
 5553SOL    HW217559   4.476   6.044   6.589
 5554SOL     OW17560   3.346   1.130   4.591
 5554SOL    HW117561   3.422   1.180   4.549
 5554SOL    HW217562   3.370   1.033   4.598
 5555SOL     OW17563   1.061   6.162   1.533
 5555SOL    HW117564   1.133   6.092   1.522
 5555SOL    HW217565   1.077   6.237   1.469
 5556SOL     OW17566   0.492   0.853   4.539
 5556SOL    HW117567   0.416   0.796   4.507
 5556SOL    HW217568   0.574   0.796   4.549
 5557SOL     OW17569   2.690   0.592   2.837
 5557SOL    HW117570   2.669   0.642   2.752
 5557SOL    HW217571   2.788   0.575   2.842
 5558SOL     OW17572   4.986   2.223   5.288
 5558SOL    HW117573   4.985   2.145   5.351
 5558SOL    HW217574   4.912   2.214   5.222
 5559SOL     OW17575   1.935   1.085   1.196
 5559SOL    HW117576   1.958   1.031   1.115
 5559SOL    HW217577   1.943   1.028   1.277
 5560SOL     OW17578   0.170   1.070   4.373
 5560SOL    HW117579   0.182   1.106   4.465
 5560SOL    HW217580   0.259   1.050   4.332
 5561SOL     OW17581   1.339   4.038   2.233
 5561SOL    HW117582   1.266   4.103   2.212
 5561SOL    HW217583   1.428   4.082   2.223
 5562SOL     OW17584   3.306   2.097   6.699
 5562SOL    HW117585   3.370   2.169   6.725
 5562SOL    HW217586   3.354   2.010   6.693
 5563SOL     OW17587   4.147   4.254   1.545
 5563SOL    HW117588   4.096   4.320   1.600
 5563SOL    HW217589   4.105   4.247   1.455
 5564SOL     OW17590   5.296   2.179   1.245
 5564SOL    HW117591   5.214   2.129   1.216
 5564SOL    HW217592   5.353   2.119   1.301
 5565SOL     OW17593   2.486   2.484   5.037
 5565SOL    HW117594   2.524   2.442   5.119
 5565SOL    HW217595   2.426   2.559   5.063
 5566SOL     OW17596   2.328   3.960   0.420
 5566SOL    HW117597   2.297   3.866   0.402
 5566SOL    HW217598   2.378   3.962   0.506
 5567SOL     OW17599   1.533   5.308   2.969
 5567SOL    HW117600   1.607   5.289   3.033
 5567SOL    HW217601   1.466   5.369   3.011
 5568SOL     OW17602   3.598   2.654   0.199
 5568SOL    HW117603   3.684   2.631   0.153
 5568SOL    HW217604   3.525   2.661   0.130
 5569SOL     OW17605   4.766   1.931   6.571
 5569SOL    HW117606   4.748   2.021   6.531
 5569SOL    HW217607   4.858   1.929   6.608
 5570SOL     OW17608   1.165   2.957   5.229
 5570SOL    HW117609   1.163   2.973   5.328
 5570SOL    HW217610   1.117   3.031   5.183
 5571SOL     OW17611   6.711   4.406   6.433
 5571SOL    HW117612   6.623   4.444   6.406
 5571SOL    HW217613   6.720   4.409   6.533
 5572SOL     OW17614   0.639   3.313   5.265
 5572SOL    HW117615   0.561   3.346   5.211
 5572SOL    HW217616   0.629   3.343   5.360
 5573SOL     OW17617   6.987   4.275   0.301
 5573SOL    HW117618   6.958   4.343   0.368
 5573SOL    HW217619   6.922   4.199   0.299
 5574SOL     OW17620   1.441   0.122   4.021
 5574SOL    HW117621   1.539   0.113   4.005
 5574SOL    HW217622   1.393   0.046   3.976
 5575SOL     OW17623   1.160   1.147   2.290
 5575SOL    HW117624   1.112   1.101   2.214
 5575SOL    HW217625   1.237   1.200   2.254
 5576SOL     OW17626   5.565   6.711   5.688
 5576SOL    HW117627   5.592   6.792   5.741
 5576SOL    HW217628   5.481   6.672   5.727
 5577SOL     OW17629   2.352   4.289   4.553
 5577SOL    HW117630   2.434   4.346   4.546
 5577SOL    HW217631   2.282   4.337   4.606
 5578SOL     OW17632   3.377   2.440   6.414
 5578SOL    HW117633   3.292   2.470   6.458
 5578SOL    HW217634   3.383   2.480   6.322
 5579SOL     OW17635   5.091   4.975   1.835
 5579SOL    HW117636   5.184   4.985   1.800
 5579SOL    HW217637   5.041   5.061   1.822
 5580SOL     OW17638   5.263   1.469   1.590
 5580SOL    HW117639   5.193   1.451   1.659
 5580SOL    HW217640   5.231   1.539   1.527
 5581SOL     OW17641   2.845   2.685   0.559
 5581SOL    HW117642   2.834   2.633   0.644
 5581SOL    HW217643   2.814   2.631   0.481
 5582SOL     OW17644   3.796   2.987   3.040
 5582SOL    HW117645   3.807   2.921   2.965
 5582SOL    HW217646   3.709   2.969   3.087
 5583SOL     OW17647   4.116   0.664   0.273
 5583SOL    HW117648   4.128   0.598   0.347
 5583SOL    HW217649   4.161   0.750   0.297
 5584SOL     OW17650   4.867   3.418   3.176
 5584SOL    HW117651   4.854   3.358   3.255
 5584SOL    HW217652   4.866   3.364   3.092
 5585SOL     OW17653   0.574   7.012   3.632
 5585SOL    HW117654   0.492   7.018   3.575
 5585SOL    HW217655   0.577   0.066   3.694
 5586SOL     OW17656   2.117   0.886   6.738
 5586SOL    HW117657   2.155   0.869   6.647
 5586SOL    HW217658   2.135   0.981   6.765
 5587SOL     OW17659   3.305   6.397   3.389
 5587SOL    HW117660   3.393   6.351   3.377
 5587SOL    HW217661   3.251   6.388   3.306
 5588SOL     OW17662   5.066   6.868   6.671
 5588SOL    HW117663   5.023   6.946   6.626
 5588SOL    HW217664   5.150   6.897   6.716
 5589SOL     OW17665   2.295   3.845   0.676
 5589SOL    HW117666   2.230   3.845   0.752
 5589SOL    HW217667   2.263   3.783   0.604
 5590SOL     OW17668   6.681   0.330   3.564
 5590SOL    HW117669   6.613   0.261   3.539
 5590SOL    HW217670   6.745   0.291   3.629
 5591SOL     OW17671   5.364   0.076   0.611
 5591SOL    HW117672   5.433   0.148   0.614
 5591SOL    HW217673   5.405   7.013   0.640
 5592SOL     OW17674   1.223   2.744   2.414
 5592SOL    HW117675   1.155   2.675   2.388
 5592SOL    HW217676   1.310   2.721   2.372
 5593SOL     OW17677   2.350   4.569   4.815
 5593SOL    HW117678   2.341   4.553   4.913
 5593SOL    HW217679   2.446   4.590   4.793
 5594SOL     OW17680   2.712   1.620   6.518
 5594SOL    HW117681   2.713   1.720   6.524
 5594SOL    HW217682   2.801   1.587   6.486
 5595SOL     OW17683   0.930   3.203   6.648
 5595SOL    HW117684   0.877   3.279   6.686
 5595SOL    HW217685   0.914   3.197   6.550
 5596SOL     OW17686   4.869   3.426   4.556
 5596SOL    HW117687   4.866   3.330   4.530
 5596SOL    HW217688   4.883   3.434   4.655
 5597SOL     OW17689   6.581   1.562   6.783
 5597SOL    HW117690   6.613   1.588   6.874
 5597SOL    HW217691   6.525   1.479   6.790
 5598SOL     OW17692   6.480   1.077   4.000
 5598SOL    HW117693   6.558   1.120   4.045
 5598SOL    HW217694   6.399   1.085   4.059
 5599SOL     OW17695   5.446   3.005   3.113
 5599SOL    HW117696   5.529   2.963   3.076
 5599SOL    HW217697   5.465   3.041   3.204
 5600SOL     OW17698   1.862   2.640   1.823
 5600SOL    HW117699   1.888   2.572   1.755
 5600SOL    HW217700   1.815   2.595   1.899
 5601SOL     OW17701   5.927   2.850   6.063
 5601SOL    HW117702   5.849   2.872   6.003
 5601SOL    HW217703   5.913   2.760   6.104
 5602SOL     OW17704   6.204   1.853   3.097
 5602SOL    HW117705   6.193   1.931   3.157
 5602SOL    HW217706   6.158   1.870   3.010
 5603SOL     OW17707   3.534   2.241   6.479
 5603SOL    HW117708   3.475   2.312   6.439
 5603SOL    HW217709   3.541   2.164   6.416
 5604SOL     OW17710   1.161   5.649   2.961
 5604SOL    HW117711   1.148   5.745   2.985
 5604SOL    HW217712   1.112   5.629   2.876
 5605SOL     OW17713   4.323   0.162   4.023
 5605SOL    HW117714   4.372   0.227   4.081
 5605SOL    HW217715   4.257   0.111   4.077
 5606SOL     OW17716   4.515   3.402   0.875
 5606SOL    HW117717   4.592   3.385   0.813
 5606SOL    HW217718   4.549   3.422   0.967
 5607SOL     OW17719   0.012   2.530   3.086
 5607SOL    HW117720   0.081   2.465   3.116
 5607SOL    HW217721   7.023   2.600   3.156
 5608SOL     OW17722   5.749   0.398   3.963
 5608SOL    HW117723   5.723   0.436   3.874
 5608SOL    HW217724   5.764   0.300   3.954
 5609SOL     OW17725   6.464   0.607   0.516
 5609SOL    HW117726   6.456   0.566   0.425
 5609SOL    HW217727   6.461   0.707   0.507
 5610SOL     OW17728   5.964   6.005   5.721
 5610SOL    HW117729   5.877   5.957   5.722
 5610SOL    HW217730   5.967   6.070   5.797
 5611SOL     OW17731   6.477   3.933   1.719
 5611SOL    HW117732   6.500   3.924   1.816
 5611SOL    HW217733   6.396   3.990   1.708
 5612SOL     OW17734   4.114   1.876   1.336
 5612SOL    HW117735   4.167   1.806   1.384
 5612SOL    HW217736   4.045   1.913   1.397
 5613SOL     OW17737   6.566   4.930   5.694
 5613SOL    HW117738   6.547   4.912   5.790
 5613SOL    HW217739   6.564   5.029   5.677
 5614SOL     OW17740   4.941   2.060   4.914
 5614SOL    HW117741   4.893   2.034   4.998
 5614SOL    HW217742   5.037   2.081   4.936
 5615SOL     OW17743   0.560   2.919   3.077
 5615SOL    HW117744   0.626   2.847   3.096
 5615SOL    HW217745   0.586   2.967   2.993
 5616SOL     OW17746   1.581   3.439   1.668
 5616SOL    HW117747   1.634   3.479   1.742
 5616SOL    HW217748   1.485   3.467   1.677
 5617SOL     OW17749   1.095   5.075   6.182
 5617SOL    HW117750   1.102   4.999   6.117
 5617SOL    HW217751   1.040   5.148   6.142
 5618SOL     OW17752   4.861   0.262   2.979
 5618SOL    HW117753   4.937   0.306   3.027
 5618SOL    HW217754   4.802   0.215   3.045
 5619SOL     OW17755   3.253   3.155   3.467
 5619SOL    HW117756   3.272   3.231   3.528
 5619SOL    HW217757   3.167   3.171   3.419
 5620SOL     OW17758   5.216   4.639   5.203
 5620SOL    HW117759   5.183   4.733   5.195
 5620SOL    HW217760   5.186   4.587   5.123
 5621SOL     OW17761   1.222   2.888   6.480
 5621SOL    HW117762   1.300   2.895   6.542
 5621SOL    HW217763   1.154   2.826   6.520
 5622SOL     OW17764   5.215   5.561   3.485
 5622SOL    HW117765   5.154   5.622   3.535
 5622SOL    HW217766   5.239   5.483   3.543
 5623SOL     OW17767   4.494   4.601   3.782
 5623SOL    HW117768   4.426   4.618   3.854
 5623SOL    HW217769   4.585   4.594   3.822
 5624SOL     OW17770   4.746   4.192   3.880
 5624SOL    HW117771   4.724   4.261   3.949
 5624SOL    HW217772   4.700   4.106   3.903
 5625SOL     OW17773   2.555   6.398   5.966
 5625SOL    HW117774   2.514   6.473   5.912
 5625SOL    HW217775   2.654   6.401   5.956
 5626SOL     OW17776   1.562   5.637   6.369
 5626SOL    HW117777   1.518   5.675   6.450
 5626SOL    HW217778   1.494   5.591   6.312
 5627SOL     OW17779   1.188   5.687   0.491
 5627SOL    HW117780   1.101   5.657   0.531
 5627SOL    HW217781   1.175   5.776   0.446
 5628SOL     OW17782   1.772   3.019   0.001
 5628SOL    HW117783   1.753   2.930   6.983
 5628SOL    HW217784   1.787   3.006   0.100
 5629SOL     OW17785   6.678   3.610   4.556
 5629SOL    HW117786   6.595   3.563   4.588
 5629SOL    HW217787   6.722   3.655   4.634
 5630SOL     OW17788   1.843   4.260   0.509
 5630SOL    HW117789   1.794   4.287   0.592
 5630SOL    HW217790   1.938   4.291   0.515
 5631SOL     OW17791   3.795   0.583   2.208
 5631SOL    HW117792   3.753   0.670   2.234
 5631SOL    HW217793   3.769   0.513   2.274
 5632SOL     OW17794   3.940   6.178   6.904
 5632SOL    HW117795   3.976   6.251   6.847
 5632SOL    HW217796   4.013   6.144   6.964
 5633SOL     OW17797   1.382   5.759   5.088
 5633SOL    HW117798   1.356   5.826   5.017
 5633SOL    HW217799   1.471   5.719   5.065
 5634SOL     OW17800   2.679   0.813   1.784
 5634SOL    HW117801   2.622   0.837   1.863
 5634SOL    HW217802   2.620   0.788   1.707
 5635SOL     OW17803   3.534   0.789   2.253
 5635SOL    HW117804   3.440   0.795   2.221
 5635SOL    HW217805   3.562   0.878   2.290
 5636SOL     OW17806   5.157   0.485   5.097
 5636SOL    HW117807   5.115   0.548   5.033
 5636SOL    HW217808   5.218   0.536   5.159
 5637SOL     OW17809   5.152   6.738   5.232
 5637SOL    HW117810   5.204   6.677   5.172
 5637SOL    HW217811   5.173   6.834   5.209
 5638SOL     OW17812   0.067   5.888   0.339
 5638SOL    HW117813   0.116   5.906   0.254
 5638SOL    HW217814   7.001   5.930   0.335
 5639SOL     OW17815   3.252   0.012   2.044
 5639SOL    HW117816   3.180   0.033   2.111
 5639SOL    HW217817   3.235   6.945   2.006
 5640SOL     OW17818   3.415   6.881   3.424
 5640SOL    HW117819   3.453   6.792   3.448
 5640SOL    HW217820   3.339   6.902   3.485
 5641SOL     OW17821   6.881   4.756   3.769
 5641SOL    HW117822   6.835   4.710   3.693
 5641SOL    HW217823   6.823   4.831   3.803
 5642SOL     OW17824   2.008   3.418   6.390
 5642SOL    HW117825   2.039   3.345   6.329
 5642SOL    HW217826   2.021   3.390   6.485
 5643SOL     OW17827   6.057   2.695   4.102
 5643SOL    HW117828   5.978   2.692   4.164
 5643SOL    HW217829   6.055   2.616   4.041
 5644SOL     OW17830   3.737   0.654   6.133
 5644SOL    HW117831   3.831   0.660   6.168
 5644SOL    HW217832   3.708   0.559   6.133
 5645SOL     OW17833   5.922   6.517   2.836
 5645SOL    HW117834   5.913   6.546   2.741
 5645SOL    HW217835   5.832   6.520   2.881
 5646SOL     OW17836   6.337   0.179   3.788
 5646SOL    HW117837   6.243   0.196   3.760
 5646SOL    HW217838   6.369   0.255   3.845
 5647SOL     OW17839   6.508   3.681   6.694
 5647SOL    HW117840   6.441   3.740   6.649
 5647SOL    HW217841   6.503   3.694   6.793
 5648SOL     OW17842   2.314   1.983   3.926
 5648SOL    HW117843   2.228   2.018   3.965
 5648SOL    HW217844   2.340   2.039   3.848
 5649SOL     OW17845   1.069   0.611   5.764
 5649SOL    HW117846   1.030   0.703   5.770
 5649SOL    HW217847   1.117   0.589   5.850
 5650SOL     OW17848   6.939   5.271   5.032
 5650SOL    HW117849   6.994   5.194   5.064
 5650SOL    HW217850   6.997   5.351   5.018
 5651SOL     OW17851   5.884   1.243   2.503
 5651SOL    HW117852   5.867   1.153   2.465
 5651SOL    HW217853   5.983   1.257   2.514
 5652SOL     OW17854   5.464   4.392   0.207
 5652SOL    HW117855   5.556   4.353   0.201
 5652SOL    HW217856   5.438   4.401   0.303
 5653SOL     OW17857   1.942   6.009   0.285
 5653SOL    HW117858   2.036   5.975   0.297
 5653SOL    HW217859   1.925   6.083   0.350
 5654SOL     OW17860   1.613   0.034   0.308
 5654SOL    HW117861   1.584   6.962   0.312
 5654SOL    HW217862   1.594   0.078   0.395
 5655SOL     OW17863   6.331   5.124   2.952
 5655SOL    HW117864   6.353   5.132   3.049
 5655SOL    HW217865   6.263   5.052   2.939
 5656SOL     OW17866   3.665   5.622   6.684
 5656SOL    HW117867   3.690   5.717   6.664
 5656SOL    HW217868   3.566   5.616   6.696
 5657SOL     OW17869   4.554   5.431   1.900
 5657SOL    HW117870   4.554   5.366   1.976
 5657SOL    HW217871   4.472   5.417   1.844
 5658SOL     OW17872   5.027   6.698   5.966
 5658SOL    HW117873   5.058   6.792   5.956
 5658SOL    HW217874   5.044   6.648   5.880
 5659SOL     OW17875   2.965   3.849   3.626
 5659SOL    HW117876   3.034   3.892   3.569
 5659SOL    HW217877   2.874   3.864   3.586
 5660SOL     OW17878   0.094   5.991   1.617
 5660SOL    HW117879   0.150   6.032   1.690
 5660SOL    HW217880   0.010   5.954   1.656
 5661SOL     OW17881   6.057   6.159   4.389
 5661SOL    HW117882   6.015   6.235   4.338
 5661SOL    HW217883   6.095   6.194   4.475
 5662SOL     OW17884   2.051   4.892   4.756
 5662SOL    HW117885   2.024   4.963   4.692
 5662SOL    HW217886   1.976   4.826   4.766
 5663SOL     OW17887   2.196   4.151   1.328
 5663SOL    HW117888   2.145   4.213   1.388
 5663SOL    HW217889   2.284   4.193   1.304
 5664SOL     OW17890   6.469   6.305   1.833
 5664SOL    HW117891   6.436   6.253   1.911
 5664SOL    HW217892   6.568   6.298   1.827
 5665SOL     OW17893   1.187   1.087   5.867
 5665SOL    HW117894   1.259   1.134   5.816
 5665SOL    HW217895   1.110   1.150   5.881
 5666SOL     OW17896   5.683   5.744   6.849
 5666SOL    HW117897   5.613   5.813   6.832
 5666SOL    HW217898   5.773   5.787   6.847
 5667SOL     OW17899   5.696   4.720   2.483
 5667SOL    HW117900   5.686   4.642   2.545
 5667SOL    HW217901   5.793   4.737   2.465
 5668SOL     OW17902   6.168   2.578   6.521
 5668SOL    HW117903   6.261   2.552   6.495
 5668SOL    HW217904   6.131   2.641   6.452
 5669SOL     OW17905   0.564   2.966   4.813
 5669SOL    HW117906   0.541   2.869   4.820
 5669SOL    HW217907   0.654   2.982   4.853
 5670SOL     OW17908   1.709   3.701   2.543
 5670SOL    HW117909   1.621   3.653   2.539
 5670SOL    HW217910   1.744   3.715   2.451
 5671SOL     OW17911   0.878   0.612   5.082
 5671SOL    HW117912   0.964   0.563   5.073
 5671SOL    HW217913   0.840   0.631   4.991
 5672SOL     OW17914   5.115   3.900   6.118
 5672SOL    HW117915   5.058   3.956   6.058
 5672SOL    HW217916   5.173   3.960   6.174
 5673SOL     OW17917   1.542   6.892   0.698
 5673SOL    HW117918   1.454   6.909   0.742
 5673SOL    HW217919   1.527   6.873   0.601
 5674SOL     OW17920   0.123   3.019   1.335
 5674SOL    HW117921   0.191   3.030   1.263
 5674SOL    HW217922   0.046   3.081   1.318
 5675SOL     OW17923   3.873   1.081   5.856
 5675SOL    HW117924   3.831   1.143   5.789
 5675SOL    HW217925   3.946   1.030   5.811
 5676SOL     OW17926   2.735   6.933   1.629
 5676SOL    HW117927   2.662   6.867   1.649
 5676SOL    HW217928   2.802   6.931   1.703
 5677SOL     OW17929   6.497   0.198   2.995
 5677SOL    HW117930   6.448   0.249   3.066
 5677SOL    HW217931   6.476   0.100   3.004
 5678SOL     OW17932   1.348   5.479   3.111
 5678SOL    HW117933   1.276   5.527   3.061
 5678SOL    HW217934   1.428   5.538   3.120
 5679SOL     OW17935   3.466   5.491   5.722
 5679SOL    HW117936   3.396   5.466   5.655
 5679SOL    HW217937   3.496   5.410   5.771
 5680SOL     OW17938   1.897   6.717   6.777
 5680SOL    HW117939   1.860   6.810   6.771
 5680SOL    HW217940   1.976   6.710   6.717
 5681SOL     OW17941   2.763   4.269   6.556
 5681SOL    HW117942   2.725   4.213   6.630
 5681SOL    HW217943   2.847   4.227   6.522
 5682SOL     OW17944   1.570   3.600   4.464
 5682SOL    HW117945   1.558   3.693   4.501
 5682SOL    HW217946   1.620   3.605   4.378
 5683SOL     OW17947   4.211   3.517   4.963
 5683SOL    HW117948   4.160   3.493   5.045
 5683SOL    HW217949   4.308   3.493   4.975
 5684SOL     OW17950   2.966   3.216   3.051
 5684SOL    HW117951   2.938   3.291   2.991
 5684SOL    HW217952   2.978   3.133   2.998
 5685SOL     OW17953   0.316   5.752   1.676
 5685SOL    HW117954   0.358   5.811   1.608
 5685SOL    HW217955   0.303   5.803   1.761
 5686SOL     OW17956   3.442   4.470   0.271
 5686SOL    HW117957   3.383   4.411   0.216
 5686SOL    HW217958   3.518   4.503   0.214
 5687SOL     OW17959   4.313   5.611   6.335
 5687SOL    HW117960   4.405   5.610   6.297
 5687SOL    HW217961   4.317   5.647   6.429
 5688SOL     OW17962   5.323   1.668   1.939
 5688SOL    HW117963   5.380   1.596   1.898
 5688SOL    HW217964   5.273   1.631   2.016
 5689SOL     OW17965   4.444   3.580   5.728
 5689SOL    HW117966   4.421   3.506   5.791
 5689SOL    HW217967   4.505   3.545   5.657
 5690SOL     OW17968   4.044   6.683   2.825
 5690SOL    HW117969   3.955   6.637   2.828
 5690SOL    HW217970   4.079   6.680   2.731
 5691SOL     OW17971   3.322   0.246   3.986
 5691SOL    HW117972   3.421   0.256   3.989
 5691SOL    HW217973   3.287   0.229   4.078
 5692SOL     OW17974   5.593   2.852   6.411
 5692SOL    HW117975   5.615   2.756   6.426
 5692SOL    HW217976   5.633   2.882   6.324
 5693SOL     OW17977   4.749   2.288   2.526
 5693SOL    HW117978   4.691   2.369   2.523
 5693SOL    HW217979   4.692   2.207   2.535
 5694SOL     OW17980   1.395   1.655   4.061
 5694SOL    HW117981   1.437   1.575   4.018
 5694SOL    HW217982   1.343   1.626   4.141
 5695SOL     OW17983   1.854   3.690   3.565
 5695SOL    HW117984   1.954   3.694   3.575
 5695SOL    HW217985   1.822   3.776   3.526
 5696SOL     OW17986   3.306   0.298   5.841
 5696SOL    HW117987   3.210   0.269   5.843
 5696SOL    HW217988   3.350   0.264   5.758
 5697SOL     OW17989   6.451   4.032   0.283
 5697SOL    HW117990   6.373   4.077   0.239
 5697SOL    HW217991   6.419   3.957   0.340
 5698SOL     OW17992   1.368   4.147   3.319
 5698SOL    HW117993   1.313   4.188   3.391
 5698SOL    HW217994   1.382   4.214   3.246
 5699SOL     OW17995   0.003   2.628   5.078
 5699SOL    HW117996   0.013   2.639   5.177
 5699SOL    HW217997   6.936   2.658   5.050
 5700SOL     OW17998   1.077   5.379   3.496
 5700SOL    HW117999   1.052   5.442   3.422
 5700SOL    HW218000   1.169   5.401   3.529
 5701SOL     OW18001   5.363   4.144   2.452
 5701SOL    HW118002   5.448   4.180   2.489
 5701SOL    HW218003   5.291   4.213   2.459
 5702SOL     OW18004   2.968   0.210   6.759
 5702SOL    HW118005   2.971   0.117   6.795
 5702SOL    HW218006   3.061   0.249   6.759
 5703SOL     OW18007   4.707   4.422   1.786
 5703SOL    HW118008   4.628   4.378   1.828
 5703SOL    HW218009   4.787   4.413   1.846
 5704SOL     OW18010   5.145   4.104   3.289
 5704SOL    HW118011   5.144   4.138   3.382
 5704SOL    HW218012   5.239   4.098   3.256
 5705SOL     OW18013   6.268   1.650   3.373
 5705SOL    HW118014   6.301   1.572   3.426
 5705SOL    HW218015   6.314   1.652   3.284
 5706SOL     OW18016   2.040   1.313   6.551
 5706SOL    HW118017   2.000   1.265   6.629
 5706SOL    HW218018   1.969   1.369   6.507
 5707SOL     OW18019   2.934   1.686   7.003
 5707SOL    HW118020   2.956   1.779   6.975
 5707SOL    HW218021   3.017   1.631   7.004
 5708SOL     OW18022   6.919   0.255   1.114
 5708SOL    HW118023   6.956   0.227   1.026
 5708SOL    HW218024   6.966   0.205   1.187
 5709SOL     OW18025   1.367   2.417   1.187
 5709SOL    HW118026   1.412   2.327   1.186
 5709SOL    HW218027   1.337   2.439   1.280
 5710SOL     OW18028   3.388   4.375   6.637
 5710SOL    HW118029   3.403   4.464   6.680
 5710SOL    HW218030   3.363   4.389   6.541
 5711SOL     OW18031   5.392   1.155   5.195
 5711SOL    HW118032   5.348   1.241   5.169
 5711SOL    HW218033   5.484   1.152   5.157
 5712SOL     OW18034   6.462   6.365   6.821
 5712SOL    HW118035   6.560   6.383   6.811
 5712SOL    HW218036   6.427   6.323   6.737
 5713SOL     OW18037   0.003   2.921   3.002
 5713SOL    HW118038   7.024   2.943   2.904
 5713SOL    HW218039   0.049   2.833   3.014
 5714SOL     OW18040   2.156   0.875   6.458
 5714SOL    HW118041   2.134   0.951   6.397
 5714SOL    HW218042   2.240   0.831   6.426
 5715SOL     OW18043   1.873   0.125   3.752
 5715SOL    HW118044   1.955   0.094   3.799
 5715SOL    HW218045   1.895   0.203   3.693
 5716SOL     OW18046   1.511   2.151   5.183
 5716SOL    HW118047   1.484   2.247   5.186
 5716SOL    HW218048   1.530   2.124   5.088
 5717SOL     OW18049   0.535   3.651   6.492
 5717SOL    HW118050   0.510   3.562   6.455
 5717SOL    HW218051   0.473   3.721   6.456
 5718SOL     OW18052   2.432   5.133   5.559
 5718SOL    HW118053   2.362   5.077   5.604
 5718SOL    HW218054   2.406   5.229   5.564
 5719SOL     OW18055   2.166   0.868   0.865
 5719SOL    HW118056   2.203   0.939   0.924
 5719SOL    HW218057   2.132   0.910   0.780
 5720SOL     OW18058   1.472   5.739   4.155
 5720SOL    HW118059   1.424   5.806   4.098
 5720SOL    HW218060   1.438   5.648   4.136
 5721SOL     OW18061   6.919   4.495   0.488
 5721SOL    HW118062   6.873   4.573   0.529
 5721SOL    HW218063   6.923   4.420   0.555
 5722SOL     OW18064   5.610   1.181   3.824
 5722SOL    HW118065   5.619   1.234   3.740
 5722SOL    HW218066   5.700   1.167   3.865
 5723SOL     OW18067   1.078   4.365   1.190
 5723SOL    HW118068   1.018   4.431   1.235
 5723SOL    HW218069   1.062   4.367   1.092
 5724SOL     OW18070   4.893   2.524   5.293
 5724SOL    HW118071   4.794   2.536   5.288
 5724SOL    HW218072   4.921   2.449   5.234
 5725SOL     OW18073   5.272   6.373   5.681
 5725SOL    HW118074   5.193   6.434   5.680
 5725SOL    HW218075   5.334   6.398   5.605
 5726SOL     OW18076   4.410   4.095   5.878
 5726SOL    HW118077   4.501   4.134   5.894
 5726SOL    HW218078   4.414   3.996   5.889
 5727SOL     OW18079   5.541   2.440   4.140
 5727SOL    HW118080   5.474   2.367   4.126
 5727SOL    HW218081   5.526   2.512   4.072
 5728SOL     OW18082   4.608   0.728   5.406
 5728SOL    HW118083   4.631   0.778   5.489
 5728SOL    HW218084   4.691   0.710   5.353
 5729SOL     OW18085   1.605   2.674   4.241
 5729SOL    HW118086   1.626   2.583   4.276
 5729SOL    HW218087   1.522   2.671   4.185
 5730SOL     OW18088   3.775   4.841   0.584
 5730SOL    HW118089   3.713   4.919   0.591
 5730SOL    HW218090   3.846   4.861   0.517
 5731SOL     OW18091   4.332   1.606   4.793
 5731SOL    HW118092   4.254   1.609   4.855
 5731SOL    HW218093   4.373   1.697   4.786
 5732SOL     OW18094   5.644   4.198   4.021
 5732SOL    HW118095   5.569   4.254   3.986
 5732SOL    HW218096   5.727   4.216   3.967
 5733SOL     OW18097   2.568   0.340   1.778
 5733SOL    HW118098   2.646   0.399   1.800
 5733SOL    HW218099   2.583   0.249   1.816
 5734SOL     OW18100   1.562   6.634   6.390
 5734SOL    HW118101   1.584   6.703   6.322
 5734SOL    HW218102   1.491   6.573   6.355
 5735SOL     OW18103   5.259   1.003   1.762
 5735SOL    HW118104   5.346   1.038   1.795
 5735SOL    HW218105   5.227   1.059   1.686
 5736SOL     OW18106   5.923   3.900   6.696
 5736SOL    HW118107   6.004   3.876   6.749
 5736SOL    HW218108   5.845   3.911   6.757
 5737SOL     OW18109   5.440   5.638   2.203
 5737SOL    HW118110   5.421   5.602   2.295
 5737SOL    HW218111   5.503   5.716   2.210
 5738SOL     OW18112   2.555   0.825   1.155
 5738SOL    HW118113   2.605   0.781   1.230
 5738SOL    HW218114   2.488   0.889   1.192
 5739SOL     OW18115   2.657   0.779   5.831
 5739SOL    HW118116   2.562   0.810   5.830
 5739SOL    HW218117   2.699   0.804   5.918
 5740SOL     OW18118   4.902   3.741   2.682
 5740SOL    HW118119   4.992   3.735   2.638
 5740SOL    HW218120   4.882   3.655   2.728
 5741SOL     OW18121   1.496   3.366   4.235
 5741SOL    HW118122   1.559   3.396   4.307
 5741SOL    HW218123   1.429   3.439   4.217
 5742SOL     OW18124   6.406   6.322   2.729
 5742SOL    HW118125   6.377   6.242   2.676
 5742SOL    HW218126   6.405   6.300   2.826
 5743SOL     OW18127   3.723   5.846   0.276
 5743SOL    HW118128   3.691   5.759   0.237
 5743SOL    HW218129   3.652   5.915   0.262
 5744SOL     OW18130   5.283   5.894   3.552
 5744SOL    HW118131   5.352   5.865   3.485
 5744SOL    HW218132   5.207   5.829   3.552
 5745SOL     OW18133   1.152   2.977   2.533
 5745SOL    HW118134   1.073   2.947   2.586
 5745SOL    HW218135   1.188   2.900   2.481
 5746SOL     OW18136   5.079   0.407   3.009
 5746SOL    HW118137   5.128   0.320   3.013
 5746SOL    HW218138   5.106   0.464   3.087
 5747SOL     OW18139   1.584   6.850   1.291
 5747SOL    HW118140   1.554   6.778   1.353
 5747SOL    HW218141   1.584   6.938   1.340
 5748SOL     OW18142   6.041   6.612   0.075
 5748SOL    HW118143   6.044   6.674   0.153
 5748SOL    HW218144   6.134   6.587   0.048
 5749SOL     OW18145   1.997   6.146   6.221
 5749SOL    HW118146   2.066   6.075   6.208
 5749SOL    HW218147   1.910   6.104   6.247
 5750SOL     OW18148   6.607   2.544   4.268
 5750SOL    HW118149   6.691   2.517   4.315
 5750SOL    HW218150   6.612   2.641   4.244
 5751SOL     OW18151   0.652   3.583   4.653
 5751SOL    HW118152   0.745   3.611   4.676
 5751SOL    HW218153   0.634   3.601   4.556
 5752SOL     OW18154   5.183   0.464   0.158
 5752SOL    HW118155   5.153   0.392   0.096
 5752SOL    HW218156   5.106   0.524   0.181
 5753SOL     OW18157   3.788   4.110   4.855
 5753SOL    HW118158   3.704   4.153   4.823
 5753SOL    HW218159   3.832   4.168   4.924
 5754SOL     OW18160   6.866   6.057   1.157
 5754SOL    HW118161   6.781   6.043   1.106
 5754SOL    HW218162   6.944   6.050   1.095
 5755SOL     OW18163   1.407   3.226   6.718
 5755SOL    HW118164   1.316   3.202   6.752
 5755SOL    HW218165   1.451   3.288   6.783
 5756SOL     OW18166   6.415   6.091   2.055
 5756SOL    HW118167   6.345   6.131   2.114
 5756SOL    HW218168   6.383   6.002   2.021
 5757SOL     OW18169   6.950   1.340   3.738
 5757SOL    HW118170   6.876   1.337   3.672
 5757SOL    HW218171   6.931   1.410   3.807
 5758SOL     OW18172   6.120   6.696   2.751
 5758SOL    HW118173   6.217   6.677   2.762
 5758SOL    HW218174   6.071   6.669   2.834
 5759SOL     OW18175   2.776   0.146   2.465
 5759SOL    HW118176   2.873   0.129   2.478
 5759SOL    HW218177   2.732   0.159   2.554
 5760SOL     OW18178   1.215   2.413   6.893
 5760SOL    HW118179   1.243   2.494   6.840
 5760SOL    HW218180   1.285   2.343   6.885
 5761SOL     OW18181   6.522   6.589   4.529
 5761SOL    HW118182   6.479   6.649   4.462
 5761SOL    HW218183   6.497   6.619   4.621
 5762SOL     OW18184   0.946   5.539   5.815
 5762SOL    HW118185   1.012   5.545   5.890
 5762SOL    HW218186   0.942   5.626   5.766
 5763SOL     OW18187   5.461   0.355   0.758
 5763SOL    HW118188   5.445   0.445   0.798
 5763SOL    HW218189   5.512   0.298   0.822
 5764SOL     OW18190   4.666   6.618   4.402
 5764SOL    HW118191   4.637   6.549   4.469
 5764SOL    HW218192   4.691   6.573   4.316
 5765SOL     OW18193   6.598   4.920   2.250
 5765SOL    HW118194   6.602   4.829   2.290
 5765SOL    HW218195   6.647   4.984   2.309
 5766SOL     OW18196   0.726   1.260   4.017
 5766SOL    HW118197   0.746   1.162   4.022
 5766SOL    HW218198   0.675   1.280   3.934
 5767SOL     OW18199   3.944   6.897   6.884
 5767SOL    HW118200   3.898   6.851   6.809
 5767SOL    HW218201   4.030   6.850   6.904
 5768SOL     OW18202   1.234   0.906   5.096
 5768SOL    HW118203   1.271   0.845   5.026
 5768SOL    HW218204   1.135   0.912   5.086
 5769SOL     OW18205   1.131   3.067   5.887
 5769SOL    HW118206   1.160   3.032   5.976
 5769SOL    HW218207   1.197   3.135   5.854
 5770SOL     OW18208   2.152   4.465   1.915
 5770SOL    HW118209   2.112   4.379   1.946
 5770SOL    HW218210   2.251   4.453   1.903
 5771SOL     OW18211   2.926   4.842   3.754
 5771SOL    HW118212   2.898   4.746   3.763
 5771SOL    HW218213   2.881   4.882   3.674
 5772SOL     OW18214   3.318   6.920   2.690
 5772SOL    HW118215   3.244   6.902   2.755
 5772SOL    HW218216   3.280   6.933   2.598
 5773SOL     OW18217   5.840   1.403   2.732
 5773SOL    HW118218   5.828   1.346   2.651
 5773SOL    HW218219   5.901   1.479   2.711
 5774SOL     OW18220   0.736   6.633   2.934
 5774SOL    HW118221   0.655   6.575   2.941
 5774SOL    HW218222   0.713   6.716   2.882
 5775SOL     OW18223   6.167   5.077   2.199
 5775SOL    HW118224   6.231   5.118   2.134
 5775SOL    HW218225   6.077   5.068   2.155
 5776SOL     OW18226   2.208   1.115   4.302
 5776SOL    HW118227   2.252   1.205   4.308
 5776SOL    HW218228   2.153   1.111   4.218
 5777SOL     OW18229   1.899   6.914   1.909
 5777SOL    HW118230   1.962   6.848   1.870
 5777SOL    HW218231   1.893   6.899   2.008
 5778SOL     OW18232   6.831   0.957   1.089
 5778SOL    HW118233   6.885   0.902   1.026
 5778SOL    HW218234   6.792   0.898   1.160
 5779SOL     OW18235   5.710   1.343   6.634
 5779SOL    HW118236   5.643   1.270   6.637
 5779SOL    HW218237   5.701   1.401   6.715
 5780SOL     OW18238   5.003   4.975   4.170
 5780SOL    HW118239   5.036   5.068   4.152
 5780SOL    HW218240   4.919   4.959   4.119
 5781SOL     OW18241   1.332   5.554   5.745
 5781SOL    HW118242   1.392   5.569   5.823
 5781SOL    HW218243   1.350   5.625   5.676
 5782SOL     OW18244   0.162   0.901   6.828
 5782SOL    HW118245   0.139   0.808   6.857
 5782SOL    HW218246   0.122   0.967   6.891
 5783SOL     OW18247   2.521   2.462   0.403
 5783SOL    HW118248   2.493   2.499   0.314
 5783SOL    HW218249   2.621   2.451   0.404
 5784SOL     OW18250   6.822   6.167   6.930
 5784SOL    HW118251   6.921   6.171   6.915
 5784SOL    HW218252   6.782   6.257   6.913
 5785SOL     OW18253   1.084   1.355   0.669
 5785SOL    HW118254   1.169   1.337   0.718
 5785SOL    HW218255   1.096   1.432   0.607
 5786SOL     OW18256   6.172   5.319   1.268
 5786SOL    HW118257   6.117   5.346   1.189
 5786SOL    HW218258   6.266   5.354   1.256
 5787SOL     OW18259   2.154   3.045   6.397
 5787SOL    HW118260   2.217   3.038   6.320
 5787SOL    HW218261   2.061   3.061   6.363
 5788SOL     OW18262   3.524   0.535   3.560
 5788SOL    HW118263   3.551   0.439   3.557
 5788SOL    HW218264   3.425   0.543   3.566
 5789SOL     OW18265   3.944   4.903   6.484
 5789SOL    HW118266   3.878   4.874   6.415
 5789SOL    HW218267   4.036   4.902   6.445
 5790SOL     OW18268   1.100   3.307   3.695
 5790SOL    HW118269   1.071   3.234   3.756
 5790SOL    HW218270   1.068   3.287   3.602
 5791SOL     OW18271   2.085   0.549   3.392
 5791SOL    HW118272   1.997   0.552   3.439
 5791SOL    HW218273   2.100   0.457   3.356
 5792SOL     OW18274   6.789   2.610   3.033
 5792SOL    HW118275   6.880   2.569   3.039
 5792SOL    HW218276   6.761   2.616   2.937
 5793SOL     OW18277   0.024   0.826   4.293
 5793SOL    HW118278   6.956   0.859   4.272
 5793SOL    HW218279   0.081   0.902   4.322
 5794SOL     OW18280   5.960   4.683   6.060
 5794SOL    HW118281   5.895   4.629   6.114
 5794SOL    HW218282   5.934   4.679   5.963
 5795SOL     OW18283   5.558   4.240   6.495
 5795SOL    HW118284   5.471   4.276   6.461
 5795SOL    HW218285   5.583   4.158   6.443
 5796SOL     OW18286   2.977   2.366   0.305
 5796SOL    HW118287   3.038   2.409   0.372
 5796SOL    HW218288   2.944   2.279   0.341
 5797SOL     OW18289   2.933   2.640   6.084
 5797SOL    HW118290   2.932   2.686   5.996
 5797SOL    HW218291   2.858   2.675   6.141
 5798SOL     OW18292   6.619   5.372   4.370
 5798SOL    HW118293   6.685   5.318   4.424
 5798SOL    HW218294   6.654   5.464   4.357
 5799SOL     OW18295   5.181   0.925   3.785
 5799SOL    HW118296   5.224   1.014   3.768
 5799SOL    HW218297   5.091   0.922   3.742
 5800SOL     OW18298   5.998   5.680   6.819
 5800SOL    HW118299   6.040   5.636   6.740
 5800SOL    HW218300   6.006   5.621   6.899
 5801SOL     OW18301   1.776   0.940   2.840
 5801SOL    HW118302   1.706   0.919   2.909
 5801SOL    HW218303   1.841   1.006   2.878
 5802SOL     OW18304   0.491   2.434   4.599
 5802SOL    HW118305   0.476   2.470   4.507
 5802SOL    HW218306   0.512   2.509   4.661
 5803SOL     OW18307   1.855   4.794   0.780
 5803SOL    HW118308   1.830   4.875   0.831
 5803SOL    HW218309   1.805   4.715   0.815
 5804SOL     OW18310   6.617   3.060   5.850
 5804SOL    HW118311   6.588   3.155   5.832
 5804SOL    HW218312   6.616   3.009   5.764
 5805SOL     OW18313   5.980   3.146   6.854
 5805SOL    HW118314   5.917   3.071   6.876
 5805SOL    HW218315   5.930   3.232   6.851
 5806SOL     OW18316   7.012   6.815   6.809
 5806SOL    HW118317   0.083   6.808   6.777
 5806SOL    HW218318   6.963   6.881   6.752
 5807SOL     OW18319   2.147   3.789   1.964
 5807SOL    HW118320   2.080   3.804   1.891
 5807SOL    HW218321   2.201   3.707   1.943
 5808SOL     OW18322   6.595   2.144   3.492
 5808SOL    HW118323   6.510   2.091   3.488
 5808SOL    HW218324   6.593   2.216   3.423
 5809SOL     OW18325   6.747   3.214   4.310
 5809SOL    HW118326   6.757   3.127   4.262
 5809SOL    HW218327   6.827   3.271   4.294
 5810SOL     OW18328   2.441   2.256   2.757
 5810SOL    HW118329   2.452   2.336   2.817
 5810SOL    HW218330   2.424   2.175   2.813
 5811SOL     OW18331   2.961   1.308   2.356
 5811SOL    HW118332   2.885   1.331   2.296
 5811SOL    HW218333   3.030   1.380   2.353
 5812SOL     OW18334   4.611   0.630   4.744
 5812SOL    HW118335   4.542   0.681   4.693
 5812SOL    HW218336   4.677   0.589   4.681
 5813SOL     OW18337   1.594   1.067   5.302
 5813SOL    HW118338   1.680   1.116   5.313
 5813SOL    HW218339   1.523   1.111   5.357
 5814SOL     OW18340   0.571   5.102   0.919
 5814SOL    HW118341   0.542   5.010   0.892
 5814SOL    HW218342   0.490   5.159   0.933
 5815SOL     OW18343   3.402   1.478   3.475
 5815SOL    HW118344   3.495   1.462   3.442
 5815SOL    HW218345   3.405   1.506   3.571
 5816SOL     OW18346   4.928   6.638   1.078
 5816SOL    HW118347   4.960   6.554   1.035
 5816SOL    HW218348   4.993   6.712   1.060
 5817SOL     OW18349   5.694   2.054   5.570
 5817SOL    HW118350   5.757   2.130   5.587
 5817SOL    HW218351   5.703   1.987   5.643
 5818SOL     OW18352   6.213   6.822   5.483
 5818SOL    HW118353   6.266   6.745   5.520
 5818SOL    HW218354   6.243   6.839   5.389
 5819SOL     OW18355   5.396   0.589   0.875
 5819SOL    HW118356   5.355   0.554   0.959
 5819SOL    HW218357   5.419   0.686   0.888
 5820SOL     OW18358   6.086   5.512   2.919
 5820SOL    HW118359   6.122   5.493   2.828
 5820SOL    HW218360   6.073   5.425   2.968
 5821SOL     OW18361   3.483   6.818   2.106
 5821SOL    HW118362   3.541   6.779   2.035
 5821SOL    HW218363   3.446   6.905   2.075
 5822SOL     OW18364   0.697   0.866   2.524
 5822SOL    HW118365   0.654   0.928   2.459
 5822SOL    HW218366   0.789   0.844   2.493
 5823SOL     OW18367   2.263   2.805   4.272
 5823SOL    HW118368   2.326   2.740   4.230
 5823SOL    HW218369   2.293   2.825   4.365
 5824SOL     OW18370   4.412   0.375   3.474
 5824SOL    HW118371   4.395   0.470   3.448
 5824SOL    HW218372   4.462   0.373   3.561
 5825SOL     OW18373   2.623   1.042   0.788
 5825SOL    HW118374   2.712   1.039   0.741
 5825SOL    HW218375   2.636   1.018   0.885
 5826SOL     OW18376   6.232   0.289   4.529
 5826SOL    HW118377   6.293   0.251   4.598
 5826SOL    HW218378   6.231   0.389   4.536
 5827SOL     OW18379   1.390   5.032   5.356
 5827SOL    HW118380   1.333   5.085   5.418
 5827SOL    HW218381   1.366   4.935   5.364
 5828SOL     OW18382   6.848   2.934   1.562
 5828SOL    HW118383   6.876   2.903   1.470
 5828SOL    HW218384   6.912   3.004   1.594
 5829SOL     OW18385   1.492   1.669   1.825
 5829SOL    HW118386   1.489   1.736   1.751
 5829SOL    HW218387   1.551   1.703   1.899
 5830SOL     OW18388   2.623   0.805   5.531
 5830SOL    HW118389   2.596   0.717   5.569
 5830SOL    HW218390   2.577   0.879   5.581
 5831SOL     OW18391   5.761   6.077   2.826
 5831SOL    HW118392   5.838   6.131   2.793
 5831SOL    HW218393   5.720   6.123   2.905
 5832SOL     OW18394   3.797   3.463   4.698
 5832SOL    HW118395   3.758   3.382   4.656
 5832SOL    HW218396   3.896   3.450   4.710
 5833SOL     OW18397   3.646   3.350   5.223
 5833SOL    HW118398   3.597   3.423   5.269
 5833SOL    HW218399   3.598   3.263   5.236
 5834SOL     OW18400   6.170   0.774   0.414
 5834SOL    HW118401   6.236   0.828   0.465
 5834SOL    HW218402   6.163   0.683   0.454
 5835SOL     OW18403   5.258   2.870   3.997
 5835SOL    HW118404   5.160   2.851   3.995
 5835SOL    HW218405   5.288   2.899   3.906
 5836SOL     OW18406   3.661   6.505   2.604
 5836SOL    HW118407   3.680   6.412   2.634
 5836SOL    HW218408   3.570   6.532   2.635
 5837SOL     OW18409   4.891   5.017   6.263
 5837SOL    HW118410   4.944   5.038   6.181
 5837SOL    HW218411   4.930   4.937   6.308
 5838SOL     OW18412   0.254   1.927   5.290
 5838SOL    HW118413   0.341   1.923   5.339
 5838SOL    HW218414   0.193   1.991   5.336
 5839SOL     OW18415   6.924   2.947   2.708
 5839SOL    HW118416   6.994   2.881   2.679
 5839SOL    HW218417   6.965   3.038   2.716
 5840SOL     OW18418   2.041   5.621   0.297
 5840SOL    HW118419   2.117   5.561   0.321
 5840SOL    HW218420   1.987   5.578   0.225
 5841SOL     OW18421   6.328   2.201   2.764
 5841SOL    HW118422   6.373   2.193   2.853
 5841SOL    HW218423   6.366   2.132   2.702
 5842SOL     OW18424   4.013   2.980   0.319
 5842SOL    HW118425   3.963   2.902   0.284
 5842SOL    HW218426   3.986   3.063   0.270
 5843SOL     OW18427   1.531   2.783   1.513
 5843SOL    HW118428   1.548   2.853   1.583
 5843SOL    HW218429   1.542   2.824   1.423
 5844SOL     OW18430   1.134   5.912   6.707
 5844SOL    HW118431   1.071   5.989   6.714
 5844SOL    HW218432   1.228   5.944   6.718
 5845SOL     OW18433   1.287   1.902   4.609
 5845SOL    HW118434   1.268   1.811   4.571
 5845SOL    HW218435   1.236   1.971   4.557
 5846SOL     OW18436   0.313   3.386   6.343
 5846SOL    HW118437   0.385   3.342   6.290
 5846SOL    HW218438   0.313   3.349   6.437
 5847SOL     OW18439   1.595   2.270   3.584
 5847SOL    HW118440   1.531   2.316   3.521
 5847SOL    HW218441   1.661   2.337   3.619
 5848SOL     OW18442   1.210   4.878   3.890
 5848SOL    HW118443   1.212   4.967   3.845
 5848SOL    HW218444   1.280   4.819   3.850
 5849SOL     OW18445   3.475   6.568   5.314
 5849SOL    HW118446   3.445   6.598   5.404
 5849SOL    HW218447   3.574   6.561   5.312
 5850SOL     OW18448   1.098   3.817   3.277
 5850SOL    HW118449   1.097   3.892   3.343
 5850SOL    HW218450   1.192   3.802   3.247
 5851SOL     OW18451   5.295   2.783   2.013
 5851SOL    HW118452   5.224   2.844   1.977
 5851SOL    HW218453   5.384   2.812   1.978
 5852SOL     OW18454   3.921   5.783   2.722
 5852SOL    HW118455   3.980   5.744   2.792
 5852SOL    HW218456   3.919   5.883   2.731
 5853SOL     OW18457   4.076   4.156   5.462
 5853SOL    HW118458   4.134   4.186   5.538
 5853SOL    HW218459   4.129   4.095   5.403
 5854SOL     OW18460   0.635   1.255   6.771
 5854SOL    HW118461   0.697   1.313   6.822
 5854SOL    HW218462   0.652   1.159   6.793
 5855SOL     OW18463   1.902   0.975   5.045
 5855SOL    HW118464   1.861   0.977   4.954
 5855SOL    HW218465   1.871   1.053   5.098
 5856SOL     OW18466   2.281   5.606   3.495
 5856SOL    HW118467   2.212   5.603   3.567
 5856SOL    HW218468   2.304   5.513   3.466
 5857SOL     OW18469   0.187   2.272   5.913
 5857SOL    HW118470   0.199   2.282   6.012
 5857SOL    HW218471   0.204   2.361   5.869
 5858SOL     OW18472   3.768   6.553   3.317
 5858SOL    HW118473   3.763   6.471   3.260
 5858SOL    HW218474   3.825   6.535   3.397
 5859SOL     OW18475   6.547   5.842   1.525
 5859SOL    HW118476   6.555   5.764   1.587
 5859SOL    HW218477   6.506   5.919   1.574
 5860SOL     OW18478   1.115   3.593   1.535
 5860SOL    HW118479   1.137   3.604   1.438
 5860SOL    HW218480   1.143   3.502   1.565
 5861SOL     OW18481   5.952   2.081   3.908
 5861SOL    HW118482   6.011   2.139   3.851
 5861SOL    HW218483   5.874   2.135   3.940
 5862SOL     OW18484   4.926   4.334   3.243
 5862SOL    HW118485   4.871   4.353   3.324
 5862SOL    HW218486   5.004   4.278   3.268
 5863SOL     OW18487   1.809   1.490   1.098
 5863SOL    HW118488   1.715   1.505   1.066
 5863SOL    HW218489   1.866   1.463   1.021
 5864SOL     OW18490   4.575   5.269   0.569
 5864SOL    HW118491   4.555   5.276   0.471
 5864SOL    HW218492   4.660   5.318   0.589
 5865SOL     OW18493   4.454   1.204   3.503
 5865SOL    HW118494   4.497   1.115   3.492
 5865SOL    HW218495   4.367   1.206   3.454
 5866SOL     OW18496   3.331   1.290   6.664
 5866SOL    HW118497   3.388   1.367   6.692
 5866SOL    HW218498   3.387   1.208   6.654
 5867SOL     OW18499   0.388   2.779   0.774
 5867SOL    HW118500   0.311   2.755   0.716
 5867SOL    HW218501   0.404   2.878   0.768
 5868SOL     OW18502   1.580   0.030   4.607
 5868SOL    HW118503   1.573   0.127   4.629
 5868SOL    HW218504   1.524   0.009   4.527
 5869SOL     OW18505   3.196   4.931   3.791
 5869SOL    HW118506   3.113   4.878   3.780
 5869SOL    HW218507   3.183   5.022   3.750
 5870SOL     OW18508   5.349   5.116   4.446
 5870SOL    HW118509   5.417   5.150   4.510
 5870SOL    HW218510   5.300   5.192   4.405
 5871SOL     OW18511   2.747   3.282   0.486
 5871SOL    HW118512   2.675   3.214   0.480
 5871SOL    HW218513   2.707   3.372   0.507
 5872SOL     OW18514   3.881   6.114   4.299
 5872SOL    HW118515   3.834   6.078   4.218
 5872SOL    HW218516   3.823   6.100   4.379
 5873SOL     OW18517   2.214   3.829   0.148
 5873SOL    HW118518   2.181   3.744   0.106
 5873SOL    HW218519   2.293   3.809   0.206
 5874SOL     OW18520   1.131   4.451   6.888
 5874SOL    HW118521   1.214   4.468   6.836
 5874SOL    HW218522   1.063   4.407   6.829
 5875SOL     OW18523   4.641   2.064   0.231
 5875SOL    HW118524   4.672   2.110   0.315
 5875SOL    HW218525   4.596   2.131   0.172
 5876SOL     OW18526   3.933   4.240   6.328
 5876SOL    HW118527   3.846   4.285   6.308
 5876SOL    HW218528   3.935   4.211   6.424
 5877SOL     OW18529   6.291   0.488   2.033
 5877SOL    HW118530   6.249   0.445   2.113
 5877SOL    HW218531   6.380   0.526   2.059
 5878SOL     OW18532   5.033   4.619   2.068
 5878SOL    HW118533   5.023   4.719   2.070
 5878SOL    HW218534   5.130   4.596   2.069
 5879SOL     OW18535   3.463   3.241   5.491
 5879SOL    HW118536   3.447   3.336   5.521
 5879SOL    HW218537   3.398   3.219   5.418
 5880SOL     OW18538   6.075   2.788   6.379
 5880SOL    HW118539   6.031   2.813   6.293
 5880SOL    HW218540   6.105   2.871   6.427
 5881SOL     OW18541   1.563   6.599   2.568
 5881SOL    HW118542   1.553   6.545   2.485
 5881SOL    HW218543   1.659   6.622   2.582
 5882SOL     OW18544   1.697   4.863   5.840
 5882SOL    HW118545   1.726   4.942   5.786
 5882SOL    HW218546   1.597   4.857   5.839
 5883SOL     OW18547   6.224   4.911   0.231
 5883SOL    HW118548   6.270   4.954   0.309
 5883SOL    HW218549   6.126   4.909   0.248
 5884SOL     OW18550   0.017   0.927   2.547
 5884SOL    HW118551   6.990   0.938   2.632
 5884SOL    HW218552   7.021   0.837   2.507
 5885SOL     OW18553   0.036   5.369   0.670
 5885SOL    HW118554   6.997   5.409   0.737
 5885SOL    HW218555   0.040   5.428   0.589
 5886SOL     OW18556   1.785   4.644   3.642
 5886SOL    HW118557   1.701   4.624   3.692
 5886SOL    HW218558   1.826   4.728   3.677
 5887SOL     OW18559   2.480   2.831   0.536
 5887SOL    HW118560   2.385   2.819   0.566
 5887SOL    HW218561   2.486   2.813   0.438
 5888SOL     OW18562   2.478   6.485   1.596
 5888SOL    HW118563   2.447   6.453   1.685
 5888SOL    HW218564   2.508   6.408   1.541
 5889SOL     OW18565   5.857   0.948   2.106
 5889SOL    HW118566   5.869   0.997   2.020
 5889SOL    HW218567   5.945   0.939   2.152
 5890SOL     OW18568   2.477   5.006   3.555
 5890SOL    HW118569   2.406   5.055   3.606
 5890SOL    HW218570   2.486   4.913   3.591
 5891SOL     OW18571   2.469   3.987   6.547
 5891SOL    HW118572   2.542   3.919   6.548
 5891SOL    HW218573   2.393   3.954   6.491
 5892SOL     OW18574   0.738   3.163   0.462
 5892SOL    HW118575   0.819   3.218   0.441
 5892SOL    HW218576   0.656   3.217   0.448
 5893SOL     OW18577   0.718   6.497   1.034
 5893SOL    HW118578   0.726   6.425   1.103
 5893SOL    HW218579   0.690   6.582   1.078
 5894SOL     OW18580   1.776   6.052   6.900
 5894SOL    HW118581   1.850   5.999   6.941
 5894SOL    HW218582   1.814   6.111   6.828
 5895SOL     OW18583   5.684   4.482   3.355
 5895SOL    HW118584   5.699   4.423   3.276
 5895SOL    HW218585   5.680   4.426   3.438
 5896SOL     OW18586   5.638   2.304   2.235
 5896SOL    HW118587   5.541   2.326   2.223
 5896SOL    HW218588   5.690   2.388   2.248
 5897SOL     OW18589   3.927   2.449   0.529
 5897SOL    HW118590   3.977   2.510   0.590
 5897SOL    HW218591   3.840   2.491   0.504
 5898SOL     OW18592   2.286   1.192   6.602
 5898SOL    HW118593   2.337   1.187   6.516
 5898SOL    HW218594   2.193   1.223   6.584
 5899SOL     OW18595   0.397   6.645   6.550
 5899SOL    HW118596   0.471   6.701   6.512
 5899SOL    HW218597   0.354   6.693   6.626
 5900SOL     OW18598   6.111   6.325   2.554
 5900SOL    HW118599   6.211   6.316   2.558
 5900SOL    HW218600   6.087   6.416   2.520
 5901SOL     OW18601   2.668   0.593   4.955
 5901SOL    HW118602   2.675   0.691   4.975
 5901SOL    HW218603   2.643   0.544   5.038
 5902SOL     OW18604   4.099   3.902   5.923
 5902SOL    HW118605   4.106   3.824   5.862
 5902SOL    HW218606   4.030   3.966   5.889
 5903SOL     OW18607   6.627   1.900   5.455
 5903SOL    HW118608   6.652   1.818   5.402
 5903SOL    HW218609   6.678   1.979   5.419
 5904SOL     OW18610   0.692   4.896   1.304
 5904SOL    HW118611   0.669   4.911   1.400
 5904SOL    HW218612   0.767   4.956   1.278
 5905SOL     OW18613   5.907   1.982   4.588
 5905SOL    HW118614   5.828   2.024   4.634
 5905SOL    HW218615   5.972   2.053   4.561
 5906SOL     OW18616   4.113   1.515   5.934
 5906SOL    HW118617   4.141   1.439   5.875
 5906SOL    HW218618   4.154   1.600   5.900
 5907SOL     OW18619   1.206   3.403   6.045
 5907SOL    HW118620   1.225   3.425   6.141
 5907SOL    HW218621   1.258   3.466   5.986
 5908SOL     OW18622   4.734   3.891   6.451
 5908SOL    HW118623   4.684   3.874   6.366
 5908SOL    HW218624   4.795   3.969   6.439
 5909SOL     OW18625   6.573   4.967   3.667
 5909SOL    HW118626   6.637   4.957   3.743
 5909SOL    HW218627   6.545   4.877   3.634
 5910SOL     OW18628   3.132   4.384   0.702
 5910SOL    HW118629   3.165   4.388   0.796
 5910SOL    HW218630   3.149   4.472   0.657
 5911SOL     OW18631   6.385   0.174   6.831
 5911SOL    HW118632   6.408   0.096   6.772
 5911SOL    HW218633   6.467   0.204   6.880
 5912SOL     OW18634   0.852   3.312   4.913
 5912SOL    HW118635   0.880   3.365   4.833
 5912SOL    HW218636   0.906   3.340   4.992
 5913SOL     OW18637   1.578   2.264   4.583
 5913SOL    HW118638   1.541   2.244   4.493
 5913SOL    HW218639   1.670   2.302   4.575
 5914SOL     OW18640   1.659   6.210   0.667
 5914SOL    HW118641   1.725   6.280   0.693
 5914SOL    HW218642   1.594   6.195   0.742
 5915SOL     OW18643   5.670   3.366   4.431
 5915SOL    HW118644   5.687   3.283   4.379
 5915SOL    HW218645   5.616   3.345   4.512
 5916SOL     OW18646   3.299   0.061   6.169
 5916SOL    HW118647   3.321   0.158   6.181
 5916SOL    HW218648   3.202   0.046   6.191
 5917SOL     OW18649   3.306   4.121   2.686
 5917SOL    HW118650   3.373   4.098   2.615
 5917SOL    HW218651   3.277   4.216   2.676
 5918SOL     OW18652   2.752   1.913   4.157
 5918SOL    HW118653   2.694   1.904   4.238
 5918SOL    HW218654   2.696   1.899   4.075
 5919SOL     OW18655   1.636   2.193   6.664
 5919SOL    HW118656   1.619   2.149   6.752
 5919SOL    HW218657   1.558   2.177   6.603
 5920SOL     OW18658   2.286   5.429   0.315
 5920SOL    HW118659   2.220   5.375   0.368
 5920SOL    HW218660   2.298   5.387   0.225
 5921SOL     OW18661   3.899   5.392   6.100
 5921SOL    HW118662   3.886   5.344   6.187
 5921SOL    HW218663   3.973   5.458   6.109
 5922SOL     OW18664   5.890   4.359   1.257
 5922SOL    HW118665   5.842   4.374   1.344
 5922SOL    HW218666   5.824   4.355   1.183
 5923SOL     OW18667   0.040   0.539   3.514
 5923SOL    HW118668   0.096   0.525   3.432
 5923SOL    HW218669   0.006   0.451   3.546
 5924SOL     OW18670   5.905   1.767   5.141
 5924SOL    HW118671   5.905   1.674   5.105
 5924SOL    HW218672   5.835   1.776   5.212
 5925SOL     OW18673   6.324   5.992   0.552
 5925SOL    HW118674   6.263   6.003   0.474
 5925SOL    HW218675   6.294   5.915   0.608
 5926SOL     OW18676   3.052   5.188   2.638
 5926SOL    HW118677   2.987   5.259   2.666
 5926SOL    HW218678   3.064   5.191   2.539
 5927SOL     OW18679   2.369   5.367   2.165
 5927SOL    HW118680   2.355   5.408   2.256
 5927SOL    HW218681   2.390   5.438   2.099
 5928SOL     OW18682   0.667   6.083   1.109
 5928SOL    HW118683   0.656   6.020   1.032
 5928SOL    HW218684   0.581   6.131   1.125
 5929SOL     OW18685   0.962   6.870   5.241
 5929SOL    HW118686   0.978   6.958   5.287
 5929SOL    HW218687   0.870   6.868   5.204
 5930SOL     OW18688   6.384   1.291   4.924
 5930SOL    HW118689   6.431   1.207   4.951
 5930SOL    HW218690   6.306   1.306   4.985
 5931SOL     OW18691   5.813   4.954   1.247
 5931SOL    HW118692   5.877   4.918   1.178
 5931SOL    HW218693   5.797   5.052   1.230
 5932SOL     OW18694   2.390   0.052   0.075
 5932SOL    HW118695   2.384   6.986   0.118
 5932SOL    HW218696   2.328   0.115   0.120
 5933SOL     OW18697   5.914   3.682   2.556
 5933SOL    HW118698   5.834   3.625   2.569
 5933SOL    HW218699   5.997   3.628   2.570
 5934SOL     OW18700   3.505   4.123   2.487
 5934SOL    HW118701   3.451   4.046   2.453
 5934SOL    HW218702   3.599   4.115   2.455
 5935SOL     OW18703   4.054   3.649   3.008
 5935SOL    HW118704   4.105   3.614   2.930
 5935SOL    HW218705   4.052   3.580   3.081
 5936SOL     OW18706   5.998   6.283   6.413
 5936SOL    HW118707   6.035   6.289   6.321
 5936SOL    HW218708   5.924   6.350   6.424
 5937SOL     OW18709   1.669   4.464   0.204
 5937SOL    HW118710   1.587   4.481   0.150
 5937SOL    HW218711   1.705   4.373   0.181
 5938SOL     OW18712   1.896   4.051   1.094
 5938SOL    HW118713   1.965   3.984   1.123
 5938SOL    HW218714   1.887   4.049   0.995
 5939SOL     OW18715   1.799   1.127   2.580
 5939SOL    HW118716   1.811   1.041   2.629
 5939SOL    HW218717   1.817   1.112   2.482
 5940SOL     OW18718   4.141   5.231   3.545
 5940SOL    HW118719   4.150   5.169   3.623
 5940SOL    HW218720   4.224   5.228   3.490
 5941SOL     OW18721   6.682   3.381   2.844
 5941SOL    HW118722   6.684   3.311   2.915
 5941SOL    HW218723   6.668   3.338   2.755
 5942SOL     OW18724   6.760   1.915   5.002
 5942SOL    HW118725   6.671   1.959   4.999
 5942SOL    HW218726   6.826   1.977   5.045
 5943SOL     OW18727   0.906   5.366   0.723
 5943SOL    HW118728   0.810   5.348   0.744
 5943SOL    HW218729   0.958   5.373   0.808
 5944SOL     OW18730   5.118   2.075   2.979
 5944SOL    HW118731   5.059   2.085   3.059
 5944SOL    HW218732   5.084   2.134   2.906
 5945SOL     OW18733   6.852   4.968   5.943
 5945SOL    HW118734   6.768   4.914   5.951
 5945SOL    HW218735   6.854   5.037   6.015
 5946SOL     OW18736   3.918   2.818   5.188
 5946SOL    HW118737   3.969   2.894   5.147
 5946SOL    HW218738   3.955   2.731   5.153
 5947SOL     OW18739   4.349   3.860   1.465
 5947SOL    HW118740   4.265   3.822   1.505
 5947SOL    HW218741   4.352   3.959   1.480
 5948SOL     OW18742   3.573   5.198   3.595
 5948SOL    HW118743   3.670   5.194   3.619
 5948SOL    HW218744   3.527   5.116   3.628
 5949SOL     OW18745   4.653   4.346   2.570
 5949SOL    HW118746   4.616   4.261   2.609
 5949SOL    HW218747   4.721   4.384   2.632
 5950SOL     OW18748   6.060   2.494   3.907
 5950SOL    HW118749   6.147   2.517   3.864
 5950SOL    HW218750   5.988   2.491   3.838
 5951SOL     OW18751   2.068   6.686   4.045
 5951SOL    HW118752   2.077   6.592   4.011
 5951SOL    HW218753   2.057   6.684   4.144
 5952SOL     OW18754   6.808   6.092   5.006
 5952SOL    HW118755   6.874   6.164   5.027
 5952SOL    HW218756   6.856   6.013   4.970
 5953SOL     OW18757   0.789   3.636   6.151
 5953SOL    HW118758   0.780   3.705   6.223
 5953SOL    HW218759   0.703   3.632   6.099
 5954SOL     OW18760   0.792   5.150   6.777
 5954SOL    HW118761   0.764   5.165   6.872
 5954SOL    HW218762   0.722   5.095   6.731
 5955SOL     OW18763   4.360   5.249   2.595
 5955SOL    HW118764   4.366   5.271   2.498
 5955SOL    HW218765   4.275   5.285   2.633
 5956SOL     OW18766   6.852   2.135   0.102
 5956SOL    HW118767   6.875   2.051   0.151
 5956SOL    HW218768   6.808   2.200   0.164
 5957SOL     OW18769   4.628   6.985   5.183
 5957SOL    HW118770   4.727   6.986   5.196
 5957SOL    HW218771   4.603   6.911   5.121
 5958SOL     OW18772   1.370   5.377   2.756
 5958SOL    HW118773   1.406   5.344   2.669
 5958SOL    HW218774   1.432   5.350   2.830
 5959SOL     OW18775   1.899   0.720   6.828
 5959SOL    HW118776   1.925   0.625   6.810
 5959SOL    HW218777   1.978   0.779   6.813
 5960SOL     OW18778   3.617   6.596   4.858
 5960SOL    HW118779   3.633   6.693   4.838
 5960SOL    HW218780   3.576   6.552   4.778
 5961SOL     OW18781   2.382   1.147   5.883
 5961SOL    HW118782   2.461   1.201   5.911
 5961SOL    HW218783   2.301   1.206   5.882
 5962SOL     OW18784   5.151   4.806   2.698
 5962SOL    HW118785   5.169   4.901   2.721
 5962SOL    HW218786   5.187   4.786   2.607
 5963SOL     OW18787   3.979   3.970   1.912
 5963SOL    HW118788   4.038   3.910   1.967
 5963SOL    HW218789   4.031   4.003   1.833
 5964SOL     OW18790   1.539   3.693   5.577
 5964SOL    HW118791   1.596   3.741   5.510
 5964SOL    HW218792   1.443   3.712   5.558
 5965SOL     OW18793   2.305   1.375   3.924
 5965SOL    HW118794   2.301   1.469   3.891
 5965SOL    HW218795   2.384   1.328   3.883
 5966SOL     OW18796   1.889   6.288   4.060
 5966SOL    HW118797   1.849   6.352   4.125
 5966SOL    HW218798   1.837   6.202   4.061
 5967SOL     OW18799   4.501   6.329   2.242
 5967SOL    HW118800   4.413   6.330   2.195
 5967SOL    HW218801   4.492   6.281   2.329
 5968SOL     OW18802   0.221   2.012   4.256
 5968SOL    HW118803   0.215   1.913   4.272
 5968SOL    HW218804   0.261   2.028   4.166
 5969SOL     OW18805   5.522   2.941   2.715
 5969SOL    HW118806   5.444   2.961   2.773
 5969SOL    HW218807   5.571   3.026   2.694
 5970SOL     OW18808   2.015   3.283   3.435
 5970SOL    HW118809   1.995   3.222   3.358
 5970SOL    HW218810   1.948   3.268   3.508
 5971SOL     OW18811   2.640   6.679   2.675
 5971SOL    HW118812   2.574   6.714   2.608
 5971SOL    HW218813   2.635   6.580   2.678
 5972SOL     OW18814   4.792   0.066   1.651
 5972SOL    HW118815   4.867   0.067   1.586
 5972SOL    HW218816   4.827   0.046   1.742
 5973SOL     OW18817   1.162   4.009   3.057
 5973SOL    HW118818   1.138   3.962   3.142
 5973SOL    HW218819   1.257   3.991   3.035
 5974SOL     OW18820   1.023   3.876   6.414
 5974SOL    HW118821   1.120   3.872   6.389
 5974SOL    HW218822   0.968   3.865   6.331
 5975SOL     OW18823   2.168   3.573   0.030
 5975SOL    HW118824   2.265   3.580   0.008
 5975SOL    HW218825   2.123   3.517   6.984
 5976SOL     OW18826   3.636   2.969   4.815
 5976SOL    HW118827   3.728   2.992   4.847
 5976SOL    HW218828   3.606   3.038   4.749
 5977SOL     OW18829   1.012   3.225   3.451
 5977SOL    HW118830   0.918   3.219   3.418
 5977SOL    HW218831   1.075   3.223   3.374
 5978SOL     OW18832   5.195   5.330   3.231
 5978SOL    HW118833   5.158   5.237   3.224
 5978SOL    HW218834   5.128   5.395   3.195
 5979SOL     OW18835   1.017   1.037   2.095
 5979SOL    HW118836   0.943   1.091   2.056
 5979SOL    HW218837   1.082   1.013   2.023
 5980SOL     OW18838   6.294   3.864   6.338
 5980SOL    HW118839   6.348   3.801   6.283
 5980SOL    HW218840   6.232   3.915   6.279
 5981SOL     OW18841   3.846   2.131   1.286
 5981SOL    HW118842   3.884   2.128   1.378
 5981SOL    HW218843   3.853   2.225   1.250
 5982SOL     OW18844   6.032   2.495   6.843
 5982SOL    HW118845   6.127   2.487   6.811
 5982SOL    HW218846   6.007   2.591   6.849
 5983SOL     OW18847   0.585   1.062   4.879
 5983SOL    HW118848   0.518   1.083   4.807
 5983SOL    HW218849   0.665   1.121   4.868
 5984SOL     OW18850   0.477   6.907   5.550
 5984SOL    HW118851   0.499   7.005   5.553
 5984SOL    HW218852   0.442   6.878   5.639
 5985SOL     OW18853   5.043   3.089   3.999
 5985SOL    HW118854   5.043   3.181   4.039
 5985SOL    HW218855   5.135   3.069   3.964
 5986SOL     OW18856   3.581   3.221   2.229
 5986SOL    HW118857   3.519   3.226   2.308
 5986SOL    HW218858   3.534   3.175   2.153
 5987SOL     OW18859   4.801   6.888   5.680
 5987SOL    HW118860   4.809   6.847   5.771
 5987SOL    HW218861   4.892   6.901   5.641
 5988SOL     OW18862   3.625   6.864   4.823
 5988SOL    HW118863   3.683   6.857   4.903
 5988SOL    HW218864   3.681   6.865   4.740
 5989SOL     OW18865   2.791   1.564   6.806
 5989SOL    HW118866   2.788   1.615   6.719
 5989SOL    HW218867   2.841   1.618   6.874
 5990SOL     OW18868   3.286   4.916   2.359
 5990SOL    HW118869   3.344   4.984   2.314
 5990SOL    HW218870   3.196   4.916   2.316
 5991SOL     OW18871   3.060   5.544   3.705
 5991SOL    HW118872   2.979   5.517   3.653
 5991SOL    HW218873   3.046   5.526   3.802
 5992SOL     OW18874   4.488   2.122   4.714
 5992SOL    HW118875   4.557   2.145   4.646
 5992SOL    HW218876   4.397   2.133   4.674
 5993SOL     OW18877   3.800   6.008   4.047
 5993SOL    HW118878   3.887   5.974   4.013
 5993SOL    HW218879   3.738   6.025   3.970
 5994SOL     OW18880   6.143   2.781   1.383
 5994SOL    HW118881   6.092   2.707   1.425
 5994SOL    HW218882   6.157   2.761   1.286
 5995SOL     OW18883   0.986   4.596   1.310
 5995SOL    HW118884   0.900   4.600   1.258
 5995SOL    HW218885   0.968   4.617   1.406
 5996SOL     OW18886   0.614   5.768   5.802
 5996SOL    HW118887   0.568   5.728   5.722
 5996SOL    HW218888   0.554   5.837   5.843
 5997SOL     OW18889   0.476   0.329   1.334
 5997SOL    HW118890   0.520   0.262   1.394
 5997SOL    HW218891   0.377   0.324   1.345
 5998SOL     OW18892   4.509   2.182   3.253
 5998SOL    HW118893   4.506   2.184   3.353
 5998SOL    HW218894   4.556   2.099   3.223
 5999SOL     OW18895   2.155   2.695   3.446
 5999SOL    HW118896   2.141   2.612   3.499
 5999SOL    HW218897   2.162   2.774   3.508
 6000SOL     OW18898   4.922   0.109   3.285
 6000SOL    HW118899   4.838   0.082   3.331
 6000SOL    HW218900   4.924   0.070   3.192
 6001SOL     OW18901   5.905   1.656   7.022
 6001SOL    HW118902   5.924   1.743   6.976
 6001SOL    HW218903   5.834   1.670   0.067
 6002SOL     OW18904   1.554   0.592   1.695
 6002SOL    HW118905   1.587   0.500   1.713
 6002SOL    HW218906   1.631   0.656   1.697
 6003SOL     OW18907   5.221   3.956   3.906
 6003SOL    HW118908   5.142   3.902   3.938
 6003SOL    HW218909   5.192   4.050   3.891
 6004SOL     OW18910   0.017   3.396   1.499
 6004SOL    HW118911   6.975   3.459   1.540
 6004SOL    HW218912   0.094   3.384   1.561
 6005SOL     OW18913   2.043   5.987   2.755
 6005SOL    HW118914   2.024   5.892   2.781
 6005SOL    HW218915   2.109   5.989   2.680
 6006SOL     OW18916   2.026   5.961   7.013
 6006SOL    HW118917   2.107   6.014   6.992
 6006SOL    HW218918   2.016   5.953   0.088
 6007SOL     OW18919   5.300   3.072   4.418
 6007SOL    HW118920   5.224   3.044   4.359
 6007SOL    HW218921   5.337   2.991   4.464
 6008SOL     OW18922   4.927   4.310   1.263
 6008SOL    HW118923   4.870   4.339   1.339
 6008SOL    HW218924   4.997   4.380   1.245
 6009SOL     OW18925   3.446   1.821   4.290
 6009SOL    HW118926   3.414   1.764   4.365
 6009SOL    HW218927   3.431   1.917   4.313
 6010SOL     OW18928   1.331   3.000   3.391
 6010SOL    HW118929   1.385   3.065   3.445
 6010SOL    HW218930   1.272   3.051   3.328
 6011SOL     OW18931   6.716   2.918   1.818
 6011SOL    HW118932   6.745   2.836   1.869
 6011SOL    HW218933   6.770   2.927   1.735
 6012SOL     OW18934   0.264   3.099   1.100
 6012SOL    HW118935   0.218   3.143   1.023
 6012SOL    HW218936   0.359   3.078   1.075
 6013SOL     OW18937   5.795   0.690   2.050
 6013SOL    HW118938   5.795   0.672   2.149
 6013SOL    HW218939   5.804   0.788   2.034
 6014SOL     OW18940   5.291   0.503   1.113
 6014SOL    HW118941   5.360   0.487   1.184
 6014SOL    HW218942   5.202   0.518   1.157
 6015SOL     OW18943   5.461   1.392   4.791
 6015SOL    HW118944   5.415   1.447   4.861
 6015SOL    HW218945   5.460   1.296   4.818
 6016SOL     OW18946   1.511   6.833   5.290
 6016SOL    HW118947   1.586   6.891   5.322
 6016SOL    HW218948   1.511   6.748   5.341
 6017SOL     OW18949   6.896   3.824   2.511
 6017SOL    HW118950   6.901   3.904   2.451
 6017SOL    HW218951   6.805   3.820   2.553
 6018SOL     OW18952   2.314   5.496   1.289
 6018SOL    HW118953   2.217   5.514   1.306
 6018SOL    HW218954   2.341   5.535   1.201
 6019SOL     OW18955   5.515   6.589   3.309
 6019SOL    HW118956   5.591   6.562   3.369
 6019SOL    HW218957   5.484   6.509   3.258
 6020SOL     OW18958   2.686   0.174   2.723
 6020SOL    HW118959   2.767   0.232   2.720
 6020SOL    HW218960   2.654   0.166   2.817
 6021SOL     OW18961   4.352   0.952   3.743
 6021SOL    HW118962   4.425   0.883   3.741
 6021SOL    HW218963   4.389   1.037   3.780
 6022SOL     OW18964   4.540   1.194   5.933
 6022SOL    HW118965   4.621   1.178   5.989
 6022SOL    HW218966   4.568   1.238   5.847
 6023SOL     OW18967   0.533   2.012   2.591
 6023SOL    HW118968   0.602   1.972   2.531
 6023SOL    HW218969   0.522   1.954   2.672
 6024SOL     OW18970   0.030   5.713   2.665
 6024SOL    HW118971   0.074   5.624   2.674
 6024SOL    HW218972   6.977   5.706   2.601
 6025SOL     OW18973   3.923   2.202   2.116
 6025SOL    HW118974   3.832   2.186   2.077
 6025SOL    HW218975   3.925   2.293   2.158
 6026SOL     OW18976   0.755   4.453   6.235
 6026SOL    HW118977   0.776   4.365   6.192
 6026SOL    HW218978   0.822   4.521   6.205
 6027SOL     OW18979   3.057   3.434   0.271
 6027SOL    HW118980   3.145   3.480   0.259
 6027SOL    HW218981   3.063   3.371   0.349
 6028SOL     OW18982   0.794   4.563   6.819
 6028SOL    HW118983   0.832   4.502   6.750
 6028SOL    HW218984   0.862   4.578   6.891
 6029SOL     OW18985   1.282   4.744   2.053
 6029SOL    HW118986   1.326   4.832   2.073
 6029SOL    HW218987   1.286   4.686   2.134
 6030SOL     OW18988   1.758   0.030   1.400
 6030SOL    HW118989   1.814   0.109   1.377
 6030SOL    HW218990   1.751   0.021   1.499
 6031SOL     OW18991   5.490   1.019   4.273
 6031SOL    HW118992   5.437   0.946   4.229
 6031SOL    HW218993   5.519   0.988   4.364
 6032SOL     OW18994   0.291   3.586   2.655
 6032SOL    HW118995   0.276   3.487   2.649
 6032SOL    HW218996   0.335   3.618   2.571
 6033SOL     OW18997   0.330   6.929   4.727
 6033SOL    HW118998   0.270   6.999   4.766
 6033SOL    HW218999   0.275   6.866   4.672
 6034SOL     OW19000   2.240   4.190   4.931
 6034SOL    HW119001   2.271   4.104   4.973
 6034SOL    HW219002   2.251   4.265   4.997
 6035SOL     OW19003   5.529   6.911   4.027
 6035SOL    HW119004   5.525   7.011   4.024
 6035SOL    HW219005   5.521   6.874   3.934
 6036SOL     OW19006   0.769   1.002   4.036
 6036SOL    HW119007   0.787   0.991   4.134
 6036SOL    HW219008   0.804   0.923   3.987
 6037SOL     OW19009   6.919   5.697   4.723
 6037SOL    HW119010   6.954   5.772   4.666
 6037SOL    HW219011   6.983   5.679   4.797
 6038SOL     OW19012   5.552   4.382   6.230
 6038SOL    HW119013   5.640   4.335   6.242
 6038SOL    HW219014   5.516   4.360   6.139
 6039SOL     OW19015   3.782   3.267   3.903
 6039SOL    HW119016   3.794   3.270   4.002
 6039SOL    HW219017   3.685   3.252   3.881
 6040SOL     OW19018   1.399   1.362   0.134
 6040SOL    HW119019   1.459   1.282   0.128
 6040SOL    HW219020   1.413   1.408   0.222
 6041SOL     OW19021   0.829   2.473   0.678
 6041SOL    HW119022   0.911   2.475   0.735
 6041SOL    HW219023   0.751   2.508   0.730
 6042SOL     OW19024   5.494   5.580   4.511
 6042SOL    HW119025   5.414   5.525   4.486
 6042SOL    HW219026   5.510   5.649   4.441
 6043SOL     OW19027   0.454   4.246   4.108
 6043SOL    HW119028   0.462   4.256   4.207
 6043SOL    HW219029   0.405   4.162   4.087
 6044SOL     OW19030   0.773   0.348   1.480
 6044SOL    HW119031   0.700   0.279   1.477
 6044SOL    HW219032   0.860   0.304   1.504
 6045SOL     OW19033   6.888   3.993   0.978
 6045SOL    HW119034   6.942   4.014   0.897
 6045SOL    HW219035   6.822   3.921   0.957
 6046SOL     OW19036   2.457   3.274   0.809
 6046SOL    HW119037   2.403   3.301   0.729
 6046SOL    HW219038   2.453   3.175   0.820
 6047SOL     OW19039   0.171   6.026   4.829
 6047SOL    HW119040   0.124   5.965   4.893
 6047SOL    HW219041   0.204   5.973   4.751
 6048SOL     OW19042   4.773   5.688   5.173
 6048SOL    HW119043   4.843   5.623   5.201
 6048SOL    HW219044   4.735   5.660   5.085
 6049SOL     OW19045   6.405   5.391   0.468
 6049SOL    HW119046   6.415   5.487   0.442
 6049SOL    HW219047   6.484   5.339   0.436
 6050SOL     OW19048   5.669   4.531   5.438
 6050SOL    HW119049   5.655   4.434   5.415
 6050SOL    HW219050   5.749   4.540   5.497
 6051SOL     OW19051   2.293   1.694   2.954
 6051SOL    HW119052   2.314   1.676   3.051
 6051SOL    HW219053   2.309   1.791   2.934
 6052SOL     OW19054   6.660   0.948   0.329
 6052SOL    HW119055   6.702   0.963   0.418
 6052SOL    HW219056   6.651   1.035   0.281
 6053SOL     OW19057   1.863   0.217   5.979
 6053SOL    HW119058   1.785   0.248   6.033
 6053SOL    HW219059   1.848   0.123   5.949
 6054SOL     OW19060   2.031   4.388   6.677
 6054SOL    HW119061   2.076   4.430   6.597
 6054SOL    HW219062   2.089   4.402   6.758
 6055SOL     OW19063   4.792   0.647   3.798
 6055SOL    HW119064   4.731   0.599   3.860
 6055SOL    HW219065   4.820   0.586   3.724
 6056SOL     OW19066   5.125   3.757   6.458
 6056SOL    HW119067   5.164   3.752   6.550
 6056SOL    HW219068   5.087   3.849   6.443
 6057SOL     OW19069   3.240   0.431   6.609
 6057SOL    HW119070   3.246   0.332   6.622
 6057SOL    HW219071   3.272   0.477   6.692
 6058SOL     OW19072   5.308   1.377   4.080
 6058SOL    HW119073   5.279   1.423   3.997
 6058SOL    HW219074   5.247   1.299   4.098
 6059SOL     OW19075   6.786   6.615   5.981
 6059SOL    HW119076   6.775   6.653   6.073
 6059SOL    HW219077   6.877   6.636   5.947
 6060SOL     OW19078   3.067   6.145   6.867
 6060SOL    HW119079   3.139   6.213   6.852
 6060SOL    HW219080   2.998   6.182   6.929
 6061SOL     OW19081   1.637   1.875   6.673
 6061SOL    HW119082   1.560   1.872   6.738
 6061SOL    HW219083   1.711   1.930   6.712
 6062SOL     OW19084   1.416   0.152   4.274
 6062SOL    HW119085   1.419   0.124   4.178
 6062SOL    HW219086   1.489   0.217   4.292
 6063SOL     OW19087   5.289   6.174   6.819
 6063SOL    HW119088   5.276   6.126   6.732
 6063SOL    HW219089   5.229   6.134   6.888
 6064SOL     OW19090   0.974   5.545   3.311
 6064SOL    HW119091   0.977   5.642   3.287
 6064SOL    HW219092   0.989   5.490   3.229
 6065SOL     OW19093   5.853   6.432   1.494
 6065SOL    HW119094   5.843   6.461   1.398
 6065SOL    HW219095   5.907   6.500   1.543
 6066SOL     OW19096   4.636   2.477   6.181
 6066SOL    HW119097   4.588   2.441   6.101
 6066SOL    HW219098   4.715   2.531   6.151
 6067SOL     OW19099   5.422   2.109   6.529
 6067SOL    HW119100   5.353   2.169   6.568
 6067SOL    HW219101   5.393   2.079   6.438
 6068SOL     OW19102   4.995   1.959   5.446
 6068SOL    HW119103   5.093   1.937   5.442
 6068SOL    HW219104   4.953   1.908   5.521
 6069SOL     OW19105   6.068   4.109   4.112
 6069SOL    HW119106   6.036   4.015   4.118
 6069SOL    HW219107   6.161   4.116   4.148
 6070SOL     OW19108   4.029   2.665   6.852
 6070SOL    HW119109   3.972   2.744   6.872
 6070SOL    HW219110   3.974   2.595   6.805
 6071SOL     OW19111   4.795   6.322   5.195
 6071SOL    HW119112   4.823   6.407   5.150
 6071SOL    HW219113   4.741   6.267   5.131
 6072SOL     OW19114   0.008   1.438   0.702
 6072SOL    HW119115   0.023   1.403   0.794
 6072SOL    HW219116   6.964   1.511   0.704
 6073SOL     OW19117   6.335   1.847   1.198
 6073SOL    HW119118   6.305   1.926   1.251
 6073SOL    HW219119   6.397   1.791   1.253
 6074SOL     OW19120   0.691   6.920   5.175
 6074SOL    HW119121   0.699   7.013   5.139
 6074SOL    HW219122   0.628   6.867   5.119
 6075SOL     OW19123   5.244   4.739   6.403
 6075SOL    HW119124   5.299   4.769   6.480
 6075SOL    HW219125   5.294   4.669   6.351
 6076SOL     OW19126   2.781   6.935   4.299
 6076SOL    HW119127   2.808   7.014   4.355
 6076SOL    HW219128   2.855   6.868   4.299
 6077SOL     OW19129   5.598   5.453   2.736
 6077SOL    HW119130   5.649   5.373   2.768
 6077SOL    HW219131   5.624   5.473   2.641
 6078SOL     OW19132   2.206   4.591   3.554
 6078SOL    HW119133   2.190   4.685   3.524
 6078SOL    HW219134   2.302   4.579   3.577
 6079SOL     OW19135   2.412   1.733   1.032
 6079SOL    HW119136   2.322   1.703   1.004
 6079SOL    HW219137   2.460   1.774   0.954
 6080SOL     OW19138   5.454   2.359   2.699
 6080SOL    HW119139   5.459   2.299   2.779
 6080SOL    HW219140   5.546   2.392   2.677
 6081SOL     OW19141   0.573   3.519   2.798
 6081SOL    HW119142   0.529   3.470   2.873
 6081SOL    HW219143   0.511   3.521   2.719
 6082SOL     OW19144   3.454   2.079   4.367
 6082SOL    HW119145   3.485   2.086   4.462
 6082SOL    HW219146   3.356   2.098   4.362
 6083SOL     OW19147   1.882   0.239   0.520
 6083SOL    HW119148   1.806   0.178   0.545
 6083SOL    HW219149   1.877   0.322   0.575
 6084SOL     OW19150   0.641   4.951   6.009
 6084SOL    HW119151   0.580   5.003   5.949
 6084SOL    HW219152   0.679   5.011   6.079
 6085SOL     OW19153   4.954   5.100   1.580
 6085SOL    HW119154   4.882   5.126   1.645
 6085SOL    HW219155   4.949   5.002   1.563
 6086SOL     OW19156   2.964   1.678   2.906
 6086SOL    HW119157   2.916   1.723   2.830
 6086SOL    HW219158   2.948   1.730   2.990
 6087SOL     OW19159   3.982   0.032   0.859
 6087SOL    HW119160   3.892   0.024   0.900
 6087SOL    HW219161   4.043   6.987   0.899
 6088SOL     OW19162   6.919   6.704   5.758
 6088SOL    HW119163   6.911   6.797   5.792
 6088SOL    HW219164   7.000   6.696   5.700
 6089SOL     OW19165   6.325   3.414   0.434
 6089SOL    HW119166   6.314   3.358   0.516
 6089SOL    HW219167   6.285   3.366   0.356
 6090SOL     OW19168   0.405   5.680   3.742
 6090SOL    HW119169   0.477   5.633   3.692
 6090SOL    HW219170   0.355   5.740   3.680
 6091SOL     OW19171   6.150   2.004   1.351
 6091SOL    HW119172   6.158   1.984   1.449
 6091SOL    HW219173   6.062   2.048   1.333
 6092SOL     OW19174   1.472   2.814   0.878
 6092SOL    HW119175   1.560   2.774   0.853
 6092SOL    HW219176   1.408   2.742   0.906
 6093SOL     OW19177   1.251   3.851   0.456
 6093SOL    HW119178   1.268   3.825   0.551
 6093SOL    HW219179   1.337   3.852   0.406
 6094SOL     OW19180   1.111   0.891   0.889
 6094SOL    HW119181   1.093   0.952   0.813
 6094SOL    HW219182   1.052   0.915   0.966
 6095SOL     OW19183   6.366   3.854   5.400
 6095SOL    HW119184   6.299   3.789   5.367
 6095SOL    HW219185   6.361   3.938   5.346
 6096SOL     OW19186   4.083   1.526   2.611
 6096SOL    HW119187   4.049   1.514   2.518
 6096SOL    HW219188   4.118   1.438   2.645
 6097SOL     OW19189   2.691   1.928   2.188
 6097SOL    HW119190   2.701   2.007   2.127
 6097SOL    HW219191   2.646   1.854   2.138
 6098SOL     OW19192   1.603   0.959   6.360
 6098SOL    HW119193   1.558   0.874   6.334
 6098SOL    HW219194   1.535   1.026   6.389
 6099SOL     OW19195   5.901   4.743   4.839
 6099SOL    HW119196   5.945   4.671   4.893
 6099SOL    HW219197   5.802   4.739   4.851
 6100SOL     OW19198   6.693   2.211   0.306
 6100SOL    HW119199   6.731   2.161   0.383
 6100SOL    HW219200   6.650   2.296   0.338
 6101SOL     OW19201   5.615   0.501   3.720
 6101SOL    HW119202   5.666   0.574   3.674
 6101SOL    HW219203   5.572   0.537   3.803
 6102SOL     OW19204   3.283   0.279   5.323
 6102SOL    HW119205   3.306   0.375   5.306
 6102SOL    HW219206   3.243   0.239   5.241
 6103SOL     OW19207   6.142   1.124   5.449
 6103SOL    HW119208   6.129   1.025   5.445
 6103SOL    HW219209   6.240   1.145   5.442
 6104SOL     OW19210   1.452   3.598   1.137
 6104SOL    HW119211   1.371   3.654   1.152
 6104SOL    HW219212   1.534   3.650   1.160
 6105SOL     OW19213   3.815   4.940   4.450
 6105SOL    HW119214   3.728   4.892   4.447
 6105SOL    HW219215   3.851   4.951   4.357
 6106SOL     OW19216   3.443   5.263   4.025
 6106SOL    HW119217   3.518   5.292   4.085
 6106SOL    HW219218   3.361   5.316   4.047
 6107SOL     OW19219   2.253   4.986   5.680
 6107SOL    HW119220   2.227   4.944   5.767
 6107SOL    HW219221   2.213   4.934   5.605
 6108SOL     OW19222   5.906   1.717   4.635
 6108SOL    HW119223   5.875   1.812   4.642
 6108SOL    HW219224   5.908   1.690   4.539
 6109SOL     OW19225   6.536   4.478   2.069
 6109SOL    HW119226   6.526   4.463   1.971
 6109SOL    HW219227   6.631   4.504   2.089
 6110SOL     OW19228   3.390   2.010   3.807
 6110SOL    HW119229   3.459   2.065   3.853
 6110SOL    HW219230   3.428   1.970   3.724
 6111SOL     OW19231   0.336   4.313   2.780
 6111SOL    HW119232   0.398   4.251   2.732
 6111SOL    HW219233   0.290   4.264   2.854
 6112SOL     OW19234   1.088   2.208   1.464
 6112SOL    HW119235   1.124   2.135   1.406
 6112SOL    HW219236   1.069   2.173   1.556
 6113SOL     OW19237   2.110   5.423   5.445
 6113SOL    HW119238   2.022   5.417   5.398
 6113SOL    HW219239   2.097   5.402   5.542
 6114SOL     OW19240   5.369   5.728   1.214
 6114SOL    HW119241   5.425   5.739   1.131
 6114SOL    HW219242   5.332   5.635   1.216
 6115SOL     OW19243   6.444   4.398   2.321
 6115SOL    HW119244   6.398   4.475   2.367
 6115SOL    HW219245   6.482   4.429   2.234
 6116SOL     OW19246   3.224   1.987   1.109
 6116SOL    HW119247   3.313   2.014   1.145
 6116SOL    HW219248   3.216   2.014   1.013
 6117SOL     OW19249   5.887   6.415   3.662
 6117SOL    HW119250   5.893   6.485   3.734
 6117SOL    HW219251   5.976   6.406   3.617
 6118SOL     OW19252   6.141   0.557   2.955
 6118SOL    HW119253   6.055   0.511   2.933
 6118SOL    HW219254   6.171   0.611   2.877
 6119SOL     OW19255   5.831   5.697   3.955
 6119SOL    HW119256   5.885   5.623   3.914
 6119SOL    HW219257   5.836   5.690   4.055
 6120SOL     OW19258   3.131   1.233   3.718
 6120SOL    HW119259   3.186   1.178   3.655
 6120SOL    HW219260   3.083   1.305   3.668
 6121SOL     OW19261   6.631   1.873   4.456
 6121SOL    HW119262   6.720   1.873   4.503
 6121SOL    HW219263   6.620   1.787   4.406
 6122SOL     OW19264   4.657   6.019   4.205
 6122SOL    HW119265   4.629   5.977   4.291
 6122SOL    HW219266   4.697   5.949   4.146
 6123SOL     OW19267   6.762   1.703   2.670
 6123SOL    HW119268   6.764   1.725   2.767
 6123SOL    HW219269   6.841   1.746   2.625
 6124SOL     OW19270   2.870   0.151   5.282
 6124SOL    HW119271   2.782   0.129   5.240
 6124SOL    HW219272   2.884   0.250   5.278
 6125SOL     OW19273   1.201   4.915   2.469
 6125SOL    HW119274   1.265   4.991   2.464
 6125SOL    HW219275   1.241   4.842   2.525
 6126SOL     OW19276   4.122   5.675   2.264
 6126SOL    HW119277   4.141   5.772   2.273
 6126SOL    HW219278   4.137   5.629   2.351
 6127SOL     OW19279   2.096   4.531   2.168
 6127SOL    HW119280   2.124   4.527   2.072
 6127SOL    HW219281   1.996   4.524   2.175
 6128SOL     OW19282   4.760   3.032   1.143
 6128SOL    HW119283   4.686   3.093   1.172
 6128SOL    HW219284   4.736   2.938   1.164
 6129SOL     OW19285   6.046   3.998   3.389
 6129SOL    HW119286   6.000   3.944   3.459
 6129SOL    HW219287   6.072   4.087   3.428
 6130SOL     OW19288   5.298   4.545   2.100
 6130SOL    HW119289   5.362   4.608   2.144
 6130SOL    HW219290   5.343   4.501   2.022
 6131SOL     OW19291   6.616   1.152   5.236
 6131SOL    HW119292   6.545   1.164   5.305
 6131SOL    HW219293   6.657   1.240   5.214
 6132SOL     OW19294   6.708   2.669   0.649
 6132SOL    HW119295   6.688   2.670   0.551
 6132SOL    HW219296   6.794   2.717   0.666
 6133SOL     OW19297   1.397   4.756   0.417
 6133SOL    HW119298   1.354   4.835   0.374
 6133SOL    HW219299   1.494   4.774   0.431
 6134SOL     OW19300   4.367   3.498   0.493
 6134SOL    HW119301   4.448   3.455   0.452
 6134SOL    HW219302   4.396   3.570   0.557
 6135SOL     OW19303   5.619   0.451   2.588
 6135SOL    HW119304   5.645   0.356   2.605
 6135SOL    HW219305   5.699   0.510   2.602
 6136SOL     OW19306   0.416   1.618   2.579
 6136SOL    HW119307   0.324   1.585   2.603
 6136SOL    HW219308   0.411   1.713   2.549
 6137SOL     OW19309   3.155   6.478   5.782
 6137SOL    HW119310   3.113   6.501   5.869
 6137SOL    HW219311   3.158   6.559   5.724
 6138SOL     OW19312   4.838   0.669   3.179
 6138SOL    HW119313   4.839   0.617   3.264
 6138SOL    HW219314   4.774   0.627   3.115
 6139SOL     OW19315   2.567   5.558   3.611
 6139SOL    HW119316   2.497   5.626   3.631
 6139SOL    HW219317   2.524   5.468   3.600
 6140SOL     OW19318   1.470   5.599   1.099
 6140SOL    HW119319   1.566   5.623   1.114
 6140SOL    HW219320   1.431   5.661   1.031
 6141SOL     OW19321   6.641   5.974   6.046
 6141SOL    HW119322   6.639   5.933   6.137
 6141SOL    HW219323   6.547   5.981   6.011
 6142SOL     OW19324   0.762   3.709   3.029
 6142SOL    HW119325   0.713   3.770   2.966
 6142SOL    HW219326   0.821   3.648   2.977
 6143SOL     OW19327   6.663   3.928   6.631
 6143SOL    HW119328   6.626   3.856   6.689
 6143SOL    HW219329   6.703   3.888   6.549
 6144SOL     OW19330   0.279   4.713   4.657
 6144SOL    HW119331   0.294   4.725   4.559
 6144SOL    HW219332   0.336   4.779   4.708
 6145SOL     OW19333   5.681   5.423   3.455
 6145SOL    HW119334   5.703   5.518   3.433
 6145SOL    HW219335   5.610   5.391   3.392
 6146SOL     OW19336   5.507   2.497   3.452
 6146SOL    HW119337   5.508   2.398   3.458
 6146SOL    HW219338   5.425   2.528   3.404
 6147SOL     OW19339   1.098   3.735   2.791
 6147SOL    HW119340   1.138   3.796   2.859
 6147SOL    HW219341   1.090   3.643   2.829
 6148SOL     OW19342   6.444   5.479   3.367
 6148SOL    HW119343   6.486   5.499   3.456
 6148SOL    HW219344   6.369   5.415   3.379
 6149SOL     OW19345   2.136   6.630   4.591
 6149SOL    HW119346   2.189   6.706   4.629
 6149SOL    HW219347   2.198   6.566   4.546
 6150SOL     OW19348   4.149   5.525   6.126
 6150SOL    HW119349   4.129   5.580   6.045
 6150SOL    HW219350   4.220   5.570   6.180
 6151SOL     OW19351   4.455   0.522   5.648
 6151SOL    HW119352   4.472   0.427   5.673
 6151SOL    HW219353   4.523   0.551   5.581
 6152SOL     OW19354   0.070   4.625   5.226
 6152SOL    HW119355   0.115   4.633   5.137
 6152SOL    HW219356   0.138   4.600   5.296
 6153SOL     OW19357   4.969   4.379   6.877
 6153SOL    HW119358   5.024   4.297   6.860
 6153SOL    HW219359   4.888   4.377   6.818
 6154SOL     OW19360   5.096   2.953   3.454
 6154SOL    HW119361   5.063   2.958   3.549
 6154SOL    HW219362   5.190   2.987   3.450
 6155SOL     OW19363   1.867   4.349   4.131
 6155SOL    HW119364   1.920   4.341   4.215
 6155SOL    HW219365   1.770   4.358   4.153
 6156SOL     OW19366   6.047   0.743   4.308
 6156SOL    HW119367   5.971   0.805   4.327
 6156SOL    HW219368   6.016   0.671   4.246
 6157SOL     OW19369   1.056   1.288   3.569
 6157SOL    HW119370   0.990   1.213   3.578
 6157SOL    HW219371   1.037   1.358   3.637
 6158SOL     OW19372   4.771   0.193   0.548
 6158SOL    HW119373   4.833   0.224   0.475
 6158SOL    HW219374   4.821   0.132   0.610
 6159SOL     OW19375   5.616   3.283   6.982
 6159SOL    HW119376   5.561   3.229   6.918
 6159SOL    HW219377   5.564   3.364   7.010
 6160SOL     OW19378   6.553   4.563   1.086
 6160SOL    HW119379   6.639   4.585   1.039
 6160SOL    HW219380   6.510   4.648   1.116
 6161SOL     OW19381   5.675   0.537   6.485
 6161SOL    HW119382   5.636   0.447   6.470
 6161SOL    HW219383   5.724   0.538   6.572
 6162SOL     OW19384   5.870   5.409   4.072
 6162SOL    HW119385   5.888   5.482   4.137
 6162SOL    HW219386   5.838   5.328   4.122
 6163SOL     OW19387   6.755   3.950   2.284
 6163SOL    HW119388   6.709   4.035   2.260
 6163SOL    HW219389   6.688   3.877   2.296
 6164SOL     OW19390   4.465   2.597   0.709
 6164SOL    HW119391   4.386   2.612   0.768
 6164SOL    HW219392   4.434   2.566   0.619
 6165SOL     OW19393   4.074   6.853   1.026
 6165SOL    HW119394   4.013   6.775   1.040
 6165SOL    HW219395   4.169   6.821   1.021
 6166SOL     OW19396   4.100   1.776   0.286
 6166SOL    HW119397   4.034   1.846   0.314
 6166SOL    HW219398   4.186   1.790   0.334
 6167SOL     OW19399   0.201   5.260   3.399
 6167SOL    HW119400   0.188   5.231   3.305
 6167SOL    HW219401   0.137   5.213   3.459
 6168SOL     OW19402   0.629   2.630   0.850
 6168SOL    HW119403   0.683   2.715   0.843
 6168SOL    HW219404   0.544   2.641   0.799
 6169SOL     OW19405   1.950   4.471   1.675
 6169SOL    HW119406   2.021   4.406   1.648
 6169SOL    HW219407   1.945   4.475   1.775
 6170SOL     OW19408   6.873   2.002   3.990
 6170SOL    HW119409   6.797   2.055   3.952
 6170SOL    HW219410   6.858   1.905   3.972
 6171SOL     OW19411   5.829   1.003   6.433
 6171SOL    HW119412   5.820   1.102   6.442
 6171SOL    HW219413   5.924   0.977   6.452
 6172SOL     OW19414   1.051   4.320   4.129
 6172SOL    HW119415   1.071   4.268   4.046
 6172SOL    HW219416   1.087   4.413   4.120
 6173SOL     OW19417   5.970   5.896   3.062
 6173SOL    HW119418   6.057   5.851   3.044
 6173SOL    HW219419   5.933   5.932   2.977
 6174SOL     OW19420   6.330   2.556   2.298
 6174SOL    HW119421   6.405   2.564   2.363
 6174SOL    HW219422   6.366   2.535   2.207
 6175SOL     OW19423   3.700   1.692   6.806
 6175SOL    HW119424   3.761   1.614   6.789
 6175SOL    HW219425   3.752   1.777   6.800
 6176SOL     OW19426   3.158   3.545   6.026
 6176SOL    HW119427   3.234   3.609   6.024
 6176SOL    HW219428   3.180   3.467   6.084
 6177SOL     OW19429   5.712   5.879   1.685
 6177SOL    HW119430   5.742   5.917   1.772
 6177SOL    HW219431   5.613   5.868   1.685
 6178SOL     OW19432   4.237   4.778   1.932
 6178SOL    HW119433   4.197   4.795   2.022
 6178SOL    HW219434   4.273   4.685   1.929
 6179SOL     OW19435   5.643   4.694   4.898
 6179SOL    HW119436   5.595   4.626   4.955
 6179SOL    HW219437   5.647   4.781   4.947
 6180SOL     OW19438   2.628   4.434   6.373
 6180SOL    HW119439   2.556   4.377   6.333
 6180SOL    HW219440   2.674   4.383   6.445
 6181SOL     OW19441   6.000   6.568   6.761
 6181SOL    HW119442   5.927   6.517   6.806
 6181SOL    HW219443   5.959   6.630   6.693
 6182SOL     OW19444   2.925   2.626   6.725
 6182SOL    HW119445   3.019   2.599   6.701
 6182SOL    HW219446   2.925   2.718   6.763
 6183SOL     OW19447   6.757   0.332   0.720
 6183SOL    HW119448   6.742   0.244   0.673
 6183SOL    HW219449   6.733   0.407   0.658
 6184SOL     OW19450   3.334   6.170   5.242
 6184SOL    HW119451   3.388   6.104   5.295
 6184SOL    HW219452   3.390   6.205   5.167
 6185SOL     OW19453   3.965   3.431   5.447
 6185SOL    HW119454   4.043   3.396   5.499
 6185SOL    HW219455   3.892   3.363   5.448
 6186SOL     OW19456   0.885   1.786   2.710
 6186SOL    HW119457   0.887   1.736   2.624
 6186SOL    HW219458   0.877   1.722   2.786
 6187SOL     OW19459   3.032   1.972   6.286
 6187SOL    HW119460   2.940   1.996   6.316
 6187SOL    HW219461   3.070   2.046   6.231
 6188SOL     OW19462   2.336   1.519   5.458
 6188SOL    HW119463   2.430   1.494   5.432
 6188SOL    HW219464   2.290   1.562   5.380
 6189SOL     OW19465   0.128   5.140   0.808
 6189SOL    HW119466   0.081   5.071   0.862
 6189SOL    HW219467   0.072   5.223   0.803
 6190SOL     OW19468   0.405   3.097   3.871
 6190SOL    HW119469   0.386   3.007   3.832
 6190SOL    HW219470   0.467   3.087   3.949
 6191SOL     OW19471   2.402   4.238   0.591
 6191SOL    HW119472   2.472   4.293   0.636
 6191SOL    HW219473   2.335   4.207   0.659
 6192SOL     OW19474   3.067   1.469   1.511
 6192SOL    HW119475   3.089   1.372   1.520
 6192SOL    HW219476   3.080   1.515   1.599
 6193SOL     OW19477   4.481   5.619   0.483
 6193SOL    HW119478   4.566   5.585   0.443
 6193SOL    HW219479   4.404   5.574   0.439
 6194SOL     OW19480   5.475   6.842   6.220
 6194SOL    HW119481   5.489   6.878   6.313
 6194SOL    HW219482   5.413   6.764   6.224
 6195SOL     OW19483   5.406   6.437   5.979
 6195SOL    HW119484   5.406   6.398   6.071
 6195SOL    HW219485   5.342   6.387   5.921
 6196SOL     OW19486   5.915   3.245   3.208
 6196SOL    HW119487   5.908   3.152   3.245
 6196SOL    HW219488   5.849   3.257   3.134
 6197SOL     OW19489   0.709   5.687   0.768
 6197SOL    HW119490   0.650   5.667   0.846
 6197SOL    HW219491   0.794   5.635   0.775
 6198SOL     OW19492   5.738   1.603   6.368
 6198SOL    HW119493   5.779   1.650   6.290
 6198SOL    HW219494   5.676   1.532   6.336
 6199SOL     OW19495   2.157   6.708   6.101
 6199SOL    HW119496   2.218   6.633   6.127
 6199SOL    HW219497   2.062   6.680   6.115
 6200SOL     OW19498   1.555   0.602   0.788
 6200SOL    HW119499   1.535   0.524   0.729
 6200SOL    HW219500   1.469   0.644   0.818
 6201SOL     OW19501   0.474   4.339   3.539
 6201SOL    HW119502   0.424   4.272   3.484
 6201SOL    HW219503   0.545   4.382   3.484
 6202SOL     OW19504   6.094   0.780   2.447
 6202SOL    HW119505   6.071   0.841   2.523
 6202SOL    HW219506   6.061   0.820   2.361
 6203SOL     OW19507   5.833   0.275   1.923
 6203SOL    HW119508   5.767   0.315   1.986
 6203SOL    HW219509   5.786   0.250   1.838
 6204SOL     OW19510   1.095   5.643   5.033
 6204SOL    HW119511   1.007   5.645   5.081
 6204SOL    HW219512   1.138   5.554   5.046
 6205SOL     OW19513   6.171   4.758   3.397
 6205SOL    HW119514   6.211   4.682   3.448
 6205SOL    HW219515   6.182   4.843   3.449
 6206SOL     OW19516   5.873   1.891   3.545
 6206SOL    HW119517   5.868   1.863   3.641
 6206SOL    HW219518   5.790   1.863   3.498
 6207SOL     OW19519   1.441   5.577   3.801
 6207SOL    HW119520   1.436   5.533   3.890
 6207SOL    HW219521   1.532   5.615   3.787
 6208SOL     OW19522   4.405   4.187   6.204
 6208SOL    HW119523   4.313   4.162   6.172
 6208SOL    HW219524   4.472   4.126   6.161
 6209SOL     OW19525   3.649   1.772   1.099
 6209SOL    HW119526   3.656   1.870   1.118
 6209SOL    HW219527   3.595   1.728   1.171
 6210SOL     OW19528   5.899   1.255   4.380
 6210SOL    HW119529   5.878   1.346   4.342
 6210SOL    HW219530   5.854   1.185   4.324
 6211SOL     OW19531   5.762   3.544   4.856
 6211SOL    HW119532   5.792   3.488   4.779
 6211SOL    HW219533   5.669   3.577   4.840
 6212SOL     OW19534   5.443   4.162   4.637
 6212SOL    HW119535   5.487   4.240   4.683
 6212SOL    HW219536   5.504   4.083   4.638
 6213SOL     OW19537   4.518   6.074   0.403
 6213SOL    HW119538   4.477   5.983   0.392
 6213SOL    HW219539   4.453   6.135   0.446
 6214SOL     OW19540   6.148   0.184   6.981
 6214SOL    HW119541   6.158   0.184   0.057
 6214SOL    HW219542   6.232   0.151   6.940
 6215SOL     OW19543   6.056   2.200   5.344
 6215SOL    HW119544   6.154   2.181   5.351
 6215SOL    HW219545   6.014   2.134   5.281
 6216SOL     OW19546   4.651   1.824   4.837
 6216SOL    HW119547   4.664   1.907   4.890
 6216SOL    HW219548   4.706   1.828   4.754
 6217SOL     OW19549   0.686   4.600   2.441
 6217SOL    HW119550   0.587   4.596   2.457
 6217SOL    HW219551   0.705   4.667   2.370
 6218SOL     OW19552   4.310   6.464   0.770
 6218SOL    HW119553   4.237   6.404   0.801
 6218SOL    HW219554   4.274   6.556   0.755
 6219SOL     OW19555   2.233   0.747   6.969
 6219SOL    HW119556   2.259   0.657   6.933
 6219SOL    HW219557   2.206   0.807   6.894
 6220SOL     OW19558   3.339   6.532   1.112
 6220SOL    HW119559   3.422   6.552   1.059
 6220SOL    HW219560   3.260   6.571   1.065
 6221SOL     OW19561   5.009   5.684   5.976
 6221SOL    HW119562   5.107   5.667   5.970
 6221SOL    HW219563   4.973   5.709   5.886
 6222SOL     OW19564   6.799   1.407   2.460
 6222SOL    HW119565   6.821   1.353   2.541
 6222SOL    HW219566   6.873   1.472   2.442
 6223SOL     OW19567   0.021   4.772   4.707
 6223SOL    HW119568   0.117   4.743   4.701
 6223SOL    HW219569   6.993   4.729   4.632
 6224SOL     OW19570   3.156   6.862   6.759
 6224SOL    HW119571   3.066   6.901   6.776
 6224SOL    HW219572   3.224   6.909   6.816
 6225SOL     OW19573   4.639   6.212   6.374
 6225SOL    HW119574   4.677   6.119   6.377
 6225SOL    HW219575   4.554   6.214   6.427
 6226SOL     OW19576   0.565   1.122   3.767
 6226SOL    HW119577   0.468   1.119   3.742
 6226SOL    HW219578   0.603   1.030   3.763
 6227SOL     OW19579   2.963   4.907   5.652
 6227SOL    HW119580   2.962   4.826   5.712
 6227SOL    HW219581   2.871   4.923   5.617
 6228SOL     OW19582   0.948   2.976   3.557
 6228SOL    HW119583   0.917   3.024   3.639
 6228SOL    HW219584   0.984   3.042   3.492
 6229SOL     OW19585   0.475   3.883   4.073
 6229SOL    HW119586   0.567   3.921   4.065
 6229SOL    HW219587   0.465   3.807   4.009
 6230SOL     OW19588   0.438   0.686   1.649
 6230SOL    HW119589   0.373   0.684   1.573
 6230SOL    HW219590   0.503   0.611   1.639
 6231SOL     OW19591   2.354   5.485   5.823
 6231SOL    HW119592   2.339   5.453   5.730
 6231SOL    HW219593   2.387   5.580   5.821
 6232SOL     OW19594   4.247   0.524   6.461
 6232SOL    HW119595   4.220   0.530   6.365
 6232SOL    HW219596   4.167   0.533   6.519
 6233SOL     OW19597   0.098   3.495   0.974
 6233SOL    HW119598   0.181   3.522   1.022
 6233SOL    HW219599   0.107   3.401   0.941
 6234SOL     OW19600   4.948   5.247   4.345
 6234SOL    HW119601   4.996   5.242   4.257
 6234SOL    HW219602   4.990   5.183   4.409
 6235SOL     OW19603   0.554   1.029   2.366
 6235SOL    HW119604   0.479   0.963   2.371
 6235SOL    HW219605   0.544   1.085   2.284
 6236SOL     OW19606   6.511   5.895   0.979
 6236SOL    HW119607   6.430   5.928   1.026
 6236SOL    HW219608   6.573   5.972   0.961
 6237SOL     OW19609   3.632   1.175   2.291
 6237SOL    HW119610   3.724   1.166   2.253
 6237SOL    HW219611   3.622   1.111   2.367
 6238SOL     OW19612   2.303   1.248   3.310
 6238SOL    HW119613   2.223   1.191   3.329
 6238SOL    HW219614   2.384   1.189   3.300
 6239SOL     OW19615   4.752   1.531   4.436
 6239SOL    HW119616   4.705   1.551   4.522
 6239SOL    HW219617   4.691   1.548   4.359
 6240SOL     OW19618   4.112   3.448   3.937
 6240SOL    HW119619   4.127   3.514   3.863
 6240SOL    HW219620   4.081   3.361   3.898
 6241SOL     OW19621   3.929   0.056   3.428
 6241SOL    HW119622   4.018   0.100   3.415
 6241SOL    HW219623   3.874   0.068   3.345
 6242SOL     OW19624   3.185   2.103   4.288
 6242SOL    HW119625   3.248   2.133   4.216
 6242SOL    HW219626   3.093   2.093   4.249
 6243SOL     OW19627   4.186   1.393   6.802
 6243SOL    HW119628   4.130   1.357   6.877
 6243SOL    HW219629   4.283   1.381   6.823
 6244SOL     OW19630   4.294   2.480   1.779
 6244SOL    HW119631   4.358   2.445   1.710
 6244SOL    HW219632   4.251   2.563   1.744
 6245SOL     OW19633   0.013   5.135   2.212
 6245SOL    HW119634   6.947   5.109   2.177
 6245SOL    HW219635   0.078   5.138   2.136
 6246SOL     OW19636   0.232   6.429   4.920
 6246SOL    HW119637   0.289   6.396   4.845
 6246SOL    HW219638   0.288   6.443   5.001
 6247SOL     OW19639   6.444   5.680   3.169
 6247SOL    HW119640   6.435   5.597   3.225
 6247SOL    HW219641   6.429   5.761   3.226
 6248SOL     OW19642   4.204   3.028   5.778
 6248SOL    HW119643   4.207   3.042   5.877
 6248SOL    HW219644   4.295   3.042   5.740
 6249SOL     OW19645   5.734   3.531   3.155
 6249SOL    HW119646   5.770   3.605   3.099
 6249SOL    HW219647   5.742   3.445   3.105
 6250SOL     OW19648   5.584   0.173   6.198
 6250SOL    HW119649   5.632   0.105   6.142
 6250SOL    HW219650   5.644   0.252   6.212
 6251SOL     OW19651   2.766   0.904   4.768
 6251SOL    HW119652   2.856   0.945   4.751
 6251SOL    HW219653   2.750   0.898   4.866
 6252SOL     OW19654   2.711   5.294   0.102
 6252SOL    HW119655   2.685   5.268   0.195
 6252SOL    HW219656   2.808   5.318   0.099
 6253SOL     OW19657   4.956   6.358   3.884
 6253SOL    HW119658   5.010   6.394   3.961
 6253SOL    HW219659   4.890   6.427   3.854
 6254SOL     OW19660   0.338   0.104   1.575
 6254SOL    HW119661   0.359   0.096   1.673
 6254SOL    HW219662   0.243   0.136   1.565
 6255SOL     OW19663   1.548   1.735   0.787
 6255SOL    HW119664   1.476   1.712   0.722
 6255SOL    HW219665   1.590   1.822   0.761
 6256SOL     OW19666   6.448   5.379   2.049
 6256SOL    HW119667   6.416   5.359   2.141
 6256SOL    HW219668   6.490   5.470   2.047
 6257SOL     OW19669   3.615   4.015   1.145
 6257SOL    HW119670   3.537   3.998   1.205
 6257SOL    HW219671   3.692   4.050   1.200
 6258SOL     OW19672   4.095   5.354   5.026
 6258SOL    HW119673   4.014   5.297   5.017
 6258SOL    HW219674   4.150   5.323   5.102
 6259SOL     OW19675   4.316   0.916   4.973
 6259SOL    HW119676   4.371   0.996   4.949
 6259SOL    HW219677   4.374   0.847   5.016
 6260SOL     OW19678   2.592   1.600   1.185
 6260SOL    HW119679   2.517   1.633   1.127
 6260SOL    HW219680   2.679   1.626   1.144
 6261SOL     OW19681   3.532   6.679   0.910
 6261SOL    HW119682   3.436   6.707   0.910
 6261SOL    HW219683   3.591   6.760   0.914
 6262SOL     OW19684   6.237   1.174   2.268
 6262SOL    HW119685   6.249   1.259   2.218
 6262SOL    HW219686   6.207   1.194   2.361
 6263SOL     OW19687   6.255   6.128   6.120
 6263SOL    HW119688   6.284   6.093   6.209
 6263SOL    HW219689   6.307   6.083   6.047
 6264SOL     OW19690   1.566   5.958   0.479
 6264SOL    HW119691   1.599   5.958   0.384
 6264SOL    HW219692   1.644   5.961   0.541
 6265SOL     OW19693   3.928   6.687   6.568
 6265SOL    HW119694   3.886   6.602   6.600
 6265SOL    HW219695   3.865   6.733   6.505
 6266SOL     OW19696   3.733   5.147   3.239
 6266SOL    HW119697   3.659   5.195   3.287
 6266SOL    HW219698   3.812   5.137   3.299
 6267SOL     OW19699   0.808   6.119   4.164
 6267SOL    HW119700   0.869   6.044   4.186
 6267SOL    HW219701   0.715   6.097   4.193
 6268SOL     OW19702   3.001   1.479   1.219
 6268SOL    HW119703   2.940   1.555   1.197
 6268SOL    HW219704   3.003   1.465   1.318
 6269SOL     OW19705   6.483   5.853   6.768
 6269SOL    HW119706   6.565   5.819   6.722
 6269SOL    HW219707   6.509   5.898   6.853
 6270SOL     OW19708   1.427   6.247   1.151
 6270SOL    HW119709   1.499   6.222   1.086
 6270SOL    HW219710   1.372   6.166   1.171
 6271SOL     OW19711   0.064   2.898   6.413
 6271SOL    HW119712   0.075   2.939   6.503
 6271SOL    HW219713   0.136   2.933   6.352
 6272SOL     OW19714   0.399   1.602   6.907
 6272SOL    HW119715   0.338   1.612   6.828
 6272SOL    HW219716   0.362   1.532   6.968
 6273SOL     OW19717   0.252   6.275   3.221
 6273SOL    HW119718   0.345   6.306   3.235
 6273SOL    HW219719   0.247   6.216   3.140
 6274SOL     OW19720   2.810   5.457   3.572
 6274SOL    HW119721   2.852   5.486   3.486
 6274SOL    HW219722   2.716   5.492   3.577
 6275SOL     OW19723   2.489   6.084   0.186
 6275SOL    HW119724   2.474   6.061   0.090
 6275SOL    HW219725   2.578   6.048   0.216
 6276SOL     OW19726   2.287   5.551   2.727
 6276SOL    HW119727   2.327   5.460   2.718
 6276SOL    HW219728   2.326   5.612   2.658
 6277SOL     OW19729   4.628   2.423   1.227
 6277SOL    HW119730   4.636   2.406   1.129
 6277SOL    HW219731   4.719   2.437   1.267
 6278SOL     OW19732   4.477   2.207   0.487
 6278SOL    HW119733   4.461   2.181   0.582
 6278SOL    HW219734   4.410   2.162   0.428
 6279SOL     OW19735   2.783   6.603   2.107
 6279SOL    HW119736   2.826   6.515   2.091
 6279SOL    HW219737   2.846   6.677   2.082
 6280SOL     OW19738   4.995   2.103   6.403
 6280SOL    HW119739   5.011   2.056   6.489
 6280SOL    HW219740   5.079   2.147   6.372
 6281SOL     OW19741   5.197   4.524   6.062
 6281SOL    HW119742   5.247   4.445   6.097
 6281SOL    HW219743   5.129   4.492   5.995
 6282SOL     OW19744   0.810   3.723   5.705
 6282SOL    HW119745   0.901   3.740   5.744
 6282SOL    HW219746   0.801   3.774   5.619
 6283SOL     OW19747   2.603   6.946   4.637
 6283SOL    HW119748   2.573   6.942   4.542
 6283SOL    HW219749   2.703   6.954   4.641
 6284SOL     OW19750   1.577   2.727   5.612
 6284SOL    HW119751   1.580   2.641   5.664
 6284SOL    HW219752   1.481   2.751   5.593
 6285SOL     OW19753   1.493   3.451   3.050
 6285SOL    HW119754   1.486   3.366   2.998
 6285SOL    HW219755   1.555   3.514   3.002
 6286SOL     OW19756   0.711   2.520   6.770
 6286SOL    HW119757   0.708   2.441   6.831
 6286SOL    HW219758   0.622   2.530   6.724
 6287SOL     OW19759   4.343   4.625   4.463
 6287SOL    HW119760   4.343   4.537   4.510
 6287SOL    HW219761   4.393   4.692   4.518
 6288SOL     OW19762   2.647   3.413   6.104
 6288SOL    HW119763   2.657   3.505   6.140
 6288SOL    HW219764   2.587   3.415   6.023
 6289SOL     OW19765   2.289   4.977   4.221
 6289SOL    HW119766   2.306   5.064   4.174
 6289SOL    HW219767   2.208   4.987   4.279
 6290SOL     OW19768   6.048   0.145   3.480
 6290SOL    HW119769   6.050   0.212   3.554
 6290SOL    HW219770   5.963   0.091   3.485
 6291SOL     OW19771   3.730   3.640   1.926
 6291SOL    HW119772   3.743   3.662   2.023
 6291SOL    HW219773   3.818   3.646   1.879
 6292SOL     OW19774   1.465   4.514   4.817
 6292SOL    HW119775   1.523   4.437   4.845
 6292SOL    HW219776   1.517   4.573   4.754
 6293SOL     OW19777   2.891   1.390   5.701
 6293SOL    HW119778   2.878   1.488   5.684
 6293SOL    HW219779   2.812   1.339   5.669
 6294SOL     OW19780   1.859   1.159   2.313
 6294SOL    HW119781   1.856   1.081   2.250
 6294SOL    HW219782   1.947   1.206   2.304
 6295SOL     OW19783   4.572   3.846   6.212
 6295SOL    HW119784   4.641   3.807   6.151
 6295SOL    HW219785   4.481   3.828   6.177
 6296SOL     OW19786   0.806   2.644   7.024
 6296SOL    HW119787   0.762   2.610   6.941
 6296SOL    HW219788   0.842   2.737   7.007
 6297SOL     OW19789   6.717   1.225   4.112
 6297SOL    HW119790   6.709   1.325   4.116
 6297SOL    HW219791   6.788   1.200   4.046
 6298SOL     OW19792   0.149   6.850   0.530
 6298SOL    HW119793   0.201   6.911   0.470
 6298SOL    HW219794   0.070   6.814   0.480
 6299SOL     OW19795   3.948   2.060   4.280
 6299SOL    HW119796   3.946   2.001   4.360
 6299SOL    HW219797   4.017   2.131   4.292
 6300SOL     OW19798   2.860   1.918   0.846
 6300SOL    HW119799   2.809   1.833   0.835
 6300SOL    HW219800   2.808   1.980   0.906
 6301SOL     OW19801   3.492   6.232   0.078
 6301SOL    HW119802   3.586   6.198   0.085
 6301SOL    HW219803   3.469   6.282   0.161
 6302SOL     OW19804   1.514   3.624   0.184
 6302SOL    HW119805   1.580   3.666   0.245
 6302SOL    HW219806   1.459   3.557   0.235
 6303SOL     OW19807   6.849   4.642   4.314
 6303SOL    HW119808   6.806   4.718   4.264
 6303SOL    HW219809   6.948   4.645   4.300
 6304SOL     OW19810   2.901   1.024   4.053
 6304SOL    HW119811   2.942   1.060   4.137
 6304SOL    HW219812   2.832   0.956   4.076
 6305SOL     OW19813   0.829   5.950   5.888
 6305SOL    HW119814   0.795   6.042   5.907
 6305SOL    HW219815   0.755   5.895   5.848
 6306SOL     OW19816   0.386   4.249   4.659
 6306SOL    HW119817   0.367   4.181   4.588
 6306SOL    HW219818   0.460   4.309   4.628
 6307SOL     OW19819   3.673   2.851   2.584
 6307SOL    HW119820   3.665   2.752   2.570
 6307SOL    HW219821   3.617   2.899   2.517
 6308SOL     OW19822   1.151   2.054   1.001
 6308SOL    HW119823   1.177   2.082   0.909
 6308SOL    HW219824   1.052   2.041   1.006
 6309SOL     OW19825   1.572   6.173   4.601
 6309SOL    HW119826   1.627   6.243   4.647
 6309SOL    HW219827   1.619   6.086   4.603
 6310SOL     OW19828   0.677   6.589   3.579
 6310SOL    HW119829   0.586   6.625   3.558
 6310SOL    HW219830   0.739   6.664   3.601
 6311SOL     OW19831   6.328   1.055   6.597
 6311SOL    HW119832   6.421   1.055   6.634
 6311SOL    HW219833   6.330   1.087   6.503
 6312SOL     OW19834   3.056   5.319   0.640
 6312SOL    HW119835   3.139   5.338   0.693
 6312SOL    HW219836   3.019   5.405   0.604
 6313SOL     OW19837   5.799   5.078   3.802
 6313SOL    HW119838   5.772   5.168   3.766
 6313SOL    HW219839   5.787   5.076   3.901
 6314SOL     OW19840   1.839   6.473   3.019
 6314SOL    HW119841   1.925   6.448   3.065
 6314SOL    HW219842   1.848   6.564   2.978
 6315SOL     OW19843   2.291   2.166   3.481
 6315SOL    HW119844   2.383   2.158   3.444
 6315SOL    HW219845   2.261   2.261   3.473
 6316SOL     OW19846   4.510   0.809   5.137
 6316SOL    HW119847   4.514   0.797   5.236
 6316SOL    HW219848   4.589   0.765   5.094
 6317SOL     OW19849   4.574   4.376   2.872
 6317SOL    HW119850   4.596   4.283   2.901
 6317SOL    HW219851   4.577   4.382   2.772
 6318SOL     OW19852   6.530   6.853   0.592
 6318SOL    HW119853   6.616   6.842   0.541
 6318SOL    HW219854   6.526   6.784   0.665
 6319SOL     OW19855   4.677   2.267   4.540
 6319SOL    HW119856   4.619   2.331   4.590
 6319SOL    HW219857   4.662   2.278   4.441
 6320SOL     OW19858   6.420   1.582   5.823
 6320SOL    HW119859   6.369   1.658   5.783
 6320SOL    HW219860   6.515   1.587   5.794
 6321SOL     OW19861   0.497   3.276   0.434
 6321SOL    HW119862   0.478   3.289   0.531
 6321SOL    HW219863   0.437   3.335   0.380
 6322SOL     OW19864   1.815   1.607   3.174
 6322SOL    HW119865   1.775   1.637   3.087
 6322SOL    HW219866   1.752   1.631   3.248
 6323SOL     OW19867   2.204   5.376   0.982
 6323SOL    HW119868   2.185   5.473   0.999
 6323SOL    HW219869   2.207   5.327   1.069
 6324SOL     OW19870   4.507   3.119   0.931
 6324SOL    HW119871   4.559   3.157   0.854
 6324SOL    HW219872   4.438   3.184   0.960
 6325SOL     OW19873   1.475   2.786   3.569
 6325SOL    HW119874   1.437   2.825   3.485
 6325SOL    HW219875   1.569   2.756   3.552
 6326SOL     OW19876   5.400   5.173   4.853
 6326SOL    HW119877   5.399   5.085   4.806
 6326SOL    HW219878   5.492   5.191   4.887
 6327SOL     OW19879   0.536   1.187   3.271
 6327SOL    HW119880   0.621   1.137   3.288
 6327SOL    HW219881   0.460   1.138   3.313
 6328SOL     OW19882   4.085   3.696   5.513
 6328SOL    HW119883   4.044   3.609   5.486
 6328SOL    HW219884   4.180   3.700   5.479
 6329SOL     OW19885   0.601   2.498   5.899
 6329SOL    HW119886   0.621   2.412   5.946
 6329SOL    HW219887   0.509   2.529   5.924
 6330SOL     OW19888   4.502   2.086   3.565
 6330SOL    HW119889   4.535   2.005   3.612
 6330SOL    HW219890   4.413   2.112   3.602
 6331SOL     OW19891   1.567   3.635   4.055
 6331SOL    HW119892   1.634   3.621   4.128
 6331SOL    HW219893   1.483   3.584   4.076
 6332SOL     OW19894   4.162   1.795   7.023
 6332SOL    HW119895   4.110   1.794   0.084
 6332SOL    HW219896   4.257   1.769   0.018
 6333SOL     OW19897   5.322   0.834   0.579
 6333SOL    HW119898   5.419   0.848   0.600
 6333SOL    HW219899   5.294   0.742   0.608
 6334SOL     OW19900   1.871   1.166   1.820
 6334SOL    HW119901   1.895   1.153   1.724
 6334SOL    HW219902   1.921   1.100   1.877
 6335SOL     OW19903   6.861   3.563   5.863
 6335SOL    HW119904   6.807   3.501   5.806
 6335SOL    HW219905   6.910   3.628   5.804
 6336SOL     OW19906   0.692   4.543   5.826
 6336SOL    HW119907   0.676   4.445   5.815
 6336SOL    HW219908   0.777   4.568   5.780
 6337SOL     OW19909   6.258   6.967   4.870
 6337SOL    HW119910   6.267   6.965   4.771
 6337SOL    HW219911   6.201   0.021   4.897
 6338SOL     OW19912   0.779   0.977   3.353
 6338SOL    HW119913   0.723   0.896   3.365
 6338SOL    HW219914   0.835   0.967   3.271
 6339SOL     OW19915   0.021   3.578   3.131
 6339SOL    HW119916   0.050   3.665   3.091
 6339SOL    HW219917   6.963   3.592   3.187
 6340SOL     OW19918   2.785   4.977   0.022
 6340SOL    HW119919   2.880   4.948   0.030
 6340SOL    HW219920   2.781   5.077   0.019
 6341SOL     OW19921   0.169   4.893   2.233
 6341SOL    HW119922   0.183   4.891   2.134
 6341SOL    HW219923   0.152   4.987   2.262
 6342SOL     OW19924   1.929   1.102   1.535
 6342SOL    HW119925   2.023   1.131   1.517
 6342SOL    HW219926   1.912   1.014   1.491
 6343SOL     OW19927   1.129   5.715   6.888
 6343SOL    HW119928   1.153   5.778   6.813
 6343SOL    HW219929   1.196   5.725   6.962
 6344SOL     OW19930   1.207   1.220   4.794
 6344SOL    HW119931   1.262   1.201   4.876
 6344SOL    HW219932   1.201   1.318   4.780
 6345SOL     OW19933   5.780   2.720   2.562
 6345SOL    HW119934   5.710   2.745   2.630
 6345SOL    HW219935   5.863   2.691   2.609
 6346SOL     OW19936   0.459   4.322   4.955
 6346SOL    HW119937   0.554   4.350   4.944
 6346SOL    HW219938   0.432   4.263   4.880
 6347SOL     OW19939   2.204   2.433   3.811
 6347SOL    HW119940   2.198   2.518   3.862
 6347SOL    HW219941   2.129   2.372   3.837
 6348SOL     OW19942   1.321   2.614   6.758
 6348SOL    HW119943   1.358   2.692   6.808
 6348SOL    HW219944   1.251   2.645   6.694
 6349SOL     OW19945   5.406   0.846   0.990
 6349SOL    HW119946   5.308   0.863   1.000
 6349SOL    HW219947   5.450   0.854   1.080
 6350SOL     OW19948   0.590   6.439   1.316
 6350SOL    HW119949   0.689   6.431   1.320
 6350SOL    HW219950   0.564   6.535   1.322
 6351SOL     OW19951   5.876   3.010   1.357
 6351SOL    HW119952   5.885   2.942   1.431
 6351SOL    HW219953   5.938   3.086   1.375
 6352SOL     OW19954   3.889   0.263   4.220
 6352SOL    HW119955   3.802   0.306   4.245
 6352SOL    HW219956   3.956   0.334   4.199
 6353SOL     OW19957   3.846   6.388   5.469
 6353SOL    HW119958   3.810   6.300   5.436
 6353SOL    HW219959   3.804   6.463   5.418
 6354SOL     OW19960   5.160   5.001   2.380
 6354SOL    HW119961   5.065   5.030   2.389
 6354SOL    HW219962   5.170   4.907   2.412
 6355SOL     OW19963   3.928   5.849   0.675
 6355SOL    HW119964   3.978   5.764   0.694
 6355SOL    HW219965   3.948   5.880   0.583
 6356SOL     OW19966   0.006   6.561   6.220
 6356SOL    HW119967   0.078   6.606   6.273
 6356SOL    HW219968   0.025   6.569   6.122
 6357SOL     OW19969   4.843   1.920   2.864
 6357SOL    HW119970   4.864   1.822   2.869
 6357SOL    HW219971   4.921   1.973   2.896
 6358SOL     OW19972   1.315   1.660   4.494
 6358SOL    HW119973   1.306   1.564   4.465
 6358SOL    HW219974   1.402   1.672   4.542
 6359SOL     OW19975   5.915   5.165   1.481
 6359SOL    HW119976   5.981   5.234   1.452
 6359SOL    HW219977   5.956   5.074   1.475
 6360SOL     OW19978   2.119   2.606   0.978
 6360SOL    HW119979   2.188   2.551   0.931
 6360SOL    HW219980   2.114   2.578   1.074
 6361SOL     OW19981   0.628   1.757   2.098
 6361SOL    HW119982   0.726   1.772   2.114
 6361SOL    HW219983   0.586   1.842   2.065
 6362SOL     OW19984   1.447   5.401   0.310
 6362SOL    HW119985   1.354   5.365   0.299
 6362SOL    HW219986   1.507   5.328   0.343
 6363SOL     OW19987   1.229   3.255   1.946
 6363SOL    HW119988   1.311   3.312   1.954
 6363SOL    HW219989   1.254   3.159   1.954
 6364SOL     OW19990   2.974   1.510   3.900
 6364SOL    HW119991   3.069   1.519   3.932
 6364SOL    HW219992   2.918   1.581   3.943
 6365SOL     OW19993   6.108   6.986   2.681
 6365SOL    HW119994   6.108   6.895   2.723
 6365SOL    HW219995   6.155   6.982   2.593
 6366SOL     OW19996   6.147   1.316   5.080
 6366SOL    HW119997   6.130   1.219   5.061
 6366SOL    HW219998   6.127   1.334   5.177
 6367SOL     OW19999   1.265   2.150   4.169
 6367SOL    HW120000   1.324   2.069   4.173
 6367SOL    HW220001   1.192   2.134   4.102
 6368SOL     OW20002   4.938   3.445   4.806
 6368SOL    HW120003   5.013   3.408   4.861
 6368SOL    HW220004   4.886   3.511   4.860
 6369SOL     OW20005   3.968   4.628   0.810
 6369SOL    HW120006   4.002   4.716   0.776
 6369SOL    HW220007   3.880   4.641   0.855
 6370SOL     OW20008   5.513   3.899   4.624
 6370SOL    HW120009   5.491   3.821   4.565
 6370SOL    HW220010   5.597   3.879   4.675
 6371SOL     OW20011   5.534   4.547   0.833
 6371SOL    HW120012   5.571   4.458   0.805
 6371SOL    HW220013   5.555   4.564   0.929
 6372SOL     OW20014   6.574   1.329   1.181
 6372SOL    HW120015   6.607   1.254   1.238
 6372SOL    HW220016   6.535   1.401   1.240
 6373SOL     OW20017   4.896   2.849   1.879
 6373SOL    HW120018   4.815   2.891   1.917
 6373SOL    HW220019   4.937   2.787   1.946
 6374SOL     OW20020   4.799   3.714   6.044
 6374SOL    HW120021   4.796   3.681   5.950
 6374SOL    HW220022   4.801   3.636   6.107
 6375SOL     OW20023   4.757   1.079   1.443
 6375SOL    HW120024   4.762   0.979   1.437
 6375SOL    HW220025   4.838   1.114   1.490
 6376SOL     OW20026   2.667   0.620   0.382
 6376SOL    HW120027   2.577   0.609   0.425
 6376SOL    HW220028   2.739   0.607   0.451
 6377SOL     OW20029   0.234   0.521   6.750
 6377SOL    HW120030   0.167   0.557   6.815
 6377SOL    HW220031   0.193   0.521   6.658
 6378SOL     OW20032   5.604   3.889   2.095
 6378SOL    HW120033   5.703   3.879   2.104
 6378SOL    HW220034   5.563   3.798   2.085
 6379SOL     OW20035   2.004   5.690   6.405
 6379SOL    HW120036   2.077   5.622   6.393
 6379SOL    HW220037   1.921   5.644   6.435
 6380SOL     OW20038   1.757   2.527   5.277
 6380SOL    HW120039   1.807   2.592   5.334
 6380SOL    HW220040   1.766   2.553   5.181
 6381SOL     OW20041   3.680   3.881   0.494
 6381SOL    HW120042   3.672   3.971   0.451
 6381SOL    HW220043   3.609   3.872   0.565
 6382SOL     OW20044   1.249   1.517   1.040
 6382SOL    HW120045   1.233   1.593   0.977
 6382SOL    HW220046   1.319   1.456   1.001
 6383SOL     OW20047   2.495   2.572   2.157
 6383SOL    HW120048   2.491   2.499   2.225
 6383SOL    HW220049   2.579   2.625   2.170
 6384SOL     OW20050   6.340   2.134   1.750
 6384SOL    HW120051   6.322   2.182   1.665
 6384SOL    HW220052   6.432   2.156   1.782
 6385SOL     OW20053   6.388   3.720   0.767
 6385SOL    HW120054   6.359   3.778   0.843
 6385SOL    HW220055   6.421   3.777   0.691
 6386SOL     OW20056   3.878   3.616   0.206
 6386SOL    HW120057   3.786   3.581   0.220
 6386SOL    HW220058   3.945   3.544   0.226
 6387SOL     OW20059   6.584   0.238   6.503
 6387SOL    HW120060   6.522   0.315   6.518
 6387SOL    HW220061   6.635   0.220   6.587
 6388SOL     OW20062   5.762   5.327   1.687
 6388SOL    HW120063   5.819   5.279   1.620
 6388SOL    HW220064   5.755   5.424   1.662
 6389SOL     OW20065   6.824   6.866   0.551
 6389SOL    HW120066   6.840   6.836   0.645
 6389SOL    HW220067   6.887   6.819   0.490
 6390SOL     OW20068   5.429   6.956   6.483
 6390SOL    HW120069   5.384   6.873   6.515
 6390SOL    HW220070   5.361   0.003   6.467
 6391SOL     OW20071   1.785   1.946   4.562
 6391SOL    HW120072   1.775   1.914   4.467
 6391SOL    HW220073   1.695   1.971   4.598
 6392SOL     OW20074   4.734   0.121   4.094
 6392SOL    HW120075   4.797   0.066   4.040
 6392SOL    HW220076   4.688   0.063   4.161
 6393SOL     OW20077   2.026   4.911   0.589
 6393SOL    HW120078   1.970   4.853   0.648
 6393SOL    HW220079   2.015   5.006   0.615
 6394SOL     OW20080   1.868   4.997   2.101
 6394SOL    HW120081   1.888   4.953   2.014
 6394SOL    HW220082   1.945   4.985   2.164
 6395SOL     OW20083   1.652   4.530   4.573
 6395SOL    HW120084   1.745   4.505   4.601
 6395SOL    HW220085   1.653   4.557   4.477
 6396SOL     OW20086   1.923   3.014   5.276
 6396SOL    HW120087   1.894   3.102   5.313
 6396SOL    HW220088   1.856   2.944   5.300
 6397SOL     OW20089   6.331   3.315   5.001
 6397SOL    HW120090   6.389   3.355   5.072
 6397SOL    HW220091   6.254   3.376   4.983
 6398SOL     OW20092   2.011   0.406   2.647
 6398SOL    HW120093   2.064   0.362   2.719
 6398SOL    HW220094   1.941   0.465   2.687
 6399SOL     OW20095   2.560   0.358   6.944
 6399SOL    HW120096   2.619   0.435   6.920
 6399SOL    HW220097   2.469   0.371   6.905
 6400SOL     OW20098   0.676   6.617   2.620
 6400SOL    HW120099   0.662   6.570   2.533
 6400SOL    HW220100   0.723   6.704   2.604
 6401SOL     OW20101   3.628   5.139   2.253
 6401SOL    HW120102   3.644   5.040   2.248
 6401SOL    HW220103   3.535   5.156   2.286
 6402SOL     OW20104   3.682   4.305   6.268
 6402SOL    HW120105   3.663   4.316   6.365
 6402SOL    HW220106   3.603   4.263   6.223
 6403SOL     OW20107   4.966   5.668   5.704
 6403SOL    HW120108   4.889   5.677   5.641
 6403SOL    HW220109   5.051   5.659   5.652
 6404SOL     OW20110   4.408   5.583   0.013
 6404SOL    HW120111   4.493   5.547   6.998
 6404SOL    HW220112   4.423   5.677   0.045
 6405SOL     OW20113   4.899   0.994   2.618
 6405SOL    HW120114   4.886   0.901   2.585
 6405SOL    HW220115   4.994   1.006   2.647
 6406SOL     OW20116   0.226   3.089   2.588
 6406SOL    HW120117   0.129   3.108   2.605
 6406SOL    HW220118   0.237   3.050   2.497
 6407SOL     OW20119   0.220   0.128   2.553
 6407SOL    HW120120   0.302   0.159   2.602
 6407SOL    HW220121   0.228   0.152   2.456
 6408SOL     OW20122   0.497   1.447   1.628
 6408SOL    HW120123   0.513   1.352   1.599
 6408SOL    HW220124   0.425   1.487   1.571
 6409SOL     OW20125   5.966   4.431   3.517
 6409SOL    HW120126   5.917   4.352   3.481
 6409SOL    HW220127   6.054   4.401   3.555
 6410SOL     OW20128   2.036   1.200   0.434
 6410SOL    HW120129   1.941   1.168   0.442
 6410SOL    HW220130   2.051   1.235   0.341
 6411SOL     OW20131   0.522   2.562   2.858
 6411SOL    HW120132   0.615   2.560   2.896
 6411SOL    HW220133   0.479   2.473   2.870
 6412SOL     OW20134   3.340   0.556   6.840
 6412SOL    HW120135   3.431   0.523   6.865
 6412SOL    HW220136   3.348   0.644   6.793
 6413SOL     OW20137   4.914   6.272   3.061
 6413SOL    HW120138   4.894   6.176   3.046
 6413SOL    HW220139   4.831   6.320   3.089
 6414SOL     OW20140   2.635   0.584   0.117
 6414SOL    HW120141   2.673   0.604   0.208
 6414SOL    HW220142   2.679   0.642   0.049
 6415SOL     OW20143   0.722   1.549   3.732
 6415SOL    HW120144   0.785   1.484   3.689
 6415SOL    HW220145   0.766   1.592   3.811
 6416SOL     OW20146   3.052   4.762   0.185
 6416SOL    HW120147   3.045   4.781   0.087
 6416SOL    HW220148   3.001   4.832   0.236
 6417SOL     OW20149   4.444   3.217   6.693
 6417SOL    HW120150   4.366   3.250   6.746
 6417SOL    HW220151   4.412   3.177   6.607
 6418SOL     OW20152   5.342   5.353   0.468
 6418SOL    HW120153   5.429   5.397   0.444
 6418SOL    HW220154   5.343   5.259   0.434
 6419SOL     OW20155   0.631   6.899   6.764
 6419SOL    HW120156   0.576   6.982   6.764
 6419SOL    HW220157   0.683   6.893   6.849
 6420SOL     OW20158   2.518   4.482   3.846
 6420SOL    HW120159   2.462   4.413   3.893
 6420SOL    HW220160   2.576   4.528   3.913
 6421SOL     OW20161   5.156   0.060   1.909
 6421SOL    HW120162   5.158   0.152   1.871
 6421SOL    HW220163   5.198   0.060   2.000
 6422SOL     OW20164   0.436   2.700   4.963
 6422SOL    HW120165   0.494   2.696   4.882
 6422SOL    HW220166   0.370   2.625   4.962
 6423SOL     OW20167   0.968   4.114   4.703
 6423SOL    HW120168   1.058   4.147   4.678
 6423SOL    HW220169   0.948   4.140   4.798
 6424SOL     OW20170   6.694   4.604   5.874
 6424SOL    HW120171   6.741   4.590   5.961
 6424SOL    HW220172   6.669   4.515   5.836
 6425SOL     OW20173   0.543   6.221   4.541
 6425SOL    HW120174   0.589   6.288   4.601
 6425SOL    HW220175   0.450   6.251   4.524
 6426SOL     OW20176   4.679   5.493   4.182
 6426SOL    HW120177   4.777   5.485   4.196
 6426SOL    HW220178   4.642   5.565   4.240
 6427SOL     OW20179   4.034   3.192   3.810
 6427SOL    HW120180   3.949   3.230   3.847
 6427SOL    HW220181   4.013   3.128   3.736
 6428SOL     OW20182   5.767   2.943   0.225
 6428SOL    HW120183   5.766   2.933   0.126
 6428SOL    HW220184   5.678   2.918   0.262
 6429SOL     OW20185   2.461   1.001   5.647
 6429SOL    HW120186   2.372   1.010   5.603
 6429SOL    HW220187   2.452   1.024   5.744
 6430SOL     OW20188   5.353   1.584   4.960
 6430SOL    HW120189   5.288   1.635   4.904
 6430SOL    HW220190   5.425   1.646   4.991
 6431SOL     OW20191   3.420   5.166   2.489
 6431SOL    HW120192   3.357   5.242   2.506
 6431SOL    HW220193   3.412   5.100   2.563
 6432SOL     OW20194   4.794   3.012   5.974
 6432SOL    HW120195   4.714   3.016   5.915
 6432SOL    HW220196   4.773   2.958   6.055
 6433SOL     OW20197   3.658   5.151   6.300
 6433SOL    HW120198   3.560   5.141   6.313
 6433SOL    HW220199   3.686   5.244   6.323
 6434SOL     OW20200   5.714   5.499   5.896
 6434SOL    HW120201   5.729   5.483   5.799
 6434SOL    HW220202   5.795   5.542   5.936
 6435SOL     OW20203   4.332   1.275   1.079
 6435SOL    HW120204   4.408   1.288   1.016
 6435SOL    HW220205   4.251   1.324   1.045
 6436SOL     OW20206   0.164   3.498   3.720
 6436SOL    HW120207   0.225   3.527   3.646
 6436SOL    HW220208   0.216   3.490   3.805
 6437SOL     OW20209   1.733   2.870   5.832
 6437SOL    HW120210   1.670   2.826   5.769
 6437SOL    HW220211   1.699   2.961   5.856
 6438SOL     OW20212   0.361   5.427   0.698
 6438SOL    HW120213   0.301   5.379   0.635
 6438SOL    HW220214   0.306   5.488   0.756
 6439SOL     OW20215   5.359   6.753   2.616
 6439SOL    HW120216   5.428   6.811   2.572
 6439SOL    HW220217   5.313   6.805   2.688
 6440SOL     OW20218   2.495   1.971   6.070
 6440SOL    HW120219   2.486   2.056   6.018
 6440SOL    HW220220   2.493   1.893   6.007
 6441SOL     OW20221   0.428   2.628   1.851
 6441SOL    HW120222   0.476   2.561   1.909
 6441SOL    HW220223   0.336   2.594   1.831
 6442SOL     OW20224   2.390   1.814   4.452
 6442SOL    HW120225   2.478   1.854   4.429
 6442SOL    HW220226   2.318   1.861   4.400
 6443SOL     OW20227   3.538   3.372   6.142
 6443SOL    HW120228   3.518   3.279   6.113
 6443SOL    HW220229   3.476   3.399   6.215
 6444SOL     OW20230   6.993   3.718   5.166
 6444SOL    HW120231   6.920   3.705   5.233
 6444SOL    HW220232   0.006   3.628   5.139
 6445SOL     OW20233   3.701   2.900   3.748
 6445SOL    HW120234   3.602   2.912   3.742
 6445SOL    HW220235   3.722   2.840   3.826
 6446SOL     OW20236   1.328   1.369   0.789
 6446SOL    HW120237   1.316   1.278   0.830
 6446SOL    HW220238   1.423   1.398   0.802
 6447SOL     OW20239   6.083   3.620   1.267
 6447SOL    HW120240   6.094   3.541   1.328
 6447SOL    HW220241   6.000   3.608   1.213
 6448SOL     OW20242   4.259   4.784   1.152
 6448SOL    HW120243   4.255   4.713   1.081
 6448SOL    HW220244   4.246   4.874   1.110
 6449SOL     OW20245   3.639   5.318   0.194
 6449SOL    HW120246   3.677   5.225   0.193
 6449SOL    HW220247   3.566   5.324   0.126
 6450SOL     OW20248   5.784   3.639   6.986
 6450SOL    HW120249   5.809   3.556   6.935
 6450SOL    HW220250   5.763   3.614   0.056
 6451SOL     OW20251   4.231   2.737   1.677
 6451SOL    HW120252   4.216   2.798   1.600
 6451SOL    HW220253   4.299   2.778   1.739
 6452SOL     OW20254   4.046   1.922   4.865
 6452SOL    HW120255   4.017   1.828   4.885
 6452SOL    HW220256   3.986   1.986   4.914
 6453SOL     OW20257   2.488   0.478   3.091
 6453SOL    HW120258   2.415   0.529   3.139
 6453SOL    HW220259   2.459   0.460   2.997
 6454SOL     OW20260   5.130   3.209   4.593
 6454SOL    HW120261   5.196   3.152   4.545
 6454SOL    HW220262   5.038   3.192   4.557
 6455SOL     OW20263   0.279   3.025   4.171
 6455SOL    HW120264   0.363   3.069   4.140
 6455SOL    HW220265   0.278   2.930   4.142
 6456SOL     OW20266   6.966   1.999   2.739
 6456SOL    HW120267   6.984   1.956   2.650
 6456SOL    HW220268   6.912   1.937   2.796
 6457SOL     OW20269   2.550   6.448   2.379
 6457SOL    HW120270   2.639   6.472   2.417
 6457SOL    HW220271   2.523   6.516   2.311
 6458SOL     OW20272   0.279   7.000   4.164
 6458SOL    HW120273   0.273   0.071   4.133
 6458SOL    HW220274   0.276   6.939   4.084
 6459SOL     OW20275   0.375   3.141   3.133
 6459SOL    HW120276   0.277   3.147   3.116
 6459SOL    HW220277   0.404   3.046   3.132
 6460SOL     OW20278   1.502   5.280   6.503
 6460SOL    HW120279   1.476   5.272   6.407
 6460SOL    HW220280   1.475   5.370   6.538
 6461SOL     OW20281   0.313   6.342   0.764
 6461SOL    HW120282   0.226   6.294   0.773
 6461SOL    HW220283   0.387   6.276   0.752
 6462SOL     OW20284   1.858   4.068   5.257
 6462SOL    HW120285   1.834   4.114   5.342
 6462SOL    HW220286   1.957   4.055   5.252
 6463SOL     OW20287   4.415   2.686   1.401
 6463SOL    HW120288   4.439   2.716   1.309
 6463SOL    HW220289   4.316   2.681   1.410
 6464SOL     OW20290   0.328   3.606   3.464
 6464SOL    HW120291   0.297   3.570   3.376
 6464SOL    HW220292   0.386   3.686   3.449
 6465SOL     OW20293   3.303   0.645   3.844
 6465SOL    HW120294   3.245   0.582   3.792
 6465SOL    HW220295   3.256   0.732   3.857
 6466SOL     OW20296   6.738   5.099   6.223
 6466SOL    HW120297   6.665   5.139   6.168
 6466SOL    HW220298   6.705   5.017   6.269
 6467SOL     OW20299   2.307   2.878   6.125
 6467SOL    HW120300   2.370   2.821   6.073
 6467SOL    HW220301   2.277   2.956   6.069
 6468SOL     OW20302   1.270   0.723   1.366
 6468SOL    HW120303   1.328   0.689   1.291
 6468SOL    HW220304   1.175   0.701   1.346
 6469SOL     OW20305   1.769   1.311   1.490
 6469SOL    HW120306   1.830   1.234   1.511
 6469SOL    HW220307   1.822   1.396   1.489
 6470SOL     OW20308   6.310   1.696   6.780
 6470SOL    HW120309   6.311   1.723   6.876
 6470SOL    HW220310   6.403   1.689   6.746
 6471SOL     OW20311   0.088   6.186   5.943
 6471SOL    HW120312   0.016   6.122   5.912
 6471SOL    HW220313   0.160   6.189   5.874
 6472SOL     OW20314   0.156   6.131   2.118
 6472SOL    HW120315   0.229   6.090   2.063
 6472SOL    HW220316   0.103   6.194   2.061
 6473SOL     OW20317   3.302   1.166   3.514
 6473SOL    HW120318   3.346   1.256   3.520
 6473SOL    HW220319   3.371   1.094   3.515
 6474SOL     OW20320   3.524   6.506   3.772
 6474SOL    HW120321   3.497   6.558   3.692
 6474SOL    HW220322   3.568   6.566   3.839
 6475SOL     OW20323   5.363   5.669   2.643
 6475SOL    HW120324   5.329   5.617   2.722
 6475SOL    HW220325   5.428   5.739   2.675
 6476SOL     OW20326   4.821   3.516   6.562
 6476SOL    HW120327   4.821   3.605   6.607
 6476SOL    HW220328   4.796   3.445   6.628
 6477SOL     OW20329   0.724   6.527   0.769
 6477SOL    HW120330   0.725   6.547   0.867
 6477SOL    HW220331   0.732   6.428   0.755
 6478SOL     OW20332   1.312   5.982   1.192
 6478SOL    HW120333   1.237   5.923   1.161
 6478SOL    HW220334   1.398   5.950   1.152
 6479SOL     OW20335   4.603   5.868   3.398
 6479SOL    HW120336   4.594   5.956   3.445
 6479SOL    HW220337   4.699   5.841   3.396
 6480SOL     OW20338   3.358   1.383   5.267
 6480SOL    HW120339   3.352   1.447   5.190
 6480SOL    HW220340   3.371   1.433   5.352
 6481SOL     OW20341   4.210   3.378   1.815
 6481SOL    HW120342   4.200   3.289   1.770
 6481SOL    HW220343   4.288   3.375   1.878
 6482SOL     OW20344   4.773   3.272   5.259
 6482SOL    HW120345   4.772   3.366   5.223
 6482SOL    HW220346   4.778   3.207   5.184
 6483SOL     OW20347   1.892   5.893   5.190
 6483SOL    HW120348   1.971   5.926   5.241
 6483SOL    HW220349   1.878   5.796   5.211
 6484SOL     OW20350   4.322   1.643   3.196
 6484SOL    HW120351   4.338   1.741   3.182
 6484SOL    HW220352   4.330   1.595   3.108
 6485SOL     OW20353   2.316   5.125   5.112
 6485SOL    HW120354   2.375   5.152   5.037
 6485SOL    HW220355   2.220   5.135   5.084
 6486SOL     OW20356   6.874   4.317   2.428
 6486SOL    HW120357   6.912   4.278   2.512
 6486SOL    HW220358   6.945   4.323   2.358
 6487SOL     OW20359   6.289   5.302   4.207
 6487SOL    HW120360   6.386   5.277   4.194
 6487SOL    HW220361   6.282   5.399   4.227
 6488SOL     OW20362   3.832   5.302   3.837
 6488SOL    HW120363   3.824   5.394   3.799
 6488SOL    HW220364   3.861   5.238   3.766
 6489SOL     OW20365   6.269   3.186   5.264
 6489SOL    HW120366   6.176   3.153   5.277
 6489SOL    HW220367   6.284   3.207   5.167
 6490SOL     OW20368   2.112   2.543   0.249
 6490SOL    HW120369   2.062   2.510   0.329
 6490SOL    HW220370   2.198   2.493   0.241
 6491SOL     OW20371   1.369   0.047   1.581
 6491SOL    HW120372   1.399   0.139   1.555
 6491SOL    HW220373   1.332   0.049   1.674
 6492SOL     OW20374   4.035   3.796   4.116
 6492SOL    HW120375   4.102   3.817   4.045
 6492SOL    HW220376   4.059   3.847   4.199
 6493SOL     OW20377   1.288   4.400   3.792
 6493SOL    HW120378   1.355   4.452   3.845
 6493SOL    HW220379   1.225   4.464   3.748
 6494SOL     OW20380   6.435   0.743   1.346
 6494SOL    HW120381   6.343   0.734   1.307
 6494SOL    HW220382   6.436   0.818   1.411
 6495SOL     OW20383   6.910   0.015   3.532
 6495SOL    HW120384   6.959   0.097   3.561
 6495SOL    HW220385   6.864   0.033   3.445
 6496SOL     OW20386   3.159   2.188   1.834
 6496SOL    HW120387   3.118   2.275   1.808
 6496SOL    HW220388   3.254   2.186   1.804
 6497SOL     OW20389   0.539   1.943   0.718
 6497SOL    HW120390   0.634   1.926   0.746
 6497SOL    HW220391   0.502   2.019   0.771
 6498SOL     OW20392   1.994   4.992   4.471
 6498SOL    HW120393   1.927   5.052   4.428
 6498SOL    HW220394   1.947   4.919   4.521
 6499SOL     OW20395   4.841   2.357   3.275
 6499SOL    HW120396   4.823   2.385   3.369
 6499SOL    HW220397   4.765   2.302   3.241
 6500SOL     OW20398   1.267   3.418   3.174
 6500SOL    HW120399   1.350   3.464   3.143
 6500SOL    HW220400   1.202   3.486   3.207
 6501SOL     OW20401   6.434   0.818   2.790
 6501SOL    HW120402   6.461   0.800   2.885
 6501SOL    HW220403   6.352   0.765   2.769
 6502SOL     OW20404   0.924   3.075   1.632
 6502SOL    HW120405   1.004   3.039   1.584
 6502SOL    HW220406   0.947   3.165   1.671
 6503SOL     OW20407   6.904   2.848   5.840
 6503SOL    HW120408   6.848   2.891   5.911
 6503SOL    HW220409   6.868   2.872   5.750
 6504SOL     OW20410   3.560   6.551   6.349
 6504SOL    HW120411   3.569   6.461   6.392
 6504SOL    HW220412   3.628   6.561   6.276
 6505SOL     OW20413   0.285   6.975   1.049
 6505SOL    HW120414   0.334   6.890   1.071
 6505SOL    HW220415   0.254   6.971   0.954
 6506SOL     OW20416   6.893   3.845   1.777
 6506SOL    HW120417   6.824   3.907   1.813
 6506SOL    HW220418   6.973   3.898   1.748
 6507SOL     OW20419   3.767   5.945   0.858
 6507SOL    HW120420   3.830   6.009   0.902
 6507SOL    HW220421   3.817   5.889   0.791
 6508SOL     OW20422   6.812   0.245   3.805
 6508SOL    HW120423   6.740   0.269   3.870
 6508SOL    HW220424   6.865   0.168   3.841
 6509SOL     OW20425   2.404   1.839   6.613
 6509SOL    HW120426   2.414   1.851   6.712
 6509SOL    HW220427   2.391   1.743   6.591
 6510SOL     OW20428   3.501   5.279   4.362
 6510SOL    HW120429   3.570   5.322   4.420
 6510SOL    HW220430   3.440   5.349   4.325
 6511SOL     OW20431   3.694   2.233   0.362
 6511SOL    HW120432   3.708   2.161   0.294
 6511SOL    HW220433   3.690   2.194   0.453
 6512SOL     OW20434   4.799   0.625   0.543
 6512SOL    HW120435   4.883   0.574   0.528
 6512SOL    HW220436   4.756   0.594   0.628
 6513SOL     OW20437   2.858   4.736   2.907
 6513SOL    HW120438   2.800   4.809   2.944
 6513SOL    HW220439   2.935   4.720   2.969
 6514SOL     OW20440   5.427   6.443   5.469
 6514SOL    HW120441   5.358   6.513   5.451
 6514SOL    HW220442   5.441   6.388   5.386
 6515SOL     OW20443   0.571   4.940   2.549
 6515SOL    HW120444   0.479   4.903   2.536
 6515SOL    HW220445   0.577   5.029   2.503
 6516SOL     OW20446   6.195   2.101   3.211
 6516SOL    HW120447   6.177   2.141   3.120
 6516SOL    HW220448   6.113   2.108   3.267
 6517SOL     OW20449   6.485   3.824   0.474
 6517SOL    HW120450   6.551   3.853   0.543
 6517SOL    HW220451   6.533   3.786   0.395
 6518SOL     OW20452   0.840   1.246   2.074
 6518SOL    HW120453   0.785   1.221   2.154
 6518SOL    HW220454   0.886   1.333   2.092
 6519SOL     OW20455   1.305   0.888   3.617
 6519SOL    HW120456   1.332   0.889   3.521
 6519SOL    HW220457   1.324   0.978   3.657
 6520SOL     OW20458   6.219   5.278   0.132
 6520SOL    HW120459   6.206   5.313   0.040
 6520SOL    HW220460   6.312   5.241   0.141
 6521SOL     OW20461   1.814   4.744   4.812
 6521SOL    HW120462   1.784   4.835   4.840
 6521SOL    HW220463   1.793   4.730   4.716
 6522SOL     OW20464   2.379   2.837   5.302
 6522SOL    HW120465   2.328   2.782   5.235
 6522SOL    HW220466   2.394   2.928   5.265
 6523SOL     OW20467   5.887   6.560   0.970
 6523SOL    HW120468   5.914   6.596   0.881
 6523SOL    HW220469   5.874   6.635   1.034
 6524SOL     OW20470   3.074   2.711   1.163
 6524SOL    HW120471   3.168   2.683   1.181
 6524SOL    HW220472   3.028   2.640   1.110
 6525SOL     OW20473   1.630   4.947   3.793
 6525SOL    HW120474   1.600   4.956   3.698
 6525SOL    HW220475   1.727   4.923   3.796
 6526SOL     OW20476   6.368   6.893   0.897
 6526SOL    HW120477   6.329   6.896   0.805
 6526SOL    HW220478   6.357   6.982   0.941
 6527SOL     OW20479   5.475   1.389   0.483
 6527SOL    HW120480   5.427   1.477   0.486
 6527SOL    HW220481   5.416   1.318   0.520
 6528SOL     OW20482   4.195   6.806   6.910
 6528SOL    HW120483   4.204   6.763   6.820
 6528SOL    HW220484   4.251   6.756   6.977
 6529SOL     OW20485   4.275   0.413   1.816
 6529SOL    HW120486   4.311   0.322   1.800
 6529SOL    HW220487   4.274   0.465   1.730
 6530SOL     OW20488   6.834   2.886   3.614
 6530SOL    HW120489   6.816   2.795   3.650
 6530SOL    HW220490   6.799   2.893   3.520
 6531SOL     OW20491   3.815   3.650   3.817
 6531SOL    HW120492   3.840   3.630   3.912
 6531SOL    HW220493   3.755   3.730   3.813
 6532SOL     OW20494   0.512   6.025   0.395
 6532SOL    HW120495   0.596   5.971   0.387
 6532SOL    HW220496   0.510   6.071   0.484
 6533SOL     OW20497   4.884   4.833   1.544
 6533SOL    HW120498   4.792   4.810   1.513
 6533SOL    HW220499   4.891   4.819   1.643
 6534SOL     OW20500   6.937   3.832   3.845
 6534SOL    HW120501   6.997   3.912   3.851
 6534SOL    HW220502   6.896   3.828   3.754
 6535SOL     OW20503   5.373   4.143   5.818
 6535SOL    HW120504   5.332   4.052   5.822
 6535SOL    HW220505   5.426   4.152   5.733
 6536SOL     OW20506   0.706   4.950   5.685
 6536SOL    HW120507   0.732   4.875   5.745
 6536SOL    HW220508   0.612   4.937   5.653
 6537SOL     OW20509   0.003   5.502   3.885
 6537SOL    HW120510   6.952   5.506   3.951
 6537SOL    HW220511   0.069   5.575   3.904
 6538SOL     OW20512   1.323   2.981   3.759
 6538SOL    HW120513   1.397   3.038   3.723
 6538SOL    HW220514   1.307   2.904   3.697
 6539SOL     OW20515   4.523   6.694   7.014
 6539SOL    HW120516   4.531   6.751   0.072
 6539SOL    HW220517   4.575   6.735   6.939
 6540SOL     OW20518   0.369   2.766   5.536
 6540SOL    HW120519   0.442   2.815   5.488
 6540SOL    HW220520   0.336   2.823   5.612
 6541SOL     OW20521   4.112   1.767   5.357
 6541SOL    HW120522   4.019   1.757   5.323
 6541SOL    HW220523   4.176   1.728   5.290
 6542SOL     OW20524   1.609   4.105   2.251
 6542SOL    HW120525   1.601   4.188   2.307
 6542SOL    HW220526   1.704   4.073   2.253
 6543SOL     OW20527   4.260   1.231   4.338
 6543SOL    HW120528   4.298   1.192   4.422
 6543SOL    HW220529   4.181   1.177   4.309
 6544SOL     OW20530   0.358   0.297   0.535
 6544SOL    HW120531   0.439   0.242   0.558
 6544SOL    HW220532   0.339   0.360   0.610
 6545SOL     OW20533   4.941   6.093   0.870
 6545SOL    HW120534   4.923   6.119   0.964
 6545SOL    HW220535   4.993   6.165   0.824
 6546SOL     OW20536   4.575   5.430   5.764
 6546SOL    HW120537   4.505   5.385   5.820
 6546SOL    HW220538   4.537   5.512   5.722
 6547SOL     OW20539   0.874   6.255   5.319
 6547SOL    HW120540   0.939   6.182   5.300
 6547SOL    HW220541   0.920   6.343   5.311
 6548SOL     OW20542   1.329   1.728   6.157
 6548SOL    HW120543   1.229   1.725   6.151
 6548SOL    HW220544   1.356   1.803   6.217
 6549SOL     OW20545   3.642   1.619   2.735
 6549SOL    HW120546   3.641   1.677   2.654
 6549SOL    HW220547   3.661   1.524   2.709
 6550SOL     OW20548   5.983   6.535   2.063
 6550SOL    HW120549   6.045   6.527   2.141
 6550SOL    HW220550   5.917   6.461   2.066
 6551SOL     OW20551   2.651   4.786   0.754
 6551SOL    HW120552   2.593   4.792   0.835
 6551SOL    HW220553   2.621   4.852   0.685
 6552SOL     OW20554   2.178   4.533   6.989
 6552SOL    HW120555   2.079   4.521   6.998
 6552SOL    HW220556   2.222   4.504   0.050
 6553SOL     OW20557   0.336   2.065   4.031
 6553SOL    HW120558   0.252   2.081   3.979
 6553SOL    HW220559   0.390   2.149   4.033
 6554SOL     OW20560   1.469   1.963   4.181
 6554SOL    HW120561   1.529   1.934   4.106
 6554SOL    HW220562   1.391   1.901   4.188
 6555SOL     OW20563   1.718   3.258   4.070
 6555SOL    HW120564   1.798   3.302   4.029
 6555SOL    HW220565   1.674   3.322   4.133
 6556SOL     OW20566   5.132   3.337   2.855
 6556SOL    HW120567   5.086   3.249   2.854
 6556SOL    HW220568   5.205   3.336   2.924
 6557SOL     OW20569   2.249   0.672   2.435
 6557SOL    HW120570   2.161   0.657   2.391
 6557SOL    HW220571   2.236   0.683   2.534
 6558SOL     OW20572   5.635   6.023   1.020
 6558SOL    HW120573   5.666   6.037   1.114
 6558SOL    HW220574   5.575   5.943   1.016
 6559SOL     OW20575   0.153   2.273   6.213
 6559SOL    HW120576   0.177   2.349   6.273
 6559SOL    HW220577   0.180   2.186   6.255
 6560SOL     OW20578   6.694   4.463   6.701
 6560SOL    HW120579   6.639   4.427   6.777
 6560SOL    HW220580   6.739   4.548   6.729
 6561SOL     OW20581   2.335   5.075   0.672
 6561SOL    HW120582   2.299   5.168   0.667
 6561SOL    HW220583   2.335   5.034   0.581
 6562SOL     OW20584   4.794   2.406   1.628
 6562SOL    HW120585   4.884   2.389   1.669
 6562SOL    HW220586   4.733   2.445   1.696
 6563SOL     OW20587   6.765   4.875   5.502
 6563SOL    HW120588   6.698   4.899   5.573
 6563SOL    HW220589   6.764   4.776   5.488
 6564SOL     OW20590   5.658   2.996   2.222
 6564SOL    HW120591   5.596   2.953   2.288
 6564SOL    HW220592   5.610   3.071   2.176
 6565SOL     OW20593   5.226   6.346   2.622
 6565SOL    HW120594   5.146   6.391   2.662
 6565SOL    HW220595   5.283   6.309   2.695
 6566SOL     OW20596   5.431   5.464   3.791
 6566SOL    HW120597   5.409   5.557   3.763
 6566SOL    HW220598   5.403   5.400   3.719
 6567SOL     OW20599   3.422   0.759   2.790
 6567SOL    HW120600   3.469   0.812   2.719
 6567SOL    HW220601   3.478   0.681   2.817
 6568SOL     OW20602   4.747   1.071   0.789
 6568SOL    HW120603   4.823   1.134   0.804
 6568SOL    HW220604   4.780   0.990   0.740
 6569SOL     OW20605   1.133   4.641   3.653
 6569SOL    HW120606   1.056   4.679   3.602
 6569SOL    HW220607   1.213   4.636   3.594
 6570SOL     OW20608   4.482   0.292   2.334
 6570SOL    HW120609   4.423   0.304   2.255
 6570SOL    HW220610   4.471   0.369   2.396
 6571SOL     OW20611   2.558   6.854   3.125
 6571SOL    HW120612   2.603   6.839   3.037
 6571SOL    HW220613   2.618   6.824   3.199
 6572SOL     OW20614   1.950   5.933   4.115
 6572SOL    HW120615   1.861   5.971   4.088
 6572SOL    HW220616   2.018   5.953   4.044
 6573SOL     OW20617   0.048   2.234   3.425
 6573SOL    HW120618   7.020   2.161   3.470
 6573SOL    HW220619   0.032   2.231   3.327
 6574SOL     OW20620   0.981   4.846   1.798
 6574SOL    HW120621   0.888   4.881   1.814
 6574SOL    HW220622   1.047   4.918   1.819
 6575SOL     OW20623   0.125   1.711   4.000
 6575SOL    HW120624   0.034   1.679   3.973
 6575SOL    HW220625   0.182   1.721   3.920
 6576SOL     OW20626   3.825   6.781   1.724
 6576SOL    HW120627   3.829   6.704   1.660
 6576SOL    HW220628   3.759   6.848   1.691
 6577SOL     OW20629   3.437   0.852   4.616
 6577SOL    HW120630   3.428   0.754   4.636
 6577SOL    HW220631   3.534   0.876   4.615
 6578SOL     OW20632   1.395   5.081   0.702
 6578SOL    HW120633   1.431   5.007   0.759
 6578SOL    HW220634   1.317   5.047   0.649
 6579SOL     OW20635   1.286   1.570   3.731
 6579SOL    HW120636   1.189   1.577   3.754
 6579SOL    HW220637   1.325   1.489   3.776
 6580SOL     OW20638   3.439   2.156   0.148
 6580SOL    HW120639   3.405   2.233   0.203
 6580SOL    HW220640   3.455   2.187   0.055
 6581SOL     OW20641   0.585   2.236   1.874
 6581SOL    HW120642   0.663   2.269   1.821
 6581SOL    HW220643   0.609   2.149   1.918
 6582SOL     OW20644   5.038   0.769   3.000
 6582SOL    HW120645   4.979   0.746   3.077
 6582SOL    HW220646   5.133   0.751   3.024
 6583SOL     OW20647   2.565   4.404   0.889
 6583SOL    HW120648   2.626   4.365   0.959
 6583SOL    HW220649   2.617   4.429   0.809
 6584SOL     OW20650   4.242   2.486   6.263
 6584SOL    HW120651   4.267   2.552   6.335
 6584SOL    HW220652   4.216   2.536   6.180
 6585SOL     OW20653   5.200   6.856   1.756
 6585SOL    HW120654   5.218   6.936   1.813
 6585SOL    HW220655   5.141   6.791   1.805
 6586SOL     OW20656   6.591   1.047   6.656
 6586SOL    HW120657   6.639   0.962   6.637
 6586SOL    HW220658   6.636   1.094   6.732
 6587SOL     OW20659   3.626   4.955   5.122
 6587SOL    HW120660   3.562   4.881   5.145
 6587SOL    HW220661   3.576   5.030   5.079
 6588SOL     OW20662   1.113   1.644   0.133
 6588SOL    HW120663   1.117   1.705   0.212
 6588SOL    HW220664   1.123   1.697   0.049
 6589SOL     OW20665   6.261   6.381   1.668
 6589SOL    HW120666   6.220   6.293   1.645
 6589SOL    HW220667   6.330   6.368   1.739
 6590SOL     OW20668   1.330   6.124   4.679
 6590SOL    HW120669   1.345   6.071   4.762
 6590SOL    HW220670   1.417   6.146   4.637
 6591SOL     OW20671   6.107   3.238   3.949
 6591SOL    HW120672   6.062   3.308   3.893
 6591SOL    HW220673   6.130   3.160   3.891
 6592SOL     OW20674   6.647   0.261   4.011
 6592SOL    HW120675   6.574   0.321   4.045
 6592SOL    HW220676   6.660   0.185   4.075
 6593SOL     OW20677   1.925   0.823   2.656
 6593SOL    HW120678   1.860   0.854   2.726
 6593SOL    HW220679   1.893   0.853   2.566
 6594SOL     OW20680   5.139   0.048   0.206
 6594SOL    HW120681   5.177   7.005   0.142
 6594SOL    HW220682   5.174   0.031   0.297
 6595SOL     OW20683   0.721   1.690   5.108
 6595SOL    HW120684   0.654   1.711   5.036
 6595SOL    HW220685   0.807   1.662   5.067
 6596SOL     OW20686   5.615   1.192   2.266
 6596SOL    HW120687   5.568   1.233   2.344
 6596SOL    HW220688   5.704   1.157   2.295
 6597SOL     OW20689   1.099   4.818   0.810
 6597SOL    HW120690   1.128   4.723   0.824
 6597SOL    HW220691   1.002   4.827   0.830
 6598SOL     OW20692   1.292   5.070   2.941
 6598SOL    HW120693   1.297   5.063   3.040
 6598SOL    HW220694   1.230   5.144   2.915
 6599SOL     OW20695   0.506   5.817   6.367
 6599SOL    HW120696   0.523   5.908   6.329
 6599SOL    HW220697   0.408   5.803   6.380
 6600SOL     OW20698   4.739   6.249   4.727
 6600SOL    HW120699   4.740   6.257   4.827
 6600SOL    HW220700   4.688   6.326   4.688
 6601SOL     OW20701   1.292   2.889   1.653
 6601SOL    HW120702   1.242   2.958   1.600
 6601SOL    HW220703   1.360   2.846   1.594
 6602SOL     OW20704   6.837   5.213   1.128
 6602SOL    HW120705   6.753   5.265   1.109
 6602SOL    HW220706   6.818   5.116   1.122
 6603SOL     OW20707   0.364   4.235   2.462
 6603SOL    HW120708   0.447   4.205   2.510
 6603SOL    HW220709   0.333   4.322   2.501
 6604SOL     OW20710   1.538   5.615   2.782
 6604SOL    HW120711   1.447   5.574   2.777
 6604SOL    HW220712   1.536   5.704   2.736
 6605SOL     OW20713   7.016   5.332   1.291
 6605SOL    HW120714   6.994   5.428   1.308
 6605SOL    HW220715   6.942   5.290   1.238
 6606SOL     OW20716   1.756   4.142   2.994
 6606SOL    HW120717   1.808   4.058   3.015
 6606SOL    HW220718   1.710   4.131   2.906
 6607SOL     OW20719   5.833   3.281   4.071
 6607SOL    HW120720   5.831   3.309   3.975
 6607SOL    HW220721   5.915   3.317   4.115
 6608SOL     OW20722   1.158   0.094   5.668
 6608SOL    HW120723   1.133   0.001   5.639
 6608SOL    HW220724   1.090   0.158   5.633
 6609SOL     OW20725   3.464   2.404   0.275
 6609SOL    HW120726   3.534   2.337   0.300
 6609SOL    HW220727   3.505   2.495   0.269
 6610SOL     OW20728   3.070   6.622   1.008
 6610SOL    HW120729   3.011   6.553   1.049
 6610SOL    HW220730   3.014   6.691   0.961
 6611SOL     OW20731   3.100   1.238   4.577
 6611SOL    HW120732   3.115   1.331   4.541
 6611SOL    HW220733   3.188   1.193   4.591
 6612SOL     OW20734   0.607   0.183   0.057
 6612SOL    HW120735   0.572   0.153   6.992
 6612SOL    HW220736   0.706   0.166   0.061
 6613SOL     OW20737   4.294   6.719   1.007
 6613SOL    HW120738   4.251   6.652   0.946
 6613SOL    HW220739   4.389   6.693   1.024
 6614SOL     OW20740   3.695   5.047   0.956
 6614SOL    HW120741   3.647   5.103   1.024
 6614SOL    HW220742   3.652   4.957   0.951
 6615SOL     OW20743   3.387   5.375   6.257
 6615SOL    HW120744   3.415   5.307   6.325
 6615SOL    HW220745   3.426   5.464   6.281
 6616SOL     OW20746   4.439   1.290   0.219
 6616SOL    HW120747   4.475   1.320   0.130
 6616SOL    HW220748   4.392   1.203   0.208
 6617SOL     OW20749   3.775   1.158   3.821
 6617SOL    HW120750   3.698   1.221   3.834
 6617SOL    HW220751   3.798   1.154   3.723
 6618SOL     OW20752   5.832   2.691   4.253
 6618SOL    HW120753   5.786   2.602   4.263
 6618SOL    HW220754   5.823   2.742   4.338
 6619SOL     OW20755   4.844   4.958   3.784
 6619SOL    HW120756   4.776   4.885   3.797
 6619SOL    HW220757   4.829   5.029   3.853
 6620SOL     OW20758   1.183   2.270   3.535
 6620SOL    HW120759   1.219   2.236   3.448
 6620SOL    HW220760   1.102   2.217   3.560
 6621SOL     OW20761   3.114   3.582   3.888
 6621SOL    HW120762   3.214   3.584   3.881
 6621SOL    HW220763   3.081   3.673   3.915
 6622SOL     OW20764   0.066   5.133   1.445
 6622SOL    HW120765   0.066   5.057   1.379
 6622SOL    HW220766   0.024   5.213   1.403
 6623SOL     OW20767   3.365   4.058   3.778
 6623SOL    HW120768   3.339   3.974   3.730
 6623SOL    HW220769   3.286   4.095   3.826
 6624SOL     OW20770   2.849   2.284   3.071
 6624SOL    HW120771   2.869   2.364   3.014
 6624SOL    HW220772   2.786   2.310   3.144
 6625SOL     OW20773   6.775   3.931   5.509
 6625SOL    HW120774   6.759   3.844   5.460
 6625SOL    HW220775   6.698   3.992   5.493
 6626SOL     OW20776   3.305   5.567   5.197
 6626SOL    HW120777   3.269   5.658   5.218
 6626SOL    HW220778   3.401   5.575   5.170
 6627SOL     OW20779   2.561   6.049   4.053
 6627SOL    HW120780   2.498   6.126   4.053
 6627SOL    HW220781   2.595   6.034   3.960
 6628SOL     OW20782   4.002   0.268   3.076
 6628SOL    HW120783   3.907   0.284   3.103
 6628SOL    HW220784   4.064   0.314   3.139
 6629SOL     OW20785   4.453   5.436   4.981
 6629SOL    HW120786   4.525   5.480   4.929
 6629SOL    HW220787   4.402   5.505   5.032
 6630SOL     OW20788   1.608   0.575   0.080
 6630SOL    HW120789   1.679   0.514   0.113
 6630SOL    HW220790   1.642   0.626   0.001
 6631SOL     OW20791   1.980   3.054   5.880
 6631SOL    HW120792   1.904   3.053   5.945
 6631SOL    HW220793   1.944   3.038   5.788
 6632SOL     OW20794   1.183   0.478   6.943
 6632SOL    HW120795   1.143   0.569   6.948
 6632SOL    HW220796   1.159   0.426   0.000
 6633SOL     OW20797   4.197   5.883   6.236
 6633SOL    HW120798   4.221   5.797   6.280
 6633SOL    HW220799   4.249   5.892   6.151
 6634SOL     OW20800   3.077   2.058   3.724
 6634SOL    HW120801   3.077   1.963   3.754
 6634SOL    HW220802   3.172   2.088   3.710
 6635SOL     OW20803   5.525   5.583   5.396
 6635SOL    HW120804   5.584   5.645   5.447
 6635SOL    HW220805   5.450   5.634   5.353
 6636SOL     OW20806   4.116   1.231   0.459
 6636SOL    HW120807   4.137   1.293   0.383
 6636SOL    HW220808   4.161   1.263   0.542
 6637SOL     OW20809   6.994   1.882   0.228
 6637SOL    HW120810   0.069   1.897   0.222
 6637SOL    HW220811   6.961   1.845   0.141
 6638SOL     OW20812   3.386   3.567   3.915
 6638SOL    HW120813   3.442   3.568   3.832
 6638SOL    HW220814   3.430   3.511   3.985
 6639SOL     OW20815   4.550   2.151   1.577
 6639SOL    HW120816   4.556   2.250   1.592
 6639SOL    HW220817   4.524   2.134   1.482
 6640SOL     OW20818   1.606   4.328   4.978
 6640SOL    HW120819   1.704   4.347   4.983
 6640SOL    HW220820   1.584   4.254   5.042
 6641SOL     OW20821   6.451   2.511   0.156
 6641SOL    HW120822   6.503   2.486   0.238
 6641SOL    HW220823   6.451   2.610   0.145
 6642SOL     OW20824   1.024   5.296   6.486
 6642SOL    HW120825   1.082   5.364   6.531
 6642SOL    HW220826   0.971   5.341   6.414
 6643SOL     OW20827   3.748   5.788   6.133
 6643SOL    HW120828   3.773   5.864   6.193
 6643SOL    HW220829   3.698   5.719   6.186
 6644SOL     OW20830   2.394   0.321   3.902
 6644SOL    HW120831   2.480   0.328   3.952
 6644SOL    HW220832   2.409   0.342   3.806
 6645SOL     OW20833   4.857   2.609   6.088
 6645SOL    HW120834   4.857   2.577   5.993
 6645SOL    HW220835   4.790   2.682   6.098
 6646SOL     OW20836   4.629   0.175   5.387
 6646SOL    HW120837   4.616   0.256   5.330
 6646SOL    HW220838   4.633   0.093   5.329
 6647SOL     OW20839   4.153   4.336   0.663
 6647SOL    HW120840   4.253   4.346   0.664
 6647SOL    HW220841   4.118   4.345   0.757
 6648SOL     OW20842   3.281   5.432   5.463
 6648SOL    HW120843   3.367   5.473   5.434
 6648SOL    HW220844   3.208   5.457   5.399
 6649SOL     OW20845   4.500   2.751   6.079
 6649SOL    HW120846   4.503   2.689   6.001
 6649SOL    HW220847   4.413   2.801   6.079
 6650SOL     OW20848   2.482   1.086   5.293
 6650SOL    HW120849   2.412   1.072   5.223
 6650SOL    HW220850   2.495   1.001   5.345
 6651SOL     OW20851   0.024   1.775   5.495
 6651SOL    HW120852   0.123   1.774   5.481
 6651SOL    HW220853   7.002   1.772   5.406
 6652SOL     OW20854   7.020   4.466   0.082
 6652SOL    HW120855   6.988   4.423   7.021
 6652SOL    HW220856   0.004   4.396   0.154
 6653SOL     OW20857   5.909   4.284   6.884
 6653SOL    HW120858   5.821   4.268   6.840
 6653SOL    HW220859   5.919   4.381   6.905
 6654SOL     OW20860   6.440   2.488   3.075
 6654SOL    HW120861   6.514   2.464   3.138
 6654SOL    HW220862   6.441   2.587   3.059
 6655SOL     OW20863   0.102   5.884   1.377
 6655SOL    HW120864   0.090   5.928   1.466
 6655SOL    HW220865   0.183   5.922   1.332
 6656SOL     OW20866   4.330   1.106   3.067
 6656SOL    HW120867   4.311   1.055   3.151
 6656SOL    HW220868   4.328   1.043   2.989
 6657SOL     OW20869   4.868   1.344   4.690
 6657SOL    HW120870   4.934   1.418   4.703
 6657SOL    HW220871   4.916   1.259   4.667
 6658SOL     OW20872   6.735   5.868   4.866
 6658SOL    HW120873   6.712   5.884   4.770
 6658SOL    HW220874   6.792   5.786   4.873
 6659SOL     OW20875   0.506   5.603   0.956
 6659SOL    HW120876   0.575   5.553   1.008
 6659SOL    HW220877   0.443   5.538   0.914
 6660SOL     OW20878   0.593   0.407   4.682
 6660SOL    HW120879   0.506   0.372   4.717
 6660SOL    HW220880   0.636   0.339   4.623
 6661SOL     OW20881   4.186   6.220   3.994
 6661SOL    HW120882   4.184   6.121   4.005
 6661SOL    HW220883   4.270   6.257   4.034
 6662SOL     OW20884   3.342   6.552   2.171
 6662SOL    HW120885   3.369   6.648   2.159
 6662SOL    HW220886   3.378   6.517   2.258
 6663SOL     OW20887   1.649   4.425   5.697
 6663SOL    HW120888   1.736   4.466   5.724
 6663SOL    HW220889   1.615   4.471   5.615
 6664SOL     OW20890   3.186   6.843   1.446
 6664SOL    HW120891   3.147   6.911   1.384
 6664SOL    HW220892   3.236   6.891   1.519
 6665SOL     OW20893   2.866   0.809   6.757
 6665SOL    HW120894   2.964   0.801   6.739
 6665SOL    HW220895   2.851   0.879   6.827
 6666SOL     OW20896   3.496   6.014   5.701
 6666SOL    HW120897   3.472   5.920   5.676
 6666SOL    HW220898   3.421   6.075   5.675
 6667SOL     OW20899   1.735   6.000   6.595
 6667SOL    HW120900   1.740   5.989   6.496
 6667SOL    HW220901   1.812   5.953   6.638
 6668SOL     OW20902   6.708   4.112   0.366
 6668SOL    HW120903   6.631   4.059   0.331
 6668SOL    HW220904   6.676   4.172   0.439
 6669SOL     OW20905   1.438   2.468   3.711
 6669SOL    HW120906   1.530   2.496   3.738
 6669SOL    HW220907   1.431   2.369   3.717
 6670SOL     OW20908   3.141   3.318   0.498
 6670SOL    HW120909   3.142   3.391   0.567
 6670SOL    HW220910   3.094   3.238   0.535
 6671SOL     OW20911   4.451   4.724   0.189
 6671SOL    HW120912   4.397   4.648   0.150
 6671SOL    HW220913   4.460   4.710   0.287
 6672SOL     OW20914   1.353   2.769   1.191
 6672SOL    HW120915   1.362   2.691   1.129
 6672SOL    HW220916   1.259   2.772   1.227
 6673SOL     OW20917   5.956   3.063   3.760
 6673SOL    HW120918   6.016   3.001   3.812
 6673SOL    HW220919   5.885   3.098   3.821
 6674SOL     OW20920   6.730   0.609   0.631
 6674SOL    HW120921   6.746   0.670   0.708
 6674SOL    HW220922   6.632   0.604   0.612
 6675SOL     OW20923   4.753   0.434   0.191
 6675SOL    HW120924   4.795   0.399   0.107
 6675SOL    HW220925   4.809   0.406   0.269
 6676SOL     OW20926   0.758   3.931   5.212
 6676SOL    HW120927   0.681   3.991   5.192
 6676SOL    HW220928   0.763   3.859   5.143
 6677SOL     OW20929   0.445   1.907   6.355
 6677SOL    HW120930   0.538   1.941   6.369
 6677SOL    HW220931   0.438   1.813   6.389
 6678SOL     OW20932   3.116   3.953   6.684
 6678SOL    HW120933   3.082   4.046   6.668
 6678SOL    HW220934   3.206   3.958   6.728
 6679SOL     OW20935   1.513   0.858   4.241
 6679SOL    HW120936   1.539   0.932   4.303
 6679SOL    HW220937   1.479   0.897   4.155
 6680SOL     OW20938   6.451   5.269   1.576
 6680SOL    HW120939   6.411   5.177   1.574
 6680SOL    HW220940   6.507   5.279   1.658
 6681SOL     OW20941   2.455   6.006   1.380
 6681SOL    HW120942   2.444   5.967   1.471
 6681SOL    HW220943   2.544   5.981   1.343
 6682SOL     OW20944   2.653   5.344   6.160
 6682SOL    HW120945   2.699   5.411   6.102
 6682SOL    HW220946   2.624   5.266   6.104
 6683SOL     OW20947   6.952   5.241   5.801
 6683SOL    HW120948   0.025   5.265   5.813
 6683SOL    HW220949   6.942   5.142   5.794
 6684SOL     OW20950   2.859   5.632   6.558
 6684SOL    HW120951   2.835   5.542   6.523
 6684SOL    HW220952   2.956   5.650   6.539
 6685SOL     OW20953   4.518   2.786   1.140
 6685SOL    HW120954   4.433   2.839   1.148
 6685SOL    HW220955   4.556   2.796   1.049
 6686SOL     OW20956   4.922   4.612   5.379
 6686SOL    HW120957   4.897   4.690   5.322
 6686SOL    HW220958   4.841   4.576   5.424
 6687SOL     OW20959   0.561   1.804   1.509
 6687SOL    HW120960   0.480   1.862   1.516
 6687SOL    HW220961   0.587   1.795   1.412
 6688SOL     OW20962   4.721   5.692   0.613
 6688SOL    HW120963   4.630   5.706   0.652
 6688SOL    HW220964   4.781   5.766   0.640
 6689SOL     OW20965   3.363   4.641   5.629
 6689SOL    HW120966   3.279   4.588   5.639
 6689SOL    HW220967   3.359   4.720   5.690
 6690SOL     OW20968   0.565   1.019   0.071
 6690SOL    HW120969   0.546   0.965   0.154
 6690SOL    HW220970   0.601   1.108   0.098
 6691SOL     OW20971   2.499   1.273   2.161
 6691SOL    HW120972   2.571   1.342   2.165
 6691SOL    HW220973   2.535   1.189   2.119
 6692SOL     OW20974   4.553   6.194   2.783
 6692SOL    HW120975   4.623   6.129   2.812
 6692SOL    HW220976   4.469   6.145   2.761
 6693SOL     OW20977   3.354   1.006   5.364
 6693SOL    HW120978   3.265   1.052   5.365
 6693SOL    HW220979   3.345   0.914   5.402
 6694SOL     OW20980   4.397   4.123   1.514
 6694SOL    HW120981   4.442   4.117   1.603
 6694SOL    HW220982   4.310   4.172   1.524
 6695SOL     OW20983   2.770   2.551   0.330
 6695SOL    HW120984   2.778   2.627   0.265
 6695SOL    HW220985   2.840   2.483   0.310
 6696SOL     OW20986   3.977   3.273   4.895
 6696SOL    HW120987   4.035   3.347   4.860
 6696SOL    HW220988   3.918   3.309   4.967
 6697SOL     OW20989   4.132   2.055   1.772
 6697SOL    HW120990   4.043   2.101   1.772
 6697SOL    HW220991   4.176   2.067   1.861
 6698SOL     OW20992   3.368   4.021   1.289
 6698SOL    HW120993   3.329   4.009   1.381
 6698SOL    HW220994   3.299   3.998   1.221
 6699SOL     OW20995   1.352   3.462   5.407
 6699SOL    HW120996   1.324   3.557   5.422
 6699SOL    HW220997   1.421   3.437   5.474
 6700SOL     OW20998   5.571   6.997   1.436
 6700SOL    HW120999   5.656   6.962   1.398
 6700SOL    HW221000   5.495   6.941   1.404
 6701SOL     OW21001   5.670   6.708   1.633
 6701SOL    HW121002   5.601   6.638   1.651
 6701SOL    HW221003   5.692   6.709   1.535
 6702SOL     OW21004   3.656   3.346   0.388
 6702SOL    HW121005   3.596   3.324   0.465
 6702SOL    HW221006   3.681   3.443   0.392
 6703SOL     OW21007   0.176   1.167   0.685
 6703SOL    HW121008   0.269   1.159   0.721
 6703SOL    HW221009   0.176   1.227   0.604
 6704SOL     OW21010   3.335   6.997   5.231
 6704SOL    HW121011   3.280   0.046   5.271
 6704SOL    HW221012   3.311   6.987   5.134
 6705SOL     OW21013   0.075   4.353   2.262
 6705SOL    HW121014   0.146   4.299   2.216
 6705SOL    HW221015   0.099   4.450   2.258
 6706SOL     OW21016   0.209   6.975   0.764
 6706SOL    HW121017   0.117   7.015   0.769
 6706SOL    HW221018   0.211   6.907   0.691
 6707SOL     OW21019   4.630   0.985   2.765
 6707SOL    HW121020   4.698   1.028   2.824
 6707SOL    HW221021   4.677   0.936   2.692
 6708SOL     OW21022   0.467   3.058   0.232
 6708SOL    HW121023   0.521   3.091   0.154
 6708SOL    HW221024   0.454   3.132   0.298
 6709SOL     OW21025   2.419   4.393   1.922
 6709SOL    HW121026   2.486   4.444   1.869
 6709SOL    HW221027   2.447   4.297   1.928
 6710SOL     OW21028   4.463   1.500   0.642
 6710SOL    HW121029   4.392   1.544   0.587
 6710SOL    HW221030   4.543   1.560   0.647
 6711SOL     OW21031   3.667   6.166   6.230
 6711SOL    HW121032   3.601   6.096   6.258
 6711SOL    HW221033   3.760   6.132   6.244
 6712SOL     OW21034   5.065   4.549   1.187
 6712SOL    HW121035   5.140   4.596   1.140
 6712SOL    HW221036   5.053   4.590   1.277
 6713SOL     OW21037   1.568   4.873   4.550
 6713SOL    HW121038   1.593   4.924   4.632
 6713SOL    HW221039   1.606   4.780   4.556
 6714SOL     OW21040   5.468   1.458   1.810
 6714SOL    HW121041   5.568   1.456   1.802
 6714SOL    HW221042   5.427   1.455   1.718
 6715SOL     OW21043   1.182   0.098   6.320
 6715SOL    HW121044   1.090   0.136   6.308
 6715SOL    HW221045   1.218   0.124   6.409
 6716SOL     OW21046   0.856   5.734   2.053
 6716SOL    HW121047   0.857   5.664   1.982
 6716SOL    HW221048   0.919   5.707   2.127
 6717SOL     OW21049   6.203   2.047   5.697
 6717SOL    HW121050   6.134   2.069   5.627
 6717SOL    HW221051   6.291   2.032   5.654
 6718SOL     OW21052   4.787   1.494   0.887
 6718SOL    HW121053   4.832   1.406   0.866
 6718SOL    HW221054   4.773   1.545   0.803
 6719SOL     OW21055   1.838   1.599   0.291
 6719SOL    HW121056   1.926   1.604   0.243
 6719SOL    HW221057   1.764   1.595   0.224
 6720SOL     OW21058   1.957   0.790   5.841
 6720SOL    HW121059   1.991   0.798   5.935
 6720SOL    HW221060   1.867   0.747   5.842
 6721SOL     OW21061   6.000   6.754   1.155
 6721SOL    HW121062   6.029   6.842   1.192
 6721SOL    HW221063   6.079   6.704   1.121
 6722SOL     OW21064   5.166   4.000   0.316
 6722SOL    HW121065   5.105   4.012   0.394
 6722SOL    HW221066   5.253   3.962   0.348
 6723SOL     OW21067   1.699   3.080   4.920
 6723SOL    HW121068   1.615   3.069   4.973
 6723SOL    HW221069   1.770   3.021   4.958
 6724SOL     OW21070   2.206   3.980   4.228
 6724SOL    HW121071   2.139   4.012   4.295
 6724SOL    HW221072   2.200   3.880   4.220
 6725SOL     OW21073   4.960   3.407   3.839
 6725SOL    HW121074   4.915   3.342   3.778
 6725SOL    HW221075   4.947   3.379   3.934
 6726SOL     OW21076   0.564   1.222   6.211
 6726SOL    HW121077   0.662   1.236   6.227
 6726SOL    HW221078   0.539   1.259   6.121
 6727SOL     OW21079   1.405   5.124   5.770
 6727SOL    HW121080   1.308   5.145   5.763
 6727SOL    HW221081   1.455   5.171   5.697
 6728SOL     OW21082   3.694   1.455   3.684
 6728SOL    HW121083   3.790   1.428   3.686
 6728SOL    HW221084   3.683   1.534   3.623
 6729SOL     OW21085   3.774   0.991   1.981
 6729SOL    HW121086   3.785   0.915   1.917
 6729SOL    HW221087   3.696   1.047   1.953
 6730SOL     OW21088   6.747   1.992   0.472
 6730SOL    HW121089   6.748   1.990   0.572
 6730SOL    HW221090   6.835   1.959   0.437
 6731SOL     OW21091   4.266   0.572   6.171
 6731SOL    HW121092   4.342   0.627   6.205
 6731SOL    HW221093   4.302   0.500   6.112
 6732SOL     OW21094   0.254   4.552   5.425
 6732SOL    HW121095   0.250   4.538   5.524
 6732SOL    HW221096   0.285   4.645   5.406
 6733SOL     OW21097   4.850   4.987   5.199
 6733SOL    HW121098   4.891   4.901   5.230
 6733SOL    HW221099   4.911   5.029   5.131
 6734SOL     OW21100   6.047   2.151   4.865
 6734SOL    HW121101   6.102   2.233   4.880
 6734SOL    HW221102   6.021   2.146   4.768
 6735SOL     OW21103   5.872   2.419   3.736
 6735SOL    HW121104   5.833   2.354   3.802
 6735SOL    HW221105   5.867   2.380   3.644
 6736SOL     OW21106   3.639   3.624   0.476
 6736SOL    HW121107   3.684   3.711   0.496
 6736SOL    HW221108   3.603   3.625   0.383
 6737SOL     OW21109   6.199   3.490   0.770
 6737SOL    HW121110   6.224   3.580   0.736
 6737SOL    HW221111   6.208   3.423   0.697
 6738SOL     OW21112   2.180   6.311   4.227
 6738SOL    HW121113   2.102   6.249   4.235
 6738SOL    HW221114   2.251   6.270   4.171
 6739SOL     OW21115   6.910   0.266   5.610
 6739SOL    HW121116   6.917   0.276   5.510
 6739SOL    HW221117   6.967   0.190   5.639
 6740SOL     OW21118   0.018   6.914   2.464
 6740SOL    HW121119   0.098   6.974   2.476
 6740SOL    HW221120   0.047   6.828   2.422
 6741SOL     OW21121   3.389   1.885   0.241
 6741SOL    HW121122   3.300   1.908   0.279
 6741SOL    HW221123   3.420   1.961   0.183
 6742SOL     OW21124   6.291   4.453   3.204
 6742SOL    HW121125   6.227   4.453   3.127
 6742SOL    HW221126   6.317   4.358   3.226
 6743SOL     OW21127   3.894   3.575   6.948
 6743SOL    HW121128   3.893   3.478   6.975
 6743SOL    HW221129   3.847   3.629   7.017
 6744SOL     OW21130   6.272   0.110   5.561
 6744SOL    HW121131   6.312   0.163   5.635
 6744SOL    HW221132   6.250   0.018   5.593
 6745SOL     OW21133   6.906   4.091   5.315
 6745SOL    HW121134   6.840   4.066   5.386
 6745SOL    HW221135   6.983   4.140   5.357
 6746SOL     OW21136   1.277   2.325   2.857
 6746SOL    HW121137   1.289   2.251   2.791
 6746SOL    HW221138   1.205   2.300   2.922
 6747SOL     OW21139   0.643   6.194   5.458
 6747SOL    HW121140   0.736   6.216   5.428
 6747SOL    HW221141   0.641   6.100   5.493
 6748SOL     OW21142   2.025   0.426   5.149
 6748SOL    HW121143   2.107   0.428   5.205
 6748SOL    HW221144   2.019   0.338   5.101
 6749SOL     OW21145   4.128   5.124   2.147
 6749SOL    HW121146   4.043   5.141   2.197
 6749SOL    HW221147   4.112   5.136   2.049
 6750SOL     OW21148   3.536   0.567   5.523
 6750SOL    HW121149   3.469   0.640   5.514
 6750SOL    HW221150   3.627   0.607   5.537
 6751SOL     OW21151   4.446   0.539   4.968
 6751SOL    HW121152   4.380   0.612   4.984
 6751SOL    HW221153   4.509   0.565   4.896
 6752SOL     OW21154   1.953   4.754   2.538
 6752SOL    HW121155   1.972   4.785   2.631
 6752SOL    HW221156   2.025   4.786   2.476
 6753SOL     OW21157   3.792   3.290   6.535
 6753SOL    HW121158   3.819   3.310   6.440
 6753SOL    HW221159   3.830   3.360   6.595
 6754SOL     OW21160   6.172   1.325   0.318
 6754SOL    HW121161   6.092   1.327   0.378
 6754SOL    HW221162   6.242   1.386   0.354
 6755SOL     OW21163   3.020   5.919   6.034
 6755SOL    HW121164   3.114   5.892   6.015
 6755SOL    HW221165   2.957   5.855   5.989
 6756SOL     OW21166   3.799   3.405   6.235
 6756SOL    HW121167   3.710   3.403   6.190
 6756SOL    HW221168   3.863   3.459   6.180
 6757SOL     OW21169   4.041   6.958   1.608
 6757SOL    HW121170   4.137   6.958   1.637
 6757SOL    HW221171   3.990   6.890   1.660
 6758SOL     OW21172   5.164   3.115   3.192
 6758SOL    HW121173   5.091   3.048   3.205
 6758SOL    HW221174   5.243   3.089   3.247
 6759SOL     OW21175   0.958   1.386   2.428
 6759SOL    HW121176   0.980   1.302   2.478
 6759SOL    HW221177   0.859   1.402   2.432
 6760SOL     OW21178   5.264   2.315   4.703
 6760SOL    HW121179   5.362   2.324   4.723
 6760SOL    HW221180   5.249   2.324   4.604
 6761SOL     OW21181   3.622   1.687   5.132
 6761SOL    HW121182   3.563   1.742   5.073
 6761SOL    HW221183   3.651   1.605   5.082
 6762SOL     OW21184   6.381   5.074   4.584
 6762SOL    HW121185   6.313   5.007   4.612
 6762SOL    HW221186   6.437   5.037   4.511
 6763SOL     OW21187   5.765   6.630   4.118
 6763SOL    HW121188   5.699   6.673   4.179
 6763SOL    HW221189   5.761   6.530   4.130
 6764SOL     OW21190   0.732   5.267   1.731
 6764SOL    HW121191   0.667   5.193   1.748
 6764SOL    HW221192   0.686   5.342   1.684
 6765SOL     OW21193   0.114   3.511   2.369
 6765SOL    HW121194   0.055   3.584   2.335
 6765SOL    HW221195   0.192   3.499   2.308
 6766SOL     OW21196   5.961   0.392   1.708
 6766SOL    HW121197   5.945   0.306   1.660
 6766SOL    HW221198   5.934   0.383   1.804
 6767SOL     OW21199   3.410   0.316   1.187
 6767SOL    HW121200   3.319   0.303   1.147
 6767SOL    HW221201   3.458   0.388   1.137
 6768SOL     OW21202   1.928   7.019   6.757
 6768SOL    HW121203   2.022   0.004   6.722
 6768SOL    HW221204   1.925   0.026   6.852
 6769SOL     OW21205   4.455   2.977   1.459
 6769SOL    HW121206   4.444   3.043   1.534
 6769SOL    HW221207   4.476   2.887   1.497
 6770SOL     OW21208   0.295   1.187   1.333
 6770SOL    HW121209   0.201   1.201   1.363
 6770SOL    HW221210   0.316   1.251   1.259
 6771SOL     OW21211   4.751   2.127   2.993
 6771SOL    HW121212   4.815   2.111   3.068
 6771SOL    HW221213   4.766   2.059   2.921
 6772SOL     OW21214   3.846   1.697   3.995
 6772SOL    HW121215   3.762   1.740   4.028
 6772SOL    HW221216   3.925   1.749   4.028
 6773SOL     OW21217   0.667   3.641   1.020
 6773SOL    HW121218   0.633   3.623   1.112
 6773SOL    HW221219   0.651   3.736   0.996
 6774SOL     OW21220   0.873   2.633   6.449
 6774SOL    HW121221   0.788   2.597   6.488
 6774SOL    HW221222   0.855   2.723   6.409
 6775SOL     OW21223   1.670   4.905   0.124
 6775SOL    HW121224   1.626   4.922   0.035
 6775SOL    HW221225   1.729   4.825   0.117
 6776SOL     OW21226   6.105   5.711   6.494
 6776SOL    HW121227   6.114   5.811   6.496
 6776SOL    HW221228   6.049   5.684   6.416
 6777SOL     OW21229   4.803   5.628   6.971
 6777SOL    HW121230   4.893   5.624   7.013
 6777SOL    HW221231   4.750   5.703   7.012
 6778SOL     OW21232   0.140   5.523   3.472
 6778SOL    HW121233   0.114   5.590   3.403
 6778SOL    HW221234   0.157   5.435   3.428
 6779SOL     OW21235   6.725   3.757   6.421
 6779SOL    HW121236   6.644   3.771   6.363
 6779SOL    HW221237   6.781   3.684   6.382
 6780SOL     OW21238   0.806   2.637   2.323
 6780SOL    HW121239   0.799   2.730   2.287
 6780SOL    HW221240   0.900   2.619   2.352
 6781SOL     OW21241   6.157   4.982   5.293
 6781SOL    HW121242   6.208   4.950   5.373
 6781SOL    HW221243   6.061   4.957   5.303
 6782SOL     OW21244   6.055   1.606   2.655
 6782SOL    HW121245   6.137   1.615   2.599
 6782SOL    HW221246   5.974   1.622   2.597
 6783SOL     OW21247   0.502   6.286   6.247
 6783SOL    HW121248   0.407   6.312   6.229
 6783SOL    HW221249   0.523   6.201   6.199
 6784SOL     OW21250   3.760   2.981   0.162
 6784SOL    HW121251   3.815   3.059   0.192
 6784SOL    HW221252   3.676   3.013   0.119
 6785SOL     OW21253   5.904   5.645   1.878
 6785SOL    HW121254   5.828   5.614   1.934
 6785SOL    HW221255   5.893   5.611   1.784
 6786SOL     OW21256   1.666   3.641   6.030
 6786SOL    HW121257   1.716   3.689   5.958
 6786SOL    HW221258   1.729   3.616   6.103
 6787SOL     OW21259   0.989   3.290   1.811
 6787SOL    HW121260   0.908   3.262   1.862
 6787SOL    HW221261   1.062   3.314   1.875
 6788SOL     OW21262   2.755   5.002   0.974
 6788SOL    HW121263   2.836   5.045   0.933
 6788SOL    HW221264   2.708   4.947   0.905
 6789SOL     OW21265   0.550   5.840   3.451
 6789SOL    HW121266   0.599   5.761   3.489
 6789SOL    HW221267   0.616   5.907   3.418
 6790SOL     OW21268   1.093   2.907   0.623
 6790SOL    HW121269   1.168   2.973   0.616
 6790SOL    HW221270   1.008   2.950   0.592
 6791SOL     OW21271   3.664   3.763   6.438
 6791SOL    HW121272   3.719   3.738   6.358
 6791SOL    HW221273   3.582   3.812   6.408
 6792SOL     OW21274   0.854   4.977   0.347
 6792SOL    HW121275   0.764   4.937   0.360
 6792SOL    HW221276   0.863   5.060   0.403
 6793SOL     OW21277   5.872   1.789   1.275
 6793SOL    HW121278   5.884   1.872   1.329
 6793SOL    HW221279   5.961   1.756   1.243
 6794SOL     OW21280   4.388   1.375   4.671
 6794SOL    HW121281   4.379   1.460   4.722
 6794SOL    HW221282   4.475   1.375   4.622
 6795SOL     OW21283   2.925   5.988   0.096
 6795SOL    HW121284   2.987   6.066   0.110
 6795SOL    HW221285   2.973   5.917   0.044
 6796SOL     OW21286   4.049   2.081   2.792
 6796SOL    HW121287   4.104   2.028   2.857
 6796SOL    HW221288   3.953   2.081   2.821
 6797SOL     OW21289   0.030   2.693   1.753
 6797SOL    HW121290   0.092   2.615   1.756
 6797SOL    HW221291   0.006   2.713   1.658
 6798SOL     OW21292   6.317   0.040   1.706
 6798SOL    HW121293   6.265   6.999   1.651
 6798SOL    HW221294   6.291   0.133   1.681
 6799SOL     OW21295   5.493   5.973   1.854
 6799SOL    HW121296   5.468   5.885   1.895
 6799SOL    HW221297   5.472   6.046   1.918
 6800SOL     OW21298   3.293   3.965   0.181
 6800SOL    HW121299   3.323   3.972   0.276
 6800SOL    HW221300   3.193   3.962   0.177
 6801SOL     OW21301   1.222   1.728   3.025
 6801SOL    HW121302   1.296   1.777   2.979
 6801SOL    HW221303   1.151   1.792   3.053
 6802SOL     OW21304   2.333   4.728   2.951
 6802SOL    HW121305   2.366   4.702   2.860
 6802SOL    HW221306   2.402   4.704   3.019
 6803SOL     OW21307   5.062   1.887   0.087
 6803SOL    HW121308   5.044   1.985   0.080
 6803SOL    HW221309   5.156   1.871   0.115
 6804SOL     OW21310   1.097   0.082   4.074
 6804SOL    HW121311   1.151   0.009   4.031
 6804SOL    HW221312   1.041   0.126   4.004
 6805SOL     OW21313   5.220   0.812   4.578
 6805SOL    HW121314   5.155   0.884   4.602
 6805SOL    HW221315   5.213   0.792   4.481
 6806SOL     OW21316   5.343   6.935   5.482
 6806SOL    HW121317   5.378   6.975   5.397
 6806SOL    HW221318   5.351   7.001   5.556
 6807SOL     OW21319   3.665   3.276   6.927
 6807SOL    HW121320   3.755   3.273   6.971
 6807SOL    HW221321   3.642   3.184   6.894
 6808SOL     OW21322   1.833   2.755   4.393
 6808SOL    HW121323   1.853   2.853   4.390
 6808SOL    HW221324   1.747   2.737   4.345
 6809SOL     OW21325   2.289   4.136   6.750
 6809SOL    HW121326   2.262   4.105   6.841
 6809SOL    HW221327   2.332   4.061   6.700
 6810SOL     OW21328   5.337   2.005   2.493
 6810SOL    HW121329   5.274   2.082   2.481
 6810SOL    HW221330   5.431   2.037   2.479
 6811SOL     OW21331   5.091   5.514   1.833
 6811SOL    HW121332   5.007   5.567   1.823
 6811SOL    HW221333   5.124   5.521   1.927
 6812SOL     OW21334   3.879   2.996   2.703
 6812SOL    HW121335   3.949   2.999   2.632
 6812SOL    HW221336   3.798   2.949   2.668
 6813SOL     OW21337   4.671   3.718   1.430
 6813SOL    HW121338   4.585   3.739   1.383
 6813SOL    HW221339   4.744   3.708   1.362
 6814SOL     OW21340   2.243   3.390   0.392
 6814SOL    HW121341   2.310   3.378   0.318
 6814SOL    HW221342   2.171   3.453   0.362
 6815SOL     OW21343   2.318   6.855   1.683
 6815SOL    HW121344   2.273   6.825   1.767
 6815SOL    HW221345   2.343   6.951   1.691
 6816SOL     OW21346   6.181   4.125   1.486
 6816SOL    HW121347   6.275   4.116   1.452
 6816SOL    HW221348   6.118   4.129   1.409
 6817SOL     OW21349   0.438   2.123   5.904
 6817SOL    HW121350   0.482   2.193   5.960
 6817SOL    HW221351   0.342   2.148   5.889
 6818SOL     OW21352   3.314   5.839   2.139
 6818SOL    HW121353   3.350   5.893   2.216
 6818SOL    HW221354   3.341   5.743   2.151
 6819SOL     OW21355   3.111   0.871   3.543
 6819SOL    HW121356   3.169   0.888   3.623
 6819SOL    HW221357   3.151   0.797   3.488
 6820SOL     OW21358   1.441   4.744   3.795
 6820SOL    HW121359   1.479   4.837   3.799
 6820SOL    HW221360   1.400   4.729   3.705
 6821SOL     OW21361   2.460   2.295   4.192
 6821SOL    HW121362   2.516   2.295   4.110
 6821SOL    HW221363   2.518   2.293   4.273
 6822SOL     OW21364   4.989   2.356   5.542
 6822SOL    HW121365   5.058   2.416   5.583
 6822SOL    HW221366   4.973   2.384   5.447
 6823SOL     OW21367   3.337   3.879   2.467
 6823SOL    HW121368   3.384   3.829   2.540
 6823SOL    HW221369   3.351   3.832   2.380
 6824SOL     OW21370   1.441   4.876   6.416
 6824SOL    HW121371   1.456   4.848   6.321
 6824SOL    HW221372   1.493   4.960   6.434
 6825SOL     OW21373   5.134   0.281   4.240
 6825SOL    HW121374   5.208   0.330   4.195
 6825SOL    HW221375   5.146   0.183   4.226
 6826SOL     OW21376   1.023   2.450   2.754
 6826SOL    HW121377   1.085   2.429   2.679
 6826SOL    HW221378   1.022   2.549   2.769
 6827SOL     OW21379   5.930   6.460   5.153
 6827SOL    HW121380   5.989   6.475   5.233
 6827SOL    HW221381   5.885   6.371   5.161
 6828SOL     OW21382   1.866   2.070   1.487
 6828SOL    HW121383   1.905   2.075   1.394
 6828SOL    HW221384   1.938   2.046   1.551
 6829SOL     OW21385   5.498   5.136   3.889
 6829SOL    HW121386   5.533   5.180   3.807
 6829SOL    HW221387   5.424   5.190   3.928
 6830SOL     OW21388   5.351   2.238   4.056
 6830SOL    HW121389   5.368   2.152   4.009
 6830SOL    HW221390   5.271   2.283   4.016
 6831SOL     OW21391   0.218   1.109   5.987
 6831SOL    HW121392   0.210   1.175   5.913
 6831SOL    HW221393   0.310   1.069   5.986
 6832SOL     OW21394   3.165   4.781   2.033
 6832SOL    HW121395   3.143   4.778   2.131
 6832SOL    HW221396   3.228   4.706   2.011
 6833SOL     OW21397   3.953   5.512   0.483
 6833SOL    HW121398   3.886   5.440   0.462
 6833SOL    HW221399   3.969   5.515   0.582
 6834SOL     OW21400   3.934   5.316   2.555
 6834SOL    HW121401   3.922   5.392   2.619
 6834SOL    HW221402   3.855   5.254   2.562
 6835SOL     OW21403   3.724   6.779   4.585
 6835SOL    HW121404   3.768   6.693   4.611
 6835SOL    HW221405   3.633   6.760   4.547
 6836SOL     OW21406   3.104   5.732   6.485
 6836SOL    HW121407   3.090   5.816   6.538
 6836SOL    HW221408   3.046   5.734   6.403
 6837SOL     OW21409   0.378   2.640   2.566
 6837SOL    HW121410   0.439   2.713   2.536
 6837SOL    HW221411   0.400   2.615   2.660
 6838SOL     OW21412   2.741   1.752   0.355
 6838SOL    HW121413   2.744   1.832   0.295
 6838SOL    HW221414   2.705   1.674   0.305
 6839SOL     OW21415   4.460   0.703   1.399
 6839SOL    HW121416   4.395   0.687   1.324
 6839SOL    HW221417   4.490   0.798   1.397
 6840SOL     OW21418   0.875   1.224   6.208
 6840SOL    HW121419   0.908   1.136   6.242
 6840SOL    HW221420   0.952   1.284   6.190
 6841SOL     OW21421   6.917   3.393   6.079
 6841SOL    HW121422   6.892   3.474   6.025
 6841SOL    HW221423   6.927   3.314   6.019
 6842SOL     OW21424   2.354   4.293   3.156
 6842SOL    HW121425   2.424   4.363   3.168
 6842SOL    HW221426   2.309   4.305   3.068
 6843SOL     OW21427   3.850   6.623   0.392
 6843SOL    HW121428   3.901   6.570   0.460
 6843SOL    HW221429   3.845   6.571   0.306
 6844SOL     OW21430   4.817   0.640   6.026
 6844SOL    HW121431   4.805   0.731   6.065
 6844SOL    HW221432   4.828   0.647   5.927
 6845SOL     OW21433   4.603   2.053   2.514
 6845SOL    HW121434   4.539   2.042   2.439
 6845SOL    HW221435   4.658   1.969   2.523
 6846SOL     OW21436   2.491   3.724   0.231
 6846SOL    HW121437   2.483   3.661   0.154
 6846SOL    HW221438   2.572   3.782   0.218
 6847SOL     OW21439   0.178   2.789   4.465
 6847SOL    HW121440   0.145   2.853   4.536
 6847SOL    HW221441   0.116   2.792   4.387
 6848SOL     OW21442   6.949   4.579   3.279
 6848SOL    HW121443   6.948   4.632   3.194
 6848SOL    HW221444   7.019   4.615   3.340
 6849SOL     OW21445   3.011   3.569   5.764
 6849SOL    HW121446   3.050   3.578   5.672
 6849SOL    HW221447   3.043   3.644   5.821
 6850SOL     OW21448   4.529   0.662   4.351
 6850SOL    HW121449   4.628   0.658   4.340
 6850SOL    HW221450   4.485   0.663   4.261
 6851SOL     OW21451   2.110   3.701   3.612
 6851SOL    HW121452   2.125   3.763   3.689
 6851SOL    HW221453   2.146   3.611   3.635
 6852SOL     OW21454   4.060   4.436   0.268
 6852SOL    HW121455   4.042   4.340   0.286
 6852SOL    HW221456   3.989   4.492   0.312
 6853SOL     OW21457   4.902   4.278   6.502
 6853SOL    HW121458   4.824   4.245   6.555
 6853SOL    HW221459   4.893   4.249   6.407
 6854SOL     OW21460   5.352   6.279   6.210
 6854SOL    HW121461   5.357   6.199   6.150
 6854SOL    HW221462   5.386   6.255   6.301
 6855SOL     OW21463   4.330   5.213   3.341
 6855SOL    HW121464   4.338   5.207   3.242
 6855SOL    HW221465   4.412   5.257   3.379
 6856SOL     OW21466   0.377   2.141   6.687
 6856SOL    HW121467   0.294   2.092   6.660
 6856SOL    HW221468   0.441   2.144   6.610
 6857SOL     OW21469   0.858   4.067   5.634
 6857SOL    HW121470   0.759   4.061   5.619
 6857SOL    HW221471   0.906   4.038   5.551
 6858SOL     OW21472   1.943   3.968   2.255
 6858SOL    HW121473   2.031   3.999   2.220
 6858SOL    HW221474   1.943   3.868   2.261
 6859SOL     OW21475   1.745   1.475   2.113
 6859SOL    HW121476   1.727   1.574   2.114
 6859SOL    HW221477   1.702   1.433   2.192
 6860SOL     OW21478   0.535   6.797   0.930
 6860SOL    HW121479   0.499   6.885   0.898
 6860SOL    HW221480   0.551   6.737   0.852
 6861SOL     OW21481   6.510   3.235   6.289
 6861SOL    HW121482   6.465   3.146   6.295
 6861SOL    HW221483   6.572   3.247   6.366
 6862SOL     OW21484   0.681   4.111   4.316
 6862SOL    HW121485   0.726   4.200   4.325
 6862SOL    HW221486   0.715   4.049   4.387
 6863SOL     OW21487   5.579   1.316   5.407
 6863SOL    HW121488   5.586   1.413   5.432
 6863SOL    HW221489   5.489   1.281   5.433
 6864SOL     OW21490   1.091   3.661   6.185
 6864SOL    HW121491   1.180   3.696   6.216
 6864SOL    HW221492   1.062   3.586   6.244
 6865SOL     OW21493   2.830   0.460   3.976
 6865SOL    HW121494   2.929   0.454   3.988
 6865SOL    HW221495   2.810   0.474   3.879
 6866SOL     OW21496   1.249   4.929   0.252
 6866SOL    HW121497   1.248   4.904   0.156
 6866SOL    HW221498   1.174   4.883   0.300
 6867SOL     OW21499   1.967   3.760   6.414
 6867SOL    HW121500   1.911   3.839   6.391
 6867SOL    HW221501   1.957   3.740   6.511
 6868SOL     OW21502   3.210   5.234   3.702
 6868SOL    HW121503   3.304   5.266   3.690
 6868SOL    HW221504   3.163   5.295   3.766
 6869SOL     OW21505   3.260   0.805   5.935
 6869SOL    HW121506   3.351   0.768   5.917
 6869SOL    HW221507   3.266   0.902   5.957
 6870SOL     OW21508   5.952   2.130   0.181
 6870SOL    HW121509   5.983   2.107   0.273
 6870SOL    HW221510   5.969   2.227   0.164
 6871SOL     OW21511   6.660   3.531   2.456
 6871SOL    HW121512   6.691   3.591   2.530
 6871SOL    HW221513   6.658   3.581   2.370
 6872SOL     OW21514   1.725   4.323   1.061
 6872SOL    HW121515   1.807   4.265   1.066
 6872SOL    HW221516   1.753   4.417   1.042
 6873SOL     OW21517   0.834   4.362   3.087
 6873SOL    HW121518   0.773   4.310   3.147
 6873SOL    HW221519   0.810   4.343   2.992
 6874SOL     OW21520   5.285   6.119   2.829
 6874SOL    HW121521   5.329   6.031   2.847
 6874SOL    HW221522   5.217   6.108   2.757
 6875SOL     OW21523   2.432   1.084   0.609
 6875SOL    HW121524   2.471   1.102   0.519
 6875SOL    HW221525   2.505   1.054   0.672
 6876SOL     OW21526   5.373   5.307   3.586
 6876SOL    HW121527   5.444   5.249   3.547
 6876SOL    HW221528   5.283   5.265   3.570
 6877SOL     OW21529   0.550   3.468   1.651
 6877SOL    HW121530   0.560   3.383   1.702
 6877SOL    HW221531   0.640   3.499   1.621
 6878SOL     OW21532   2.035   0.534   4.801
 6878SOL    HW121533   2.095   0.563   4.726
 6878SOL    HW221534   2.078   0.461   4.853
 6879SOL     OW21535   1.428   1.137   1.215
 6879SOL    HW121536   1.398   1.105   1.125
 6879SOL    HW221537   1.528   1.130   1.221
 6880SOL     OW21538   1.472   5.704   0.441
 6880SOL    HW121539   1.503   5.799   0.455
 6880SOL    HW221540   1.390   5.687   0.496
 6881SOL     OW21541   0.064   2.796   0.243
 6881SOL    HW121542   0.161   2.770   0.241
 6881SOL    HW221543   0.008   2.714   0.249
 6882SOL     OW21544   2.611   6.394   6.798
 6882SOL    HW121545   2.539   6.342   6.753
 6882SOL    HW221546   2.575   6.438   6.880
 6883SOL     OW21547   4.908   0.454   1.513
 6883SOL    HW121548   4.938   0.456   1.418
 6883SOL    HW221549   4.810   0.433   1.517
 6884SOL     OW21550   1.793   4.045   3.287
 6884SOL    HW121551   1.757   4.023   3.378
 6884SOL    HW221552   1.751   4.131   3.256
 6885SOL     OW21553   6.231   4.655   4.817
 6885SOL    HW121554   6.273   4.740   4.788
 6885SOL    HW221555   6.271   4.579   4.765
 6886SOL     OW21556   5.071   2.571   0.324
 6886SOL    HW121557   5.069   2.666   0.352
 6886SOL    HW221558   4.998   2.554   0.257
 6887SOL     OW21559   5.714   5.913   5.716
 6887SOL    HW121560   5.643   5.864   5.767
 6887SOL    HW221561   5.699   6.011   5.724
 6888SOL     OW21562   6.298   4.195   6.645
 6888SOL    HW121563   6.278   4.099   6.622
 6888SOL    HW221564   6.395   4.205   6.664
 6889SOL     OW21565   0.126   2.007   5.906
 6889SOL    HW121566   0.059   1.975   5.974
 6889SOL    HW221567   0.128   2.107   5.907
 6890SOL     OW21568   4.833   4.498   3.495
 6890SOL    HW121569   4.739   4.510   3.465
 6890SOL    HW221570   4.835   4.450   3.583
 6891SOL     OW21571   1.423   1.410   1.262
 6891SOL    HW121572   1.355   1.451   1.200
 6891SOL    HW221573   1.423   1.311   1.250
 6892SOL     OW21574   2.985   1.251   4.826
 6892SOL    HW121575   2.940   1.339   4.833
 6892SOL    HW221576   3.034   1.244   4.739
 6893SOL     OW21577   5.937   3.452   0.547
 6893SOL    HW121578   6.012   3.514   0.523
 6893SOL    HW221579   5.853   3.505   0.560
 6894SOL     OW21580   6.115   5.015   0.505
 6894SOL    HW121581   6.116   5.114   0.520
 6894SOL    HW221582   6.206   4.978   0.526
 6895SOL     OW21583   0.906   6.297   2.469
 6895SOL    HW121584   0.927   6.208   2.510
 6895SOL    HW221585   0.816   6.293   2.424
 6896SOL     OW21586   5.046   1.296   5.005
 6896SOL    HW121587   5.056   1.206   4.962
 6896SOL    HW221588   4.997   1.286   5.092
 6897SOL     OW21589   4.440   2.654   5.223
 6897SOL    HW121590   4.349   2.612   5.226
 6897SOL    HW221591   4.433   2.749   5.256
 6898SOL     OW21592   1.409   6.527   1.213
 6898SOL    HW121593   1.418   6.429   1.193
 6898SOL    HW221594   1.456   6.547   1.299
 6899SOL     OW21595   6.141   5.968   2.363
 6899SOL    HW121596   6.171   6.055   2.324
 6899SOL    HW221597   6.043   5.954   2.344
 6900SOL     OW21598   6.551   3.841   5.141
 6900SOL    HW121599   6.630   3.891   5.105
 6900SOL    HW221600   6.515   3.781   5.071
 6901SOL     OW21601   5.527   5.036   6.218
 6901SOL    HW121602   5.430   5.014   6.228
 6901SOL    HW221603   5.556   5.094   6.295
 6902SOL     OW21604   0.326   5.569   6.131
 6902SOL    HW121605   0.251   5.557   6.066
 6902SOL    HW221606   0.300   5.530   6.219
 6903SOL     OW21607   1.327   5.978   4.458
 6903SOL    HW121608   1.308   5.882   4.480
 6903SOL    HW221609   1.320   6.033   4.541
 6904SOL     OW21610   0.095   0.535   6.063
 6904SOL    HW121611   0.174   0.521   6.123
 6904SOL    HW221612   0.117   0.602   5.992
 6905SOL     OW21613   5.082   6.144   5.763
 6905SOL    HW121614   5.169   6.097   5.774
 6905SOL    HW221615   5.042   6.162   5.853
 6906SOL     OW21616   3.144   0.861   3.935
 6906SOL    HW121617   3.210   0.866   4.011
 6906SOL    HW221618   3.060   0.908   3.961
 6907SOL     OW21619   6.024   1.835   0.624
 6907SOL    HW121620   5.932   1.867   0.646
 6907SOL    HW221621   6.018   1.756   0.564
 6908SOL     OW21622   3.109   5.152   0.438
 6908SOL    HW121623   3.110   5.203   0.524
 6908SOL    HW221624   3.027   5.176   0.386
 6909SOL     OW21625   5.802   4.871   2.182
 6909SOL    HW121626   5.844   4.839   2.267
 6909SOL    HW221627   5.723   4.814   2.160
 6910SOL     OW21628   1.101   2.149   2.531
 6910SOL    HW121629   1.047   2.109   2.605
 6910SOL    HW221630   1.040   2.189   2.462
 6911SOL     OW21631   1.950   6.278   5.689
 6911SOL    HW121632   2.044   6.311   5.684
 6911SOL    HW221633   1.892   6.347   5.732
 6912SOL     OW21634   2.772   3.976   6.883
 6912SOL    HW121635   2.718   4.024   6.814
 6912SOL    HW221636   2.823   4.043   6.937
 6913SOL     OW21637   4.582   6.116   5.855
 6913SOL    HW121638   4.528   6.193   5.822
 6913SOL    HW221639   4.568   6.106   5.954
 6914SOL     OW21640   5.900   2.406   1.925
 6914SOL    HW121641   5.916   2.397   2.024
 6914SOL    HW221642   5.820   2.351   1.899
 6915SOL     OW21643   6.692   3.467   3.706
 6915SOL    HW121644   6.786   3.485   3.736
 6915SOL    HW221645   6.635   3.547   3.726
 6916SOL     OW21646   4.688   6.437   6.204
 6916SOL    HW121647   4.647   6.361   6.255
 6916SOL    HW221648   4.616   6.485   6.153
 6917SOL     OW21649   3.681   6.517   1.958
 6917SOL    HW121650   3.760   6.491   1.902
 6917SOL    HW221651   3.613   6.563   1.900
 6918SOL     OW21652   2.152   3.721   0.493
 6918SOL    HW121653   2.095   3.648   0.456
 6918SOL    HW221654   2.098   3.804   0.505
 6919SOL     OW21655   5.836   6.030   3.537
 6919SOL    HW121656   5.805   5.941   3.505
 6919SOL    HW221657   5.761   6.096   3.534
 6920SOL     OW21658   6.037   1.614   5.975
 6920SOL    HW121659   6.091   1.683   5.925
 6920SOL    HW221660   5.943   1.614   5.940
 6921SOL     OW21661   4.413   0.179   4.401
 6921SOL    HW121662   4.328   0.126   4.404
 6921SOL    HW221663   4.439   0.207   4.494
 6922SOL     OW21664   1.899   5.391   6.760
 6922SOL    HW121665   1.994   5.421   6.770
 6922SOL    HW221666   1.874   5.391   6.663
 6923SOL     OW21667   5.459   0.130   2.671
 6923SOL    HW121668   5.549   0.170   2.691
 6923SOL    HW221669   5.405   0.195   2.618
 6924SOL     OW21670   3.204   5.578   1.759
 6924SOL    HW121671   3.243   5.666   1.787
 6924SOL    HW221672   3.204   5.572   1.659
 6925SOL     OW21673   5.967   6.761   5.145
 6925SOL    HW121674   5.926   6.830   5.205
 6925SOL    HW221675   5.905   6.684   5.135
 6926SOL     OW21676   3.185   2.358   0.124
 6926SOL    HW121677   3.105   2.345   0.183
 6926SOL    HW221678   3.258   2.402   0.176
 6927SOL     OW21679   4.401   0.117   0.277
 6927SOL    HW121680   4.310   0.118   0.234
 6927SOL    HW221681   4.451   0.036   0.247
 6928SOL     OW21682   3.670   5.220   6.894
 6928SOL    HW121683   3.737   5.146   6.889
 6928SOL    HW221684   3.712   5.305   6.861
 6929SOL     OW21685   4.934   5.137   2.461
 6929SOL    HW121686   4.916   5.141   2.559
 6929SOL    HW221687   4.956   5.228   2.427
 6930SOL     OW21688   0.712   6.862   1.811
 6930SOL    HW121689   0.646   6.861   1.736
 6930SOL    HW221690   0.759   6.774   1.814
 6931SOL     OW21691   3.181   3.245   1.056
 6931SOL    HW121692   3.146   3.164   1.009
 6931SOL    HW221693   3.129   3.261   1.140
 6932SOL     OW21694   3.574   0.068   6.301
 6932SOL    HW121695   3.618   0.063   6.211
 6932SOL    HW221696   3.496   0.131   6.296
 6933SOL     OW21697   3.067   5.396   6.424
 6933SOL    HW121698   3.110   5.373   6.337
 6933SOL    HW221699   2.967   5.395   6.413
 6934SOL     OW21700   4.951   5.218   6.898
 6934SOL    HW121701   4.949   5.125   6.861
 6934SOL    HW221702   4.866   5.236   6.948
 6935SOL     OW21703   3.899   5.948   2.007
 6935SOL    HW121704   3.881   5.851   1.992
 6935SOL    HW221705   3.973   5.978   1.947
 6936SOL     OW21706   0.647   1.820   5.813
 6936SOL    HW121707   0.603   1.849   5.727
 6936SOL    HW221708   0.587   1.757   5.861
 6937SOL     OW21709   5.822   5.380   0.193
 6937SOL    HW121710   5.829   5.459   0.131
 6937SOL    HW221711   5.903   5.378   0.252
 6938SOL     OW21712   2.526   1.271   4.984
 6938SOL    HW121713   2.461   1.242   4.913
 6938SOL    HW221714   2.569   1.190   5.024
 6939SOL     OW21715   5.618   3.554   3.699
 6939SOL    HW121716   5.543   3.533   3.761
 6939SOL    HW221717   5.598   3.638   3.649
 6940SOL     OW21718   2.588   6.511   0.851
 6940SOL    HW121719   2.505   6.518   0.907
 6940SOL    HW221720   2.564   6.482   0.759
 6941SOL     OW21721   3.568   3.829   2.623
 6941SOL    HW121722   3.574   3.904   2.688
 6941SOL    HW221723   3.562   3.742   2.673
 6942SOL     OW21724   6.196   5.409   2.648
 6942SOL    HW121725   6.276   5.364   2.687
 6942SOL    HW221726   6.156   5.350   2.578
 6943SOL     OW21727   4.805   4.697   6.613
 6943SOL    HW121728   4.818   4.726   6.708
 6943SOL    HW221729   4.875   4.631   6.589
 6944SOL     OW21730   1.272   4.552   5.170
 6944SOL    HW121731   1.191   4.591   5.215
 6944SOL    HW221732   1.243   4.490   5.097
 6945SOL     OW21733   5.683   1.654   0.880
 6945SOL    HW121734   5.674   1.711   0.962
 6945SOL    HW221735   5.616   1.580   0.885
 6946SOL     OW21736   5.451   6.370   2.815
 6946SOL    HW121737   5.437   6.444   2.880
 6946SOL    HW221738   5.497   6.294   2.859
 6947SOL     OW21739   6.342   4.111   5.285
 6947SOL    HW121740   6.246   4.138   5.296
 6947SOL    HW221741   6.373   4.135   5.193
 6948SOL     OW21742   6.927   4.416   6.847
 6948SOL    HW121743   6.948   4.385   6.754
 6948SOL    HW221744   6.891   4.509   6.843
 6949SOL     OW21745   2.359   1.374   3.080
 6949SOL    HW121746   2.287   1.398   3.014
 6949SOL    HW221747   2.316   1.342   3.164
 6950SOL     OW21748   0.867   0.924   4.270
 6950SOL    HW121749   0.889   0.956   4.362
 6950SOL    HW221750   0.830   0.832   4.275
 6951SOL     OW21751   0.999   3.948   6.880
 6951SOL    HW121752   1.082   3.997   6.907
 6951SOL    HW221753   0.967   3.983   6.792
 6952SOL     OW21754   5.404   5.625   4.107
 6952SOL    HW121755   5.457   5.542   4.122
 6952SOL    HW221756   5.434   5.696   4.171
 6953SOL     OW21757   6.218   1.460   1.242
 6953SOL    HW121758   6.234   1.487   1.147
 6953SOL    HW221759   6.299   1.481   1.297
 6954SOL     OW21760   6.979   4.846   6.784
 6954SOL    HW121761   6.965   4.943   6.801
 6954SOL    HW221762   0.050   4.829   6.760
 6955SOL     OW21763   4.775   6.037   2.787
 6955SOL    HW121764   4.791   5.984   2.870
 6955SOL    HW221765   4.862   6.073   2.753
 6956SOL     OW21766   5.441   5.009   2.346
 6956SOL    HW121767   5.466   5.015   2.249
 6956SOL    HW221768   5.342   5.000   2.354
 6957SOL     OW21769   6.422   5.268   5.137
 6957SOL    HW121770   6.326   5.247   5.151
 6957SOL    HW221771   6.478   5.205   5.191
 6958SOL     OW21772   3.805   3.538   2.754
 6958SOL    HW121773   3.812   3.538   2.655
 6958SOL    HW221774   3.743   3.465   2.783
 6959SOL     OW21775   1.539   3.769   2.927
 6959SOL    HW121776   1.637   3.750   2.927
 6959SOL    HW221777   1.511   3.800   2.836
 6960SOL     OW21778   4.287   4.499   0.133
 6960SOL    HW121779   4.207   4.477   0.189
 6960SOL    HW221780   4.360   4.433   0.152
 6961SOL     OW21781   4.632   2.538   5.377
 6961SOL    HW121782   4.568   2.580   5.312
 6961SOL    HW221783   4.616   2.440   5.381
 6962SOL     OW21784   2.583   6.332   0.260
 6962SOL    HW121785   2.618   6.299   0.348
 6962SOL    HW221786   2.506   6.275   0.232
 6963SOL     OW21787   6.620   5.992   6.974
 6963SOL    HW121788   6.693   6.058   6.953
 6963SOL    HW221789   6.560   6.031   0.020
 6964SOL     OW21790   2.209   1.024   5.528
 6964SOL    HW121791   2.149   0.947   5.548
 6964SOL    HW221792   2.173   1.074   5.449
 6965SOL     OW21793   1.503   1.007   6.726
 6965SOL    HW121794   1.484   1.048   6.637
 6965SOL    HW221795   1.427   1.026   6.788
 6966SOL     OW21796   0.862   6.553   1.281
 6966SOL    HW121797   0.901   6.611   1.209
 6966SOL    HW221798   0.928   6.545   1.356
 6967SOL     OW21799   3.994   1.162   6.745
 6967SOL    HW121800   3.903   1.197   6.765
 6967SOL    HW221801   4.061   1.236   6.749
 6968SOL     OW21802   4.004   0.472   2.881
 6968SOL    HW121803   4.102   0.491   2.881
 6968SOL    HW221804   3.984   0.402   2.950
 6969SOL     OW21805   2.143   2.360   2.217
 6969SOL    HW121806   2.200   2.363   2.299
 6969SOL    HW221807   2.148   2.447   2.169
 6970SOL     OW21808   3.719   5.251   5.667
 6970SOL    HW121809   3.733   5.180   5.598
 6970SOL    HW221810   3.727   5.341   5.623
 6971SOL     OW21811   6.363   4.387   0.328
 6971SOL    HW121812   6.314   4.306   0.295
 6971SOL    HW221813   6.447   4.359   0.374
 6972SOL     OW21814   5.480   3.917   1.331
 6972SOL    HW121815   5.422   3.845   1.368
 6972SOL    HW221816   5.458   4.004   1.375
 6973SOL     OW21817   1.679   1.562   2.552
 6973SOL    HW121818   1.730   1.585   2.636
 6973SOL    HW221819   1.601   1.505   2.575
 6974SOL     OW21820   3.850   3.656   3.359
 6974SOL    HW121821   3.867   3.583   3.292
 6974SOL    HW221822   3.756   3.689   3.349
 6975SOL     OW21823   3.154   5.662   4.312
 6975SOL    HW121824   3.163   5.728   4.237
 6975SOL    HW221825   3.209   5.692   4.389
 6976SOL     OW21826   4.593   4.725   5.814
 6976SOL    HW121827   4.665   4.792   5.834
 6976SOL    HW221828   4.626   4.661   5.745
 6977SOL     OW21829   4.692   4.907   2.037
 6977SOL    HW121830   4.636   4.825   2.047
 6977SOL    HW221831   4.767   4.889   1.973
 6978SOL     OW21832   0.108   3.681   0.569
 6978SOL    HW121833   0.166   3.738   0.627
 6978SOL    HW221834   0.073   3.604   0.622
 6979SOL     OW21835   0.863   3.539   2.853
 6979SOL    HW121836   0.903   3.468   2.910
 6979SOL    HW221837   0.778   3.506   2.813
 6980SOL     OW21838   2.356   5.019   3.291
 6980SOL    HW121839   2.400   4.980   3.372
 6980SOL    HW221840   2.258   5.029   3.308
 6981SOL     OW21841   4.497   2.857   6.910
 6981SOL    HW121842   4.511   2.818   7.001
 6981SOL    HW221843   4.574   2.831   6.851
 6982SOL     OW21844   0.568   1.141   2.092
 6982SOL    HW121845   0.560   1.231   2.050
 6982SOL    HW221846   0.611   1.078   2.027
 6983SOL     OW21847   6.167   0.560   4.518
 6983SOL    HW121848   6.131   0.620   4.447
 6983SOL    HW221849   6.210   0.615   4.590
 6984SOL     OW21850   1.496   3.036   3.162
 6984SOL    HW121851   1.444   3.068   3.241
 6984SOL    HW221852   1.589   3.070   3.168
 6985SOL     OW21853   5.256   3.200   6.587
 6985SOL    HW121854   5.296   3.111   6.566
 6985SOL    HW221855   5.218   3.240   6.504
 6986SOL     OW21856   4.671   4.808   5.358
 6986SOL    HW121857   4.750   4.838   5.411
 6986SOL    HW221858   4.632   4.726   5.399
 6987SOL     OW21859   0.202   1.252   6.688
 6987SOL    HW121860   0.117   1.207   6.718
 6987SOL    HW221861   0.276   1.227   6.750
 6988SOL     OW21862   2.420   1.598   6.479
 6988SOL    HW121863   2.513   1.588   6.514
 6988SOL    HW221864   2.416   1.565   6.384
 6989SOL     OW21865   0.856   3.632   2.565
 6989SOL    HW121866   0.794   3.704   2.535
 6989SOL    HW221867   0.879   3.646   2.662
 6990SOL     OW21868   4.186   3.711   6.875
 6990SOL    HW121869   4.087   3.699   6.881
 6990SOL    HW221870   4.224   3.729   6.966
 6991SOL     OW21871   5.709   3.386   2.359
 6991SOL    HW121872   5.732   3.290   2.343
 6991SOL    HW221873   5.612   3.394   2.383
 6992SOL     OW21874   0.797   5.318   0.307
 6992SOL    HW121875   0.701   5.320   0.336
 6992SOL    HW221876   0.848   5.256   0.367
 6993SOL     OW21877   3.481   2.366   1.517
 6993SOL    HW121878   3.557   2.305   1.537
 6993SOL    HW221879   3.443   2.344   1.427
 6994SOL     OW21880   2.880   1.388   3.090
 6994SOL    HW121881   2.783   1.412   3.095
 6994SOL    HW221882   2.919   1.389   3.182
 6995SOL     OW21883   0.381   4.092   1.008
 6995SOL    HW121884   0.288   4.060   0.991
 6995SOL    HW221885   0.398   4.176   0.956
 6996SOL     OW21886   1.220   0.949   6.548
 6996SOL    HW121887   1.245   0.853   6.562
 6996SOL    HW221888   1.124   0.962   6.575
 6997SOL     OW21889   6.739   6.300   5.892
 6997SOL    HW121890   6.818   6.362   5.892
 6997SOL    HW221891   6.699   6.298   5.983
 6998SOL     OW21892   0.142   0.484   0.159
 6998SOL    HW121893   0.116   0.531   0.244
 6998SOL    HW221894   0.202   0.407   0.181
 6999SOL     OW21895   0.118   2.636   6.967
 6999SOL    HW121896   0.075   2.694   0.012
 6999SOL    HW221897   0.050   2.575   6.927
 7000SOL     OW21898   0.304   5.419   3.727
 7000SOL    HW121899   0.240   5.452   3.657
 7000SOL    HW221900   0.362   5.494   3.756
 7001SOL     OW21901   6.793   1.824   4.685
 7001SOL    HW121902   6.718   1.768   4.720
 7001SOL    HW221903   6.844   1.863   4.762
 7002SOL     OW21904   1.135   5.292   2.875
 7002SOL    HW121905   1.077   5.249   2.806
 7002SOL    HW221906   1.207   5.345   2.830
 7003SOL     OW21907   0.650   4.788   0.317
 7003SOL    HW121908   0.566   4.836   0.291
 7003SOL    HW221909   0.657   4.702   0.266
 7004SOL     OW21910   1.872   0.075   0.205
 7004SOL    HW121911   1.780   0.061   0.244
 7004SOL    HW221912   1.939   0.023   0.258
 7005SOL     OW21913   1.399   5.861   0.107
 7005SOL    HW121914   1.360   5.769   0.112
 7005SOL    HW221915   1.353   5.920   0.173
 7006SOL     OW21916   0.681   0.123   3.933
 7006SOL    HW121917   0.706   0.035   3.891
 7006SOL    HW221918   0.706   0.122   4.030
 7007SOL     OW21919   2.080   0.384   5.995
 7007SOL    HW121920   1.996   0.329   5.993
 7007SOL    HW221921   2.067   0.462   6.055
 7008SOL     OW21922   5.781   3.526   3.463
 7008SOL    HW121923   5.722   3.548   3.541
 7008SOL    HW221924   5.727   3.530   3.379
 7009SOL     OW21925   5.075   5.717   2.318
 7009SOL    HW121926   5.156   5.743   2.372
 7009SOL    HW221927   5.078   5.762   2.229
 7010SOL     OW21928   4.833   3.087   2.671
 7010SOL    HW121929   4.799   3.140   2.592
 7010SOL    HW221930   4.932   3.076   2.663
 7011SOL     OW21931   2.515   6.658   5.876
 7011SOL    HW121932   2.497   6.740   5.929
 7011SOL    HW221933   2.597   6.671   5.820
 7012SOL     OW21934   6.901   2.848   0.629
 7012SOL    HW121935   6.890   2.901   0.545
 7012SOL    HW221936   6.992   2.865   0.667
 7013SOL     OW21937   3.300   2.954   0.499
 7013SOL    HW121938   3.204   2.946   0.528
 7013SOL    HW221939   3.359   2.932   0.576
 7014SOL     OW21940   5.276   3.097   0.583
 7014SOL    HW121941   5.312   3.098   0.676
 7014SOL    HW221942   5.251   3.004   0.558
 7015SOL     OW21943   5.763   6.282   1.697
 7015SOL    HW121944   5.750   6.189   1.664
 7015SOL    HW221945   5.803   6.338   1.625
 7016SOL     OW21946   3.348   4.669   0.942
 7016SOL    HW121947   3.394   4.666   0.853
 7016SOL    HW221948   3.404   4.719   1.008
 7017SOL     OW21949   6.247   4.756   5.741
 7017SOL    HW121950   6.163   4.706   5.721
 7017SOL    HW221951   6.326   4.702   5.712
 7018SOL     OW21952   5.111   3.582   5.037
 7018SOL    HW121953   5.012   3.588   5.046
 7018SOL    HW221954   5.143   3.657   4.978
 7019SOL     OW21955   3.926   5.367   2.291
 7019SOL    HW121956   3.932   5.466   2.308
 7019SOL    HW221957   3.971   5.318   2.365
 7020SOL     OW21958   0.904   2.287   6.126
 7020SOL    HW121959   0.962   2.240   6.192
 7020SOL    HW221960   0.919   2.386   6.132
 7021SOL     OW21961   0.804   1.904   4.832
 7021SOL    HW121962   0.802   1.999   4.803
 7021SOL    HW221963   0.719   1.883   4.881
 7022SOL     OW21964   2.693   3.236   0.922
 7022SOL    HW121965   2.605   3.246   0.876
 7022SOL    HW221966   2.766   3.271   0.862
 7023SOL     OW21967   0.618   1.472   0.934
 7023SOL    HW121968   0.583   1.398   0.993
 7023SOL    HW221969   0.647   1.549   0.991
 7024SOL     OW21970   3.269   3.895   4.613
 7024SOL    HW121971   3.350   3.886   4.555
 7024SOL    HW221972   3.194   3.843   4.572
 7025SOL     OW21973   3.096   0.649   1.131
 7025SOL    HW121974   3.004   0.683   1.108
 7025SOL    HW221975   3.158   0.727   1.143
 7026SOL     OW21976   3.132   2.224   0.962
 7026SOL    HW121977   3.137   2.312   0.914
 7026SOL    HW221978   3.109   2.241   1.058
 7027SOL     OW21979   3.408   4.928   1.933
 7027SOL    HW121980   3.483   4.866   1.955
 7027SOL    HW221981   3.389   4.923   1.834
 7028SOL     OW21982   3.371   0.130   3.345
 7028SOL    HW121983   3.447   0.184   3.309
 7028SOL    HW221984   3.398   0.034   3.352
 7029SOL     OW21985   3.286   3.660   3.507
 7029SOL    HW121986   3.193   3.646   3.472
 7029SOL    HW221987   3.349   3.600   3.458
 7030SOL     OW21988   6.511   0.176   4.600
 7030SOL    HW121989   6.567   0.198   4.680
 7030SOL    HW221990   6.463   0.090   4.615
 7031SOL     OW21991   4.867   6.031   0.454
 7031SOL    HW121992   4.899   5.971   0.381
 7031SOL    HW221993   4.796   6.092   0.419
 7032SOL     OW21994   4.767   4.896   4.070
 7032SOL    HW121995   4.728   4.949   4.146
 7032SOL    HW221996   4.697   4.881   4.000
 7033SOL     OW21997   1.488   1.250   5.558
 7033SOL    HW121998   1.520   1.304   5.480
 7033SOL    HW221999   1.493   1.305   5.641
 7034SOL     OW22000   6.148   0.921   2.199
 7034SOL    HW122001   6.155   1.019   2.216
 7034SOL    HW222002   6.204   0.897   2.119
 7035SOL     OW22003   2.827   1.027   1.471
 7035SOL    HW122004   2.829   1.051   1.568
 7035SOL    HW222005   2.907   1.067   1.426
 7036SOL     OW22006   6.405   1.394   1.714
 7036SOL    HW122007   6.404   1.294   1.706
 7036SOL    HW222008   6.329   1.424   1.772
 7037SOL     OW22009   1.318   0.446   6.196
 7037SOL    HW122010   1.356   0.353   6.193
 7037SOL    HW222011   1.317   0.479   6.290
 7038SOL     OW22012   1.428   4.274   0.420
 7038SOL    HW122013   1.364   4.300   0.349
 7038SOL    HW222014   1.418   4.176   0.440
 7039SOL     OW22015   0.230   6.788   1.841
 7039SOL    HW122016   0.283   6.708   1.869
 7039SOL    HW222017   0.254   6.866   1.899
 7040SOL     OW22018   5.577   2.268   4.597
 7040SOL    HW122019   5.635   2.213   4.657
 7040SOL    HW222020   5.517   2.208   4.544
 7041SOL     OW22021   1.305   0.474   4.219
 7041SOL    HW122022   1.256   0.405   4.273
 7041SOL    HW222023   1.266   0.478   4.127
 7042SOL     OW22024   5.921   6.051   5.423
 7042SOL    HW122025   5.854   5.985   5.391
 7042SOL    HW222026   5.957   6.021   5.512
 7043SOL     OW22027   1.696   6.141   1.037
 7043SOL    HW122028   1.669   6.091   1.119
 7043SOL    HW222029   1.774   6.199   1.057
 7044SOL     OW22030   5.243   6.033   5.141
 7044SOL    HW122031   5.290   5.967   5.083
 7044SOL    HW222032   5.169   6.076   5.088
 7045SOL     OW22033   5.986   5.930   1.673
 7045SOL    HW122034   6.034   5.850   1.710
 7045SOL    HW222035   5.897   5.901   1.637
 7046SOL     OW22036   2.142   1.666   3.898
 7046SOL    HW122037   2.166   1.630   3.808
 7046SOL    HW222038   2.072   1.737   3.887
 7047SOL     OW22039   0.968   6.584   0.477
 7047SOL    HW122040   0.922   6.672   0.487
 7047SOL    HW222041   1.043   6.577   0.543
 7048SOL     OW22042   0.913   6.334   3.243
 7048SOL    HW122043   0.873   6.347   3.334
 7048SOL    HW222044   0.908   6.238   3.218
 7049SOL     OW22045   3.866   1.540   4.352
 7049SOL    HW122046   3.947   1.485   4.331
 7049SOL    HW222047   3.786   1.500   4.308
 7050SOL     OW22048   3.929   4.177   0.640
 7050SOL    HW122049   3.871   4.258   0.646
 7050SOL    HW222050   4.024   4.203   0.658
 7051SOL     OW22051   1.091   2.112   1.713
 7051SOL    HW122052   1.154   2.038   1.687
 7051SOL    HW222053   1.141   2.181   1.766
 7052SOL     OW22054   4.435   1.735   2.552
 7052SOL    HW122055   4.361   1.799   2.531
 7052SOL    HW222056   4.449   1.732   2.651
 7053SOL     OW22057   1.438   3.612   3.738
 7053SOL    HW122058   1.386   3.686   3.695
 7053SOL    HW222059   1.406   3.524   3.702
 7054SOL     OW22060   5.153   0.228   0.010
 7054SOL    HW122061   5.166   0.163   0.085
 7054SOL    HW222062   5.211   0.201   6.957
 7055SOL     OW22063   2.361   0.570   0.426
 7055SOL    HW122064   2.372   0.589   0.329
 7055SOL    HW222065   2.348   0.656   0.476
 7056SOL     OW22066   0.110   4.972   1.232
 7056SOL    HW122067   0.175   4.897   1.241
 7056SOL    HW222068   0.156   5.053   1.196
 7057SOL     OW22069   3.330   5.807   4.511
 7057SOL    HW122070   3.412   5.756   4.486
 7057SOL    HW222071   3.355   5.885   4.569
 7058SOL     OW22072   6.397   2.515   6.380
 7058SOL    HW122073   6.387   2.579   6.303
 7058SOL    HW222074   6.494   2.500   6.399
 7059SOL     OW22075   1.764   0.021   5.342
 7059SOL    HW122076   1.741   0.074   5.260
 7059SOL    HW222077   1.848   6.994   5.326
 7060SOL     OW22078   3.311   2.232   1.318
 7060SOL    HW122079   3.212   2.223   1.304
 7060SOL    HW222080   3.346   2.149   1.363
 7061SOL     OW22081   1.277   1.029   1.431
 7061SOL    HW122082   1.273   0.933   1.403
 7061SOL    HW222083   1.322   1.083   1.360
 7062SOL     OW22084   3.438   0.463   4.284
 7062SOL    HW122085   3.389   0.393   4.336
 7062SOL    HW222086   3.372   0.527   4.245
 7063SOL     OW22087   0.078   1.541   1.222
 7063SOL    HW122088   0.005   1.596   1.261
 7063SOL    HW222089   0.045   1.492   1.142
 7064SOL     OW22090   2.967   1.692   5.287
 7064SOL    HW122091   2.896   1.732   5.346
 7064SOL    HW222092   2.955   1.593   5.284
 7065SOL     OW22093   3.934   5.408   5.307
 7065SOL    HW122094   4.029   5.386   5.284
 7065SOL    HW222095   3.931   5.491   5.363
 7066SOL     OW22096   3.504   6.840   1.262
 7066SOL    HW122097   3.413   6.797   1.262
 7066SOL    HW222098   3.500   6.926   1.212
 7067SOL     OW22099   2.368   3.967   6.056
 7067SOL    HW122100   2.317   3.883   6.076
 7067SOL    HW222101   2.448   3.973   6.116
 7068SOL     OW22102   5.077   4.473   4.416
 7068SOL    HW122103   5.039   4.381   4.425
 7068SOL    HW222104   5.159   4.470   4.359
 7069SOL     OW22105   5.054   0.951   5.941
 7069SOL    HW122106   5.002   0.893   6.003
 7069SOL    HW222107   5.126   0.999   5.991
 7070SOL     OW22108   0.621   0.469   5.770
 7070SOL    HW122109   0.657   0.395   5.713
 7070SOL    HW222110   0.673   0.474   5.855
 7071SOL     OW22111   4.661   6.284   6.660
 7071SOL    HW122112   4.662   6.347   6.582
 7071SOL    HW222113   4.730   6.213   6.647
 7072SOL     OW22114   0.748   3.831   6.339
 7072SOL    HW122115   0.692   3.789   6.411
 7072SOL    HW222116   0.734   3.930   6.342
 7073SOL     OW22117   4.999   1.695   3.761
 7073SOL    HW122118   4.952   1.607   3.754
 7073SOL    HW222119   4.956   1.761   3.699
 7074SOL     OW22120   5.484   4.026   2.738
 7074SOL    HW122121   5.432   4.088   2.797
 7074SOL    HW222122   5.519   4.076   2.659
 7075SOL     OW22123   2.391   5.321   3.415
 7075SOL    HW122124   2.312   5.265   3.390
 7075SOL    HW222125   2.473   5.285   3.372
 7076SOL     OW22126   5.481   1.954   0.790
 7076SOL    HW122127   5.387   1.967   0.821
 7076SOL    HW222128   5.539   1.931   0.868
 7077SOL     OW22129   3.815   5.914   1.584
 7077SOL    HW122130   3.861   5.995   1.622
 7077SOL    HW222131   3.762   5.870   1.656
 7078SOL     OW22132   6.638   1.135   6.978
 7078SOL    HW122133   6.593   1.052   7.010
 7078SOL    HW222134   6.725   1.112   6.935
 7079SOL     OW22135   1.921   5.473   5.030
 7079SOL    HW122136   1.959   5.428   4.949
 7079SOL    HW222137   1.960   5.565   5.038
 7080SOL     OW22138   4.022   2.011   6.134
 7080SOL    HW122139   3.988   1.975   6.221
 7080SOL    HW222140   4.110   1.968   6.111
 7081SOL     OW22141   2.416   6.977   0.372
 7081SOL    HW122142   2.385   0.046   0.352
 7081SOL    HW222143   2.375   6.913   0.307
 7082SOL     OW22144   0.410   3.780   2.456
 7082SOL    HW122145   0.425   3.736   2.367
 7082SOL    HW222146   0.497   3.814   2.491
 7083SOL     OW22147   5.110   2.682   3.473
 7083SOL    HW122148   5.104   2.781   3.461
 7083SOL    HW222149   5.055   2.655   3.553
 7084SOL     OW22150   1.150   4.996   0.594
 7084SOL    HW122151   1.129   4.933   0.520
 7084SOL    HW222152   1.111   4.962   0.680
 7085SOL     OW22153   0.716   4.212   2.412
 7085SOL    HW122154   0.675   4.235   2.500
 7085SOL    HW222155   0.815   4.215   2.420
 7086SOL     OW22156   5.320   0.706   3.744
 7086SOL    HW122157   5.390   0.741   3.681
 7086SOL    HW222158   5.259   0.781   3.771
 7087SOL     OW22159   4.831   2.517   3.566
 7087SOL    HW122160   4.815   2.601   3.513
 7087SOL    HW222161   4.753   2.455   3.554
 7088SOL     OW22162   6.731   2.389   5.100
 7088SOL    HW122163   6.774   2.401   5.189
 7088SOL    HW222164   6.746   2.471   5.044
 7089SOL     OW22165   2.507   5.624   1.112
 7089SOL    HW122166   2.595   5.609   1.067
 7089SOL    HW222167   2.465   5.707   1.077
 7090SOL     OW22168   4.211   2.925   0.810
 7090SOL    HW122169   4.262   2.996   0.859
 7090SOL    HW222170   4.123   2.963   0.781
 7091SOL     OW22171   6.833   6.511   0.079
 7091SOL    HW122172   6.932   6.520   0.093
 7091SOL    HW222173   6.785   6.575   0.139
 7092SOL     OW22174   4.472   6.872   6.691
 7092SOL    HW122175   4.389   6.911   6.731
 7092SOL    HW222176   4.461   6.774   6.678
 7093SOL     OW22177   3.353   3.385   0.327
 7093SOL    HW122178   3.270   3.359   0.375
 7093SOL    HW222179   3.390   3.305   0.279
 7094SOL     OW22180   4.380   0.883   5.478
 7094SOL    HW122181   4.423   0.793   5.492
 7094SOL    HW222182   4.310   0.875   5.406
 7095SOL     OW22183   2.674   5.050   4.504
 7095SOL    HW122184   2.680   5.035   4.405
 7095SOL    HW222185   2.767   5.057   4.542
 7096SOL     OW22186   6.238   6.608   1.017
 7096SOL    HW122187   6.271   6.519   1.047
 7096SOL    HW222188   6.303   6.679   1.046
 7097SOL     OW22189   4.708   1.420   2.796
 7097SOL    HW122190   4.644   1.466   2.857
 7097SOL    HW222191   4.680   1.434   2.701
 7098SOL     OW22192   0.760   1.427   3.455
 7098SOL    HW122193   0.851   1.428   3.415
 7098SOL    HW222194   0.756   1.360   3.529
 7099SOL     OW22195   3.518   2.133   4.617
 7099SOL    HW122196   3.614   2.159   4.609
 7099SOL    HW222197   3.502   2.093   4.707
 7100SOL     OW22198   0.154   3.795   1.222
 7100SOL    HW122199   0.191   3.715   1.269
 7100SOL    HW222200   0.154   3.873   1.284
 7101SOL     OW22201   2.546   5.723   4.432
 7101SOL    HW122202   2.488   5.691   4.507
 7101SOL    HW222203   2.639   5.735   4.465
 7102SOL     OW22204   5.767   1.414   3.105
 7102SOL    HW122205   5.863   1.424   3.132
 7102SOL    HW222206   5.737   1.497   3.058
 7103SOL     OW22207   5.050   3.754   3.998
 7103SOL    HW122208   5.023   3.670   3.950
 7103SOL    HW222209   5.104   3.730   4.078
 7104SOL     OW22210   5.238   2.878   5.022
 7104SOL    HW122211   5.323   2.899   5.070
 7104SOL    HW222212   5.258   2.828   4.938
 7105SOL     OW22213   3.112   4.014   2.828
 7105SOL    HW122214   3.086   4.076   2.903
 7105SOL    HW222215   3.193   4.050   2.782
 7106SOL     OW22216   3.004   1.862   2.562
 7106SOL    HW122217   2.965   1.770   2.568
 7106SOL    HW222218   3.021   1.885   2.466
 7107SOL     OW22219   3.601   1.211   6.543
 7107SOL    HW122220   3.595   1.167   6.454
 7107SOL    HW222221   3.580   1.309   6.534
 7108SOL     OW22222   4.112   0.141   1.920
 7108SOL    HW122223   4.176   0.105   1.987
 7108SOL    HW222224   4.029   0.087   1.920
 7109SOL     OW22225   3.139   5.332   6.159
 7109SOL    HW122226   3.128   5.318   6.061
 7109SOL    HW222227   3.236   5.347   6.180
 7110SOL     OW22228   2.528   6.146   5.073
 7110SOL    HW122229   2.511   6.217   5.142
 7110SOL    HW222230   2.623   6.115   5.080
 7111SOL     OW22231   6.657   0.878   5.211
 7111SOL    HW122232   6.726   0.840   5.272
 7111SOL    HW222233   6.679   0.973   5.190
 7112SOL     OW22234   0.826   4.909   5.087
 7112SOL    HW122235   0.854   4.954   5.002
 7112SOL    HW222236   0.882   4.943   5.162
 7113SOL     OW22237   3.294   6.523   4.836
 7113SOL    HW122238   3.234   6.475   4.772
 7113SOL    HW222239   3.312   6.615   4.802
 7114SOL     OW22240   5.963   4.077   1.316
 7114SOL    HW122241   5.910   4.062   1.399
 7114SOL    HW222242   5.947   4.170   1.283
 7115SOL     OW22243   5.470   3.319   5.812
 7115SOL    HW122244   5.414   3.367   5.745
 7115SOL    HW222245   5.454   3.357   5.903
 7116SOL     OW22246   6.799   3.944   5.111
 7116SOL    HW122247   6.846   3.857   5.098
 7116SOL    HW222248   6.841   3.994   5.187
 7117SOL     OW22249   5.296   6.869   2.863
 7117SOL    HW122250   5.250   6.828   2.941
 7117SOL    HW222251   5.392   6.839   2.861
 7118SOL     OW22252   4.615   4.568   6.050
 7118SOL    HW122253   4.632   4.651   6.103
 7118SOL    HW222254   4.592   4.592   5.956
 7119SOL     OW22255   3.018   6.868   5.096
 7119SOL    HW122256   2.952   6.801   5.063
 7119SOL    HW222257   3.055   6.837   5.184
 7120SOL     OW22258   3.844   1.378   1.145
 7120SOL    HW122259   3.884   1.469   1.135
 7120SOL    HW222260   3.884   1.316   1.078
 7121SOL     OW22261   1.240   6.301   2.326
 7121SOL    HW122262   1.186   6.236   2.272
 7121SOL    HW222263   1.201   6.309   2.417
 7122SOL     OW22264   3.901   2.253   6.934
 7122SOL    HW122265   3.976   2.189   6.916
 7122SOL    HW222266   3.913   2.294   0.000
 7123SOL     OW22267   5.628   5.096   5.858
 7123SOL    HW122268   5.622   5.073   5.761
 7123SOL    HW222269   5.538   5.124   5.891
 7124SOL     OW22270   1.980   3.021   0.870
 7124SOL    HW122271   1.995   3.116   0.899
 7124SOL    HW222272   2.043   2.961   0.921
 7125SOL     OW22273   0.634   6.548   2.348
 7125SOL    HW122274   0.546   6.588   2.323
 7125SOL    HW222275   0.704   6.578   2.282
 7126SOL     OW22276   3.805   5.066   1.331
 7126SOL    HW122277   3.845   4.975   1.317
 7126SOL    HW222278   3.706   5.057   1.342
 7127SOL     OW22279   2.878   6.264   6.136
 7127SOL    HW122280   2.829   6.178   6.122
 7127SOL    HW222281   2.970   6.256   6.099
 7128SOL     OW22282   3.240   4.224   0.093
 7128SOL    HW122283   3.174   4.256   0.161
 7128SOL    HW222284   3.277   4.136   0.122
 7129SOL     OW22285   0.107   0.042   0.006
 7129SOL    HW122286   0.088   0.105   0.081
 7129SOL    HW222287   0.038   6.993   0.006
 7130SOL     OW22288   3.143   0.138   3.790
 7130SOL    HW122289   3.074   0.108   3.856
 7130SOL    HW222290   3.221   0.177   3.838
 7131SOL     OW22291   2.432   1.390   1.876
 7131SOL    HW122292   2.403   1.316   1.937
 7131SOL    HW222293   2.357   1.455   1.864
 7132SOL     OW22294   4.773   4.377   1.516
 7132SOL    HW122295   4.699   4.416   1.461
 7132SOL    HW222296   4.753   4.391   1.613
 7133SOL     OW22297   4.663   5.966   2.546
 7133SOL    HW122298   4.700   5.988   2.637
 7133SOL    HW222299   4.738   5.956   2.481
 7134SOL     OW22300   5.218   5.102   0.407
 7134SOL    HW122301   5.183   5.141   0.321
 7134SOL    HW222302   5.208   5.003   0.405
 7135SOL     OW22303   1.980   3.625   1.526
 7135SOL    HW122304   2.044   3.699   1.545
 7135SOL    HW222305   1.923   3.649   1.447
 7136SOL     OW22306   0.958   2.721   1.901
 7136SOL    HW122307   0.992   2.729   1.807
 7136SOL    HW222308   0.997   2.640   1.944
 7137SOL     OW22309   2.987   0.958   2.615
 7137SOL    HW122310   2.998   0.946   2.516
 7137SOL    HW222311   2.891   0.975   2.636
 7138SOL     OW22312   0.092   3.602   0.294
 7138SOL    HW122313   0.098   3.503   0.279
 7138SOL    HW222314   0.115   3.622   0.390
 7139SOL     OW22315   5.742   6.234   0.870
 7139SOL    HW122316   5.696   6.176   0.937
 7139SOL    HW222317   5.837   6.205   0.861
 7140SOL     OW22318   6.910   4.939   0.082
 7140SOL    HW122319   6.929   4.841   0.074
 7140SOL    HW222320   6.989   4.991   0.053
 7141SOL     OW22321   2.866   0.749   1.057
 7141SOL    HW122322   2.802   0.693   1.003
 7141SOL    HW222323   2.851   0.846   1.035
 7142SOL     OW22324   4.836   0.427   5.251
 7142SOL    HW122325   4.904   0.452   5.182
 7142SOL    HW222326   4.745   0.425   5.208
 7143SOL     OW22327   2.848   2.912   6.244
 7143SOL    HW122328   2.784   2.989   6.244
 7143SOL    HW222329   2.942   2.947   6.239
 7144SOL     OW22330   0.266   0.791   6.323
 7144SOL    HW122331   0.210   0.847   6.262
 7144SOL    HW222332   0.271   0.698   6.286
 7145SOL     OW22333   5.864   2.044   5.951
 7145SOL    HW122334   5.882   1.973   5.883
 7145SOL    HW222335   5.786   2.018   6.008
 7146SOL     OW22336   0.851   2.428   5.423
 7146SOL    HW122337   0.932   2.478   5.396
 7146SOL    HW222338   0.874   2.332   5.439
 7147SOL     OW22339   6.749   6.521   1.784
 7147SOL    HW122340   6.740   6.430   1.825
 7147SOL    HW222341   6.709   6.589   1.846
 7148SOL     OW22342   6.196   6.957   1.203
 7148SOL    HW122343   6.255   7.000   1.135
 7148SOL    HW222344   6.247   6.888   1.254
 7149SOL     OW22345   5.225   4.498   5.698
 7149SOL    HW122346   5.191   4.515   5.605
 7149SOL    HW222347   5.147   4.486   5.760
 7150SOL     OW22348   3.173   2.417   6.880
 7150SOL    HW122349   3.241   2.475   6.836
 7150SOL    HW222350   3.187   2.417   6.979
 7151SOL     OW22351   5.336   1.343   0.057
 7151SOL    HW122352   5.404   1.396   0.108
 7151SOL    HW222353   5.264   1.313   0.121
 7152SOL     OW22354   4.731   0.458   5.513
 7152SOL    HW122355   4.779   0.412   5.588
 7152SOL    HW222356   4.766   0.424   5.425
 7153SOL     OW22357   3.387   5.613   0.494
 7153SOL    HW122358   3.483   5.628   0.520
 7153SOL    HW222359   3.357   5.524   0.529
 7154SOL     OW22360   4.504   0.816   1.950
 7154SOL    HW122361   4.537   0.807   1.857
 7154SOL    HW222362   4.404   0.812   1.951
 7155SOL     OW22363   1.512   0.015   1.983
 7155SOL    HW122364   1.554   0.057   2.064
 7155SOL    HW222365   1.415   0.040   1.979
 7156SOL     OW22366   6.568   4.117   5.465
 7156SOL    HW122367   6.549   4.189   5.533
 7156SOL    HW222368   6.501   4.123   5.391
 7157SOL     OW22369   0.334   4.305   5.879
 7157SOL    HW122370   0.314   4.225   5.935
 7157SOL    HW222371   0.267   4.311   5.804
 7158SOL     OW22372   5.463   0.166   4.003
 7158SOL    HW122373   5.435   0.244   4.059
 7158SOL    HW222374   5.410   0.166   3.918
 7159SOL     OW22375   0.612   6.359   2.978
 7159SOL    HW122376   0.574   6.342   3.069
 7159SOL    HW222377   0.691   6.299   2.963
 7160SOL     OW22378   5.807   0.010   2.921
 7160SOL    HW122379   5.865   6.994   2.992
 7160SOL    HW222380   5.821   6.986   2.835
 7161SOL     OW22381   3.762   4.059   2.438
 7161SOL    HW122382   3.855   4.089   2.417
 7161SOL    HW222383   3.759   3.959   2.439
 7162SOL     OW22384   0.091   6.052   1.021
 7162SOL    HW122385   0.077   6.132   0.963
 7162SOL    HW222386   0.178   6.060   1.069
 7163SOL     OW22387   6.582   0.590   1.503
 7163SOL    HW122388   6.655   0.643   1.548
 7163SOL    HW222389   6.511   0.652   1.471
 7164SOL     OW22390   1.544   1.123   0.203
 7164SOL    HW122391   1.542   1.039   0.149
 7164SOL    HW222392   1.639   1.151   0.217
 7165SOL     OW22393   5.225   2.087   6.896
 7165SOL    HW122394   5.213   2.069   6.993
 7165SOL    HW222395   5.264   2.007   6.851
 7166SOL     OW22396   0.186   5.546   5.699
 7166SOL    HW122397   0.109   5.593   5.741
 7166SOL    HW222398   0.266   5.606   5.699
 7167SOL     OW22399   6.999   3.147   5.516
 7167SOL    HW122400   0.013   3.240   5.514
 7167SOL    HW222401   7.019   3.101   5.430
 7168SOL     OW22402   1.625   1.939   2.320
 7168SOL    HW122403   1.629   1.840   2.304
 7168SOL    HW222404   1.615   1.986   2.232
 7169SOL     OW22405   1.834   4.721   5.554
 7169SOL    HW122406   1.881   4.708   5.466
 7169SOL    HW222407   1.836   4.818   5.578
 7170SOL     OW22408   3.554   1.192   1.071
 7170SOL    HW122409   3.501   1.110   1.049
 7170SOL    HW222410   3.634   1.166   1.126
 7171SOL     OW22411   6.646   3.819   0.920
 7171SOL    HW122412   6.575   3.826   0.990
 7171SOL    HW222413   6.679   3.725   0.914
 7172SOL     OW22414   0.636   2.253   3.673
 7172SOL    HW122415   0.650   2.339   3.623
 7172SOL    HW222416   0.689   2.180   3.630
 7173SOL     OW22417   4.508   5.639   5.978
 7173SOL    HW122418   4.445   5.705   6.020
 7173SOL    HW222419   4.560   5.683   5.906
 7174SOL     OW22420   6.408   4.135   2.180
 7174SOL    HW122421   6.427   4.210   2.243
 7174SOL    HW222422   6.421   4.166   2.086
 7175SOL     OW22423   6.364   4.205   5.869
 7175SOL    HW122424   6.365   4.139   5.794
 7175SOL    HW222425   6.281   4.192   5.923
 7176SOL     OW22426   0.308   1.133   6.263
 7176SOL    HW122427   0.400   1.169   6.251
 7176SOL    HW222428   0.259   1.136   6.176
 7177SOL     OW22429   1.579   6.152   3.830
 7177SOL    HW122430   1.635   6.216   3.778
 7177SOL    HW222431   1.483   6.182   3.826
 7178SOL     OW22432   1.345   0.036   4.815
 7178SOL    HW122433   1.395   7.014   4.742
 7178SOL    HW222434   1.366   7.016   4.902
 7179SOL     OW22435   4.765   4.936   5.921
 7179SOL    HW122436   4.728   4.924   6.013
 7179SOL    HW222437   4.789   5.032   5.906
 7180SOL     OW22438   1.905   3.023   1.915
 7180SOL    HW122439   1.977   3.063   1.971
 7180SOL    HW222440   1.863   3.094   1.858
 7181SOL     OW22441   2.075   1.203   0.152
 7181SOL    HW122442   1.978   1.191   0.132
 7181SOL    HW222443   2.126   1.125   0.118
 7182SOL     OW22444   1.901   1.092   3.510
 7182SOL    HW122445   1.941   1.155   3.576
 7182SOL    HW222446   1.950   1.100   3.423
 7183SOL     OW22447   1.895   6.806   1.577
 7183SOL    HW122448   1.845   6.879   1.622
 7183SOL    HW222449   1.891   6.819   1.478
 7184SOL     OW22450   6.868   0.680   3.896
 7184SOL    HW122451   6.796   0.707   3.959
 7184SOL    HW222452   6.956   0.715   3.929
 7185SOL     OW22453   4.115   0.393   3.887
 7185SOL    HW122454   4.026   0.433   3.910
 7185SOL    HW222455   4.177   0.406   3.964
 7186SOL     OW22456   6.161   0.789   6.850
 7186SOL    HW122457   6.097   0.865   6.860
 7186SOL    HW222458   6.136   0.715   6.913
 7187SOL     OW22459   3.894   3.571   4.067
 7187SOL    HW122460   3.962   3.511   4.023
 7187SOL    HW222461   3.931   3.664   4.072
 7188SOL     OW22462   4.472   4.296   0.160
 7188SOL    HW122463   4.463   4.250   0.248
 7188SOL    HW222464   4.553   4.261   0.112
 7189SOL     OW22465   6.907   2.424   5.756
 7189SOL    HW122466   6.889   2.467   5.844
 7189SOL    HW222467   6.862   2.334   5.752
 7190SOL     OW22468   6.243   5.137   6.744
 7190SOL    HW122469   6.286   5.135   6.653
 7190SOL    HW222470   6.144   5.149   6.733
 7191SOL     OW22471   6.548   4.685   2.361
 7191SOL    HW122472   6.546   4.664   2.458
 7191SOL    HW222473   6.603   4.616   2.313
 7192SOL     OW22474   2.396   4.085   5.406
 7192SOL    HW122475   2.441   4.173   5.396
 7192SOL    HW222476   2.427   4.023   5.334
 7193SOL     OW22477   3.542   1.825   3.315
 7193SOL    HW122478   3.470   1.805   3.249
 7193SOL    HW222479   3.624   1.856   3.266
 7194SOL     OW22480   2.671   2.414   6.249
 7194SOL    HW122481   2.686   2.512   6.263
 7194SOL    HW222482   2.580   2.400   6.209
 7195SOL     OW22483   1.163   4.209   5.797
 7195SOL    HW122484   1.110   4.254   5.725
 7195SOL    HW222485   1.258   4.238   5.792
 7196SOL     OW22486   3.358   4.228   1.618
 7196SOL    HW122487   3.352   4.201   1.714
 7196SOL    HW222488   3.347   4.327   1.610
 7197SOL     OW22489   3.273   4.757   6.953
 7197SOL    HW122490   3.342   4.816   6.995
 7197SOL    HW222491   3.296   4.742   6.857
 7198SOL     OW22492   0.937   0.298   1.945
 7198SOL    HW122493   0.881   0.220   1.918
 7198SOL    HW222494   0.892   0.347   2.020
 7199SOL     OW22495   6.249   1.498   2.860
 7199SOL    HW122496   6.250   1.399   2.875
 7199SOL    HW222497   6.163   1.523   2.815
 7200SOL     OW22498   1.053   2.769   6.900
 7200SOL    HW122499   1.141   2.801   6.867
 7200SOL    HW222500   1.061   2.742   6.997
 7201SOL     OW22501   6.030   6.046   4.125
 7201SOL    HW122502   6.066   6.052   4.218
 7201SOL    HW222503   6.097   6.002   4.066
 7202SOL     OW22504   4.519   6.627   5.817
 7202SOL    HW122505   4.498   6.701   5.754
 7202SOL    HW222506   4.618   6.616   5.824
 7203SOL     OW22507   0.260   1.939   0.930
 7203SOL    HW122508   0.346   1.989   0.926
 7203SOL    HW222509   0.242   1.896   0.841
 7204SOL     OW22510   6.499   1.210   2.163
 7204SOL    HW122511   6.433   1.136   2.175
 7204SOL    HW222512   6.531   1.241   2.252
 7205SOL     OW22513   3.089   1.841   4.280
 7205SOL    HW122514   3.011   1.847   4.341
 7205SOL    HW222515   3.141   1.927   4.283
 7206SOL     OW22516   1.904   3.687   6.689
 7206SOL    HW122517   1.953   3.767   6.724
 7206SOL    HW222518   1.948   3.604   6.725
 7207SOL     OW22519   2.011   1.342   3.361
 7207SOL    HW122520   2.045   1.308   3.273
 7207SOL    HW222521   1.926   1.393   3.347
 7208SOL     OW22522   4.183   1.034   4.059
 7208SOL    HW122523   4.177   1.115   4.000
 7208SOL    HW222524   4.127   1.048   4.141
 7209SOL     OW22525   3.338   0.794   2.066
 7209SOL    HW122526   3.374   0.763   1.978
 7209SOL    HW222527   3.251   0.841   2.052
 7210SOL     OW22528   4.095   1.273   3.962
 7210SOL    HW122529   4.002   1.255   3.995
 7210SOL    HW222530   4.109   1.372   3.953
 7211SOL     OW22531   4.437   6.345   5.758
 7211SOL    HW122532   4.406   6.322   5.666
 7211SOL    HW222533   4.477   6.437   5.757
 7212SOL     OW22534   0.625   5.413   5.335
 7212SOL    HW122535   0.671   5.451   5.415
 7212SOL    HW222536   0.527   5.434   5.340
 7213SOL     OW22537   4.253   2.532   6.967
 7213SOL    HW122538   4.174   2.585   6.937
 7213SOL    HW222539   4.250   2.441   6.925
 7214SOL     OW22540   6.253   0.479   6.195
 7214SOL    HW122541   6.195   0.476   6.275
 7214SOL    HW222542   6.208   0.531   6.122
 7215SOL     OW22543   6.540   1.699   2.448
 7215SOL    HW122544   6.598   1.767   2.491
 7215SOL    HW222545   6.573   1.607   2.470
 7216SOL     OW22546   5.293   0.104   3.464
 7216SOL    HW122547   5.197   0.081   3.477
 7216SOL    HW222548   5.311   0.195   3.502
 7217SOL     OW22549   1.189   2.563   3.176
 7217SOL    HW122550   1.162   2.554   3.272
 7217SOL    HW222551   1.288   2.552   3.168
 7218SOL     OW22552   6.520   2.647   4.640
 7218SOL    HW122553   6.476   2.717   4.695
 7218SOL    HW222554   6.524   2.677   4.545
 7219SOL     OW22555   3.095   6.077   2.462
 7219SOL    HW122556   3.134   5.985   2.470
 7219SOL    HW222557   3.016   6.086   2.523
 7220SOL     OW22558   6.211   4.301   3.580
 7220SOL    HW122559   6.253   4.282   3.668
 7220SOL    HW222560   6.249   4.239   3.511
 7221SOL     OW22561   4.016   5.471   3.606
 7221SOL    HW122562   4.072   5.543   3.647
 7221SOL    HW222563   4.076   5.399   3.571
 7222SOL     OW22564   6.707   6.110   4.341
 7222SOL    HW122565   6.778   6.087   4.274
 7222SOL    HW222566   6.719   6.205   4.372
 7223SOL     OW22567   7.023   4.311   1.443
 7223SOL    HW122568   6.996   4.333   1.350
 7223SOL    HW222569   6.973   4.230   1.474
 7224SOL     OW22570   4.308   2.310   2.213
 7224SOL    HW122571   4.396   2.343   2.250
 7224SOL    HW222572   4.240   2.307   2.287
 7225SOL     OW22573   0.797   6.187   0.467
 7225SOL    HW122574   0.788   6.089   0.451
 7225SOL    HW222575   0.733   6.216   0.538
 7226SOL     OW22576   6.497   6.342   0.067
 7226SOL    HW122577   6.520   6.355   6.995
 7226SOL    HW222578   6.475   6.430   0.108
 7227SOL     OW22579   1.722   1.310   2.822
 7227SOL    HW122580   1.624   1.301   2.803
 7227SOL    HW222581   1.773   1.247   2.763
 7228SOL     OW22582   6.126   3.121   2.171
 7228SOL    HW122583   6.144   3.106   2.269
 7228SOL    HW222584   6.134   3.218   2.150
 7229SOL     OW22585   6.029   0.839   4.986
 7229SOL    HW122586   6.030   0.786   4.901
 7229SOL    HW222587   6.103   0.906   4.984
 7230SOL     OW22588   2.462   5.220   4.598
 7230SOL    HW122589   2.519   5.163   4.539
 7230SOL    HW222590   2.366   5.207   4.574
 7231SOL     OW22591   4.299   3.090   6.048
 7231SOL    HW122592   4.302   2.998   6.088
 7231SOL    HW222593   4.391   3.129   6.046
 7232SOL     OW22594   4.654   6.161   3.449
 7232SOL    HW122595   4.626   6.140   3.542
 7232SOL    HW222596   4.746   6.201   3.450
 7233SOL     OW22597   0.366   1.148   5.516
 7233SOL    HW122598   0.376   1.219   5.446
 7233SOL    HW222599   0.333   1.064   5.473
 7234SOL     OW22600   5.613   4.298   3.578
 7234SOL    HW122601   5.519   4.292   3.544
 7234SOL    HW222602   5.622   4.378   3.636
 7235SOL     OW22603   6.149   6.569   1.832
 7235SOL    HW122604   6.208   6.491   1.811
 7235SOL    HW222605   6.075   6.539   1.891
 7236SOL     OW22606   2.047   3.597   2.918
 7236SOL    HW122607   2.064   3.639   3.007
 7236SOL    HW222608   1.994   3.660   2.861
 7237SOL     OW22609   5.523   1.060   0.406
 7237SOL    HW122610   5.551   0.981   0.461
 7237SOL    HW222611   5.596   1.082   0.341
 7238SOL     OW22612   4.295   3.862   0.082
 7238SOL    HW122613   4.318   3.772   0.120
 7238SOL    HW222614   4.363   3.929   0.112
 7239SOL     OW22615   5.919   2.417   2.182
 7239SOL    HW122616   5.883   2.506   2.211
 7239SOL    HW222617   5.994   2.390   2.242
 7240SOL     OW22618   6.817   1.642   0.743
 7240SOL    HW122619   6.807   1.737   0.773
 7240SOL    HW222620   6.736   1.590   0.771
 7241SOL     OW22621   1.992   0.701   2.322
 7241SOL    HW122622   1.999   0.689   2.223
 7241SOL    HW222623   1.928   0.775   2.343
 7242SOL     OW22624   6.997   4.415   4.909
 7242SOL    HW122625   0.051   4.428   4.848
 7242SOL    HW222626   6.939   4.497   4.905
 7243SOL     OW22627   5.677   4.854   6.032
 7243SOL    HW122628   5.732   4.809   6.103
 7243SOL    HW222629   5.640   4.940   6.068
 7244SOL     OW22630   7.008   5.909   6.984
 7244SOL    HW122631   6.916   5.918   7.021
 7244SOL    HW222632   0.049   5.957   0.020
 7245SOL     OW22633   1.065   3.258   0.511
 7245SOL    HW122634   1.080   3.296   0.603
 7245SOL    HW222635   1.022   3.327   0.453
 7246SOL     OW22636   4.272   6.966   2.935
 7246SOL    HW122637   4.318   6.982   2.847
 7246SOL    HW222638   4.173   6.965   2.920
 7247SOL     OW22639   2.995   3.779   4.536
 7247SOL    HW122640   2.921   3.804   4.474
 7247SOL    HW222641   3.004   3.679   4.538
 7248SOL     OW22642   2.873   1.434   5.333
 7248SOL    HW122643   2.957   1.402   5.378
 7248SOL    HW222644   2.794   1.407   5.388
 7249SOL     OW22645   4.077   5.093   2.661
 7249SOL    HW122646   4.021   5.176   2.654
 7249SOL    HW222647   4.121   5.076   2.573
 7250SOL     OW22648   5.853   5.127   5.170
 7250SOL    HW122649   5.845   5.055   5.239
 7250SOL    HW222650   5.856   5.085   5.079
 7251SOL     OW22651   0.305   5.772   4.996
 7251SOL    HW122652   0.335   5.861   5.030
 7251SOL    HW222653   0.383   5.725   4.954
 7252SOL     OW22654   3.707   4.071   2.830
 7252SOL    HW122655   3.780   4.003   2.818
 7252SOL    HW222656   3.723   4.148   2.768
 7253SOL     OW22657   2.867   5.360   5.058
 7253SOL    HW122658   2.896   5.381   4.964
 7253SOL    HW222659   2.781   5.309   5.056
 7254SOL     OW22660   5.841   2.931   4.428
 7254SOL    HW122661   5.851   2.968   4.521
 7254SOL    HW222662   5.875   2.997   4.362
 7255SOL     OW22663   5.165   3.647   6.881
 7255SOL    HW122664   5.196   3.697   6.800
 7255SOL    HW222665   5.069   3.622   6.869
 7256SOL     OW22666   3.256   6.950   4.987
 7256SOL    HW122667   3.253   6.979   4.891
 7256SOL    HW222668   3.164   6.919   5.014
 7257SOL     OW22669   0.901   1.466   4.644
 7257SOL    HW122670   0.886   1.438   4.549
 7257SOL    HW222671   0.999   1.466   4.664
 7258SOL     OW22672   5.846   3.118   2.404
 7258SOL    HW122673   5.801   3.051   2.344
 7258SOL    HW222674   5.792   3.130   2.487
 7259SOL     OW22675   1.396   4.221   2.847
 7259SOL    HW122676   1.300   4.249   2.848
 7259SOL    HW222677   1.420   4.188   2.756
 7260SOL     OW22678   5.569   2.953   0.709
 7260SOL    HW122679   5.611   3.024   0.765
 7260SOL    HW222680   5.600   2.863   0.740
 7261SOL     OW22681   6.658   4.714   0.091
 7261SOL    HW122682   6.730   4.699   0.159
 7261SOL    HW222683   6.586   4.646   0.102
 7262SOL     OW22684   5.661   1.549   5.176
 7262SOL    HW122685   5.736   1.521   5.117
 7262SOL    HW222686   5.665   1.496   5.261
 7263SOL     OW22687   6.746   5.744   6.655
 7263SOL    HW122688   6.766   5.842   6.653
 7263SOL    HW222689   6.820   5.695   6.700
 7264SOL     OW22690   5.738   1.284   1.008
 7264SOL    HW122691   5.793   1.366   1.023
 7264SOL    HW222692   5.795   1.203   1.023
 7265SOL     OW22693   3.923   0.294   5.994
 7265SOL    HW122694   4.003   0.353   5.998
 7265SOL    HW222695   3.952   0.199   5.984
 7266SOL     OW22696   0.290   0.856   3.858
 7266SOL    HW122697   0.371   0.799   3.874
 7266SOL    HW222698   0.226   0.807   3.799
 7267SOL     OW22699   6.443   4.458   4.704
 7267SOL    HW122700   6.492   4.381   4.663
 7267SOL    HW222701   6.502   4.539   4.704
 7268SOL     OW22702   6.079   6.951   3.899
 7268SOL    HW122703   6.004   6.975   3.960
 7268SOL    HW222704   6.158   7.008   3.920
 7269SOL     OW22705   2.525   4.511   4.495
 7269SOL    HW122706   2.604   4.526   4.436
 7269SOL    HW222707   2.486   4.600   4.521
 7270SOL     OW22708   0.791   1.261   4.844
 7270SOL    HW122709   0.824   1.344   4.799
 7270SOL    HW222710   0.860   1.189   4.835
 7271SOL     OW22711   0.806   4.622   2.911
 7271SOL    HW122712   0.840   4.545   2.966
 7271SOL    HW222713   0.715   4.599   2.875
 7272SOL     OW22714   6.342   4.331   1.540
 7272SOL    HW122715   6.415   4.325   1.471
 7272SOL    HW222716   6.298   4.242   1.549
 7273SOL     OW22717   0.816   2.084   5.707
 7273SOL    HW122718   0.736   2.064   5.651
 7273SOL    HW222719   0.882   2.009   5.700
 7274SOL     OW22720   0.849   4.753   6.567
 7274SOL    HW122721   0.818   4.686   6.500
 7274SOL    HW222722   0.772   4.780   6.625
 7275SOL     OW22723   0.715   6.048   3.381
 7275SOL    HW122724   0.759   6.001   3.458
 7275SOL    HW222725   0.644   6.110   3.417
 7276SOL     OW22726   5.195   6.232   3.949
 7276SOL    HW122727   5.274   6.291   3.941
 7276SOL    HW222728   5.223   6.137   3.935
 7277SOL     OW22729   4.554   0.560   6.790
 7277SOL    HW122730   4.652   0.552   6.810
 7277SOL    HW222731   4.501   0.547   6.874
 7278SOL     OW22732   3.482   2.799   1.992
 7278SOL    HW122733   3.487   2.899   2.002
 7278SOL    HW222734   3.513   2.755   2.076
 7279SOL     OW22735   3.099   6.367   6.332
 7279SOL    HW122736   3.014   6.315   6.332
 7279SOL    HW222737   3.118   6.402   6.241
 7280SOL     OW22738   4.559   1.632   5.929
 7280SOL    HW122739   4.550   1.725   5.964
 7280SOL    HW222740   4.588   1.571   6.004
 7281SOL     OW22741   5.142   1.469   6.119
 7281SOL    HW122742   5.095   1.517   6.193
 7281SOL    HW222743   5.240   1.489   6.124
 7282SOL     OW22744   5.434   5.332   2.156
 7282SOL    HW122745   5.511   5.269   2.162
 7282SOL    HW222746   5.450   5.409   2.218
 7283SOL     OW22747   2.144   0.982   4.031
 7283SOL    HW122748   2.136   0.909   4.099
 7283SOL    HW222749   2.198   0.949   3.953
 7284SOL     OW22750   0.681   2.611   5.286
 7284SOL    HW122751   0.733   2.552   5.347
 7284SOL    HW222752   0.585   2.581   5.285
 7285SOL     OW22753   5.546   5.100   1.817
 7285SOL    HW122754   5.477   5.172   1.806
 7285SOL    HW222755   5.627   5.122   1.763
 7286SOL     OW22756   2.135   3.931   1.166
 7286SOL    HW122757   2.162   3.846   1.211
 7286SOL    HW222758   2.147   4.008   1.229
 7287SOL     OW22759   5.866   1.778   6.224
 7287SOL    HW122760   5.957   1.776   6.184
 7287SOL    HW222761   5.842   1.872   6.248
 7288SOL     OW22762   3.081   6.746   6.204
 7288SOL    HW122763   3.167   6.783   6.238
 7288SOL    HW222764   3.007   6.769   6.267
 7289SOL     OW22765   5.439   2.062   3.857
 7289SOL    HW122766   5.441   2.152   3.813
 7289SOL    HW222767   5.508   2.059   3.929
 7290SOL     OW22768   2.872   4.822   4.096
 7290SOL    HW122769   2.930   4.794   4.173
 7290SOL    HW222770   2.928   4.860   4.023
 7291SOL     OW22771   3.130   5.041   1.934
 7291SOL    HW122772   3.180   4.962   1.971
 7291SOL    HW222773   3.033   5.032   1.958
 7292SOL     OW22774   2.867   6.931   4.679
 7292SOL    HW122775   2.926   6.850   4.671
 7292SOL    HW222776   2.856   6.955   4.775
 7293SOL     OW22777   1.432   2.596   6.148
 7293SOL    HW122778   1.378   2.561   6.072
 7293SOL    HW222779   1.473   2.520   6.198
 7294SOL     OW22780   3.704   5.689   0.558
 7294SOL    HW122781   3.734   5.780   0.530
 7294SOL    HW222782   3.773   5.621   0.531
 7295SOL     OW22783   5.420   0.057   1.627
 7295SOL    HW122784   5.477   0.010   1.560
 7295SOL    HW222785   5.419   0.005   1.713
 7296SOL     OW22786   4.293   5.115   1.825
 7296SOL    HW122787   4.385   5.094   1.859
 7296SOL    HW222788   4.291   5.210   1.792
 7297SOL     OW22789   5.322   0.025   2.142
 7297SOL    HW122790   5.278   6.984   2.204
 7297SOL    HW222791   5.342   0.110   2.190
 7298SOL     OW22792   6.003   3.687   3.939
 7298SOL    HW122793   6.096   3.712   3.909
 7298SOL    HW222794   6.001   3.590   3.963
 7299SOL     OW22795   6.111   3.587   6.677
 7299SOL    HW122796   6.155   3.560   6.763
 7299SOL    HW222797   6.147   3.531   6.602
 7300SOL     OW22798   4.616   4.894   0.983
 7300SOL    HW122799   4.650   4.809   0.943
 7300SOL    HW222800   4.587   4.956   0.909
 7301SOL     OW22801   6.944   0.768   6.407
 7301SOL    HW122802   6.894   0.836   6.354
 7301SOL    HW222803   6.908   0.676   6.386
 7302SOL     OW22804   4.802   0.900   6.157
 7302SOL    HW122805   4.847   0.972   6.209
 7302SOL    HW222806   4.704   0.918   6.152
 7303SOL     OW22807   3.345   1.055   0.621
 7303SOL    HW122808   3.411   0.984   0.595
 7303SOL    HW222809   3.344   1.127   0.553
 7304SOL     OW22810   3.332   4.186   5.229
 7304SOL    HW122811   3.386   4.258   5.272
 7304SOL    HW222812   3.390   4.132   5.167
 7305SOL     OW22813   5.430   0.765   0.008
 7305SOL    HW122814   5.377   0.848   0.024
 7305SOL    HW222815   5.428   0.707   0.089
 7306SOL     OW22816   4.751   5.163   1.746
 7306SOL    HW122817   4.659   5.129   1.723
 7306SOL    HW222818   4.761   5.166   1.845
 7307SOL     OW22819   4.266   6.652   2.565
 7307SOL    HW122820   4.228   6.617   2.479
 7307SOL    HW222821   4.361   6.622   2.574
 7308SOL     OW22822   6.377   1.576   4.611
 7308SOL    HW122823   6.321   1.611   4.536
 7308SOL    HW222824   6.324   1.512   4.666
 7309SOL     OW22825   4.373   5.891   2.037
 7309SOL    HW122826   4.414   5.820   1.978
 7309SOL    HW222827   4.440   5.964   2.051
 7310SOL     OW22828   2.376   5.291   1.637
 7310SOL    HW122829   2.439   5.330   1.570
 7310SOL    HW222830   2.381   5.192   1.634
 7311SOL     OW22831   2.796   2.308   2.326
 7311SOL    HW122832   2.835   2.304   2.235
 7311SOL    HW222833   2.832   2.233   2.381
 7312SOL     OW22834   6.685   1.701   6.093
 7312SOL    HW122835   6.647   1.609   6.080
 7312SOL    HW222836   6.782   1.700   6.068
 7313SOL     OW22837   4.280   2.773   6.752
 7313SOL    HW122838   4.357   2.803   6.809
 7313SOL    HW222839   4.206   2.741   6.811
 7314SOL     OW22840   0.428   2.672   4.432
 7314SOL    HW122841   0.334   2.686   4.462
 7314SOL    HW222842   0.469   2.761   4.409
 7315SOL     OW22843   0.145   0.448   5.241
 7315SOL    HW122844   0.050   0.477   5.232
 7315SOL    HW222845   0.178   0.469   5.333
 7316SOL     OW22846   3.812   4.132   5.428
 7316SOL    HW122847   3.851   4.194   5.496
 7316SOL    HW222848   3.885   4.088   5.376
 7317SOL     OW22849   2.786   1.141   3.777
 7317SOL    HW122850   2.853   1.132   3.850
 7317SOL    HW222851   2.814   1.213   3.715
 7318SOL     OW22852   1.507   1.838   1.558
 7318SOL    HW122853   1.588   1.830   1.615
 7318SOL    HW222854   1.503   1.762   1.493
 7319SOL     OW22855   6.762   4.136   6.294
 7319SOL    HW122856   6.680   4.108   6.245
 7319SOL    HW222857   6.758   4.234   6.313
 7320SOL     OW22858   6.678   2.473   1.868
 7320SOL    HW122859   6.741   2.547   1.893
 7320SOL    HW222860   6.637   2.494   1.779
 7321SOL     OW22861   2.668   1.257   4.686
 7321SOL    HW122862   2.758   1.253   4.728
 7321SOL    HW222863   2.674   1.228   4.591
 7322SOL     OW22864   0.398   3.311   2.683
 7322SOL    HW122865   0.385   3.329   2.781
 7322SOL    HW222866   0.331   3.244   2.653
 7323SOL     OW22867   2.099   3.716   3.155
 7323SOL    HW122868   2.121   3.626   3.192
 7323SOL    HW222869   2.125   3.787   3.221
 7324SOL     OW22870   5.411   6.102   2.574
 7324SOL    HW122871   5.382   6.139   2.662
 7324SOL    HW222872   5.502   6.063   2.582
 7325SOL     OW22873   2.838   6.337   0.204
 7325SOL    HW122874   2.744   6.322   0.234
 7325SOL    HW222875   2.891   6.379   0.278
 7326SOL     OW22876   2.821   6.692   5.008
 7326SOL    HW122877   2.731   6.722   4.975
 7326SOL    HW222878   2.842   6.603   4.969
 7327SOL     OW22879   1.552   2.337   5.446
 7327SOL    HW122880   1.613   2.259   5.457
 7327SOL    HW222881   1.602   2.412   5.403
 7328SOL     OW22882   2.602   0.199   0.131
 7328SOL    HW122883   2.528   0.132   0.118
 7328SOL    HW222884   2.606   0.260   0.051
 7329SOL     OW22885   4.299   3.400   1.386
 7329SOL    HW122886   4.377   3.428   1.442
 7329SOL    HW222887   4.321   3.315   1.339
 7330SOL     OW22888   4.335   1.861   0.402
 7330SOL    HW122889   4.365   1.822   0.314
 7330SOL    HW222890   4.304   1.955   0.388
 7331SOL     OW22891   5.367   1.114   1.347
 7331SOL    HW122892   5.344   1.180   1.276
 7331SOL    HW222893   5.407   1.033   1.306
 7332SOL     OW22894   3.834   5.368   1.127
 7332SOL    HW122895   3.890   5.422   1.065
 7332SOL    HW222896   3.886   5.290   1.160
 7333SOL     OW22897   0.907   5.242   2.432
 7333SOL    HW122898   0.917   5.148   2.399
 7333SOL    HW222899   0.977   5.261   2.500
 7334SOL     OW22900   3.844   6.792   4.205
 7334SOL    HW122901   3.917   6.807   4.138
 7334SOL    HW222902   3.840   6.869   4.268
 7335SOL     OW22903   1.720   2.437   2.753
 7335SOL    HW122904   1.783   2.484   2.815
 7335SOL    HW222905   1.626   2.463   2.774
 7336SOL     OW22906   1.917   6.760   3.838
 7336SOL    HW122907   1.978   6.827   3.795
 7336SOL    HW222908   1.956   6.730   3.925
 7337SOL     OW22909   5.828   2.662   2.299
 7337SOL    HW122910   5.820   2.700   2.391
 7337SOL    HW222911   5.851   2.735   2.234
 7338SOL     OW22912   6.488   3.156   0.101
 7338SOL    HW122913   6.488   3.250   0.137
 7338SOL    HW222914   6.451   3.094   0.170
 7339SOL     OW22915   0.966   5.220   4.646
 7339SOL    HW122916   1.050   5.181   4.610
 7339SOL    HW222917   0.911   5.258   4.572
 7340SOL     OW22918   1.852   0.177   6.336
 7340SOL    HW122919   1.774   0.236   6.314
 7340SOL    HW222920   1.831   0.125   6.419
 7341SOL     OW22921   6.520   2.388   6.906
 7341SOL    HW122922   6.532   2.427   6.997
 7341SOL    HW222923   6.594   2.325   6.886
 7342SOL     OW22924   6.819   0.074   2.489
 7342SOL    HW122925   6.830   0.144   2.418
 7342SOL    HW222926   6.874   7.017   2.465
 7343SOL     OW22927   5.317   2.827   0.425
 7343SOL    HW122928   5.314   2.737   0.468
 7343SOL    HW222929   5.230   2.845   0.379
 7344SOL     OW22930   1.112   6.372   5.904
 7344SOL    HW122931   1.072   6.446   5.851
 7344SOL    HW222932   1.210   6.388   5.915
 7345SOL     OW22933   3.157   5.061   6.221
 7345SOL    HW122934   3.120   5.154   6.228
 7345SOL    HW222935   3.123   5.006   6.296
 7346SOL     OW22936   4.682   4.930   2.566
 7346SOL    HW122937   4.690   5.014   2.512
 7346SOL    HW222938   4.755   4.866   2.539
 7347SOL     OW22939   6.106   2.101   6.541
 7347SOL    HW122940   6.039   2.128   6.471
 7347SOL    HW222941   6.124   2.003   6.534
 7348SOL     OW22942   6.713   4.478   1.474
 7348SOL    HW122943   6.703   4.397   1.532
 7348SOL    HW222944   6.727   4.559   1.531
 7349SOL     OW22945   3.756   1.686   2.038
 7349SOL    HW122946   3.755   1.691   2.138
 7349SOL    HW222947   3.764   1.778   2.000
 7350SOL     OW22948   3.701   1.048   4.371
 7350SOL    HW122949   3.681   1.043   4.274
 7350SOL    HW222950   3.680   0.960   4.414
 7351SOL     OW22951   3.382   4.995   4.000
 7351SOL    HW122952   3.337   4.973   3.913
 7351SOL    HW222953   3.443   5.073   3.987
 7352SOL     OW22954   6.132   2.888   3.924
 7352SOL    HW122955   6.088   2.817   3.979
 7352SOL    HW222956   6.227   2.863   3.907
 7353SOL     OW22957   6.553   0.539   6.579
 7353SOL    HW122958   6.456   0.516   6.581
 7353SOL    HW222959   6.565   0.627   6.531
 7354SOL     OW22960   0.075   1.687   3.466
 7354SOL    HW122961   7.000   1.695   3.472
 7354SOL    HW222962   0.099   1.597   3.429
 7355SOL     OW22963   2.511   1.835   6.933
 7355SOL    HW122964   2.478   1.787   7.014
 7355SOL    HW222965   2.500   1.934   6.947
 7356SOL     OW22966   4.504   3.843   5.877
 7356SOL    HW122967   4.524   3.762   5.822
 7356SOL    HW222968   4.445   3.818   5.954
 7357SOL     OW22969   4.821   5.815   2.358
 7357SOL    HW122970   4.916   5.784   2.371
 7357SOL    HW222971   4.784   5.772   2.276
 7358SOL     OW22972   5.865   1.143   2.866
 7358SOL    HW122973   5.857   1.239   2.837
 7358SOL    HW222974   5.785   1.093   2.834
 7359SOL     OW22975   5.015   0.268   1.682
 7359SOL    HW122976   4.934   0.290   1.736
 7359SOL    HW222977   5.022   0.333   1.605
 7360SOL     OW22978   3.281   3.521   5.140
 7360SOL    HW122979   3.314   3.562   5.055
 7360SOL    HW222980   3.207   3.577   5.176
 7361SOL     OW22981   6.570   0.496   3.264
 7361SOL    HW122982   6.658   0.452   3.280
 7361SOL    HW222983   6.503   0.427   3.235
 7362SOL     OW22984   3.085   5.305   6.853
 7362SOL    HW122985   3.051   5.326   6.761
 7362SOL    HW222986   3.175   5.345   6.865
 7363SOL     OW22987   3.796   0.859   0.226
 7363SOL    HW122988   3.877   0.916   0.208
 7363SOL    HW222989   3.726   0.914   0.271
 7364SOL     OW22990   5.530   6.404   1.609
 7364SOL    HW122991   5.498   6.355   1.527
 7364SOL    HW222992   5.598   6.348   1.656
 7365SOL     OW22993   5.251   4.744   2.456
 7365SOL    HW122994   5.332   4.710   2.408
 7365SOL    HW222995   5.174   4.682   2.441
 7366SOL     OW22996   1.684   0.572   4.114
 7366SOL    HW122997   1.774   0.614   4.103
 7366SOL    HW222998   1.620   0.639   4.150
 7367SOL     OW22999   3.872   0.381   0.144
 7367SOL    HW123000   3.828   0.291   0.151
 7367SOL    HW223001   3.815   0.450   0.186
 7368SOL     OW23002   3.548   3.561   3.697
 7368SOL    HW123003   3.626   3.581   3.756
 7368SOL    HW223004   3.573   3.574   3.602
 7369SOL     OW23005   5.348   1.970   0.109
 7369SOL    HW123006   5.322   1.989   0.203
 7369SOL    HW223007   5.399   1.884   0.104
 7370SOL     OW23008   1.933   1.349   4.307
 7370SOL    HW123009   1.945   1.253   4.334
 7370SOL    HW223010   1.998   1.371   4.234
 7371SOL     OW23011   4.425   1.403   3.949
 7371SOL    HW123012   4.361   1.470   3.989
 7371SOL    HW223013   4.482   1.364   4.021
 7372SOL     OW23014   5.789   0.953   5.426
 7372SOL    HW123015   5.697   0.932   5.461
 7372SOL    HW223016   5.848   0.979   5.503
 7373SOL     OW23017   6.152   3.485   4.602
 7373SOL    HW123018   6.135   3.470   4.505
 7373SOL    HW223019   6.080   3.440   4.656
 7374SOL     OW23020   6.552   2.685   5.768
 7374SOL    HW123021   6.550   2.754   5.696
 7374SOL    HW223022   6.458   2.662   5.795
 7375SOL     OW23023   1.351   3.526   1.794
 7375SOL    HW123024   1.266   3.541   1.844
 7375SOL    HW223025   1.408   3.608   1.799
 7376SOL     OW23026   6.995   3.466   0.667
 7376SOL    HW123027   0.016   3.383   0.700
 7376SOL    HW223028   6.899   3.466   0.695
 7377SOL     OW23029   2.097   6.664   1.044
 7377SOL    HW123030   2.021   6.627   1.097
 7377SOL    HW223031   2.109   6.761   1.065
 7378SOL     OW23032   1.215   5.414   4.476
 7378SOL    HW123033   1.211   5.353   4.397
 7378SOL    HW223034   1.123   5.439   4.503
 7379SOL     OW23035   3.971   1.112   1.795
 7379SOL    HW123036   4.070   1.097   1.798
 7379SOL    HW223037   3.926   1.052   1.860
 7380SOL     OW23038   5.156   4.272   1.592
 7380SOL    HW123039   5.112   4.200   1.646
 7380SOL    HW223040   5.108   4.359   1.607
 7381SOL     OW23041   3.743   0.165   1.301
 7381SOL    HW123042   3.694   0.138   1.383
 7381SOL    HW223043   3.749   0.265   1.296
 7382SOL     OW23044   6.043   1.267   6.035
 7382SOL    HW123045   6.071   1.261   6.131
 7382SOL    HW223046   6.052   1.361   6.004
 7383SOL     OW23047   2.232   0.606   0.812
 7383SOL    HW123048   2.232   0.558   0.900
 7383SOL    HW223049   2.228   0.705   0.829
 7384SOL     OW23050   6.595   6.821   0.987
 7384SOL    HW123051   6.557   6.766   1.061
 7384SOL    HW223052   6.522   6.855   0.929
 7385SOL     OW23053   6.323   4.191   3.209
 7385SOL    HW123054   6.330   4.156   3.303
 7385SOL    HW223055   6.400   4.157   3.155
 7386SOL     OW23056   5.446   3.491   0.023
 7386SOL    HW123057   5.439   3.539   0.110
 7386SOL    HW223058   5.377   3.419   0.019
 7387SOL     OW23059   6.299   5.960   4.815
 7387SOL    HW123060   6.397   5.945   4.808
 7387SOL    HW223061   6.252   5.904   4.746
 7388SOL     OW23062   2.255   4.572   3.247
 7388SOL    HW123063   2.226   4.665   3.274
 7388SOL    HW223064   2.180   4.508   3.264
 7389SOL     OW23065   6.080   3.021   0.219
 7389SOL    HW123066   6.084   2.968   0.303
 7389SOL    HW223067   5.986   3.023   0.185
 7390SOL     OW23068   2.398   2.756   3.680
 7390SOL    HW123069   2.388   2.828   3.612
 7390SOL    HW223070   2.336   2.775   3.757
 7391SOL     OW23071   3.088   3.627   3.312
 7391SOL    HW123072   3.035   3.549   3.277
 7391SOL    HW223073   3.116   3.685   3.236
 7392SOL     OW23074   3.120   6.937   6.509
 7392SOL    HW123075   3.141   6.875   6.584
 7392SOL    HW223076   3.185   6.923   6.435
 7393SOL     OW23077   5.698   4.981   4.040
 7393SOL    HW123078   5.665   4.898   4.084
 7393SOL    HW223079   5.625   5.021   3.985
 7394SOL     OW23080   2.443   1.720   5.612
 7394SOL    HW123081   2.446   1.807   5.564
 7394SOL    HW223082   2.376   1.660   5.567
 7395SOL     OW23083   2.525   6.178   0.881
 7395SOL    HW123084   2.479   6.138   0.803
 7395SOL    HW223085   2.465   6.173   0.961
 7396SOL     OW23086   2.124   5.149   2.543
 7396SOL    HW123087   2.114   5.055   2.511
 7396SOL    HW223088   2.094   5.212   2.471
 7397SOL     OW23089   5.818   4.303   3.841
 7397SOL    HW123090   5.852   4.230   3.781
 7397SOL    HW223091   5.769   4.371   3.786
 7398SOL     OW23092   2.650   4.763   2.455
 7398SOL    HW123093   2.720   4.776   2.525
 7398SOL    HW223094   2.685   4.796   2.367
 7399SOL     OW23095   5.254   1.887   5.822
 7399SOL    HW123096   5.211   1.814   5.768
 7399SOL    HW223097   5.279   1.963   5.761
 7400SOL     OW23098   5.305   3.513   5.669
 7400SOL    HW123099   5.323   3.611   5.669
 7400SOL    HW223100   5.232   3.491   5.734
 7401SOL     OW23101   1.545   2.158   4.328
 7401SOL    HW123102   1.532   2.071   4.279
 7401SOL    HW223103   1.602   2.219   4.273
 7402SOL     OW23104   4.001   5.569   4.387
 7402SOL    HW123105   3.951   5.622   4.318
 7402SOL    HW223106   4.001   5.472   4.361
 7403SOL     OW23107   1.580   4.162   4.466
 7403SOL    HW123108   1.578   4.091   4.396
 7403SOL    HW223109   1.639   4.134   4.541
 7404SOL     OW23110   3.364   3.424   0.941
 7404SOL    HW123111   3.321   3.341   0.974
 7404SOL    HW223112   3.294   3.494   0.924
 7405SOL     OW23113   3.875   6.550   3.824
 7405SOL    HW123114   3.950   6.510   3.876
 7405SOL    HW223115   3.898   6.548   3.726
 7406SOL     OW23116   1.068   1.920   4.911
 7406SOL    HW123117   0.971   1.938   4.895
 7406SOL    HW223118   1.119   2.005   4.906
 7407SOL     OW23119   0.984   5.664   5.386
 7407SOL    HW123120   1.074   5.626   5.365
 7407SOL    HW223121   0.992   5.763   5.401
 7408SOL     OW23122   4.219   5.113   5.472
 7408SOL    HW123123   4.227   5.182   5.544
 7408SOL    HW223124   4.218   5.022   5.513
 7409SOL     OW23125   6.801   3.790   1.344
 7409SOL    HW123126   6.878   3.761   1.401
 7409SOL    HW223127   6.792   3.728   1.266
 7410SOL     OW23128   7.001   0.792   0.895
 7410SOL    HW123129   0.020   0.756   0.978
 7410SOL    HW223130   0.047   0.818   0.829
 7411SOL     OW23131   2.660   1.568   5.207
 7411SOL    HW123132   2.658   1.659   5.167
 7411SOL    HW223133   2.695   1.503   5.140
 7412SOL     OW23134   3.553   6.983   0.120
 7412SOL    HW123135   3.548   6.984   0.021
 7412SOL    HW223136   3.617   6.912   0.150
 7413SOL     OW23137   4.581   0.772   2.962
 7413SOL    HW123138   4.592   0.689   2.908
 7413SOL    HW223139   4.576   0.851   2.900
 7414SOL     OW23140   2.799   0.976   3.560
 7414SOL    HW123141   2.790   1.037   3.639
 7414SOL    HW223142   2.893   0.977   3.527
 7415SOL     OW23143   4.061   6.603   6.353
 7415SOL    HW123144   4.008   6.621   6.436
 7415SOL    HW223145   4.084   6.691   6.310
 7416SOL     OW23146   1.772   0.747   1.707
 7416SOL    HW123147   1.730   0.797   1.630
 7416SOL    HW223148   1.868   0.727   1.686
 7417SOL     OW23149   0.521   0.868   2.746
 7417SOL    HW123150   0.582   0.858   2.667
 7417SOL    HW223151   0.565   0.830   2.827
 7418SOL     OW23152   1.458   4.643   5.992
 7418SOL    HW123153   1.411   4.636   5.904
 7418SOL    HW223154   1.429   4.568   6.052
 7419SOL     OW23155   6.789   3.634   4.113
 7419SOL    HW123156   6.857   3.650   4.042
 7419SOL    HW223157   6.706   3.597   4.072
 7420SOL     OW23158   0.437   6.659   1.392
 7420SOL    HW123159   0.387   6.690   1.311
 7420SOL    HW223160   0.379   6.599   1.447
 7421SOL     OW23161   5.950   3.901   1.104
 7421SOL    HW123162   5.915   3.808   1.109
 7421SOL    HW223163   5.987   3.928   1.193
 7422SOL     OW23164   5.541   2.602   2.347
 7422SOL    HW123165   5.630   2.628   2.309
 7422SOL    HW223166   5.506   2.677   2.403
 7423SOL     OW23167   4.863   2.167   5.682
 7423SOL    HW123168   4.910   2.236   5.627
 7423SOL    HW223169   4.919   2.143   5.761
 7424SOL     OW23170   6.819   2.592   3.732
 7424SOL    HW123171   6.773   2.517   3.780
 7424SOL    HW223172   6.886   2.634   3.793
 7425SOL     OW23173   5.489   1.195   0.967
 7425SOL    HW123174   5.495   1.122   0.899
 7425SOL    HW223175   5.581   1.215   1.003
 7426SOL     OW23176   3.258   2.819   5.832
 7426SOL    HW123177   3.222   2.766   5.755
 7426SOL    HW223178   3.193   2.815   5.908
 7427SOL     OW23179   3.280   0.712   3.412
 7427SOL    HW123180   3.350   0.763   3.363
 7427SOL    HW223181   3.297   0.614   3.402
 7428SOL     OW23182   3.932   6.194   4.761
 7428SOL    HW123183   3.999   6.218   4.831
 7428SOL    HW223184   3.884   6.110   4.788
 7429SOL     OW23185   0.794   6.938   2.656
 7429SOL    HW123186   0.830   0.007   2.665
 7429SOL    HW223187   0.737   6.916   2.736
 7430SOL     OW23188   6.935   5.137   2.802
 7430SOL    HW123189   6.844   5.099   2.790
 7430SOL    HW223190   6.940   5.186   2.889
 7431SOL     OW23191   1.022   1.458   3.350
 7431SOL    HW123192   1.074   1.438   3.267
 7431SOL    HW223193   1.065   1.411   3.427
 7432SOL     OW23194   2.187   1.002   3.030
 7432SOL    HW123195   2.265   1.041   2.982
 7432SOL    HW223196   2.213   0.914   3.069
 7433SOL     OW23197   2.632   6.659   6.609
 7433SOL    HW123198   2.628   6.580   6.671
 7433SOL    HW223199   2.645   6.627   6.515
 7434SOL     OW23200   3.666   6.679   3.969
 7434SOL    HW123201   3.726   6.604   3.940
 7434SOL    HW223202   3.702   6.719   4.053
 7435SOL     OW23203   5.025   4.158   2.702
 7435SOL    HW123204   5.070   4.104   2.773
 7435SOL    HW223205   4.959   4.100   2.653
 7436SOL     OW23206   5.506   3.027   5.755
 7436SOL    HW123207   5.479   3.119   5.785
 7436SOL    HW223208   5.441   2.960   5.791
 7437SOL     OW23209   3.185   0.064   1.012
 7437SOL    HW123210   3.136   0.061   0.925
 7437SOL    HW223211   3.153   0.142   1.066
 7438SOL     OW23212   1.854   0.378   0.171
 7438SOL    HW123213   1.822   0.286   0.193
 7438SOL    HW223214   1.948   0.389   0.203
 7439SOL     OW23215   1.288   4.716   6.561
 7439SOL    HW123216   1.330   4.780   6.496
 7439SOL    HW223217   1.203   4.757   6.597
 7440SOL     OW23218   5.479   3.941   3.948
 7440SOL    HW123219   5.508   4.013   4.011
 7440SOL    HW223220   5.379   3.931   3.952
 7441SOL     OW23221   5.279   6.072   0.816
 7441SOL    HW123222   5.318   6.052   0.726
 7441SOL    HW223223   5.253   5.986   0.861
 7442SOL     OW23224   5.121   0.667   6.354
 7442SOL    HW123225   5.148   0.708   6.267
 7442SOL    HW223226   5.154   0.572   6.358
 7443SOL     OW23227   0.335   1.202   1.794
 7443SOL    HW123228   0.405   1.268   1.822
 7443SOL    HW223229   0.341   1.121   1.852
 7444SOL     OW23230   1.926   6.694   0.275
 7444SOL    HW123231   1.882   6.617   0.322
 7444SOL    HW223232   1.899   6.694   0.179
 7445SOL     OW23233   3.780   5.860   1.319
 7445SOL    HW123234   3.699   5.862   1.261
 7445SOL    HW223235   3.756   5.890   1.412
 7446SOL     OW23236   5.372   4.782   6.709
 7446SOL    HW123237   5.282   4.792   6.753
 7446SOL    HW223238   5.401   4.687   6.715
 7447SOL     OW23239   0.230   4.989   0.290
 7447SOL    HW123240   0.269   4.898   0.306
 7447SOL    HW223241   0.171   5.014   0.366
 7448SOL     OW23242   4.790   5.823   6.725
 7448SOL    HW123243   4.711   5.876   6.693
 7448SOL    HW223244   4.766   5.774   6.809
 7449SOL     OW23245   0.239   4.773   5.754
 7449SOL    HW123246   0.265   4.850   5.812
 7449SOL    HW223247   0.140   4.769   5.745
 7450SOL     OW23248   5.640   2.277   5.816
 7450SOL    HW123249   5.674   2.245   5.905
 7450SOL    HW223250   5.707   2.340   5.777
 7451SOL     OW23251   4.582   4.406   3.157
 7451SOL    HW123252   4.535   4.328   3.199
 7451SOL    HW223253   4.589   4.392   3.058
 7452SOL     OW23254   6.478   5.753   5.844
 7452SOL    HW123255   6.465   5.724   5.939
 7452SOL    HW223256   6.490   5.672   5.787
 7453SOL     OW23257   3.985   5.601   6.447
 7453SOL    HW123258   4.054   5.616   6.377
 7453SOL    HW223259   3.969   5.687   6.497
 7454SOL     OW23260   3.817   2.373   1.160
 7454SOL    HW123261   3.719   2.384   1.148
 7454SOL    HW223262   3.864   2.392   1.073
 7455SOL     OW23263   6.560   1.442   3.310
 7455SOL    HW123264   6.562   1.531   3.265
 7455SOL    HW223265   6.653   1.409   3.322
 7456SOL     OW23266   2.686   1.910   6.266
 7456SOL    HW123267   2.748   1.834   6.246
 7456SOL    HW223268   2.602   1.900   6.213
 7457SOL     OW23269   1.402   1.300   2.244
 7457SOL    HW123270   1.491   1.309   2.290
 7457SOL    HW223271   1.416   1.269   2.150
 7458SOL     OW23272   1.545   5.484   5.394
 7458SOL    HW123273   1.549   5.439   5.304
 7458SOL    HW223274   1.539   5.415   5.466
 7459SOL     OW23275   5.910   0.145   2.505
 7459SOL    HW123276   5.961   0.088   2.440
 7459SOL    HW223277   5.931   0.242   2.487
 7460SOL     OW23278   1.564   6.587   1.432
 7460SOL    HW123279   1.595   6.651   1.502
 7460SOL    HW223280   1.628   6.511   1.425
 7461SOL     OW23281   2.471   4.681   5.280
 7461SOL    HW123282   2.453   4.685   5.182
 7461SOL    HW223283   2.473   4.773   5.317
 7462SOL     OW23284   1.431   3.905   0.919
 7462SOL    HW123285   1.427   3.889   1.018
 7462SOL    HW223286   1.482   3.989   0.901
 7463SOL     OW23287   3.972   5.066   0.913
 7463SOL    HW123288   3.875   5.049   0.930
 7463SOL    HW223289   4.016   5.098   0.997
 7464SOL     OW23290   5.952   6.804   5.560
 7464SOL    HW123291   5.939   6.733   5.629
 7464SOL    HW223292   6.049   6.813   5.539
 7465SOL     OW23293   1.987   4.969   0.066
 7465SOL    HW123294   1.926   4.896   0.097
 7465SOL    HW223295   2.056   4.931   0.004
 7466SOL     OW23296   0.528   0.134   5.435
 7466SOL    HW123297   0.562   0.123   5.342
 7466SOL    HW223298   0.428   0.134   5.435
 7467SOL     OW23299   1.261   3.794   4.998
 7467SOL    HW123300   1.195   3.849   4.946
 7467SOL    HW223301   1.269   3.829   5.091
 7468SOL     OW23302   5.789   3.338   5.703
 7468SOL    HW123303   5.845   3.411   5.741
 7468SOL    HW223304   5.693   3.356   5.722
 7469SOL     OW23305   0.479   2.004   0.476
 7469SOL    HW123306   0.535   2.082   0.447
 7469SOL    HW223307   0.504   1.978   0.569
 7470SOL     OW23308   5.718   2.714   3.306
 7470SOL    HW123309   5.649   2.672   3.365
 7470SOL    HW223310   5.800   2.656   3.304
 7471SOL     OW23311   3.729   6.800   6.728
 7471SOL    HW123312   3.729   6.807   6.629
 7471SOL    HW223313   3.646   6.752   6.758
 7472SOL     OW23314   6.434   6.963   6.165
 7472SOL    HW123315   6.435   6.948   6.067
 7472SOL    HW223316   6.339   6.979   6.195
 7473SOL     OW23317   3.568   5.817   3.695
 7473SOL    HW123318   3.513   5.742   3.734
 7473SOL    HW223319   3.596   5.792   3.602
 7474SOL     OW23320   6.008   1.963   6.984
 7474SOL    HW123321   6.062   2.025   6.926
 7474SOL    HW223322   5.969   2.015   0.036
 7475SOL     OW23323   4.857   2.188   0.973
 7475SOL    HW123324   4.818   2.117   0.914
 7475SOL    HW223325   4.858   2.275   0.923
 7476SOL     OW23326   2.273   0.632   3.177
 7476SOL    HW123327   2.211   0.616   3.254
 7476SOL    HW223328   2.326   0.715   3.194
 7477SOL     OW23329   1.396   3.060   5.630
 7477SOL    HW123330   1.483   3.090   5.592
 7477SOL    HW223331   1.381   3.104   5.719
 7478SOL     OW23332   0.312   1.264   5.766
 7478SOL    HW123333   0.279   1.358   5.756
 7478SOL    HW223334   0.335   1.227   5.676
 7479SOL     OW23335   4.861   2.759   1.244
 7479SOL    HW123336   4.954   2.727   1.264
 7479SOL    HW223337   4.799   2.728   1.315
 7480SOL     OW23338   3.811   4.872   2.541
 7480SOL    HW123339   3.747   4.832   2.475
 7480SOL    HW223340   3.868   4.939   2.495
 7481SOL     OW23341   0.044   3.646   6.922
 7481SOL    HW123342   0.085   3.734   6.900
 7481SOL    HW223343   0.085   3.575   6.865
 7482SOL     OW23344   5.519   2.051   3.333
 7482SOL    HW123345   5.456   2.118   3.294
 7482SOL    HW223346   5.601   2.044   3.275
 7483SOL     OW23347   4.254   1.876   5.976
 7483SOL    HW123348   4.226   1.970   5.958
 7483SOL    HW223349   4.277   1.831   5.890
 7484SOL     OW23350   3.098   0.268   3.546
 7484SOL    HW123351   3.115   0.218   3.631
 7484SOL    HW223352   3.101   0.206   3.469
 7485SOL     OW23353   3.863   6.388   6.545
 7485SOL    HW123354   3.874   6.358   6.450
 7485SOL    HW223355   3.771   6.424   6.558
 7486SOL     OW23356   3.189   6.763   0.722
 7486SOL    HW123357   3.134   6.842   0.748
 7486SOL    HW223358   3.282   6.793   0.700
 7487SOL     OW23359   3.544   6.427   4.661
 7487SOL    HW123360   3.640   6.400   4.660
 7487SOL    HW223361   3.494   6.366   4.724
 7488SOL     OW23362   1.266   5.916   4.093
 7488SOL    HW123363   1.269   5.996   4.153
 7488SOL    HW223364   1.172   5.901   4.063
 7489SOL     OW23365   5.454   3.161   6.781
 7489SOL    HW123366   5.414   3.082   6.826
 7489SOL    HW223367   5.389   3.199   6.715
 7490SOL     OW23368   1.503   2.803   2.508
 7490SOL    HW123369   1.562   2.722   2.508
 7490SOL    HW223370   1.519   2.856   2.424
 7491SOL     OW23371   4.283   3.882   6.678
 7491SOL    HW123372   4.265   3.807   6.742
 7491SOL    HW223373   4.352   3.854   6.612
 7492SOL     OW23374   1.197   0.452   3.980
 7492SOL    HW123375   1.116   0.393   3.977
 7492SOL    HW223376   1.207   0.498   3.892
 7493SOL     OW23377   6.237   4.371   5.088
 7493SOL    HW123378   6.144   4.353   5.119
 7493SOL    HW223379   6.239   4.372   4.988
 7494SOL     OW23380   6.598   1.199   1.896
 7494SOL    HW123381   6.566   1.215   1.989
 7494SOL    HW223382   6.683   1.249   1.881
 7495SOL     OW23383   1.615   2.911   4.689
 7495SOL    HW123384   1.543   2.970   4.725
 7495SOL    HW223385   1.651   2.950   4.604
 7496SOL     OW23386   5.913   4.154   2.697
 7496SOL    HW123387   5.859   4.217   2.752
 7496SOL    HW223388   5.897   4.060   2.729
 7497SOL     OW23389   6.386   6.590   1.518
 7497SOL    HW123390   6.327   6.523   1.562
 7497SOL    HW223391   6.482   6.567   1.536
 7498SOL     OW23392   3.144   6.375   3.155
 7498SOL    HW123393   3.045   6.382   3.165
 7498SOL    HW223394   3.168   6.374   3.058
 7499SOL     OW23395   2.882   1.386   3.640
 7499SOL    HW123396   2.797   1.410   3.593
 7499SOL    HW223397   2.895   1.447   3.718
 7500SOL     OW23398   4.166   1.028   3.543
 7500SOL    HW123399   4.221   0.999   3.621
 7500SOL    HW223400   4.069   1.018   3.565
 7501SOL     OW23401   6.864   2.452   5.344
 7501SOL    HW123402   6.831   2.496   5.428
 7501SOL    HW223403   6.959   2.478   5.328
 7502SOL     OW23404   4.448   0.693   4.088
 7502SOL    HW123405   4.363   0.723   4.045
 7502SOL    HW223406   4.526   0.730   4.037
 7503SOL     OW23407   1.729   5.625   2.144
 7503SOL    HW123408   1.792   5.688   2.100
 7503SOL    HW223409   1.638   5.633   2.102
 7504SOL     OW23410   5.851   6.423   4.675
 7504SOL    HW123411   5.761   6.383   4.695
 7504SOL    HW223412   5.871   6.494   4.741
 7505SOL     OW23413   7.013   6.288   4.982
 7505SOL    HW123414   0.078   6.279   5.027
 7505SOL    HW223415   0.001   6.284   4.883
 7506SOL     OW23416   3.498   1.724   3.851
 7506SOL    HW123417   3.564   1.763   3.916
 7506SOL    HW223418   3.469   1.795   3.786
 7507SOL     OW23419   6.093   4.399   5.918
 7507SOL    HW123420   6.037   4.450   5.982
 7507SOL    HW223421   6.171   4.455   5.889
 7508SOL     OW23422   2.724   5.684   0.440
 7508SOL    HW123423   2.753   5.739   0.361
 7508SOL    HW223424   2.627   5.661   0.430
 7509SOL     OW23425   5.951   4.783   2.426
 7509SOL    HW123426   6.026   4.726   2.392
 7509SOL    HW223427   5.987   4.851   2.491
 7510SOL     OW23428   3.064   3.906   2.543
 7510SOL    HW123429   3.151   3.886   2.498
 7510SOL    HW223430   3.081   3.942   2.634
 7511SOL     OW23431   4.936   6.475   4.181
 7511SOL    HW123432   4.930   6.535   4.261
 7511SOL    HW223433   4.848   6.471   4.135
 7512SOL     OW23434   3.537   0.891   0.865
 7512SOL    HW123435   3.624   0.866   0.908
 7512SOL    HW223436   3.547   0.887   0.765
 7513SOL     OW23437   1.540   1.807   2.052
 7513SOL    HW123438   1.539   1.755   2.138
 7513SOL    HW223439   1.533   1.904   2.073
 7514SOL     OW23440   1.235   6.126   1.985
 7514SOL    HW123441   1.174   6.110   1.906
 7514SOL    HW223442   1.275   6.217   1.978
 7515SOL     OW23443   0.527   4.233   5.421
 7515SOL    HW123444   0.452   4.207   5.360
 7515SOL    HW223445   0.538   4.332   5.420
 7516SOL     OW23446   1.732   6.740   5.511
 7516SOL    HW123447   1.754   6.728   5.607
 7516SOL    HW223448   1.811   6.777   5.462
 7517SOL     OW23449   1.361   1.345   5.898
 7517SOL    HW123450   1.434   1.392   5.848
 7517SOL    HW223451   1.321   1.407   5.965
 7518SOL     OW23452   4.942   1.950   4.224
 7518SOL    HW123453   4.950   1.951   4.124
 7518SOL    HW223454   4.947   1.855   4.256
 7519SOL     OW23455   4.042   6.433   4.024
 7519SOL    HW123456   4.036   6.461   4.120
 7519SOL    HW223457   4.077   6.340   4.019
 7520SOL     OW23458   1.365   1.680   0.587
 7520SOL    HW123459   1.371   1.602   0.525
 7520SOL    HW223460   1.367   1.765   0.533
 7521SOL     OW23461   4.011   1.180   4.504
 7521SOL    HW123462   4.070   1.157   4.582
 7521SOL    HW223463   3.986   1.277   4.509
 7522SOL     OW23464   2.579   6.922   4.042
 7522SOL    HW123465   2.493   6.948   4.087
 7522SOL    HW223466   2.563   6.914   3.944
 7523SOL     OW23467   5.564   0.979   0.815
 7523SOL    HW123468   5.513   0.912   0.871
 7523SOL    HW223469   5.649   1.003   0.861
 7524SOL     OW23470   0.691   3.546   4.357
 7524SOL    HW123471   0.759   3.474   4.366
 7524SOL    HW223472   0.692   3.582   4.264
 7525SOL     OW23473   3.771   4.792   5.992
 7525SOL    HW123474   3.862   4.784   6.033
 7525SOL    HW223475   3.770   4.743   5.904
 7526SOL     OW23476   2.667   3.746   1.013
 7526SOL    HW123477   2.758   3.787   1.013
 7526SOL    HW223478   2.631   3.744   0.919
 7527SOL     OW23479   3.991   5.135   3.342
 7527SOL    HW123480   4.072   5.174   3.386
 7527SOL    HW223481   3.994   5.035   3.350
 7528SOL     OW23482   6.618   2.722   6.035
 7528SOL    HW123483   6.663   2.810   6.050
 7528SOL    HW223484   6.594   2.713   5.938
 7529SOL     OW23485   6.256   3.721   3.848
 7529SOL    HW123486   6.322   3.755   3.915
 7529SOL    HW223487   6.295   3.644   3.798
 7530SOL     OW23488   0.689   2.395   2.287
 7530SOL    HW123489   0.601   2.392   2.336
 7530SOL    HW223490   0.726   2.488   2.292
 7531SOL     OW23491   3.672   2.112   4.150
 7531SOL    HW123492   3.622   2.114   4.236
 7531SOL    HW223493   3.770   2.119   4.169
 7532SOL     OW23494   4.991   5.883   6.155
 7532SOL    HW123495   5.049   5.868   6.234
 7532SOL    HW223496   4.995   5.803   6.095
 7533SOL     OW23497   4.410   4.391   1.654
 7533SOL    HW123498   4.381   4.372   1.560
 7533SOL    HW223499   4.434   4.306   1.699
 7534SOL     OW23500   4.338   6.830   5.333
 7534SOL    HW123501   4.323   6.926   5.358
 7534SOL    HW223502   4.429   6.801   5.364
 7535SOL     OW23503   0.723   6.350   3.433
 7535SOL    HW123504   0.779   6.297   3.496
 7535SOL    HW223505   0.685   6.430   3.480
 7536SOL     OW23506   6.203   6.418   3.866
 7536SOL    HW123507   6.111   6.389   3.893
 7536SOL    HW223508   6.226   6.503   3.915
 7537SOL     OW23509   2.039   6.473   2.629
 7537SOL    HW123510   2.048   6.392   2.688
 7537SOL    HW223511   2.122   6.485   2.575
 7538SOL     OW23512   1.161   4.079   0.540
 7538SOL    HW123513   1.193   4.000   0.487
 7538SOL    HW223514   1.212   4.083   0.626
 7539SOL     OW23515   6.921   6.990   4.735
 7539SOL    HW123516   6.833   6.944   4.724
 7539SOL    HW223517   6.994   6.929   4.704
 7540SOL     OW23518   5.638   4.919   3.140
 7540SOL    HW123519   5.664   4.900   3.045
 7540SOL    HW223520   5.613   4.834   3.186
 7541SOL     OW23521   2.645   4.211   5.467
 7541SOL    HW123522   2.739   4.242   5.453
 7541SOL    HW223523   2.642   4.111   5.466
 7542SOL     OW23524   6.251   6.245   4.584
 7542SOL    HW123525   6.261   6.292   4.672
 7542SOL    HW223526   6.340   6.207   4.556
 7543SOL     OW23527   2.736   1.536   0.145
 7543SOL    HW123528   2.796   1.459   0.168
 7543SOL    HW223529   2.786   1.602   0.090
 7544SOL     OW23530   6.626   1.622   4.326
 7544SOL    HW123531   6.669   1.573   4.402
 7544SOL    HW223532   6.560   1.562   4.281
 7545SOL     OW23533   1.849   5.800   5.598
 7545SOL    HW123534   1.763   5.788   5.549
 7545SOL    HW223535   1.924   5.805   5.533
 7546SOL     OW23536   2.257   2.559   2.048
 7546SOL    HW123537   2.344   2.581   2.091
 7546SOL    HW223538   2.273   2.525   1.955
 7547SOL     OW23539   4.025   0.207   1.649
 7547SOL    HW123540   4.028   0.111   1.622
 7547SOL    HW223541   4.066   0.218   1.739
 7548SOL     OW23542   3.570   3.010   6.274
 7548SOL    HW123543   3.640   2.946   6.241
 7548SOL    HW223544   3.480   2.979   6.245
 7549SOL     OW23545   5.453   1.070   4.879
 7549SOL    HW123546   5.534   1.074   4.938
 7549SOL    HW223547   5.447   0.979   4.836
 7550SOL     OW23548   2.951   5.110   4.605
 7550SOL    HW123549   3.009   5.034   4.577
 7550SOL    HW223550   3.006   5.177   4.655
 7551SOL     OW23551   6.649   2.365   5.966
 7551SOL    HW123552   6.675   2.274   5.998
 7551SOL    HW223553   6.682   2.434   6.030
 7552SOL     OW23554   2.530   6.791   5.001
 7552SOL    HW123555   2.516   6.879   4.955
 7552SOL    HW223556   2.511   6.717   4.937
 7553SOL     OW23557   5.671   6.439   5.616
 7553SOL    HW123558   5.597   6.410   5.555
 7553SOL    HW223559   5.646   6.524   5.662
 7554SOL     OW23560   4.140   1.296   0.748
 7554SOL    HW123561   4.213   1.230   0.767
 7554SOL    HW223562   4.156   1.379   0.801
 7555SOL     OW23563   4.329   4.977   4.251
 7555SOL    HW123564   4.245   4.928   4.275
 7555SOL    HW223565   4.394   4.914   4.209
 7556SOL     OW23566   0.634   6.738   1.555
 7556SOL    HW123567   0.565   6.732   1.483
 7556SOL    HW223568   0.640   6.649   1.602
 7557SOL     OW23569   4.803   6.733   1.308
 7557SOL    HW123570   4.825   6.702   1.216
 7557SOL    HW223571   4.708   6.766   1.310
 7558SOL     OW23572   0.722   1.883   3.908
 7558SOL    HW123573   0.817   1.855   3.917
 7558SOL    HW223574   0.681   1.893   3.999
 7559SOL     OW23575   2.631   2.021   4.706
 7559SOL    HW123576   2.662   1.959   4.779
 7559SOL    HW223577   2.540   2.056   4.728
 7560SOL     OW23578   1.381   0.925   6.031
 7560SOL    HW123579   1.305   0.961   5.979
 7560SOL    HW223580   1.446   0.999   6.051
 7561SOL     OW23581   6.178   1.651   5.481
 7561SOL    HW123582   6.167   1.652   5.382
 7561SOL    HW223583   6.275   1.641   5.503
 7562SOL     OW23584   1.907   5.618   3.287
 7562SOL    HW123585   1.938   5.680   3.358
 7562SOL    HW223586   1.845   5.550   3.327
 7563SOL     OW23587   3.664   6.072   2.452
 7563SOL    HW123588   3.685   6.082   2.355
 7563SOL    HW223589   3.677   5.977   2.480
 7564SOL     OW23590   3.639   1.682   5.406
 7564SOL    HW123591   3.633   1.690   5.306
 7564SOL    HW223592   3.559   1.724   5.448
 7565SOL     OW23593   6.552   3.729   5.854
 7565SOL    HW123594   6.621   3.712   5.924
 7565SOL    HW223595   6.505   3.643   5.833
 7566SOL     OW23596   4.633   4.813   1.471
 7566SOL    HW123597   4.590   4.751   1.537
 7566SOL    HW223598   4.580   4.815   1.387
 7567SOL     OW23599   0.800   6.946   4.191
 7567SOL    HW123600   0.805   6.890   4.274
 7567SOL    HW223601   0.791   0.018   4.216
 7568SOL     OW23602   6.073   5.396   1.512
 7568SOL    HW123603   6.114   5.372   1.424
 7568SOL    HW223604   6.047   5.493   1.512
 7569SOL     OW23605   4.965   3.432   0.330
 7569SOL    HW123606   5.000   3.383   0.250
 7569SOL    HW223607   4.870   3.459   0.314
 7570SOL     OW23608   0.789   3.385   2.377
 7570SOL    HW123609   0.805   3.473   2.422
 7570SOL    HW223610   0.693   3.360   2.386
 7571SOL     OW23611   4.425   2.043   2.291
 7571SOL    HW123612   4.336   2.054   2.336
 7571SOL    HW223613   4.434   2.109   2.217
 7572SOL     OW23614   4.629   0.019   3.647
 7572SOL    HW123615   4.544   0.045   3.692
 7572SOL    HW223616   4.689   0.099   3.641
 7573SOL     OW23617   4.160   6.782   6.163
 7573SOL    HW123618   4.250   6.758   6.127
 7573SOL    HW223619   4.171   6.849   6.237
 7574SOL     OW23620   0.540   2.254   3.950
 7574SOL    HW123621   0.565   2.340   3.995
 7574SOL    HW223622   0.570   2.256   3.855
 7575SOL     OW23623   0.280   6.320   2.734
 7575SOL    HW123624   0.192   6.342   2.694
 7575SOL    HW223625   0.341   6.399   2.727
 7576SOL     OW23626   5.197   2.541   6.925
 7576SOL    HW123627   5.292   2.534   6.895
 7576SOL    HW223628   5.166   2.635   6.915
 7577SOL     OW23629   0.721   0.792   0.245
 7577SOL    HW123630   0.776   0.859   0.194
 7577SOL    HW223631   0.677   0.730   0.180
 7578SOL     OW23632   6.671   5.858   3.585
 7578SOL    HW123633   6.673   5.958   3.588
 7578SOL    HW223634   6.576   5.827   3.587
 7579SOL     OW23635   0.783   1.854   6.906
 7579SOL    HW123636   0.735   1.772   6.938
 7579SOL    HW223637   0.771   1.863   6.807
 7580SOL     OW23638   2.226   4.934   3.685
 7580SOL    HW123639   2.247   5.011   3.746
 7580SOL    HW223640   2.224   4.849   3.738
 7581SOL     OW23641   6.891   0.633   2.195
 7581SOL    HW123642   6.888   0.601   2.290
 7581SOL    HW223643   6.980   0.675   2.177
 7582SOL     OW23644   2.064   1.802   6.669
 7582SOL    HW123645   2.118   1.868   6.618
 7582SOL    HW223646   2.060   1.716   6.619
 7583SOL     OW23647   5.361   3.313   3.031
 7583SOL    HW123648   5.342   3.225   2.987
 7583SOL    HW223649   5.384   3.298   3.127
 7584SOL     OW23650   0.571   1.450   3.274
 7584SOL    HW123651   0.553   1.355   3.248
 7584SOL    HW223652   0.639   1.453   3.347
 7585SOL     OW23653   0.720   1.185   5.890
 7585SOL    HW123654   0.669   1.270   5.905
 7585SOL    HW223655   0.818   1.206   5.889
 7586SOL     OW23656   1.687   0.238   3.067
 7586SOL    HW123657   1.679   0.152   3.117
 7586SOL    HW223658   1.768   0.235   3.009
 7587SOL     OW23659   4.096   0.039   1.167
 7587SOL    HW123660   4.089   6.993   1.096
 7587SOL    HW223661   4.070   0.000   1.255
 7588SOL     OW23662   2.505   2.581   4.534
 7588SOL    HW123663   2.596   2.592   4.496
 7588SOL    HW223664   2.509   2.518   4.612
 7589SOL     OW23665   0.438   0.199   2.665
 7589SOL    HW123666   0.504   0.235   2.599
 7589SOL    HW223667   0.486   0.151   2.738
 7590SOL     OW23668   6.292   0.848   0.196
 7590SOL    HW123669   6.274   0.944   0.178
 7590SOL    HW223670   6.244   0.820   0.280
 7591SOL     OW23671   3.335   2.893   4.699
 7591SOL    HW123672   3.342   2.798   4.728
 7591SOL    HW223673   3.255   2.935   4.743
 7592SOL     OW23674   6.597   6.462   4.156
 7592SOL    HW123675   6.588   6.381   4.099
 7592SOL    HW223676   6.674   6.517   4.123
 7593SOL     OW23677   0.334   0.911   5.356
 7593SOL    HW123678   0.304   0.890   5.263
 7593SOL    HW223679   0.424   0.871   5.372
 7594SOL     OW23680   0.152   3.878   6.817
 7594SOL    HW123681   0.085   3.952   6.828
 7594SOL    HW223682   0.116   3.810   6.754
 7595SOL     OW23683   1.363   3.604   6.976
 7595SOL    HW123684   1.415   3.606   0.037
 7595SOL    HW223685   1.280   3.548   6.989
 7596SOL     OW23686   2.974   1.604   6.124
 7596SOL    HW123687   3.003   1.546   6.048
 7596SOL    HW223688   2.887   1.647   6.100
 7597SOL     OW23689   1.573   4.917   1.948
 7597SOL    HW123690   1.578   5.013   1.922
 7597SOL    HW223691   1.500   4.904   2.015
 7598SOL     OW23692   6.116   0.719   1.951
 7598SOL    HW123693   6.047   0.758   2.012
 7598SOL    HW223694   6.157   0.639   1.995
 7599SOL     OW23695   3.208   3.922   1.112
 7599SOL    HW123696   3.160   3.835   1.124
 7599SOL    HW223697   3.164   3.975   1.039
 7600SOL     OW23698   1.301   6.941   3.914
 7600SOL    HW123699   1.339   6.853   3.942
 7600SOL    HW223700   1.270   6.935   3.819
 7601SOL     OW23701   2.920   6.828   2.043
 7601SOL    HW123702   2.883   6.905   2.095
 7601SOL    HW223703   2.939   6.857   1.949
 7602SOL     OW23704   0.249   1.377   0.973
 7602SOL    HW123705   0.156   1.350   1.001
 7602SOL    HW223706   0.309   1.377   1.053
 7603SOL     OW23707   3.727   0.918   6.045
 7603SOL    HW123708   3.733   0.822   6.073
 7603SOL    HW223709   3.782   0.932   5.963
 7604SOL     OW23710   0.685   2.540   5.023
 7604SOL    HW123711   0.684   2.577   5.116
 7604SOL    HW223712   0.600   2.564   4.976
 7605SOL     OW23713   2.226   6.161   6.910
 7605SOL    HW123714   2.134   6.181   6.875
 7605SOL    HW223715   2.270   6.247   6.937
 7606SOL     OW23716   6.707   1.031   3.757
 7606SOL    HW123717   6.774   1.032   3.831
 7606SOL    HW223718   6.645   0.953   3.770
 7607SOL     OW23719   1.719   6.108   5.332
 7607SOL    HW123720   1.776   6.187   5.310
 7607SOL    HW223721   1.759   6.026   5.290
 7608SOL     OW23722   6.325   2.258   6.532
 7608SOL    HW123723   6.244   2.203   6.510
 7608SOL    HW223724   6.354   2.309   6.451
 7609SOL     OW23725   2.602   1.607   4.648
 7609SOL    HW123726   2.517   1.561   4.624
 7609SOL    HW223727   2.586   1.672   4.722
 7610SOL     OW23728   4.388   5.342   4.614
 7610SOL    HW123729   4.486   5.335   4.631
 7610SOL    HW223730   4.354   5.431   4.644
 7611SOL     OW23731   4.611   2.825   0.859
 7611SOL    HW123732   4.550   2.784   0.791
 7611SOL    HW223733   4.590   2.923   0.867
 7612SOL     OW23734   3.959   1.758   2.640
 7612SOL    HW123735   3.917   1.760   2.730
 7612SOL    HW223736   4.016   1.676   2.631
 7613SOL     OW23737   0.920   0.504   1.049
 7613SOL    HW123738   0.896   0.556   1.131
 7613SOL    HW223739   0.844   0.444   1.023
 7614SOL     OW23740   5.580   3.953   0.188
 7614SOL    HW123741   5.671   3.911   0.187
 7614SOL    HW223742   5.552   3.975   0.095
 7615SOL     OW23743   6.179   3.069   4.963
 7615SOL    HW123744   6.163   2.998   4.894
 7615SOL    HW223745   6.249   3.132   4.930
 7616SOL     OW23746   6.543   6.913   3.051
 7616SOL    HW123747   6.465   6.852   3.039
 7616SOL    HW223748   6.580   6.903   3.143
 7617SOL     OW23749   6.343   4.073   3.465
 7617SOL    HW123750   6.437   4.053   3.439
 7617SOL    HW223751   6.313   4.008   3.535
 7618SOL     OW23752   2.456   2.697   0.219
 7618SOL    HW123753   2.411   2.785   0.210
 7618SOL    HW223754   2.448   2.646   0.134
 7619SOL     OW23755   1.848   1.311   4.566
 7619SOL    HW123756   1.939   1.274   4.585
 7619SOL    HW223757   1.849   1.359   4.479
 7620SOL     OW23758   3.091   4.742   0.974
 7620SOL    HW123759   3.181   4.706   0.952
 7620SOL    HW223760   3.033   4.738   0.893
 7621SOL     OW23761   6.173   3.973   0.256
 7621SOL    HW123762   6.102   4.017   0.201
 7621SOL    HW223763   6.161   3.999   0.352
 7622SOL     OW23764   3.227   3.897   1.796
 7622SOL    HW123765   3.238   3.806   1.837
 7622SOL    HW223766   3.130   3.924   1.802
 7623SOL     OW23767   5.039   4.111   1.798
 7623SOL    HW123768   4.986   4.029   1.775
 7623SOL    HW223769   5.086   4.096   1.886
 7624SOL     OW23770   1.282   3.415   2.623
 7624SOL    HW123771   1.285   3.321   2.590
 7624SOL    HW223772   1.257   3.416   2.719
 7625SOL     OW23773   5.175   0.843   1.959
 7625SOL    HW123774   5.196   0.909   1.887
 7625SOL    HW223775   5.078   0.850   1.983
 7626SOL     OW23776   4.508   0.608   6.522
 7626SOL    HW123777   4.411   0.595   6.501
 7626SOL    HW223778   4.521   0.602   6.621
 7627SOL     OW23779   3.928   3.122   6.301
 7627SOL    HW123780   4.012   3.175   6.309
 7627SOL    HW223781   3.856   3.179   6.261
 7628SOL     OW23782   3.378   2.709   0.396
 7628SOL    HW123783   3.338   2.796   0.426
 7628SOL    HW223784   3.426   2.723   0.310
 7629SOL     OW23785   5.755   2.383   3.047
 7629SOL    HW123786   5.657   2.396   3.034
 7629SOL    HW223787   5.805   2.427   2.972
 7630SOL     OW23788   1.342   6.562   3.791
 7630SOL    HW123789   1.244   6.543   3.799
 7630SOL    HW223790   1.377   6.593   3.879
 7631SOL     OW23791   1.097   0.356   5.474
 7631SOL    HW123792   1.078   0.327   5.568
 7631SOL    HW223793   1.010   0.371   5.426
 7632SOL     OW23794   5.137   5.698   0.619
 7632SOL    HW123795   5.158   5.718   0.524
 7632SOL    HW223796   5.055   5.640   0.624
 7633SOL     OW23797   6.401   0.976   1.494
 7633SOL    HW123798   6.318   0.925   1.518
 7633SOL    HW223799   6.413   1.053   1.556
 7634SOL     OW23800   6.794   2.066   6.680
 7634SOL    HW123801   6.825   1.971   6.686
 7634SOL    HW223802   6.697   2.069   6.656
 7635SOL     OW23803   1.928   3.058   5.620
 7635SOL    HW123804   1.862   3.016   5.557
 7635SOL    HW223805   2.004   3.095   5.567
 7636SOL     OW23806   6.606   3.739   4.334
 7636SOL    HW123807   6.633   3.700   4.423
 7636SOL    HW223808   6.669   3.708   4.264
 7637SOL     OW23809   0.938   4.422   4.541
 7637SOL    HW123810   0.880   4.391   4.465
 7637SOL    HW223811   0.972   4.343   4.592
 7638SOL     OW23812   0.340   6.047   1.226
 7638SOL    HW123813   0.382   5.964   1.190
 7638SOL    HW223814   0.380   6.127   1.181
 7639SOL     OW23815   1.774   1.145   0.573
 7639SOL    HW123816   1.691   1.101   0.606
 7639SOL    HW223817   1.769   1.243   0.591
 7640SOL     OW23818   3.177   1.351   0.911
 7640SOL    HW123819   3.135   1.434   0.874
 7640SOL    HW223820   3.217   1.370   1.000
 7641SOL     OW23821   0.025   3.962   4.488
 7641SOL    HW123822   0.120   3.989   4.499
 7641SOL    HW223823   7.008   3.947   4.578
 7642SOL     OW23824   5.279   0.680   3.116
 7642SOL    HW123825   5.315   0.773   3.122
 7642SOL    HW223826   5.352   0.618   3.088
 7643SOL     OW23827   5.209   3.478   4.321
 7643SOL    HW123828   5.235   3.475   4.417
 7643SOL    HW223829   5.260   3.407   4.271
 7644SOL     OW23830   5.098   3.493   0.774
 7644SOL    HW123831   5.090   3.430   0.696
 7644SOL    HW223832   5.121   3.584   0.741
 7645SOL     OW23833   3.595   4.799   0.146
 7645SOL    HW123834   3.520   4.785   0.211
 7645SOL    HW223835   3.659   4.723   0.152
 7646SOL     OW23836   6.683   1.811   0.227
 7646SOL    HW123837   6.674   1.902   0.266
 7646SOL    HW223838   6.749   1.758   0.281
 7647SOL     OW23839   6.846   2.372   4.157
 7647SOL    HW123840   6.821   2.290   4.208
 7647SOL    HW223841   6.823   2.359   4.060
 7648SOL     OW23842   2.169   2.070   2.094
 7648SOL    HW123843   2.259   2.058   2.135
 7648SOL    HW223844   2.150   2.167   2.084
 7649SOL     OW23845   3.880   1.455   6.737
 7649SOL    HW123846   3.963   1.488   6.782
 7649SOL    HW223847   3.890   1.464   6.638
 7650SOL     OW23848   4.285   2.483   0.196
 7650SOL    HW123849   4.264   2.500   0.100
 7650SOL    HW223850   4.213   2.522   0.253
 7651SOL     OW23851   3.396   5.114   6.376
 7651SOL    HW123852   3.319   5.080   6.322
 7651SOL    HW223853   3.379   5.099   6.473
 7652SOL     OW23854   1.084   0.990   4.098
 7652SOL    HW123855   1.029   0.993   4.181
 7652SOL    HW223856   1.172   0.947   4.117
 7653SOL     OW23857   2.482   0.603   6.702
 7653SOL    HW123858   2.520   0.584   6.612
 7653SOL    HW223859   2.438   0.693   6.701
 7654SOL     OW23860   6.533   1.736   6.338
 7654SOL    HW123861   6.475   1.812   6.310
 7654SOL    HW223862   6.599   1.716   6.266
 7655SOL     OW23863   3.593   1.585   4.280
 7655SOL    HW123864   3.507   1.535   4.286
 7655SOL    HW223865   3.579   1.680   4.309
 7656SOL     OW23866   5.994   4.073   0.034
 7656SOL    HW123867   5.942   3.989   0.018
 7656SOL    HW223868   5.956   4.147   7.002
 7657SOL     OW23869   1.414   4.161   4.893
 7657SOL    HW123870   1.476   4.239   4.901
 7657SOL    HW223871   1.359   4.153   4.977
 7658SOL     OW23872   2.730   0.742   0.729
 7658SOL    HW123873   2.786   0.824   0.741
 7658SOL    HW223874   2.776   0.679   0.666
 7659SOL     OW23875   4.994   4.436   5.889
 7659SOL    HW123876   4.934   4.406   5.963
 7659SOL    HW223877   5.047   4.358   5.855
 7660SOL     OW23878   6.846   5.502   5.774
 7660SOL    HW123879   6.866   5.405   5.791
 7660SOL    HW223880   6.848   5.552   5.860
 7661SOL     OW23881   3.697   1.435   5.031
 7661SOL    HW123882   3.623   1.368   5.024
 7661SOL    HW223883   3.719   1.470   4.940
 7662SOL     OW23884   6.692   6.014   1.368
 7662SOL    HW123885   6.674   5.925   1.410
 7662SOL    HW223886   6.768   6.006   1.304
 7663SOL     OW23887   0.492   5.296   4.958
 7663SOL    HW123888   0.508   5.201   4.983
 7663SOL    HW223889   0.555   5.322   4.885
 7664SOL     OW23890   3.784   2.014   2.494
 7664SOL    HW123891   3.762   1.918   2.511
 7664SOL    HW223892   3.711   2.056   2.440
 7665SOL     OW23893   3.823   0.416   5.750
 7665SOL    HW123894   3.820   0.400   5.848
 7665SOL    HW223895   3.741   0.464   5.721
 7666SOL     OW23896   5.393   4.352   3.999
 7666SOL    HW123897   5.385   4.434   3.942
 7666SOL    HW223898   5.330   4.282   3.966
 7667SOL     OW23899   4.141   6.342   2.475
 7667SOL    HW123900   4.177   6.395   2.397
 7667SOL    HW223901   4.049   6.311   2.453
 7668SOL     OW23902   1.751   5.772   0.888
 7668SOL    HW123903   1.682   5.769   0.816
 7668SOL    HW223904   1.796   5.683   0.895
 7669SOL     OW23905   2.666   1.174   6.713
 7669SOL    HW123906   2.639   1.174   6.617
 7669SOL    HW223907   2.631   1.257   6.757
 7670SOL     OW23908   1.120   0.619   0.943
 7670SOL    HW123909   1.084   0.711   0.925
 7670SOL    HW223910   1.045   0.560   0.974
 7671SOL     OW23911   3.301   6.821   0.996
 7671SOL    HW123912   3.271   6.912   1.025
 7671SOL    HW223913   3.235   6.782   0.933
 7672SOL     OW23914   5.009   4.399   1.860
 7672SOL    HW123915   5.034   4.434   1.950
 7672SOL    HW223916   5.038   4.304   1.851
 7673SOL     OW23917   1.835   6.734   4.940
 7673SOL    HW123918   1.805   6.820   4.899
 7673SOL    HW223919   1.756   6.678   4.962
 7674SOL     OW23920   4.237   5.981   4.959
 7674SOL    HW123921   4.310   5.995   4.892
 7674SOL    HW223922   4.164   5.926   4.918
 7675SOL     OW23923   4.929   5.999   3.024
 7675SOL    HW123924   4.955   6.006   3.120
 7675SOL    HW223925   4.965   5.915   2.985
 7676SOL     OW23926   3.784   3.052   5.400
 7676SOL    HW123927   3.783   3.146   5.434
 7676SOL    HW223928   3.712   3.040   5.332
 7677SOL     OW23929   6.482   4.938   0.088
 7677SOL    HW123930   6.390   4.919   0.123
 7677SOL    HW223931   6.548   4.877   0.132
 7678SOL     OW23932   2.932   1.694   4.980
 7678SOL    HW123933   2.902   1.599   4.974
 7678SOL    HW223934   2.933   1.723   5.076
 7679SOL     OW23935   3.735   5.894   4.648
 7679SOL    HW123936   3.758   5.968   4.584
 7679SOL    HW223937   3.795   5.816   4.631
 7680SOL     OW23938   1.867   6.703   4.658
 7680SOL    HW123939   1.827   6.687   4.748
 7680SOL    HW223940   1.963   6.676   4.659
 7681SOL     OW23941   2.137   2.823   5.823
 7681SOL    HW123942   2.227   2.856   5.796
 7681SOL    HW223943   2.071   2.898   5.821
 7682SOL     OW23944   3.242   1.075   2.654
 7682SOL    HW123945   3.236   1.096   2.751
 7682SOL    HW223946   3.166   1.017   2.627
 7683SOL     OW23947   1.213   4.548   4.517
 7683SOL    HW123948   1.291   4.487   4.535
 7683SOL    HW223949   1.128   4.498   4.532
 7684SOL     OW23950   5.051   3.341   1.166
 7684SOL    HW123951   5.063   3.278   1.243
 7684SOL    HW223952   5.104   3.308   1.088
 7685SOL     OW23953   2.690   0.338   0.942
 7685SOL    HW123954   2.638   0.329   0.857
 7685SOL    HW223955   2.670   0.426   0.984
 7686SOL     OW23956   6.746   6.769   4.552
 7686SOL    HW123957   6.808   6.747   4.628
 7686SOL    HW223958   6.670   6.704   4.550
 7687SOL     OW23959   5.462   3.515   6.026
 7687SOL    HW123960   5.445   3.613   6.038
 7687SOL    HW223961   5.437   3.467   6.109
 7688SOL     OW23962   6.885   3.518   6.366
 7688SOL    HW123963   6.890   3.479   6.458
 7688SOL    HW223964   6.933   3.459   6.302
 7689SOL     OW23965   4.909   0.869   1.964
 7689SOL    HW123966   4.889   0.845   1.869
 7689SOL    HW223967   4.851   0.945   1.992
 7690SOL     OW23968   6.106   5.184   2.442
 7690SOL    HW123969   6.086   5.120   2.516
 7690SOL    HW223970   6.127   5.133   2.358
 7691SOL     OW23971   4.874   3.329   4.084
 7691SOL    HW123972   4.791   3.275   4.075
 7691SOL    HW223973   4.865   3.394   4.159
 7692SOL     OW23974   2.788   6.687   2.372
 7692SOL    HW123975   2.826   6.606   2.418
 7692SOL    HW223976   2.773   6.666   2.276
 7693SOL     OW23977   3.042   0.825   1.678
 7693SOL    HW123978   3.127   0.877   1.665
 7693SOL    HW223979   2.964   0.887   1.676
 7694SOL     OW23980   4.499   1.897   6.557
 7694SOL    HW123981   4.469   1.827   6.622
 7694SOL    HW223982   4.591   1.928   6.581
 7695SOL     OW23983   5.175   0.189   3.835
 7695SOL    HW123984   5.197   0.091   3.836
 7695SOL    HW223985   5.229   0.234   3.763
 7696SOL     OW23986   2.164   2.534   5.961
 7696SOL    HW123987   2.167   2.601   5.888
 7696SOL    HW223988   2.191   2.577   6.047
 7697SOL     OW23989   5.864   6.625   3.252
 7697SOL    HW123990   5.812   6.561   3.308
 7697SOL    HW223991   5.858   6.717   3.291
 7698SOL     OW23992   6.213   3.397   1.089
 7698SOL    HW123993   6.300   3.445   1.091
 7698SOL    HW223994   6.160   3.426   1.009
 7699SOL     OW23995   4.870   6.357   5.674
 7699SOL    HW123996   4.916   6.410   5.603
 7699SOL    HW223997   4.935   6.294   5.717
 7700SOL     OW23998   5.264   5.604   1.628
 7700SOL    HW123999   5.174   5.591   1.671
 7700SOL    HW224000   5.335   5.565   1.687
 7701SOL     OW24001   1.495   2.403   6.320
 7701SOL    HW124002   1.442   2.438   6.398
 7701SOL    HW224003   1.440   2.336   6.270
 7702SOL     OW24004   5.164   6.965   4.538
 7702SOL    HW124005   5.234   6.902   4.573
 7702SOL    HW224006   5.089   6.972   4.604
 7703SOL     OW24007   0.179   6.611   5.284
 7703SOL    HW124008   0.239   6.692   5.287
 7703SOL    HW224009   0.198   6.558   5.202
 7704SOL     OW24010   0.964   1.611   4.984
 7704SOL    HW124011   1.018   1.563   4.915
 7704SOL    HW224012   1.019   1.683   5.025
 7705SOL     OW24013   1.176   5.173   6.939
 7705SOL    HW124014   1.153   5.116   6.861
 7705SOL    HW224015   1.093   5.213   6.978
 7706SOL     OW24016   3.624   3.117   2.658
 7706SOL    HW124017   3.713   3.148   2.691
 7706SOL    HW224018   3.629   3.021   2.633
 7707SOL     OW24019   6.539   4.379   6.887
 7707SOL    HW124020   6.526   4.427   6.973
 7707SOL    HW224021   6.451   4.367   6.841
 7708SOL     OW24022   1.782   0.238   4.186
 7708SOL    HW124023   1.813   0.167   4.250
 7708SOL    HW224024   1.687   0.262   4.206
 7709SOL     OW24025   6.790   4.847   1.465
 7709SOL    HW124026   6.874   4.818   1.511
 7709SOL    HW224027   6.763   4.937   1.500
 7710SOL     OW24028   6.212   2.771   1.104
 7710SOL    HW124029   6.301   2.816   1.113
 7710SOL    HW224030   6.157   2.819   1.037
 7711SOL     OW24031   0.218   4.447   4.754
 7711SOL    HW124032   0.274   4.376   4.711
 7711SOL    HW224033   0.249   4.537   4.724
 7712SOL     OW24034   0.410   5.041   5.201
 7712SOL    HW124035   0.458   5.093   5.272
 7712SOL    HW224036   0.314   5.068   5.199
 7713SOL     OW24037   1.440   4.691   0.090
 7713SOL    HW124038   1.449   4.739   0.177
 7713SOL    HW224039   1.428   4.758   0.016
 7714SOL     OW24040   6.214   1.877   4.939
 7714SOL    HW124041   6.135   1.937   4.952
 7714SOL    HW224042   6.229   1.862   4.841
 7715SOL     OW24043   3.743   3.281   5.529
 7715SOL    HW124044   3.780   3.291   5.622
 7715SOL    HW224045   3.643   3.286   5.533
 7716SOL     OW24046   1.034   6.946   6.011
 7716SOL    HW124047   1.021   6.876   5.941
 7716SOL    HW224048   1.076   6.905   6.092
 7717SOL     OW24049   0.207   2.461   6.394
 7717SOL    HW124050   0.280   2.479   6.460
 7717SOL    HW224051   0.118   2.470   6.439
 7718SOL     OW24052   0.549   3.323   3.244
 7718SOL    HW124053   0.492   3.241   3.243
 7718SOL    HW224054   0.515   3.385   3.314
 7719SOL     OW24055   1.639   5.398   5.101
 7719SOL    HW124056   1.588   5.312   5.102
 7719SOL    HW224057   1.708   5.395   5.028
 7720SOL     OW24058   4.415   1.087   6.631
 7720SOL    HW124059   4.447   1.000   6.592
 7720SOL    HW224060   4.315   1.090   6.627
 7721SOL     OW24061   6.662   6.657   2.392
 7721SOL    HW124062   6.679   6.610   2.305
 7721SOL    HW224063   6.631   6.750   2.374
 7722SOL     OW24064   1.312   6.227   3.520
 7722SOL    HW124065   1.269   6.274   3.443
 7722SOL    HW224066   1.409   6.213   3.502
 7723SOL     OW24067   4.884   4.016   6.767
 7723SOL    HW124068   4.830   4.085   6.719
 7723SOL    HW224069   4.923   4.057   6.850
 7724SOL     OW24070   1.876   3.701   0.995
 7724SOL    HW124071   1.944   3.647   1.044
 7724SOL    HW224072   1.810   3.739   1.061
 7725SOL     OW24073   5.482   2.944   4.599
 7725SOL    HW124074   5.419   2.890   4.656
 7725SOL    HW224075   5.562   2.970   4.653
 7726SOL     OW24076   1.655   3.614   6.675
 7726SOL    HW124077   1.618   3.699   6.713
 7726SOL    HW224078   1.755   3.621   6.669
 7727SOL     OW24079   4.920   0.727   2.430
 7727SOL    HW124080   5.017   0.713   2.409
 7727SOL    HW224081   4.867   0.716   2.346
 7728SOL     OW24082   1.959   4.111   4.865
 7728SOL    HW124083   1.907   4.026   4.857
 7728SOL    HW224084   2.051   4.091   4.898
 7729SOL     OW24085   6.934   0.987   2.792
 7729SOL    HW124086   7.011   1.042   2.823
 7729SOL    HW224087   6.891   0.942   2.870
 7730SOL     OW24088   6.798   4.633   5.396
 7730SOL    HW124089   6.887   4.588   5.404
 7730SOL    HW224090   6.727   4.571   5.428
 7731SOL     OW24091   6.387   0.224   5.793
 7731SOL    HW124092   6.381   0.223   5.893
 7731SOL    HW224093   6.458   0.162   5.763
 7732SOL     OW24094   3.953   0.431   6.392
 7732SOL    HW124095   3.971   0.516   6.343
 7732SOL    HW224096   3.897   0.371   6.335
 7733SOL     OW24097   6.871   5.471   1.847
 7733SOL    HW124098   6.971   5.459   1.853
 7733SOL    HW224099   6.850   5.553   1.795
 7734SOL     OW24100   3.605   4.133   3.664
 7734SOL    HW124101   3.677   4.130   3.732
 7734SOL    HW224102   3.521   4.094   3.702
 7735SOL     OW24103   0.431   6.267   1.121
 7735SOL    HW124104   0.474   6.328   1.187
 7735SOL    HW224105   0.376   6.320   1.056
 7736SOL     OW24106   1.530   2.417   6.934
 7736SOL    HW124107   1.566   2.327   6.913
 7736SOL    HW224108   1.477   2.451   6.857
 7737SOL     OW24109   4.430   4.434   6.778
 7737SOL    HW124110   4.428   4.349   6.831
 7737SOL    HW224111   4.447   4.413   6.682
 7738SOL     OW24112   1.927   0.540   5.505
 7738SOL    HW124113   1.902   0.469   5.439
 7738SOL    HW224114   2.009   0.512   5.554
 7739SOL     OW24115   1.908   2.236   0.335
 7739SOL    HW124116   1.912   2.252   0.236
 7739SOL    HW224117   1.998   2.254   0.375
 7740SOL     OW24118   2.416   0.268   5.035
 7740SOL    HW124119   2.355   0.257   5.113
 7740SOL    HW224120   2.487   0.334   5.057
 7741SOL     OW24121   0.610   4.744   6.284
 7741SOL    HW124122   0.703   4.767   6.255
 7741SOL    HW224123   0.564   4.691   6.212
 7742SOL     OW24124   4.555   2.207   3.820
 7742SOL    HW124125   4.495   2.285   3.800
 7742SOL    HW224126   4.627   2.235   3.884
 7743SOL     OW24127   3.844   1.760   5.989
 7743SOL    HW124128   3.890   1.801   5.910
 7743SOL    HW224129   3.786   1.829   6.033
 7744SOL     OW24130   0.974   0.063   4.474
 7744SOL    HW124131   1.031   0.127   4.422
 7744SOL    HW224132   0.967   7.000   4.424
 7745SOL     OW24133   3.001   0.016   1.306
 7745SOL    HW124134   2.975   0.105   1.342
 7745SOL    HW224135   2.940   7.015   1.231
 7746SOL     OW24136   0.474   5.545   1.785
 7746SOL    HW124137   0.507   5.551   1.691
 7746SOL    HW224138   0.410   5.620   1.803
 7747SOL     OW24139   6.785   6.060   0.663
 7747SOL    HW124140   6.722   5.997   0.617
 7747SOL    HW224141   6.751   6.154   0.653
 7748SOL     OW24142   4.352   1.696   5.767
 7748SOL    HW124143   4.441   1.667   5.804
 7748SOL    HW224144   4.319   1.626   5.704
 7749SOL     OW24145   3.947   3.481   3.182
 7749SOL    HW124146   3.880   3.424   3.133
 7749SOL    HW224147   3.996   3.424   3.248
 7750SOL     OW24148   5.139   5.083   5.601
 7750SOL    HW124149   5.146   5.165   5.544
 7750SOL    HW224150   5.212   5.019   5.576
 7751SOL     OW24151   6.865   1.292   4.539
 7751SOL    HW124152   6.888   1.380   4.498
 7751SOL    HW224153   6.797   1.305   4.611
 7752SOL     OW24154   6.554   5.123   5.333
 7752SOL    HW124155   6.591   5.113   5.425
 7752SOL    HW224156   6.612   5.072   5.268
 7753SOL     OW24157   2.518   0.661   5.291
 7753SOL    HW124158   2.551   0.715   5.368
 7753SOL    HW224159   2.423   0.686   5.271
 7754SOL     OW24160   6.641   1.067   1.348
 7754SOL    HW124161   6.583   1.025   1.418
 7754SOL    HW224162   6.698   1.138   1.389
 7755SOL     OW24163   1.515   6.197   5.137
 7755SOL    HW124164   1.450   6.139   5.088
 7755SOL    HW224165   1.553   6.147   5.214
 7756SOL     OW24166   4.186   5.574   3.125
 7756SOL    HW124167   4.121   5.564   3.200
 7756SOL    HW224168   4.210   5.670   3.114
 7757SOL     OW24169   3.410   6.642   5.611
 7757SOL    HW124170   3.399   6.596   5.699
 7757SOL    HW224171   3.508   6.650   5.590
 7758SOL     OW24172   3.137   2.725   6.541
 7758SOL    HW124173   3.071   2.671   6.489
 7758SOL    HW224174   3.102   2.818   6.554
 7759SOL     OW24175   2.164   1.048   5.078
 7759SOL    HW124176   2.081   0.994   5.062
 7759SOL    HW224177   2.217   1.053   4.994
 7760SOL     OW24178   5.214   1.638   3.614
 7760SOL    HW124179   5.299   1.691   3.621
 7760SOL    HW224180   5.153   1.663   3.689
 7761SOL     OW24181   4.027   0.520   6.666
 7761SOL    HW124182   3.957   0.506   6.596
 7761SOL    HW224183   3.990   0.579   6.738
 7762SOL     OW24184   1.574   2.353   0.371
 7762SOL    HW124185   1.635   2.427   0.401
 7762SOL    HW224186   1.627   2.284   0.323
 7763SOL     OW24187   2.383   2.202   1.535
 7763SOL    HW124188   2.467   2.160   1.569
 7763SOL    HW224189   2.378   2.296   1.569
 7764SOL     OW24190   4.055   3.845   2.327
 7764SOL    HW124191   4.037   3.826   2.423
 7764SOL    HW224192   4.125   3.915   2.319
 7765SOL     OW24193   0.283   1.910   2.522
 7765SOL    HW124194   0.359   1.974   2.537
 7765SOL    HW224195   0.209   1.958   2.475
 7766SOL     OW24196   6.864   3.719   0.499
 7766SOL    HW124197   6.791   3.667   0.543
 7766SOL    HW224198   6.951   3.674   0.514
 7767SOL     OW24199   5.598   4.280   5.296
 7767SOL    HW124200   5.623   4.189   5.263
 7767SOL    HW224201   5.501   4.281   5.321
 7768SOL     OW24202   4.204   5.281   1.556
 7768SOL    HW124203   4.198   5.337   1.638
 7768SOL    HW224204   4.114   5.276   1.512
 7769SOL     OW24205   6.601   2.051   2.139
 7769SOL    HW124206   6.665   2.048   2.062
 7769SOL    HW224207   6.614   2.136   2.190
 7770SOL     OW24208   3.331   5.681   0.906
 7770SOL    HW124209   3.391   5.665   0.984
 7770SOL    HW224210   3.359   5.764   0.858
 7771SOL     OW24211   2.506   0.713   4.657
 7771SOL    HW124212   2.492   0.650   4.733
 7771SOL    HW224213   2.548   0.797   4.691
 7772SOL     OW24214   5.671   1.162   5.070
 7772SOL    HW124215   5.722   1.190   5.151
 7772SOL    HW224216   5.701   1.071   5.042
 7773SOL     OW24217   4.094   4.596   5.567
 7773SOL    HW124218   4.056   4.548   5.487
 7773SOL    HW224219   4.185   4.561   5.586
 7774SOL     OW24220   4.824   1.466   6.760
 7774SOL    HW124221   4.917   1.471   6.725
 7774SOL    HW224222   4.806   1.375   6.797
 7775SOL     OW24223   2.508   6.604   2.141
 7775SOL    HW124224   2.602   6.612   2.107
 7775SOL    HW224225   2.459   6.536   2.085
 7776SOL     OW24226   3.905   4.083   0.903
 7776SOL    HW124227   3.809   4.102   0.927
 7776SOL    HW224228   3.917   4.091   0.804
 7777SOL     OW24229   1.420   0.308   6.856
 7777SOL    HW124230   1.416   0.225   6.912
 7777SOL    HW224231   1.361   0.378   6.896
 7778SOL     OW24232   4.972   1.219   1.607
 7778SOL    HW124233   5.001   1.271   1.688
 7778SOL    HW224234   5.032   1.140   1.595
 7779SOL     OW24235   4.316   2.890   0.173
 7779SOL    HW124236   4.316   2.944   0.257
 7779SOL    HW224237   4.368   2.806   0.188
 7780SOL     OW24238   1.021   0.214   4.703
 7780SOL    HW124239   1.057   0.162   4.780
 7780SOL    HW224240   1.028   0.159   4.620
 7781SOL     OW24241   1.310   4.781   5.415
 7781SOL    HW124242   1.233   4.757   5.355
 7781SOL    HW224243   1.377   4.707   5.413
 7782SOL     OW24244   4.014   5.012   0.141
 7782SOL    HW124245   4.026   5.111   0.142
 7782SOL    HW224246   4.088   4.969   0.089
 7783SOL     OW24247   2.593   4.998   6.695
 7783SOL    HW124248   2.561   5.007   6.601
 7783SOL    HW224249   2.668   5.061   6.712
 7784SOL     OW24250   0.485   2.792   6.886
 7784SOL    HW124251   0.526   2.809   6.797
 7784SOL    HW224252   0.529   2.850   6.955
 7785SOL     OW24253   2.126   5.703   5.121
 7785SOL    HW124254   2.193   5.666   5.185
 7785SOL    HW224255   2.106   5.798   5.146
 7786SOL     OW24256   3.457   4.136   4.551
 7786SOL    HW124257   3.360   4.125   4.570
 7786SOL    HW224258   3.508   4.138   4.637
 7787SOL     OW24259   2.945   2.362   5.258
 7787SOL    HW124260   2.904   2.310   5.182
 7787SOL    HW224261   3.042   2.376   5.240
 7788SOL     OW24262   0.542   1.666   0.209
 7788SOL    HW124263   0.455   1.709   0.231
 7788SOL    HW224264   0.574   1.613   0.287
 7789SOL     OW24265   1.955   0.487   1.400
 7789SOL    HW124266   2.013   0.487   1.482
 7789SOL    HW224267   1.866   0.525   1.423
 7790SOL     OW24268   6.166   3.459   2.898
 7790SOL    HW124269   6.122   3.394   2.836
 7790SOL    HW224270   6.252   3.491   2.858
 7791SOL     OW24271   0.722   4.451   4.852
 7791SOL    HW124272   0.805   4.480   4.899
 7791SOL    HW224273   0.652   4.521   4.862
 7792SOL     OW24274   2.337   5.750   6.165
 7792SOL    HW124275   2.317   5.716   6.074
 7792SOL    HW224276   2.377   5.677   6.220
 7793SOL     OW24277   1.599   0.751   6.587
 7793SOL    HW124278   1.678   0.692   6.603
 7793SOL    HW224279   1.630   0.842   6.561
 7794SOL     OW24280   5.311   5.648   3.000
 7794SOL    HW124281   5.338   5.562   2.957
 7794SOL    HW224282   5.381   5.678   3.064
 7795SOL     OW24283   1.611   5.280   5.612
 7795SOL    HW124284   1.655   5.192   5.628
 7795SOL    HW224285   1.638   5.344   5.684
 7796SOL     OW24286   3.844   3.240   4.190
 7796SOL    HW124287   3.833   3.148   4.227
 7796SOL    HW224288   3.807   3.307   4.255
 7797SOL     OW24289   0.949   0.008   3.099
 7797SOL    HW124290   1.017   0.063   3.049
 7797SOL    HW224291   0.928   6.950   3.046
 7798SOL     OW24292   4.019   5.842   6.542
 7798SOL    HW124293   4.055   5.811   6.630
 7798SOL    HW224294   4.064   5.928   6.516
 7799SOL     OW24295   6.299   4.612   1.376
 7799SOL    HW124296   6.357   4.531   1.374
 7799SOL    HW224297   6.206   4.587   1.347
 7800SOL     OW24298   0.640   6.237   2.015
 7800SOL    HW124299   0.644   6.248   2.115
 7800SOL    HW224300   0.718   6.183   1.985
 7801SOL     OW24301   3.544   2.561   5.315
 7801SOL    HW124302   3.586   2.643   5.277
 7801SOL    HW224303   3.454   2.582   5.352
 7802SOL     OW24304   5.806   1.968   0.770
 7802SOL    HW124305   5.765   1.896   0.714
 7802SOL    HW224306   5.735   2.034   0.796
 7803SOL     OW24307   3.195   4.092   5.716
 7803SOL    HW124308   3.112   4.149   5.711
 7803SOL    HW224309   3.221   4.064   5.623
 7804SOL     OW24310   5.057   1.498   6.588
 7804SOL    HW124311   5.154   1.476   6.595
 7804SOL    HW224312   5.038   1.538   6.498
 7805SOL     OW24313   5.544   3.249   2.124
 7805SOL    HW124314   5.518   3.297   2.208
 7805SOL    HW224315   5.479   3.273   2.051
 7806SOL     OW24316   4.813   3.149   6.634
 7806SOL    HW124317   4.892   3.117   6.687
 7806SOL    HW224318   4.738   3.172   6.696
 7807SOL     OW24319   0.073   3.218   0.025
 7807SOL    HW124320   0.149   3.249   6.992
 7807SOL    HW224321   0.062   3.280   0.102
 7808SOL     OW24322   0.735   1.471   5.303
 7808SOL    HW124323   0.784   1.390   5.270
 7808SOL    HW224324   0.712   1.530   5.225
 7809SOL     OW24325   1.665   5.416   5.887
 7809SOL    HW124326   1.582   5.462   5.919
 7809SOL    HW224327   1.703   5.359   5.959
 7810SOL     OW24328   2.335   1.072   6.821
 7810SOL    HW124329   2.375   1.146   6.874
 7810SOL    HW224330   2.307   1.107   6.731
 7811SOL     OW24331   0.551   4.658   4.847
 7811SOL    HW124332   0.524   4.739   4.795
 7811SOL    HW224333   0.481   4.637   4.916
 7812SOL     OW24334   0.532   1.850   4.098
 7812SOL    HW124335   0.500   1.924   4.039
 7812SOL    HW224336   0.460   1.783   4.110
 7813SOL     OW24337   6.426   2.361   1.048
 7813SOL    HW124338   6.465   2.452   1.062
 7813SOL    HW224339   6.361   2.363   0.973
 7814SOL     OW24340   1.877   3.798   4.097
 7814SOL    HW124341   1.975   3.775   4.096
 7814SOL    HW224342   1.866   3.896   4.083
 7815SOL     OW24343   0.052   1.425   6.197
 7815SOL    HW124344   0.056   1.344   6.138
 7815SOL    HW224345   0.080   1.505   6.145
 7816SOL     OW24346   1.194   4.110   5.133
 7816SOL    HW124347   1.271   4.141   5.188
 7816SOL    HW224348   1.112   4.106   5.191
 7817SOL     OW24349   5.301   3.564   5.259
 7817SOL    HW124350   5.267   3.640   5.315
 7817SOL    HW224351   5.242   3.553   5.179
 7818SOL     OW24352   4.892   5.043   2.748
 7818SOL    HW124353   4.814   4.987   2.774
 7818SOL    HW224354   4.975   4.987   2.746
 7819SOL     OW24355   0.285   1.698   1.210
 7819SOL    HW124356   0.241   1.781   1.175
 7819SOL    HW224357   0.216   1.627   1.224
 7820SOL     OW24358   2.024   0.027   6.191
 7820SOL    HW124359   1.955   0.094   6.216
 7820SOL    HW224360   2.108   0.075   6.164
 7821SOL     OW24361   2.736   5.499   0.788
 7821SOL    HW124362   2.686   5.415   0.808
 7821SOL    HW224363   2.746   5.552   0.873
 7822SOL     OW24364   1.369   6.436   5.854
 7822SOL    HW124365   1.443   6.441   5.922
 7822SOL    HW224366   1.406   6.459   5.764
 7823SOL     OW24367   1.887   4.340   5.001
 7823SOL    HW124368   1.895   4.254   4.950
 7823SOL    HW224369   1.898   4.322   5.099
 7824SOL     OW24370   0.626   3.547   5.639
 7824SOL    HW124371   0.649   3.452   5.617
 7824SOL    HW224372   0.709   3.603   5.641
 7825SOL     OW24373   3.175   0.852   6.924
 7825SOL    HW124374   3.170   0.819   6.830
 7825SOL    HW224375   3.151   0.949   6.926
 7826SOL     OW24376   0.804   3.240   5.911
 7826SOL    HW124377   0.834   3.193   5.829
 7826SOL    HW224378   0.861   3.320   5.927
 7827SOL     OW24379   6.358   5.351   4.530
 7827SOL    HW124380   6.375   5.264   4.575
 7827SOL    HW224381   6.429   5.368   4.462
 7828SOL     OW24382   0.596   4.949   6.709
 7828SOL    HW124383   0.642   4.903   6.784
 7828SOL    HW224384   0.526   5.011   6.745
 7829SOL     OW24385   3.949   3.434   0.557
 7829SOL    HW124386   4.026   3.438   0.620
 7829SOL    HW224387   3.903   3.523   0.554
 7830SOL     OW24388   2.603   5.740   3.851
 7830SOL    HW124389   2.613   5.664   3.786
 7830SOL    HW224390   2.644   5.822   3.813
 7831SOL     OW24391   1.631   6.979   6.944
 7831SOL    HW124392   1.594   0.035   6.990
 7831SOL    HW224393   1.577   6.960   6.862
 7832SOL     OW24394   6.504   0.790   4.804
 7832SOL    HW124395   6.577   0.857   4.814
 7832SOL    HW224396   6.484   0.749   4.894
 7833SOL     OW24397   0.995   0.623   3.314
 7833SOL    HW124398   0.902   0.634   3.350
 7833SOL    HW224399   1.048   0.706   3.332
 7834SOL     OW24400   6.474   3.270   5.699
 7834SOL    HW124401   6.408   3.197   5.681
 7834SOL    HW224402   6.541   3.273   5.624
 7835SOL     OW24403   4.255   2.701   5.617
 7835SOL    HW124404   4.234   2.603   5.614
 7835SOL    HW224405   4.191   2.747   5.677
 7836SOL     OW24406   3.305   3.900   4.178
 7836SOL    HW124407   3.382   3.839   4.159
 7836SOL    HW224408   3.337   3.980   4.229
 7837SOL     OW24409   0.418   5.862   6.794
 7837SOL    HW124410   0.473   5.921   6.735
 7837SOL    HW224411   0.406   5.907   6.883
 7838SOL     OW24412   4.443   5.567   2.440
 7838SOL    HW124413   4.418   5.658   2.407
 7838SOL    HW224414   4.458   5.571   2.539
 7839SOL     OW24415   6.016   3.096   4.250
 7839SOL    HW124416   5.958   3.099   4.168
 7839SOL    HW224417   6.112   3.092   4.223
 7840SOL     OW24418   1.873   3.049   4.151
 7840SOL    HW124419   1.847   3.037   4.248
 7840SOL    HW224420   1.798   3.093   4.102
 7841SOL     OW24421   3.863   2.143   6.546
 7841SOL    HW124422   3.783   2.180   6.498
 7841SOL    HW224423   3.938   2.208   6.540
 7842SOL     OW24424   1.115   0.596   1.719
 7842SOL    HW124425   1.028   0.644   1.714
 7842SOL    HW224426   1.186   0.652   1.677
 7843SOL     OW24427   0.216   6.158   2.933
 7843SOL    HW124428   0.252   6.224   2.866
 7843SOL    HW224429   0.243   6.066   2.906
 7844SOL     OW24430   3.809   0.179   2.171
 7844SOL    HW124431   3.909   0.180   2.172
 7844SOL    HW224432   3.778   0.113   2.102
 7845SOL     OW24433   6.367   2.626   0.935
 7845SOL    HW124434   6.346   2.660   0.844
 7845SOL    HW224435   6.295   2.655   0.999
 7846SOL     OW24436   1.095   1.078   0.502
 7846SOL    HW124437   1.105   1.078   0.403
 7846SOL    HW224438   1.109   1.171   0.537
 7847SOL     OW24439   5.767   4.623   6.261
 7847SOL    HW124440   5.763   4.532   6.302
 7847SOL    HW224441   5.696   4.681   6.301
 7848SOL     OW24442   3.201   4.630   0.593
 7848SOL    HW124443   3.178   4.602   0.500
 7848SOL    HW224444   3.265   4.707   0.589
 7849SOL     OW24445   4.383   5.397   0.219
 7849SOL    HW124446   4.370   5.460   0.143
 7849SOL    HW224447   4.323   5.425   0.295
 7850SOL     OW24448   6.988   1.181   4.256
 7850SOL    HW124449   0.037   1.128   4.299
 7850SOL    HW224450   6.912   1.192   4.319
 7851SOL     OW24451   0.229   4.602   1.000
 7851SOL    HW124452   0.178   4.516   0.996
 7851SOL    HW224453   0.227   4.647   0.911
 7852SOL     OW24454   1.313   2.877   6.879
 7852SOL    HW124455   1.377   2.909   6.808
 7852SOL    HW224456   1.359   2.880   6.967
 7853SOL     OW24457   4.199   3.069   1.773
 7853SOL    HW124458   4.142   3.027   1.703
 7853SOL    HW224459   4.292   3.080   1.738
 7854SOL     OW24460   4.629   1.397   6.995
 7854SOL    HW124461   4.679   1.314   7.017
 7854SOL    HW224462   4.677   1.477   0.008
 7855SOL     OW24463   5.307   6.656   4.039
 7855SOL    HW124464   5.300   6.561   4.072
 7855SOL    HW224465   5.345   6.656   3.947
 7856SOL     OW24466   2.165   6.486   5.181
 7856SOL    HW124467   2.153   6.508   5.085
 7856SOL    HW224468   2.179   6.388   5.192
 7857SOL     OW24469   6.137   4.191   0.978
 7857SOL    HW124470   6.093   4.227   0.895
 7857SOL    HW224471   6.186   4.264   1.024
 7858SOL     OW24472   6.970   4.005   6.415
 7858SOL    HW124473   0.013   4.078   6.427
 7858SOL    HW224474   6.887   4.043   6.374
 7859SOL     OW24475   5.074   1.754   0.439
 7859SOL    HW124476   5.031   1.839   0.408
 7859SOL    HW224477   5.104   1.701   0.360
 7860SOL     OW24478   2.623   1.142   4.420
 7860SOL    HW124479   2.606   1.073   4.350
 7860SOL    HW224480   2.628   1.232   4.377
 7861SOL     OW24481   2.345   6.641   0.515
 7861SOL    HW124482   2.304   6.715   0.569
 7861SOL    HW224483   2.285   6.621   0.437
 7862SOL     OW24484   1.710   6.371   0.097
 7862SOL    HW124485   1.804   6.376   0.064
 7862SOL    HW224486   1.661   6.299   0.048
 7863SOL     OW24487   1.469   4.105   3.838
 7863SOL    HW124488   1.569   4.101   3.840
 7863SOL    HW224489   1.436   4.079   3.747
 7864SOL     OW24490   2.225   5.943   5.518
 7864SOL    HW124491   2.284   5.926   5.439
 7864SOL    HW224492   2.166   6.021   5.499
 7865SOL     OW24493   5.941   3.960   3.136
 7865SOL    HW124494   5.969   3.967   3.232
 7865SOL    HW224495   6.000   4.019   3.080
 7866SOL     OW24496   0.835   0.869   5.566
 7866SOL    HW124497   0.888   0.850   5.649
 7866SOL    HW224498   0.771   0.944   5.584
 7867SOL     OW24499   4.419   5.111   3.761
 7867SOL    HW124500   4.400   5.130   3.857
 7867SOL    HW224501   4.338   5.071   3.718
 7868SOL     OW24502   3.010   6.219   1.486
 7868SOL    HW124503   2.916   6.188   1.503
 7868SOL    HW224504   3.032   6.207   1.390
 7869SOL     OW24505   6.021   4.816   6.863
 7869SOL    HW124506   5.930   4.853   6.844
 7869SOL    HW224507   6.079   4.888   6.902
 7870SOL     OW24508   5.986   6.292   3.947
 7870SOL    HW124509   6.000   6.193   3.946
 7870SOL    HW224510   5.892   6.312   3.975
 7871SOL     OW24511   4.317   1.097   0.737
 7871SOL    HW124512   4.352   1.122   0.646
 7871SOL    HW224513   4.236   1.039   0.727
 7872SOL     OW24514   0.997   5.446   3.059
 7872SOL    HW124515   1.053   5.381   3.007
 7872SOL    HW224516   1.008   5.538   3.021
 7873SOL     OW24517   4.775   1.842   0.168
 7873SOL    HW124518   4.728   1.929   0.182
 7873SOL    HW224519   4.870   1.860   0.140
 7874SOL     OW24520   5.757   2.250   0.448
 7874SOL    HW124521   5.729   2.224   0.540
 7874SOL    HW224522   5.692   2.213   0.382
 7875SOL     OW24523   6.046   4.295   6.251
 7875SOL    HW124524   6.127   4.285   6.193
 7875SOL    HW224525   6.061   4.369   6.317
 7876SOL     OW24526   1.017   0.220   3.616
 7876SOL    HW124527   1.021   0.275   3.531
 7876SOL    HW224528   1.080   0.143   3.608
 7877SOL     OW24529   6.794   2.663   3.302
 7877SOL    HW124530   6.883   2.709   3.309
 7877SOL    HW224531   6.790   2.613   3.216
 7878SOL     OW24532   4.126   6.056   2.891
 7878SOL    HW124533   4.192   5.981   2.883
 7878SOL    HW224534   4.157   6.120   2.962
 7879SOL     OW24535   3.140   4.858   2.933
 7879SOL    HW124536   3.069   4.926   2.951
 7879SOL    HW224537   3.131   4.824   2.840
 7880SOL     OW24538   1.277   4.643   2.613
 7880SOL    HW124539   1.221   4.560   2.626
 7880SOL    HW224540   1.353   4.642   2.678
 7881SOL     OW24541   4.944   4.105   3.675
 7881SOL    HW124542   4.938   4.028   3.611
 7881SOL    HW224543   4.861   4.108   3.730
 7882SOL     OW24544   0.654   3.226   0.065
 7882SOL    HW124545   0.742   3.196   0.101
 7882SOL    HW224546   0.667   3.265   6.998
 7883SOL     OW24547   0.863   0.390   5.327
 7883SOL    HW124548   0.790   0.347   5.273
 7883SOL    HW224549   0.888   0.477   5.284
 7884SOL     OW24550   0.868   2.929   4.378
 7884SOL    HW124551   0.891   2.847   4.325
 7884SOL    HW224552   0.949   2.987   4.385
 7885SOL     OW24553   0.094   6.110   6.432
 7885SOL    HW124554   7.024   6.104   6.398
 7885SOL    HW224555   0.119   6.206   6.442
 7886SOL     OW24556   5.355   4.407   1.158
 7886SOL    HW124557   5.289   4.383   1.087
 7886SOL    HW224558   5.315   4.473   1.220
 7887SOL     OW24559   4.547   3.240   6.003
 7887SOL    HW124560   4.496   3.325   5.988
 7887SOL    HW224561   4.568   3.198   5.915
 7888SOL     OW24562   5.348   5.861   4.970
 7888SOL    HW124563   5.377   5.857   4.874
 7888SOL    HW224564   5.327   5.769   5.002
 7889SOL     OW24565   6.962   4.797   3.050
 7889SOL    HW124566   0.015   4.860   3.063
 7889SOL    HW224567   6.964   4.761   2.957
 7890SOL     OW24568   1.842   3.113   2.246
 7890SOL    HW124569   1.757   3.132   2.295
 7890SOL    HW224570   1.889   3.198   2.227
 7891SOL     OW24571   1.181   4.858   2.826
 7891SOL    HW124572   1.240   4.805   2.765
 7891SOL    HW224573   1.229   4.941   2.854
 7892SOL     OW24574   2.154   2.331   5.363
 7892SOL    HW124575   2.219   2.266   5.404
 7892SOL    HW224576   2.177   2.424   5.391
 7893SOL     OW24577   6.077   6.611   1.536
 7893SOL    HW124578   6.148   6.656   1.481
 7893SOL    HW224579   6.116   6.581   1.622
 7894SOL     OW24580   3.004   0.283   2.075
 7894SOL    HW124581   2.944   0.346   2.124
 7894SOL    HW224582   3.078   0.334   2.032
 7895SOL     OW24583   6.813   1.359   3.372
 7895SOL    HW124584   6.785   1.334   3.465
 7895SOL    HW224585   6.839   1.277   3.322
 7896SOL     OW24586   4.295   1.935   6.346
 7896SOL    HW124587   4.355   1.924   6.425
 7896SOL    HW224588   4.310   1.860   6.282
 7897SOL     OW24589   3.251   3.179   6.583
 7897SOL    HW124590   3.265   3.236   6.663
 7897SOL    HW224591   3.338   3.165   6.535
 7898SOL     OW24592   5.347   1.870   3.426
 7898SOL    HW124593   5.323   1.807   3.352
 7898SOL    HW224594   5.402   1.945   3.389
 7899SOL     OW24595   4.355   1.461   2.538
 7899SOL    HW124596   4.447   1.502   2.543
 7899SOL    HW224597   4.340   1.402   2.617
 7900SOL     OW24598   1.210   5.425   0.834
 7900SOL    HW124599   1.270   5.369   0.891
 7900SOL    HW224600   1.229   5.408   0.737
 7901SOL     OW24601   6.421   5.506   0.936
 7901SOL    HW124602   6.350   5.559   0.983
 7901SOL    HW224603   6.452   5.556   0.855
 7902SOL     OW24604   5.164   4.763   5.871
 7902SOL    HW124605   5.182   4.694   5.941
 7902SOL    HW224606   5.251   4.792   5.830
 7903SOL     OW24607   0.321   2.473   6.864
 7903SOL    HW124608   0.269   2.555   6.886
 7903SOL    HW224609   0.382   2.450   6.940
 7904SOL     OW24610   6.034   1.701   2.333
 7904SOL    HW124611   5.980   1.782   2.356
 7904SOL    HW224612   6.028   1.684   2.235
 7905SOL     OW24613   2.290   2.215   1.884
 7905SOL    HW124614   2.368   2.278   1.875
 7905SOL    HW224615   2.324   2.124   1.906
 7906SOL     OW24616   0.694   4.388   0.624
 7906SOL    HW124617   0.695   4.400   0.525
 7906SOL    HW224618   0.787   4.370   0.656
 7907SOL     OW24619   6.434   2.547   2.042
 7907SOL    HW124620   6.367   2.531   1.970
 7907SOL    HW224621   6.518   2.497   2.021
 7908SOL     OW24622   6.875   1.156   3.217
 7908SOL    HW124623   6.784   1.141   3.177
 7908SOL    HW224624   6.931   1.075   3.203
 7909SOL     OW24625   4.111   6.259   4.938
 7909SOL    HW124626   4.188   6.209   4.979
 7909SOL    HW224627   4.132   6.357   4.937
 7910SOL     OW24628   5.956   3.372   6.283
 7910SOL    HW124629   5.989   3.432   6.210
 7910SOL    HW224630   6.034   3.334   6.332
 7911SOL     OW24631   6.866   5.362   6.738
 7911SOL    HW124632   6.908   5.443   6.781
 7911SOL    HW224633   6.769   5.379   6.723
 7912SOL     OW24634   0.305   4.822   5.375
 7912SOL    HW124635   0.240   4.889   5.411
 7912SOL    HW224636   0.367   4.866   5.310
 7913SOL     OW24637   1.252   6.141   6.573
 7913SOL    HW124638   1.351   6.139   6.564
 7913SOL    HW224639   1.212   6.189   6.495
 7914SOL     OW24640   6.427   4.101   1.359
 7914SOL    HW124641   6.483   4.019   1.366
 7914SOL    HW224642   6.422   4.130   1.264
 7915SOL     OW24643   3.855   0.984   2.244
 7915SOL    HW124644   3.808   0.926   2.310
 7915SOL    HW224645   3.813   0.974   2.154
 7916SOL     OW24646   4.835   3.868   5.571
 7916SOL    HW124647   4.784   3.869   5.657
 7916SOL    HW224648   4.786   3.921   5.502
 7917SOL     OW24649   4.036   3.815   3.558
 7917SOL    HW124650   3.976   3.746   3.517
 7917SOL    HW224651   3.991   3.904   3.556
 7918SOL     OW24652   6.627   2.486   2.466
 7918SOL    HW124653   6.628   2.580   2.501
 7918SOL    HW224654   6.590   2.425   2.536
 7919SOL     OW24655   5.715   4.515   1.723
 7919SOL    HW124656   5.625   4.536   1.687
 7919SOL    HW224657   5.712   4.516   1.823
 7920SOL     OW24658   0.401   6.684   2.287
 7920SOL    HW124659   0.454   6.766   2.265
 7920SOL    HW224660   0.353   6.653   2.205
 7921SOL     OW24661   2.895   6.314   1.994
 7921SOL    HW124662   2.910   6.224   1.953
 7921SOL    HW224663   2.980   6.346   2.036
 7922SOL     OW24664   0.988   4.604   6.110
 7922SOL    HW124665   1.064   4.592   6.174
 7922SOL    HW224666   1.023   4.600   6.016
 7923SOL     OW24667   0.684   2.032   3.011
 7923SOL    HW124668   0.701   1.976   3.092
 7923SOL    HW224669   0.703   2.128   3.032
 7924SOL     OW24670   2.233   0.833   3.805
 7924SOL    HW124671   2.301   0.891   3.760
 7924SOL    HW224672   2.159   0.814   3.741
 7925SOL     OW24673   0.346   1.682   6.498
 7925SOL    HW124674   0.247   1.672   6.489
 7925SOL    HW224675   0.392   1.604   6.456
 7926SOL     OW24676   3.305   6.956   1.694
 7926SOL    HW124677   3.283   6.903   1.776
 7926SOL    HW224678   3.227   7.014   1.670
 7927SOL     OW24679   4.668   4.216   4.369
 7927SOL    HW124680   4.662   4.117   4.356
 7927SOL    HW224681   4.634   4.240   4.460
 7928SOL     OW24682   0.943   4.341   6.702
 7928SOL    HW124683   0.999   4.299   6.631
 7928SOL    HW224684   0.859   4.288   6.714
 7929SOL     OW24685   4.020   3.901   4.391
 7929SOL    HW124686   3.995   3.957   4.470
 7929SOL    HW224687   3.936   3.864   4.350
 7930SOL     OW24688   5.609   6.183   3.282
 7930SOL    HW124689   5.622   6.187   3.382
 7930SOL    HW224690   5.523   6.137   3.261
 7931SOL     OW24691   2.411   3.366   0.197
 7931SOL    HW124692   2.376   3.343   0.106
 7931SOL    HW224693   2.510   3.380   0.191
 7932SOL     OW24694   2.921   0.198   0.469
 7932SOL    HW124695   2.833   0.219   0.426
 7932SOL    HW224696   2.920   0.231   0.563
 7933SOL     OW24697   1.826   1.073   6.266
 7933SOL    HW124698   1.788   1.118   6.186
 7933SOL    HW224699   1.752   1.032   6.320
 7934SOL     OW24700   4.033   2.912   5.599
 7934SOL    HW124701   3.999   2.838   5.657
 7934SOL    HW224702   4.112   2.955   5.643
 7935SOL     OW24703   4.885   6.041   1.419
 7935SOL    HW124704   4.870   5.976   1.343
 7935SOL    HW224705   4.922   5.992   1.498
 7936SOL     OW24706   4.213   6.256   2.721
 7936SOL    HW124707   4.174   6.290   2.636
 7936SOL    HW224708   4.158   6.180   2.755
 7937SOL     OW24709   6.439   0.683   5.977
 7937SOL    HW124710   6.503   0.740   5.926
 7937SOL    HW224711   6.482   0.652   6.062
 7938SOL     OW24712   6.028   4.909   4.379
 7938SOL    HW124713   6.071   4.998   4.392
 7938SOL    HW224714   6.047   4.850   4.458
 7939SOL     OW24715   0.291   6.637   4.183
 7939SOL    HW124716   0.370   6.595   4.140
 7939SOL    HW224717   0.320   6.714   4.239
 7940SOL     OW24718   1.797   5.980   0.716
 7940SOL    HW124719   1.753   6.064   0.750
 7940SOL    HW224720   1.797   5.911   0.789
 7941SOL     OW24721   7.014   0.615   0.635
 7941SOL    HW124722   0.009   0.624   0.733
 7941SOL    HW224723   6.920   0.585   0.622
 7942SOL     OW24724   1.257   1.152   0.999
 7942SOL    HW124725   1.298   1.077   0.945
 7942SOL    HW224726   1.159   1.155   0.981
 7943SOL     OW24727   6.247   2.354   0.254
 7943SOL    HW124728   6.165   2.382   0.204
 7943SOL    HW224729   6.323   2.415   0.230
 7944SOL     OW24730   6.983   3.048   1.964
 7944SOL    HW124731   6.923   2.993   2.022
 7944SOL    HW224732   6.942   3.057   1.873
 7945SOL     OW24733   5.453   6.586   1.221
 7945SOL    HW124734   5.484   6.494   1.197
 7945SOL    HW224735   5.530   6.638   1.259
 7946SOL     OW24736   1.353   1.427   6.216
 7946SOL    HW124737   1.444   1.388   6.231
 7946SOL    HW224738   1.362   1.525   6.197
 7947SOL     OW24739   4.457   5.336   6.261
 7947SOL    HW124740   4.499   5.427   6.253
 7947SOL    HW224741   4.386   5.327   6.192
 7948SOL     OW24742   0.869   4.802   5.900
 7948SOL    HW124743   0.877   4.742   5.979
 7948SOL    HW224744   0.799   4.872   5.918
 7949SOL     OW24745   6.417   3.819   4.031
 7949SOL    HW124746   6.515   3.801   4.040
 7949SOL    HW224747   6.387   3.876   4.107
 7950SOL     OW24748   3.711   5.399   4.498
 7950SOL    HW124749   3.724   5.404   4.597
 7950SOL    HW224750   3.798   5.377   4.454
 7951SOL     OW24751   2.946   3.127   0.563
 7951SOL    HW124752   2.887   3.183   0.506
 7951SOL    HW224753   2.916   3.031   0.558
 7952SOL     OW24754   4.920   4.767   0.410
 7952SOL    HW124755   4.949   4.796   0.319
 7952SOL    HW224756   4.951   4.834   0.477
 7953SOL     OW24757   2.059   3.287   2.906
 7953SOL    HW124758   2.107   3.251   2.986
 7953SOL    HW224759   2.088   3.380   2.889
 7954SOL     OW24760   5.265   5.381   4.403
 7954SOL    HW124761   5.258   5.372   4.502
 7954SOL    HW224762   5.203   5.454   4.372
 7955SOL     OW24763   1.176   6.877   6.224
 7955SOL    HW124764   1.184   6.963   6.274
 7955SOL    HW224765   1.268   6.841   6.206
 7956SOL     OW24766   6.264   6.969   2.944
 7956SOL    HW124767   6.298   6.878   2.969
 7956SOL    HW224768   6.272   6.981   2.845
 7957SOL     OW24769   0.692   2.198   1.091
 7957SOL    HW124770   0.642   2.284   1.080
 7957SOL    HW224771   0.738   2.198   1.180
 7958SOL     OW24772   2.131   5.184   3.348
 7958SOL    HW124773   2.098   5.257   3.288
 7958SOL    HW224774   2.073   5.104   3.339
 7959SOL     OW24775   5.111   5.465   0.996
 7959SOL    HW124776   5.131   5.503   1.086
 7959SOL    HW224777   5.046   5.523   0.948
 7960SOL     OW24778   2.332   2.486   0.853
 7960SOL    HW124779   2.346   2.509   0.757
 7960SOL    HW224780   2.409   2.519   0.907
 7961SOL     OW24781   1.649   5.993   0.214
 7961SOL    HW124782   1.579   6.059   0.188
 7961SOL    HW224783   1.738   6.038   0.219
 7962SOL     OW24784   1.774   6.606   1.940
 7962SOL    HW124785   1.695   6.662   1.965
 7962SOL    HW224786   1.845   6.616   2.010
 7963SOL     OW24787   0.768   6.560   4.916
 7963SOL    HW124788   0.862   6.577   4.946
 7963SOL    HW224789   0.740   6.469   4.948
 7964SOL     OW24790   6.535   5.460   3.624
 7964SOL    HW124791   6.502   5.391   3.689
 7964SOL    HW224792   6.510   5.551   3.657
 7965SOL     OW24793   5.221   1.686   0.193
 7965SOL    HW124794   5.195   1.608   0.137
 7965SOL    HW224795   5.320   1.700   0.187
 7966SOL     OW24796   6.804   6.105   3.608
 7966SOL    HW124797   6.900   6.077   3.620
 7966SOL    HW224798   6.799   6.176   3.538
 7967SOL     OW24799   3.092   6.883   2.847
 7967SOL    HW124800   3.068   6.971   2.888
 7967SOL    HW224801   3.039   6.869   2.763
 7968SOL     OW24802   1.949   0.877   1.384
 7968SOL    HW124803   1.849   0.877   1.380
 7968SOL    HW224804   1.984   0.800   1.331
 7969SOL     OW24805   3.270   1.719   3.410
 7969SOL    HW124806   3.278   1.624   3.440
 7969SOL    HW224807   3.320   1.731   3.325
 7970SOL     OW24808   0.404   5.122   3.122
 7970SOL    HW124809   0.474   5.132   3.052
 7970SOL    HW224810   0.444   5.082   3.204
 7971SOL     OW24811   3.062   1.571   2.312
 7971SOL    HW124812   3.082   1.522   2.227
 7971SOL    HW224813   3.031   1.664   2.290
 7972SOL     OW24814   0.039   5.112   1.713
 7972SOL    HW124815   0.043   5.127   1.614
 7972SOL    HW224816   7.015   5.027   1.732
 7973SOL     OW24817   4.340   2.120   2.684
 7973SOL    HW124818   4.414   2.125   2.617
 7973SOL    HW224819   4.258   2.081   2.641
 7974SOL     OW24820   5.741   6.448   3.397
 7974SOL    HW124821   5.811   6.464   3.467
 7974SOL    HW224822   5.693   6.363   3.416
 7975SOL     OW24823   1.961   1.126   2.935
 7975SOL    HW124824   2.051   1.098   2.968
 7975SOL    HW224825   1.914   1.178   3.006
 7976SOL     OW24826   0.916   6.277   6.151
 7976SOL    HW124827   0.998   6.272   6.094
 7976SOL    HW224828   0.835   6.267   6.094
 7977SOL     OW24829   4.719   6.655   1.574
 7977SOL    HW124830   4.662   6.736   1.559
 7977SOL    HW224831   4.781   6.644   1.496
 7978SOL     OW24832   3.622   2.590   5.934
 7978SOL    HW124833   3.525   2.595   5.913
 7978SOL    HW224834   3.659   2.682   5.948
 7979SOL     OW24835   4.995   6.912   4.323
 7979SOL    HW124836   5.079   6.962   4.343
 7979SOL    HW224837   4.918   6.956   4.370
 7980SOL     OW24838   2.632   0.792   2.068
 7980SOL    HW124839   2.722   0.747   2.068
 7980SOL    HW224840   2.570   0.741   2.128
 7981SOL     OW24841   1.167   6.034   2.685
 7981SOL    HW124842   1.229   6.100   2.643
 7981SOL    HW224843   1.212   5.945   2.691
 7982SOL     OW24844   0.280   2.575   0.458
 7982SOL    HW124845   0.216   2.553   0.532
 7982SOL    HW224846   0.269   2.508   0.385
 7983SOL     OW24847   4.655   2.718   2.029
 7983SOL    HW124848   4.673   2.816   2.035
 7983SOL    HW224849   4.591   2.691   2.101
 7984SOL     OW24850   6.990   0.242   0.168
 7984SOL    HW124851   6.918   0.220   0.234
 7984SOL    HW224852   0.002   0.333   0.187
 7985SOL     OW24853   0.170   0.991   1.101
 7985SOL    HW124854   0.115   0.974   1.019
 7985SOL    HW224855   0.111   0.985   1.182
 7986SOL     OW24856   4.726   3.120   6.992
 7986SOL    HW124857   4.741   3.204   6.939
 7986SOL    HW224858   4.629   3.115   7.019
 7987SOL     OW24859   0.994   2.229   4.627
 7987SOL    HW124860   1.027   2.322   4.614
 7987SOL    HW224861   1.043   2.167   4.565
 7988SOL     OW24862   2.695   2.006   5.577
 7988SOL    HW124863   2.610   2.020   5.627
 7988SOL    HW224864   2.753   2.087   5.586
 7989SOL     OW24865   3.773   3.664   5.994
 7989SOL    HW124866   3.857   3.612   6.004
 7989SOL    HW224867   3.765   3.696   5.900
 7990SOL     OW24868   2.310   2.814   4.556
 7990SOL    HW124869   2.259   2.799   4.641
 7990SOL    HW224870   2.366   2.733   4.536
 7991SOL     OW24871   1.012   3.056   5.446
 7991SOL    HW124872   0.924   3.057   5.399
 7991SOL    HW224873   1.049   3.149   5.448
 7992SOL     OW24874   2.443   1.208   0.908
 7992SOL    HW124875   2.482   1.233   0.997
 7992SOL    HW224876   2.512   1.161   0.853
 7993SOL     OW24877   2.479   6.275   6.204
 7993SOL    HW124878   2.440   6.186   6.182
 7993SOL    HW224879   2.532   6.308   6.126
 7994SOL     OW24880   6.020   0.797   4.732
 7994SOL    HW124881   6.111   0.773   4.697
 7994SOL    HW224882   5.986   0.876   4.681
 7995SOL     OW24883   4.440   5.662   3.508
 7995SOL    HW124884   4.480   5.745   3.470
 7995SOL    HW224885   4.497   5.628   3.582
 7996SOL     OW24886   4.307   1.255   5.137
 7996SOL    HW124887   4.337   1.187   5.203
 7996SOL    HW224888   4.292   1.212   5.048
 7997SOL     OW24889   5.372   2.405   2.216
 7997SOL    HW124890   5.294   2.379   2.274
 7997SOL    HW224891   5.417   2.485   2.256
 7998SOL     OW24892   6.109   4.830   6.553
 7998SOL    HW124893   6.174   4.774   6.604
 7998SOL    HW224894   6.151   4.858   6.466
 7999SOL     OW24895   1.737   0.419   5.824
 7999SOL    HW124896   1.679   0.368   5.759
 7999SOL    HW224897   1.789   0.355   5.880
 8000SOL     OW24898   5.446   0.601   5.888
 8000SOL    HW124899   5.543   0.623   5.898
 8000SOL    HW224900   5.402   0.673   5.833
 8001SOL     OW24901   2.480   6.285   1.350
 8001SOL    HW124902   2.533   6.281   1.265
 8001SOL    HW224903   2.437   6.196   1.367
 8002SOL     OW24904   5.051   2.752   5.372
 8002SOL    HW124905   5.003   2.669   5.344
 8002SOL    HW224906   4.992   2.808   5.429
 8003SOL     OW24907   3.671   6.022   3.822
 8003SOL    HW124908   3.697   6.074   3.741
 8003SOL    HW224909   3.648   5.928   3.796
 8004SOL     OW24910   1.113   4.138   2.757
 8004SOL    HW124911   1.024   4.168   2.723
 8004SOL    HW224912   1.104   4.103   2.850
 8005SOL     OW24913   2.342   0.394   2.550
 8005SOL    HW124914   2.389   0.433   2.471
 8005SOL    HW224915   2.244   0.412   2.542
 8006SOL     OW24916   3.800   6.332   1.392
 8006SOL    HW124917   3.737   6.270   1.438
 8006SOL    HW224918   3.753   6.377   1.316
 8007SOL     OW24919   0.529   1.395   4.160
 8007SOL    HW124920   0.528   1.361   4.254
 8007SOL    HW224921   0.613   1.365   4.115
 8008SOL     OW24922   6.052   5.604   0.669
 8008SOL    HW124923   6.057   5.602   0.569
 8008SOL    HW224924   5.995   5.528   0.701
 8009SOL     OW24925   0.055   6.807   4.305
 8009SOL    HW124926   0.027   6.893   4.263
 8009SOL    HW224927   0.028   6.731   4.245
 8010SOL     OW24928   1.856   3.233   6.645
 8010SOL    HW124929   1.813   3.251   6.734
 8010SOL    HW224930   1.804   3.278   6.573
 8011SOL     OW24931   1.989   2.537   0.548
 8011SOL    HW124932   1.965   2.531   0.645
 8011SOL    HW224933   2.082   2.575   0.539
 8012SOL     OW24934   3.113   0.520   3.693
 8012SOL    HW124935   3.096   0.422   3.679
 8012SOL    HW224936   3.084   0.570   3.612
 8013SOL     OW24937   5.888   5.180   4.681
 8013SOL    HW124938   5.981   5.215   4.676
 8013SOL    HW224939   5.837   5.228   4.752
 8014SOL     OW24940   2.177   0.016   6.602
 8014SOL    HW124941   2.117   7.008   6.528
 8014SOL    HW224942   2.243   6.968   6.625
 8015SOL     OW24943   1.490   2.058   5.957
 8015SOL    HW124944   1.405   2.069   6.009
 8015SOL    HW224945   1.522   2.148   5.927
 8016SOL     OW24946   3.872   6.131   1.786
 8016SOL    HW124947   3.923   6.217   1.772
 8016SOL    HW224948   3.869   6.110   1.883
 8017SOL     OW24949   5.637   4.046   5.161
 8017SOL    HW124950   5.603   4.001   5.243
 8017SOL    HW224951   5.600   4.000   5.080
 8018SOL     OW24952   5.748   2.708   4.844
 8018SOL    HW124953   5.722   2.802   4.867
 8018SOL    HW224954   5.686   2.644   4.890
 8019SOL     OW24955   1.840   5.095   1.503
 8019SOL    HW124956   1.799   5.178   1.468
 8019SOL    HW224957   1.769   5.028   1.523
 8020SOL     OW24958   5.803   6.466   6.372
 8020SOL    HW124959   5.801   6.396   6.301
 8020SOL    HW224960   5.711   6.483   6.406
 8021SOL     OW24961   0.164   0.652   1.062
 8021SOL    HW124962   0.183   0.559   1.032
 8021SOL    HW224963   0.211   0.670   1.148
 8022SOL     OW24964   4.461   5.587   3.233
 8022SOL    HW124965   4.379   5.571   3.178
 8022SOL    HW224966   4.436   5.591   3.330
 8023SOL     OW24967   6.605   6.413   3.521
 8023SOL    HW124968   6.534   6.347   3.499
 8023SOL    HW224969   6.694   6.378   3.491
 8024SOL     OW24970   4.720   5.586   4.904
 8024SOL    HW124971   4.744   5.496   4.867
 8024SOL    HW224972   4.662   5.634   4.839
 8025SOL     OW24973   2.801   5.997   0.448
 8025SOL    HW124974   2.761   5.932   0.383
 8025SOL    HW224975   2.900   5.999   0.438
 8026SOL     OW24976   2.034   2.971   0.601
 8026SOL    HW124977   1.952   2.926   0.564
 8026SOL    HW224978   2.012   3.016   0.687
 8027SOL     OW24979   5.248   3.172   6.081
 8027SOL    HW124980   5.286   3.088   6.041
 8027SOL    HW224981   5.259   3.169   6.180
 8028SOL     OW24982   5.496   5.827   0.475
 8028SOL    HW124983   5.496   5.855   0.379
 8028SOL    HW224984   5.541   5.738   0.484
 8029SOL     OW24985   3.139   4.520   0.009
 8029SOL    HW124986   3.188   4.605   7.013
 8029SOL    HW224987   3.171   4.483   0.096
 8030SOL     OW24988   6.042   3.749   0.666
 8030SOL    HW124989   6.091   3.787   0.744
 8030SOL    HW224990   6.108   3.721   0.596
 8031SOL     OW24991   3.407   6.223   1.271
 8031SOL    HW124992   3.469   6.248   1.197
 8031SOL    HW224993   3.317   6.263   1.254
 8032SOL     OW24994   4.912   4.900   5.485
 8032SOL    HW124995   4.926   4.869   5.579
 8032SOL    HW224996   4.962   4.986   5.471
 8033SOL     OW24997   6.313   2.358   0.534
 8033SOL    HW124998   6.282   2.339   0.441
 8033SOL    HW224999   6.341   2.273   0.578
 8034SOL     OW25000   6.206   1.390   4.711
 8034SOL    HW125001   6.190   1.347   4.621
 8034SOL    HW225002   6.256   1.326   4.769
 8035SOL     OW25003   5.487   6.026   6.927
 8035SOL    HW125004   5.411   6.086   6.903
 8035SOL    HW225005   5.496   6.022   0.002
 8036SOL     OW25006   1.250   4.687   1.262
 8036SOL    HW125007   1.152   4.671   1.273
 8036SOL    HW225008   1.299   4.600   1.268
 8037SOL     OW25009   2.417   3.006   1.664
 8037SOL    HW125010   2.452   3.073   1.598
 8037SOL    HW225011   2.358   3.052   1.730
 8038SOL     OW25012   6.402   1.353   4.003
 8038SOL    HW125013   6.317   1.303   3.995
 8038SOL    HW225014   6.399   1.413   4.083
 8039SOL     OW25015   3.106   6.765   4.697
 8039SOL    HW125016   3.144   6.726   4.613
 8039SOL    HW225017   3.155   6.849   4.719
 8040SOL     OW25018   5.970   6.133   0.825
 8040SOL    HW125019   5.928   6.071   0.760
 8040SOL    HW225020   6.041   6.187   0.779
 8041SOL     OW25021   3.973   1.936   0.682
 8041SOL    HW125022   3.966   2.024   0.636
 8041SOL    HW225023   4.010   1.949   0.774
 8042SOL     OW25024   2.579   4.079   0.860
 8042SOL    HW125025   2.516   4.122   0.925
 8042SOL    HW225026   2.534   4.001   0.816
 8043SOL     OW25027   2.622   0.491   1.556
 8043SOL    HW125028   2.601   0.587   1.575
 8043SOL    HW225029   2.594   0.435   1.634
 8044SOL     OW25030   3.275   3.974   1.534
 8044SOL    HW125031   3.263   3.929   1.622
 8044SOL    HW225032   3.318   4.064   1.548
 8045SOL     OW25033   6.290   2.916   3.493
 8045SOL    HW125034   6.307   2.906   3.395
 8045SOL    HW225035   6.359   2.863   3.544
 8046SOL     OW25036   0.230   5.273   5.770
 8046SOL    HW125037   0.218   5.369   5.745
 8046SOL    HW225038   0.284   5.266   5.854
 8047SOL     OW25039   2.930   6.359   4.455
 8047SOL    HW125040   3.022   6.351   4.493
 8047SOL    HW225041   2.933   6.337   4.357
 8048SOL     OW25042   6.283   0.876   6.135
 8048SOL    HW125043   6.325   0.810   6.073
 8048SOL    HW225044   6.188   0.892   6.108
 8049SOL     OW25045   1.482   6.494   0.123
 8049SOL    HW125046   1.574   6.455   0.118
 8049SOL    HW225047   1.473   6.567   0.056
 8050SOL     OW25048   0.484   3.027   0.918
 8050SOL    HW125049   0.550   3.096   0.948
 8050SOL    HW225050   0.471   3.032   0.819
 8051SOL     OW25051   3.603   2.136   3.895
 8051SOL    HW125052   3.674   2.150   3.826
 8051SOL    HW225053   3.645   2.110   3.982
 8052SOL     OW25054   3.848   2.158   3.101
 8052SOL    HW125055   3.830   2.219   3.178
 8052SOL    HW225056   3.763   2.140   3.051
 8053SOL     OW25057   3.864   3.324   1.888
 8053SOL    HW125058   3.880   3.419   1.916
 8053SOL    HW225059   3.913   3.262   1.949
 8054SOL     OW25060   4.606   5.893   4.467
 8054SOL    HW125061   4.680   5.885   4.533
 8054SOL    HW225062   4.525   5.931   4.512
 8055SOL     OW25063   0.905   6.896   4.956
 8055SOL    HW125064   0.967   6.973   4.951
 8055SOL    HW225065   0.957   6.812   4.974
 8056SOL     OW25066   4.385   1.214   2.398
 8056SOL    HW125067   4.360   1.298   2.446
 8056SOL    HW225068   4.475   1.224   2.357
 8057SOL     OW25069   3.388   0.009   2.997
 8057SOL    HW125070   3.416   6.982   2.916
 8057SOL    HW225071   3.456   7.020   3.069
 8058SOL     OW25072   2.672   0.259   3.663
 8058SOL    HW125073   2.719   0.347   3.653
 8058SOL    HW225074   2.664   0.216   3.573
 8059SOL     OW25075   2.606   0.941   3.786
 8059SOL    HW125076   2.673   1.015   3.789
 8059SOL    HW225077   2.596   0.901   3.877
 8060SOL     OW25078   0.975   2.198   5.125
 8060SOL    HW125079   1.057   2.240   5.163
 8060SOL    HW225080   0.913   2.174   5.199
 8061SOL     OW25081   6.898   5.923   1.757
 8061SOL    HW125082   6.829   5.989   1.787
 8061SOL    HW225083   6.860   5.831   1.761
 8062SOL     OW25084   2.023   3.597   2.176
 8062SOL    HW125085   2.011   3.506   2.215
 8062SOL    HW225086   2.101   3.597   2.114
 8063SOL     OW25087   2.537   3.186   6.683
 8063SOL    HW125088   2.495   3.221   6.599
 8063SOL    HW225089   2.581   3.098   6.664
 8064SOL     OW25090   6.390   3.000   6.826
 8064SOL    HW125091   6.343   3.005   6.738
 8064SOL    HW225092   6.329   2.961   6.895
 8065SOL     OW25093   4.413   0.206   6.326
 8065SOL    HW125094   4.440   0.110   6.329
 8065SOL    HW225095   4.398   0.239   6.420
 8066SOL     OW25096   2.677   0.129   1.962
 8066SOL    HW125097   2.656   0.094   2.054
 8066SOL    HW225098   2.765   0.094   1.932
 8067SOL     OW25099   4.788   2.163   2.241
 8067SOL    HW125100   4.718   2.154   2.170
 8067SOL    HW225101   4.745   2.181   2.329
 8068SOL     OW25102   6.509   4.885   4.340
 8068SOL    HW125103   6.492   4.933   4.254
 8068SOL    HW225104   6.459   4.798   4.339
 8069SOL     OW25105   1.040   6.546   2.409
 8069SOL    HW125106   0.997   6.479   2.470
 8069SOL    HW225107   1.122   6.582   2.453
 8070SOL     OW25108   4.068   6.983   2.391
 8070SOL    HW125109   4.057   0.054   2.362
 8070SOL    HW225110   4.016   6.923   2.330
 8071SOL     OW25111   3.450   6.603   0.423
 8071SOL    HW125112   3.373   6.666   0.416
 8071SOL    HW225113   3.533   6.654   0.445
 8072SOL     OW25114   5.151   0.793   2.724
 8072SOL    HW125115   5.183   0.703   2.755
 8072SOL    HW225116   5.144   0.855   2.801
 8073SOL     OW25117   4.587   0.372   6.229
 8073SOL    HW125118   4.520   0.308   6.265
 8073SOL    HW225119   4.557   0.466   6.248
 8074SOL     OW25120   3.359   3.990   6.773
 8074SOL    HW125121   3.438   3.929   6.779
 8074SOL    HW225122   3.379   4.076   6.819
 8075SOL     OW25123   5.432   2.310   2.965
 8075SOL    HW125124   5.481   2.224   2.949
 8075SOL    HW225125   5.406   2.316   3.061
 8076SOL     OW25126   4.735   2.827   6.171
 8076SOL    HW125127   4.725   2.886   6.251
 8076SOL    HW225128   4.645   2.803   6.135
 8077SOL     OW25129   1.286   0.740   0.555
 8077SOL    HW125130   1.306   0.756   0.651
 8077SOL    HW225131   1.351   0.792   0.499
 8078SOL     OW25132   5.943   2.853   0.687
 8078SOL    HW125133   5.931   2.815   0.595
 8078SOL    HW225134   5.894   2.940   0.694
 8079SOL     OW25135   0.883   1.730   1.847
 8079SOL    HW125136   0.805   1.698   1.793
 8079SOL    HW225137   0.955   1.660   1.846
 8080SOL     OW25138   3.362   5.021   0.461
 8080SOL    HW125139   3.372   4.958   0.384
 8080SOL    HW225140   3.266   5.051   0.467
 8081SOL     OW25141   5.978   2.036   5.143
 8081SOL    HW125142   5.961   1.938   5.131
 8081SOL    HW225143   5.980   2.081   5.053
 8082SOL     OW25144   6.412   3.303   4.262
 8082SOL    HW125145   6.401   3.403   4.263
 8082SOL    HW225146   6.509   3.280   4.273
 8083SOL     OW25147   6.019   2.232   4.554
 8083SOL    HW125148   6.066   2.241   4.466
 8083SOL    HW225149   5.945   2.299   4.559
 8084SOL     OW25150   6.445   0.415   0.905
 8084SOL    HW125151   6.450   0.483   0.979
 8084SOL    HW225152   6.517   0.347   0.918
 8085SOL     OW25153   6.018   2.143   0.461
 8085SOL    HW125154   6.077   2.141   0.542
 8085SOL    HW225155   5.929   2.182   0.486
 8086SOL     OW25156   2.834   6.154   5.860
 8086SOL    HW125157   2.780   6.093   5.918
 8086SOL    HW225158   2.930   6.128   5.865
 8087SOL     OW25159   2.623   3.992   0.573
 8087SOL    HW125160   2.655   4.065   0.633
 8087SOL    HW225161   2.593   3.914   0.629
 8088SOL     OW25162   4.568   0.626   2.700
 8088SOL    HW125163   4.649   0.566   2.704
 8088SOL    HW225164   4.582   0.696   2.631
 8089SOL     OW25165   6.186   2.768   0.538
 8089SOL    HW125166   6.149   2.843   0.593
 8089SOL    HW225167   6.127   2.752   0.459
 8090SOL     OW25168   4.022   2.285   5.257
 8090SOL    HW125169   4.070   2.332   5.184
 8090SOL    HW225170   4.034   2.186   5.246
 8091SOL     OW25171   2.543   4.804   5.691
 8091SOL    HW125172   2.614   4.859   5.647
 8091SOL    HW225173   2.453   4.845   5.671
 8092SOL     OW25174   6.717   1.811   4.172
 8092SOL    HW125175   6.682   1.743   4.236
 8092SOL    HW225176   6.774   1.877   4.220
 8093SOL     OW25177   5.719   5.310   1.072
 8093SOL    HW125178   5.709   5.260   0.986
 8093SOL    HW225179   5.657   5.272   1.140
 8094SOL     OW25180   0.898   3.738   4.596
 8094SOL    HW125181   0.865   3.832   4.584
 8094SOL    HW225182   0.953   3.711   4.517
 8095SOL     OW25183   6.125   3.486   4.998
 8095SOL    HW125184   6.066   3.412   5.032
 8095SOL    HW225185   6.070   3.552   4.947
 8096SOL     OW25186   3.774   0.590   0.288
 8096SOL    HW125187   3.784   0.579   0.387
 8096SOL    HW225188   3.806   0.681   0.261
 8097SOL     OW25189   4.651   1.259   4.449
 8097SOL    HW125190   4.714   1.307   4.510
 8097SOL    HW225191   4.594   1.326   4.402
 8098SOL     OW25192   2.700   1.422   4.017
 8098SOL    HW125193   2.637   1.354   3.981
 8098SOL    HW225194   2.785   1.421   3.964
 8099SOL     OW25195   4.609   6.144   5.042
 8099SOL    HW125196   4.630   6.068   5.103
 8099SOL    HW225197   4.525   6.189   5.074
 8100SOL     OW25198   6.932   6.444   0.749
 8100SOL    HW125199   6.935   6.507   0.826
 8100SOL    HW225200   6.847   6.391   0.753
 8101SOL     OW25201   1.073   5.135   2.653
 8101SOL    HW125202   1.032   5.061   2.705
 8101SOL    HW225203   1.165   5.109   2.624
 8102SOL     OW25204   6.608   0.123   6.282
 8102SOL    HW125205   6.534   0.060   6.262
 8102SOL    HW225206   6.596   0.161   6.374
 8103SOL     OW25207   2.352   1.788   2.393
 8103SOL    HW125208   2.297   1.825   2.467
 8103SOL    HW225209   2.295   1.729   2.335
 8104SOL     OW25210   3.132   6.208   5.771
 8104SOL    HW125211   3.173   6.167   5.689
 8104SOL    HW225212   3.137   6.308   5.763
 8105SOL     OW25213   2.296   2.660   2.650
 8105SOL    HW125214   2.381   2.651   2.701
 8105SOL    HW225215   2.316   2.688   2.556
 8106SOL     OW25216   0.131   4.331   5.181
 8106SOL    HW125217   0.092   4.372   5.099
 8106SOL    HW225218   0.091   4.374   5.262
 8107SOL     OW25219   1.177   5.601   6.409
 8107SOL    HW125220   1.166   5.614   6.508
 8107SOL    HW225221   1.143   5.682   6.361
 8108SOL     OW25222   1.956   3.790   5.136
 8108SOL    HW125223   1.871   3.789   5.083
 8108SOL    HW225224   1.979   3.696   5.164
 8109SOL     OW25225   0.644   5.815   5.037
 8109SOL    HW125226   0.616   5.781   4.947
 8109SOL    HW225227   0.736   5.783   5.057
 8110SOL     OW25228   1.519   4.664   0.952
 8110SOL    HW125229   1.589   4.659   1.023
 8110SOL    HW225230   1.428   4.668   0.994
 8111SOL     OW25231   3.139   5.866   4.160
 8111SOL    HW125232   3.210   5.882   4.092
 8111SOL    HW225233   3.054   5.910   4.130
 8112SOL     OW25234   4.261   1.020   4.636
 8112SOL    HW125235   4.334   1.023   4.568
 8112SOL    HW225236   4.288   1.074   4.716
 8113SOL     OW25237   3.480   2.969   5.845
 8113SOL    HW125238   3.573   2.939   5.870
 8113SOL    HW225239   3.426   2.889   5.820
 8114SOL     OW25240   3.279   3.621   1.833
 8114SOL    HW125241   3.206   3.556   1.809
 8114SOL    HW225242   3.368   3.580   1.813
 8115SOL     OW25243   3.541   2.392   1.202
 8115SOL    HW125244   3.477   2.450   1.152
 8115SOL    HW225245   3.502   2.300   1.212
 8116SOL     OW25246   5.008   1.524   5.495
 8116SOL    HW125247   4.920   1.571   5.487
 8116SOL    HW225248   4.993   1.425   5.500
 8117SOL     OW25249   2.451   2.017   5.715
 8117SOL    HW125250   2.416   2.096   5.765
 8117SOL    HW225251   2.476   1.945   5.780
 8118SOL     OW25252   1.282   2.407   4.277
 8118SOL    HW125253   1.328   2.336   4.224
 8118SOL    HW225254   1.183   2.400   4.264
 8119SOL     OW25255   1.027   6.062   1.805
 8119SOL    HW125256   1.015   5.965   1.783
 8119SOL    HW225257   1.053   6.112   1.723
 8120SOL     OW25258   4.621   4.059   1.729
 8120SOL    HW125259   4.542   4.106   1.768
 8120SOL    HW225260   4.597   3.964   1.709
 8121SOL     OW25261   6.712   6.809   3.263
 8121SOL    HW125262   6.733   6.907   3.257
 8121SOL    HW225263   6.776   6.765   3.326
 8122SOL     OW25264   0.542   5.717   1.397
 8122SOL    HW125265   0.609   5.743   1.327
 8122SOL    HW225266   0.580   5.645   1.455
 8123SOL     OW25267   0.959   5.553   0.281
 8123SOL    HW125268   0.888   5.486   0.260
 8123SOL    HW225269   0.969   5.561   0.381
 8124SOL     OW25270   1.388   6.296   3.131
 8124SOL    HW125271   1.361   6.202   3.110
 8124SOL    HW225272   1.314   6.343   3.178
 8125SOL     OW25273   5.616   5.196   3.079
 8125SOL    HW125274   5.653   5.106   3.101
 8125SOL    HW225275   5.666   5.237   3.003
 8126SOL     OW25276   6.679   4.470   2.670
 8126SOL    HW125277   6.626   4.554   2.679
 8126SOL    HW225278   6.634   4.409   2.605
 8127SOL     OW25279   3.593   5.251   1.108
 8127SOL    HW125280   3.550   5.249   1.198
 8127SOL    HW225281   3.666   5.319   1.107
 8128SOL     OW25282   3.504   2.454   5.684
 8128SOL    HW125283   3.459   2.426   5.600
 8128SOL    HW225284   3.592   2.497   5.663
 8129SOL     OW25285   4.918   6.419   6.494
 8129SOL    HW125286   4.944   6.500   6.547
 8129SOL    HW225287   4.828   6.434   6.453
 8130SOL     OW25288   0.629   6.784   0.219
 8130SOL    HW125289   0.714   6.795   0.272
 8130SOL    HW225290   0.571   6.717   0.265
 8131SOL     OW25291   1.972   1.477   0.867
 8131SOL    HW125292   1.991   1.396   0.811
 8131SOL    HW225293   2.046   1.543   0.857
 8132SOL     OW25294   6.370   4.705   2.905
 8132SOL    HW125295   6.317   4.746   2.979
 8132SOL    HW225296   6.467   4.730   2.916
 8133SOL     OW25297   0.685   5.836   2.236
 8133SOL    HW125298   0.704   5.807   2.142
 8133SOL    HW225299   0.586   5.839   2.250
 8134SOL     OW25300   1.704   2.889   2.033
 8134SOL    HW125301   1.745   2.837   2.108
 8134SOL    HW225302   1.777   2.932   1.979
 8135SOL     OW25303   3.871   6.287   2.376
 8135SOL    HW125304   3.800   6.225   2.410
 8135SOL    HW225305   3.828   6.361   2.324
 8136SOL     OW25306   2.102   5.696   1.593
 8136SOL    HW125307   2.071   5.791   1.604
 8136SOL    HW225308   2.086   5.647   1.678
 8137SOL     OW25309   3.242   3.896   5.051
 8137SOL    HW125310   3.246   3.820   4.986
 8137SOL    HW225311   3.148   3.930   5.057
 8138SOL     OW25312   4.854   1.143   3.342
 8138SOL    HW125313   4.885   1.054   3.310
 8138SOL    HW225314   4.910   1.215   3.300
 8139SOL     OW25315   1.371   3.111   4.823
 8139SOL    HW125316   1.401   3.068   4.908
 8139SOL    HW225317   1.286   3.068   4.793
 8140SOL     OW25318   4.387   0.935   0.989
 8140SOL    HW125319   4.348   0.979   1.070
 8140SOL    HW225320   4.360   0.984   0.907
 8141SOL     OW25321   6.033   0.390   5.851
 8141SOL    HW125322   6.006   0.437   5.936
 8141SOL    HW225323   6.117   0.430   5.816
 8142SOL     OW25324   2.459   5.556   0.713
 8142SOL    HW125325   2.463   5.569   0.613
 8142SOL    HW225326   2.551   5.564   0.751
 8143SOL     OW25327   5.541   4.730   0.623
 8143SOL    HW125328   5.558   4.677   0.706
 8143SOL    HW225329   5.452   4.775   0.629
 8144SOL     OW25330   0.719   5.868   7.003
 8144SOL    HW125331   0.744   5.791   6.944
 8144SOL    HW225332   0.725   5.953   6.951
 8145SOL     OW25333   5.560   5.487   6.835
 8145SOL    HW125334   5.644   5.541   6.835
 8145SOL    HW225335   5.481   5.549   6.838
 8146SOL     OW25336   6.665   6.212   4.690
 8146SOL    HW125337   6.720   6.131   4.707
 8146SOL    HW225338   6.649   6.261   4.776
 8147SOL     OW25339   2.169   0.746   5.682
 8147SOL    HW125340   2.264   0.741   5.715
 8147SOL    HW225341   2.109   0.768   5.759
 8148SOL     OW25342   4.860   3.739   0.691
 8148SOL    HW125343   4.934   3.773   0.633
 8148SOL    HW225344   4.845   3.642   0.673
 8149SOL     OW25345   1.593   0.180   5.223
 8149SOL    HW125346   1.504   0.188   5.268
 8149SOL    HW225347   1.656   0.249   5.260
 8150SOL     OW25348   0.912   4.127   0.629
 8150SOL    HW125349   0.886   4.070   0.708
 8150SOL    HW225350   1.006   4.104   0.602
 8151SOL     OW25351   6.628   5.402   3.164
 8151SOL    HW125352   6.710   5.384   3.219
 8151SOL    HW225353   6.552   5.426   3.224
 8152SOL     OW25354   5.188   1.493   3.071
 8152SOL    HW125355   5.253   1.506   3.146
 8152SOL    HW225356   5.167   1.582   3.029
 8153SOL     OW25357   0.258   1.744   2.282
 8153SOL    HW125358   0.271   1.807   2.359
 8153SOL    HW225359   0.340   1.688   2.270
 8154SOL     OW25360   1.730   0.499   3.372
 8154SOL    HW125361   1.684   0.578   3.413
 8154SOL    HW225362   1.727   0.508   3.272
 8155SOL     OW25363   1.796   5.090   4.272
 8155SOL    HW125364   1.720   5.031   4.244
 8155SOL    HW225365   1.873   5.079   4.209
 8156SOL     OW25366   1.400   4.511   0.599
 8156SOL    HW125367   1.407   4.429   0.541
 8156SOL    HW225368   1.422   4.592   0.544
 8157SOL     OW25369   6.491   4.340   5.167
 8157SOL    HW125370   6.401   4.338   5.122
 8157SOL    HW225371   6.555   4.392   5.112
 8158SOL     OW25372   5.955   5.494   6.303
 8158SOL    HW125373   5.949   5.518   6.207
 8158SOL    HW225374   5.966   5.395   6.312
 8159SOL     OW25375   2.546   0.075   5.210
 8159SOL    HW125376   2.479   0.091   5.282
 8159SOL    HW225377   2.517   0.121   5.126
 8160SOL     OW25378   5.816   1.628   2.515
 8160SOL    HW125379   5.847   1.629   2.420
 8160SOL    HW225380   5.733   1.683   2.523
 8161SOL     OW25381   6.145   2.034   1.916
 8161SOL    HW125382   6.210   2.091   1.866
 8161SOL    HW225383   6.181   2.017   2.008
 8162SOL     OW25384   0.750   5.684   4.631
 8162SOL    HW125385   0.831   5.626   4.623
 8162SOL    HW225386   0.758   5.761   4.567
 8163SOL     OW25387   3.985   4.771   5.764
 8163SOL    HW125388   3.897   4.787   5.719
 8163SOL    HW225389   4.030   4.692   5.721
 8164SOL     OW25390   5.366   1.627   0.493
 8164SOL    HW125391   5.310   1.630   0.411
 8164SOL    HW225392   5.406   1.717   0.511
 8165SOL     OW25393   0.727   1.987   6.036
 8165SOL    HW125394   0.718   2.086   6.029
 8165SOL    HW225395   0.686   1.943   5.956
 8166SOL     OW25396   1.848   1.671   5.233
 8166SOL    HW125397   1.843   1.753   5.176
 8166SOL    HW225398   1.865   1.591   5.174
 8167SOL     OW25399   1.792   3.281   3.627
 8167SOL    HW125400   1.823   3.195   3.666
 8167SOL    HW225401   1.733   3.328   3.693
 8168SOL     OW25402   1.824   0.201   2.624
 8168SOL    HW125403   1.905   0.253   2.600
 8168SOL    HW225404   1.774   0.177   2.540
 8169SOL     OW25405   4.597   3.528   1.095
 8169SOL    HW125406   4.528   3.574   1.150
 8169SOL    HW225407   4.678   3.508   1.152
 8170SOL     OW25408   6.565   4.717   2.652
 8170SOL    HW125409   6.486   4.707   2.712
 8170SOL    HW225410   6.602   4.809   2.661
 8171SOL     OW25411   2.373   1.916   1.223
 8171SOL    HW125412   2.399   1.853   1.150
 8171SOL    HW225413   2.438   1.992   1.225
 8172SOL     OW25414   1.464   3.174   1.167
 8172SOL    HW125415   1.519   3.102   1.208
 8172SOL    HW225416   1.405   3.215   1.237
 8173SOL     OW25417   5.609   0.300   1.749
 8173SOL    HW125418   5.620   0.233   1.676
 8173SOL    HW225419   5.589   0.390   1.708
 8174SOL     OW25420   2.362   6.708   3.952
 8174SOL    HW125421   2.273   6.729   3.913
 8174SOL    HW225422   2.434   6.743   3.892
 8175SOL     OW25423   0.815   2.343   5.790
 8175SOL    HW125424   0.815   2.261   5.732
 8175SOL    HW225425   0.777   2.321   5.879
 8176SOL     OW25426   2.713   4.705   0.344
 8176SOL    HW125427   2.731   4.621   0.395
 8176SOL    HW225428   2.695   4.682   0.248
 8177SOL     OW25429   2.710   1.101   3.338
 8177SOL    HW125430   2.785   1.167   3.347
 8177SOL    HW225431   2.723   1.026   3.403
 8178SOL     OW25432   2.229   6.464   1.315
 8178SOL    HW125433   2.276   6.545   1.351
 8178SOL    HW225434   2.294   6.388   1.311
 8179SOL     OW25435   5.670   0.490   3.367
 8179SOL    HW125436   5.748   0.548   3.392
 8179SOL    HW225437   5.675   0.404   3.416
 8180SOL     OW25438   4.961   5.845   0.274
 8180SOL    HW125439   4.874   5.819   0.317
 8180SOL    HW225440   5.032   5.782   0.303
 8181SOL     OW25441   6.834   0.490   6.384
 8181SOL    HW125442   6.737   0.503   6.404
 8181SOL    HW225443   6.854   0.392   6.375
 8182SOL     OW25444   3.321   3.795   3.730
 8182SOL    HW125445   3.311   3.730   3.805
 8182SOL    HW225446   3.318   3.747   3.643
 8183SOL     OW25447   6.545   0.459   5.801
 8183SOL    HW125448   6.597   0.442   5.885
 8183SOL    HW225449   6.478   0.386   5.788
 8184SOL     OW25450   6.980   5.594   6.219
 8184SOL    HW125451   0.020   5.532   6.263
 8184SOL    HW225452   6.921   5.636   6.288
 8185SOL     OW25453   0.370   5.845   6.032
 8185SOL    HW125454   0.369   5.746   6.047
 8185SOL    HW225455   0.284   5.884   6.063
 8186SOL     OW25456   1.741   5.538   0.496
 8186SOL    HW125457   1.804   5.469   0.532
 8186SOL    HW225458   1.788   5.625   0.488
 8187SOL     OW25459   1.759   7.007   4.834
 8187SOL    HW125460   1.747   0.066   4.889
 8187SOL    HW225461   1.702   7.014   4.752
 8188SOL     OW25462   2.201   3.122   2.647
 8188SOL    HW125463   2.287   3.121   2.697
 8188SOL    HW225464   2.133   3.175   2.698
 8189SOL     OW25465   5.896   5.260   3.320
 8189SOL    HW125466   5.848   5.311   3.392
 8189SOL    HW225467   5.868   5.164   3.323
 8190SOL     OW25468   6.541   4.117   3.030
 8190SOL    HW125469   6.633   4.121   3.067
 8190SOL    HW225470   6.540   4.057   2.950
 8191SOL     OW25471   4.233   4.994   0.931
 8191SOL    HW125472   4.136   4.983   0.909
 8191SOL    HW225473   4.288   4.934   0.872
 8192SOL     OW25474   0.485   5.696   3.214
 8192SOL    HW125475   0.496   5.759   3.291
 8192SOL    HW225476   0.528   5.735   3.132
 8193SOL     OW25477   0.786   4.455   3.843
 8193SOL    HW125478   0.767   4.466   3.746
 8193SOL    HW225479   0.869   4.507   3.866
 8194SOL     OW25480   4.397   0.365   1.530
 8194SOL    HW125481   4.349   0.451   1.512
 8194SOL    HW225482   4.354   0.292   1.477
 8195SOL     OW25483   6.331   0.032   4.038
 8195SOL    HW125484   6.347   0.053   3.942
 8195SOL    HW225485   6.393   6.983   4.067
 8196SOL     OW25486   4.838   1.201   2.080
 8196SOL    HW125487   4.741   1.194   2.105
 8196SOL    HW225488   4.851   1.169   1.986
 8197SOL     OW25489   4.026   1.781   3.271
 8197SOL    HW125490   4.001   1.724   3.192
 8197SOL    HW225491   3.954   1.849   3.286
 8198SOL     OW25492   1.530   5.794   1.493
 8198SOL    HW125493   1.461   5.737   1.446
 8198SOL    HW225494   1.575   5.739   1.563
 8199SOL     OW25495   6.015   2.407   0.114
 8199SOL    HW125496   5.956   2.450   0.182
 8199SOL    HW225497   5.996   2.446   0.024
 8200SOL     OW25498   4.789   3.444   0.785
 8200SOL    HW125499   4.838   3.504   0.848
 8200SOL    HW225500   4.808   3.348   0.810
 8201SOL     OW25501   5.802   0.032   5.660
 8201SOL    HW125502   5.740   0.067   5.590
 8201SOL    HW225503   5.828   6.963   5.638
 8202SOL     OW25504   1.226   6.276   1.719
 8202SOL    HW125505   1.302   6.324   1.675
 8202SOL    HW225506   1.161   6.246   1.650
 8203SOL     OW25507   1.759   3.437   1.250
 8203SOL    HW125508   1.767   3.348   1.295
 8203SOL    HW225509   1.737   3.424   1.154
 8204SOL     OW25510   2.875   3.414   0.763
 8204SOL    HW125511   2.910   3.504   0.789
 8204SOL    HW225512   2.805   3.425   0.691
 8205SOL     OW25513   0.802   4.450   0.131
 8205SOL    HW125514   0.744   4.410   0.059
 8205SOL    HW225515   0.875   4.504   0.089
 8206SOL     OW25516   3.083   1.127   1.428
 8206SOL    HW125517   3.123   1.107   1.339
 8206SOL    HW225518   3.135   1.078   1.499
 8207SOL     OW25519   3.856   4.008   4.137
 8207SOL    HW125520   3.900   3.918   4.135
 8207SOL    HW225521   3.821   4.027   4.228
 8208SOL     OW25522   2.131   0.434   0.266
 8208SOL    HW125523   2.191   0.501   0.222
 8208SOL    HW225524   2.100   0.470   0.354
 8209SOL     OW25525   5.995   1.516   4.807
 8209SOL    HW125526   5.957   1.588   4.748
 8209SOL    HW225527   6.088   1.494   4.777
 8210SOL     OW25528   2.237   2.614   6.795
 8210SOL    HW125529   2.138   2.629   6.806
 8210SOL    HW225530   2.253   2.559   6.714
 8211SOL     OW25531   4.092   4.787   1.362
 8211SOL    HW125532   4.000   4.758   1.336
 8211SOL    HW225533   4.155   4.769   1.287
 8212SOL     OW25534   1.857   2.581   2.919
 8212SOL    HW125535   1.938   2.626   2.881
 8212SOL    HW225536   1.830   2.626   3.004
 8213SOL     OW25537   6.361   5.013   1.511
 8213SOL    HW125538   6.292   4.982   1.576
 8213SOL    HW225539   6.431   4.942   1.499
 8214SOL     OW25540   5.327   3.588   3.100
 8214SOL    HW125541   5.270   3.612   3.021
 8214SOL    HW225542   5.371   3.500   3.083
 8215SOL     OW25543   3.430   4.917   2.878
 8215SOL    HW125544   3.363   4.896   2.807
 8215SOL    HW225545   3.386   4.914   2.967
 8216SOL     OW25546   5.846   3.825   3.542
 8216SOL    HW125547   5.809   3.846   3.633
 8216SOL    HW225548   5.774   3.832   3.474
 8217SOL     OW25549   1.957   6.225   1.055
 8217SOL    HW125550   1.941   6.322   1.072
 8217SOL    HW225551   2.018   6.215   0.976
 8218SOL     OW25552   6.278   2.381   6.789
 8218SOL    HW125553   6.370   2.383   6.829
 8218SOL    HW225554   6.283   2.341   6.698
 8219SOL     OW25555   5.673   1.519   6.826
 8219SOL    HW125556   5.585   1.568   6.829
 8219SOL    HW225557   5.725   1.539   6.908
 8220SOL     OW25558   4.146   3.786   1.633
 8220SOL    HW125559   4.080   3.738   1.690
 8220SOL    HW225560   4.166   3.876   1.673
 8221SOL     OW25561   4.982   5.150   3.137
 8221SOL    HW125562   4.948   5.213   3.067
 8221SOL    HW225563   4.907   5.090   3.166
 8222SOL     OW25564   6.486   2.063   2.578
 8222SOL    HW125565   6.472   1.983   2.636
 8222SOL    HW225566   6.584   2.083   2.572
 8223SOL     OW25567   0.192   5.020   5.531
 8223SOL    HW125568   0.247   5.008   5.614
 8223SOL    HW225569   0.161   5.115   5.525
 8224SOL     OW25570   1.183   3.177   3.249
 8224SOL    HW125571   1.174   3.134   3.159
 8224SOL    HW225572   1.180   3.277   3.238
 8225SOL     OW25573   4.565   0.992   0.546
 8225SOL    HW125574   4.647   0.993   0.603
 8225SOL    HW225575   4.522   1.082   0.548
 8226SOL     OW25576   3.915   0.394   0.860
 8226SOL    HW125577   3.819   0.387   0.835
 8226SOL    HW225578   3.972   0.366   0.783
 8227SOL     OW25579   5.900   3.450   2.756
 8227SOL    HW125580   5.834   3.485   2.689
 8227SOL    HW225581   5.937   3.526   2.810
 8228SOL     OW25582   0.145   1.953   5.002
 8228SOL    HW125583   0.216   1.939   4.933
 8228SOL    HW225584   0.098   1.867   5.019
 8229SOL     OW25585   3.767   5.339   0.758
 8229SOL    HW125586   3.773   5.432   0.794
 8229SOL    HW225587   3.830   5.280   0.807
 8230SOL     OW25588   5.215   0.031   4.184
 8230SOL    HW125589   5.314   0.022   4.173
 8230SOL    HW225590   5.168   6.995   4.120
 8231SOL     OW25591   4.303   5.865   1.292
 8231SOL    HW125592   4.299   5.937   1.361
 8231SOL    HW225593   4.350   5.785   1.330
 8232SOL     OW25594   2.739   1.839   6.792
 8232SOL    HW125595   2.721   1.868   6.698
 8232SOL    HW225596   2.653   1.836   6.843
 8233SOL     OW25597   0.385   5.128   6.257
 8233SOL    HW125598   0.351   5.041   6.221
 8233SOL    HW225599   0.329   5.157   6.335
 8234SOL     OW25600   3.547   2.949   6.910
 8234SOL    HW125601   3.561   2.890   6.989
 8234SOL    HW225602   3.450   2.953   6.888
 8235SOL     OW25603   4.771   2.321   0.056
 8235SOL    HW125604   4.730   2.243   0.010
 8235SOL    HW225605   4.831   2.370   7.017
 8236SOL     OW25606   5.633   2.176   0.701
 8236SOL    HW125607   5.565   2.102   0.693
 8236SOL    HW225608   5.593   2.252   0.752
 8237SOL     OW25609   4.017   6.039   5.499
 8237SOL    HW125610   4.065   5.970   5.445
 8237SOL    HW225611   4.076   6.118   5.514
 8238SOL     OW25612   1.940   1.155   6.739
 8238SOL    HW125613   1.883   1.130   6.818
 8238SOL    HW225614   1.921   1.094   6.663
 8239SOL     OW25615   6.926   1.239   6.632
 8239SOL    HW125616   6.872   1.180   6.691
 8239SOL    HW225617   6.888   1.332   6.634
 8240SOL     OW25618   3.999   3.857   3.220
 8240SOL    HW125619   4.032   3.787   3.157
 8240SOL    HW225620   3.934   3.817   3.283
 8241SOL     OW25621   4.368   6.673   1.577
 8241SOL    HW125622   4.443   6.608   1.563
 8241SOL    HW225623   4.403   6.767   1.568
 8242SOL     OW25624   0.975   4.056   5.291
 8242SOL    HW125625   0.899   3.994   5.270
 8242SOL    HW225626   0.956   4.146   5.252
 8243SOL     OW25627   1.116   3.555   4.882
 8243SOL    HW125628   1.139   3.649   4.907
 8243SOL    HW225629   1.189   3.494   4.913
 8244SOL     OW25630   1.172   5.793   4.820
 8244SOL    HW125631   1.149   5.746   4.905
 8244SOL    HW225632   1.195   5.888   4.840
 8245SOL     OW25633   3.657   3.513   0.734
 8245SOL    HW125634   3.746   3.553   0.757
 8245SOL    HW225635   3.639   3.526   0.637
 8246SOL     OW25636   5.229   3.927   5.797
 8246SOL    HW125637   5.174   3.892   5.873
 8246SOL    HW225638   5.169   3.964   5.726
 8247SOL     OW25639   1.075   6.752   1.665
 8247SOL    HW125640   1.122   6.700   1.594
 8247SOL    HW225641   1.057   6.844   1.632
 8248SOL     OW25642   0.292   4.193   3.391
 8248SOL    HW125643   0.298   4.094   3.376
 8248SOL    HW225644   0.219   4.212   3.457
 8249SOL     OW25645   1.648   5.529   3.168
 8249SOL    HW125646   1.685   5.612   3.208
 8249SOL    HW225647   1.656   5.454   3.233
 8250SOL     OW25648   3.774   4.057   2.053
 8250SOL    HW125649   3.797   3.973   2.103
 8250SOL    HW225650   3.852   4.085   1.996
 8251SOL     OW25651   6.387   1.569   4.965
 8251SOL    HW125652   6.302   1.620   4.951
 8251SOL    HW225653   6.379   1.480   4.920
 8252SOL     OW25654   1.355   3.183   4.377
 8252SOL    HW125655   1.422   3.241   4.330
 8252SOL    HW225656   1.402   3.121   4.440
 8253SOL     OW25657   2.465   2.686   5.492
 8253SOL    HW125658   2.565   2.684   5.494
 8253SOL    HW225659   2.434   2.738   5.413
 8254SOL     OW25660   4.390   6.226   3.636
 8254SOL    HW125661   4.359   6.160   3.568
 8254SOL    HW225662   4.311   6.269   3.680
 8255SOL     OW25663   4.382   5.144   4.021
 8255SOL    HW125664   4.432   5.215   4.071
 8255SOL    HW225665   4.340   5.081   4.086
 8256SOL     OW25666   6.141   2.254   4.323
 8256SOL    HW125667   6.205   2.328   4.343
 8256SOL    HW225668   6.189   2.180   4.275
 8257SOL     OW25669   6.409   4.128   4.948
 8257SOL    HW125670   6.493   4.181   4.933
 8257SOL    HW225671   6.331   4.180   4.915
 8258SOL     OW25672   4.743   1.634   0.022
 8258SOL    HW125673   4.768   1.678   6.959
 8258SOL    HW225674   4.745   1.701   0.095
 8259SOL     OW25675   3.602   1.268   1.639
 8259SOL    HW125676   3.541   1.279   1.560
 8259SOL    HW225677   3.697   1.280   1.609
 8260SOL     OW25678   2.673   6.226   0.497
 8260SOL    HW125679   2.725   6.152   0.454
 8260SOL    HW225680   2.701   6.235   0.593
 8261SOL     OW25681   5.472   1.302   1.527
 8261SOL    HW125682   5.398   1.365   1.550
 8261SOL    HW225683   5.439   1.236   1.459
 8262SOL     OW25684   1.113   1.945   0.706
 8262SOL    HW125685   1.197   1.938   0.652
 8262SOL    HW225686   1.049   2.008   0.661
 8263SOL     OW25687   5.803   1.109   0.268
 8263SOL    HW125688   5.840   1.018   0.287
 8263SOL    HW225689   5.836   1.141   0.179
 8264SOL     OW25690   1.922   4.410   2.898
 8264SOL    HW125691   2.008   4.448   2.931
 8264SOL    HW225692   1.906   4.321   2.942
 8265SOL     OW25693   1.648   1.069   1.951
 8265SOL    HW125694   1.719   1.109   1.894
 8265SOL    HW225695   1.565   1.054   1.896
 8266SOL     OW25696   3.010   0.109   2.944
 8266SOL    HW125697   3.068   0.138   3.020
 8266SOL    HW225698   3.014   0.177   2.871
 8267SOL     OW25699   0.428   3.670   0.515
 8267SOL    HW125700   0.350   3.628   0.562
 8267SOL    HW225701   0.454   3.754   0.562
 8268SOL     OW25702   3.583   5.950   6.386
 8268SOL    HW125703   3.620   5.948   6.480
 8268SOL    HW225704   3.494   5.904   6.384
 8269SOL     OW25705   5.928   2.080   1.011
 8269SOL    HW125706   5.893   2.171   0.988
 8269SOL    HW225707   5.910   2.017   0.936
 8270SOL     OW25708   3.542   6.202   3.995
 8270SOL    HW125709   3.556   6.130   3.926
 8270SOL    HW225710   3.496   6.280   3.952
 8271SOL     OW25711   6.613   2.186   1.818
 8271SOL    HW125712   6.676   2.138   1.880
 8271SOL    HW225713   6.622   2.285   1.832
 8272SOL     OW25714   3.501   1.323   4.168
 8272SOL    HW125715   3.507   1.302   4.070
 8272SOL    HW225716   3.574   1.386   4.192
 8273SOL     OW25717   1.862   6.558   1.201
 8273SOL    HW125718   1.898   6.477   1.247
 8273SOL    HW225719   1.797   6.530   1.130
 8274SOL     OW25720   5.277   4.416   3.329
 8274SOL    HW125721   5.237   4.393   3.417
 8274SOL    HW225722   5.255   4.510   3.305
 8275SOL     OW25723   4.960   2.387   6.603
 8275SOL    HW125724   5.022   2.380   6.524
 8275SOL    HW225725   4.866   2.383   6.571
 8276SOL     OW25726   0.869   2.261   2.914
 8276SOL    HW125727   0.917   2.336   2.869
 8276SOL    HW225728   0.796   2.298   2.972
 8277SOL     OW25729   6.318   0.606   0.043
 8277SOL    HW125730   6.304   0.694   0.088
 8277SOL    HW225731   6.241   0.545   0.062
 8278SOL     OW25732   1.938   2.726   6.703
 8278SOL    HW125733   1.941   2.816   6.660
 8278SOL    HW225734   1.932   2.737   6.802
 8279SOL     OW25735   6.992   6.146   4.123
 8279SOL    HW125736   7.006   6.243   4.106
 8279SOL    HW225737   6.998   6.096   4.036
 8280SOL     OW25738   2.387   2.225   5.913
 8280SOL    HW125739   2.290   2.208   5.933
 8280SOL    HW225740   2.408   2.321   5.930
 8281SOL     OW25741   6.210   5.615   2.117
 8281SOL    HW125742   6.248   5.637   2.206
 8281SOL    HW225743   6.117   5.579   2.127
 8282SOL     OW25744   5.716   2.823   5.886
 8282SOL    HW125745   5.631   2.860   5.848
 8282SOL    HW225746   5.759   2.763   5.818
 8283SOL     OW25747   1.631   3.145   5.792
 8283SOL    HW125748   1.598   3.224   5.845
 8283SOL    HW225749   1.621   3.164   5.694
 8284SOL     OW25750   5.985   4.029   1.644
 8284SOL    HW125751   6.054   4.076   1.590
 8284SOL    HW225752   6.016   3.936   1.664
 8285SOL     OW25753   3.804   3.505   4.334
 8285SOL    HW125754   3.837   3.492   4.240
 8285SOL    HW225755   3.849   3.585   4.374
 8286SOL     OW25756   6.888   1.716   6.345
 8286SOL    HW125757   6.815   1.648   6.335
 8286SOL    HW225758   6.903   1.762   6.258
 8287SOL     OW25759   1.161   5.696   4.337
 8287SOL    HW125760   1.211   5.697   4.423
 8287SOL    HW225761   1.221   5.723   4.262
 8288SOL     OW25762   2.722   2.112   3.292
 8288SOL    HW125763   2.804   2.127   3.347
 8288SOL    HW225764   2.737   2.033   3.231
 8289SOL     OW25765   0.038   6.016   6.753
 8289SOL    HW125766   7.021   5.971   6.833
 8289SOL    HW225767   0.100   5.952   6.707
 8290SOL     OW25768   6.678   2.923   0.775
 8290SOL    HW125769   6.667   3.018   0.748
 8290SOL    HW225770   6.760   2.885   0.731
 8291SOL     OW25771   3.934   6.586   1.049
 8291SOL    HW125772   3.918   6.518   0.978
 8291SOL    HW225773   3.849   6.600   1.101
 8292SOL     OW25774   2.710   6.548   6.357
 8292SOL    HW125775   2.646   6.578   6.287
 8292SOL    HW225776   2.686   6.455   6.385
 8293SOL     OW25777   5.329   5.583   4.884
 8293SOL    HW125778   5.243   5.633   4.892
 8293SOL    HW225779   5.349   5.536   4.971
 8294SOL     OW25780   5.545   2.404   0.101
 8294SOL    HW125781   5.607   2.404   0.022
 8294SOL    HW225782   5.569   2.479   0.162
 8295SOL     OW25783   4.805   4.098   0.322
 8295SOL    HW125784   4.800   4.189   0.281
 8295SOL    HW225785   4.866   4.040   0.268
 8296SOL     OW25786   1.119   5.516   6.682
 8296SOL    HW125787   1.142   5.585   6.752
 8296SOL    HW225788   1.043   5.460   6.715
 8297SOL     OW25789   0.668   2.511   3.511
 8297SOL    HW125790   0.589   2.562   3.474
 8297SOL    HW225791   0.721   2.474   3.435
 8298SOL     OW25792   4.661   1.355   1.883
 8298SOL    HW125793   4.665   1.431   1.818
 8298SOL    HW225794   4.567   1.321   1.888
 8299SOL     OW25795   6.490   2.071   1.347
 8299SOL    HW125796   6.551   2.107   1.417
 8299SOL    HW225797   6.531   2.084   1.257
 8300SOL     OW25798   0.735   4.445   3.574
 8300SOL    HW125799   0.780   4.441   3.485
 8300SOL    HW225800   0.681   4.362   3.588
 8301SOL     OW25801   3.274   2.914   6.809
 8301SOL    HW125802   3.182   2.878   6.823
 8301SOL    HW225803   3.268   3.005   6.769
 8302SOL     OW25804   5.330   5.774   6.033
 8302SOL    HW125805   5.408   5.803   5.978
 8302SOL    HW225806   5.361   5.747   6.124
 8303SOL     OW25807   0.363   0.380   5.649
 8303SOL    HW125808   0.324   0.296   5.688
 8303SOL    HW225809   0.440   0.410   5.705
 8304SOL     OW25810   0.287   3.285   6.871
 8304SOL    HW125811   0.239   3.350   6.812
 8304SOL    HW225812   0.382   3.314   6.883
 8305SOL     OW25813   3.485   6.060   3.575
 8305SOL    HW125814   3.495   5.966   3.607
 8305SOL    HW225815   3.388   6.085   3.575
 8306SOL     OW25816   0.803   3.289   4.059
 8306SOL    HW125817   0.743   3.258   3.985
 8306SOL    HW225818   0.857   3.211   4.092
 8307SOL     OW25819   2.769   5.858   0.838
 8307SOL    HW125820   2.732   5.787   0.898
 8307SOL    HW225821   2.845   5.821   0.784
 8308SOL     OW25822   3.788   6.807   3.199
 8308SOL    HW125823   3.770   6.727   3.256
 8308SOL    HW225824   3.876   6.798   3.154
 8309SOL     OW25825   5.229   5.921   2.178
 8309SOL    HW125826   5.237   5.945   2.275
 8309SOL    HW225827   5.320   5.912   2.138
 8310SOL     OW25828   6.896   4.673   0.219
 8310SOL    HW125829   6.923   4.647   0.312
 8310SOL    HW225830   6.945   4.618   0.152
 8311SOL     OW25831   6.308   0.306   0.484
 8311SOL    HW125832   6.259   0.232   0.530
 8311SOL    HW225833   6.335   0.374   0.552
 8312SOL     OW25834   5.253   6.412   1.453
 8312SOL    HW125835   5.219   6.381   1.364
 8312SOL    HW225836   5.254   6.512   1.455
 8313SOL     OW25837   3.400   1.377   3.173
 8313SOL    HW125838   3.413   1.423   3.086
 8313SOL    HW225839   3.325   1.421   3.223
 8314SOL     OW25840   6.642   6.972   3.642
 8314SOL    HW125841   6.588   0.030   3.623
 8314SOL    HW225842   6.732   6.981   3.599
 8315SOL     OW25843   4.997   4.792   6.387
 8315SOL    HW125844   4.959   4.783   6.479
 8315SOL    HW225845   5.096   4.775   6.390
 8316SOL     OW25846   2.288   5.561   6.950
 8316SOL    HW125847   2.342   5.561   6.866
 8316SOL    HW225848   2.321   5.633   7.011
 8317SOL     OW25849   2.129   4.365   2.396
 8317SOL    HW125850   2.054   4.409   2.445
 8317SOL    HW225851   2.124   4.388   2.299
 8318SOL     OW25852   3.783   1.014   5.406
 8318SOL    HW125853   3.737   1.000   5.319
 8318SOL    HW225854   3.765   0.936   5.466
 8319SOL     OW25855   3.735   0.619   4.700
 8319SOL    HW125856   3.735   0.535   4.645
 8319SOL    HW225857   3.670   0.610   4.775
 8320SOL     OW25858   3.787   4.407   1.647
 8320SOL    HW125859   3.736   4.335   1.693
 8320SOL    HW225860   3.880   4.411   1.684
 8321SOL     OW25861   0.559   0.575   1.264
 8321SOL    HW125862   0.481   0.635   1.279
 8321SOL    HW225863   0.533   0.480   1.281
 8322SOL     OW25864   5.648   6.594   0.146
 8322SOL    HW125865   5.714   6.599   0.220
 8322SOL    HW225866   5.695   6.576   0.059
 8323SOL     OW25867   1.598   2.074   1.477
 8323SOL    HW125868   1.572   1.978   1.484
 8323SOL    HW225869   1.695   2.084   1.497
 8324SOL     OW25870   6.940   1.382   2.001
 8324SOL    HW125871   6.860   1.418   2.048
 8324SOL    HW225872   7.020   1.386   2.062
 8325SOL     OW25873   3.150   3.013   3.680
 8325SOL    HW125874   3.072   3.073   3.694
 8325SOL    HW225875   3.198   3.039   3.596
 8326SOL     OW25876   3.555   3.363   5.875
 8326SOL    HW125877   3.508   3.275   5.860
 8326SOL    HW225878   3.548   3.388   5.972
 8327SOL     OW25879   4.894   1.793   5.957
 8327SOL    HW125880   4.811   1.840   5.928
 8327SOL    HW225881   4.930   1.836   6.040
 8328SOL     OW25882   2.523   2.329   5.383
 8328SOL    HW125883   2.588   2.403   5.396
 8328SOL    HW225884   2.555   2.267   5.311
 8329SOL     OW25885   0.096   2.753   5.314
 8329SOL    HW125886   0.181   2.741   5.367
 8329SOL    HW225887   0.019   2.760   5.377
 8330SOL     OW25888   3.192   6.843   0.140
 8330SOL    HW125889   3.096   6.834   0.166
 8330SOL    HW225890   3.250   6.818   0.218
 8331SOL     OW25891   2.487   0.178   1.067
 8331SOL    HW125892   2.508   0.214   1.158
 8331SOL    HW225893   2.552   0.214   1.001
 8332SOL     OW25894   5.044   5.733   2.680
 8332SOL    HW125895   5.110   5.791   2.632
 8332SOL    HW225896   5.035   5.765   2.775
 8333SOL     OW25897   0.768   6.032   6.241
 8333SOL    HW125898   0.819   6.119   6.235
 8333SOL    HW225899   0.686   6.038   6.184
 8334SOL     OW25900   5.884   1.098   3.657
 8334SOL    HW125901   5.932   1.152   3.588
 8334SOL    HW225902   5.915   1.125   3.748
 8335SOL     OW25903   5.604   6.974   5.835
 8335SOL    HW125904   5.675   0.015   5.806
 8335SOL    HW225905   5.514   7.012   5.814
 8336SOL     OW25906   0.328   2.305   2.179
 8336SOL    HW125907   0.329   2.332   2.276
 8336SOL    HW225908   0.373   2.375   2.124
 8337SOL     OW25909   0.411   6.099   2.662
 8337SOL    HW125910   0.370   6.016   2.701
 8337SOL    HW225911   0.356   6.178   2.688
 8338SOL     OW25912   1.720   4.794   0.503
 8338SOL    HW125913   1.734   4.809   0.601
 8338SOL    HW225914   1.719   4.883   0.456
 8339SOL     OW25915   5.575   1.330   2.750
 8339SOL    HW125916   5.549   1.328   2.847
 8339SOL    HW225917   5.668   1.365   2.741
 8340SOL     OW25918   4.630   3.408   0.434
 8340SOL    HW125919   4.615   3.318   0.394
 8340SOL    HW225920   4.715   3.408   0.486
 8341SOL     OW25921   1.950   0.074   1.019
 8341SOL    HW125922   1.869   0.024   0.991
 8341SOL    HW225923   2.031   0.018   1.002
 8342SOL     OW25924   4.309   1.066   1.240
 8342SOL    HW125925   4.311   1.144   1.178
 8342SOL    HW225926   4.349   1.093   1.328
 8343SOL     OW25927   1.678   5.292   6.159
 8343SOL    HW125928   1.613   5.220   6.137
 8343SOL    HW225929   1.718   5.275   6.249
 8344SOL     OW25930   4.036   0.044   5.302
 8344SOL    HW125931   4.045   0.010   5.395
 8344SOL    HW225932   4.056   0.142   5.299
 8345SOL     OW25933   6.607   1.218   2.412
 8345SOL    HW125934   6.536   1.235   2.481
 8345SOL    HW225935   6.688   1.272   2.433
 8346SOL     OW25936   3.359   5.190   1.842
 8346SOL    HW125937   3.408   5.118   1.793
 8346SOL    HW225938   3.270   5.156   1.872
 8347SOL     OW25939   3.710   5.554   3.978
 8347SOL    HW125940   3.699   5.459   4.008
 8347SOL    HW225941   3.737   5.556   3.882
 8348SOL     OW25942   1.683   0.416   0.416
 8348SOL    HW125943   1.744   0.381   0.345
 8348SOL    HW225944   1.729   0.491   0.464
 8349SOL     OW25945   5.873   5.275   1.939
 8349SOL    HW125946   5.840   5.299   1.847
 8349SOL    HW225947   5.963   5.317   1.953
 8350SOL     OW25948   6.478   0.718   5.061
 8350SOL    HW125949   6.542   0.779   5.109
 8350SOL    HW225950   6.457   0.640   5.120
 8351SOL     OW25951   3.067   6.345   2.431
 8351SOL    HW125952   3.059   6.375   2.336
 8351SOL    HW225953   3.063   6.246   2.435
 8352SOL     OW25954   6.689   6.482   1.301
 8352SOL    HW125955   6.778   6.435   1.292
 8352SOL    HW225956   6.690   6.537   1.384
 8353SOL     OW25957   0.138   3.837   2.381
 8353SOL    HW125958   0.065   3.768   2.380
 8353SOL    HW225959   0.220   3.798   2.423
 8354SOL     OW25960   2.161   1.009   0.561
 8354SOL    HW125961   2.261   1.005   0.557
 8354SOL    HW225962   2.130   1.092   0.515
 8355SOL     OW25963   3.082   0.971   0.326
 8355SOL    HW125964   3.089   1.026   0.409
 8355SOL    HW225965   3.015   1.013   0.264
 8356SOL     OW25966   2.206   5.329   0.046
 8356SOL    HW125967   2.270   5.258   0.016
 8356SOL    HW225968   2.223   5.414   7.019
 8357SOL     OW25969   4.992   5.506   4.412
 8357SOL    HW125970   4.997   5.568   4.334
 8357SOL    HW225971   4.972   5.413   4.381
 8358SOL     OW25972   2.064   2.186   5.682
 8358SOL    HW125973   2.154   2.170   5.641
 8358SOL    HW225974   2.076   2.224   5.774
 8359SOL     OW25975   4.570   4.874   3.879
 8359SOL    HW125976   4.506   4.940   3.840
 8359SOL    HW225977   4.520   4.801   3.926
 8360SOL     OW25978   4.879   0.431   3.670
 8360SOL    HW125979   4.923   0.402   3.755
 8360SOL    HW225980   4.948   0.465   3.607
 8361SOL     OW25981   1.913   0.751   3.149
 8361SOL    HW125982   1.865   0.663   3.143
 8361SOL    HW225983   1.989   0.752   3.085
 8362SOL     OW25984   2.500   3.144   0.508
 8362SOL    HW125985   2.508   3.094   0.594
 8362SOL    HW225986   2.407   3.138   0.474
 8363SOL     OW25987   0.136   3.194   0.573
 8363SOL    HW125988   0.038   3.197   0.555
 8363SOL    HW225989   0.186   3.182   0.487
 8364SOL     OW25990   6.570   4.324   3.746
 8364SOL    HW125991   6.562   4.347   3.649
 8364SOL    HW225992   6.574   4.407   3.801
 8365SOL     OW25993   1.968   3.491   5.875
 8365SOL    HW125994   2.014   3.571   5.912
 8365SOL    HW225995   1.937   3.432   5.950
 8366SOL     OW25996   3.178   6.619   2.884
 8366SOL    HW125997   3.155   6.714   2.865
 8366SOL    HW225998   3.260   6.593   2.832
 8367SOL     OW25999   5.678   5.778   3.740
 8367SOL    HW126000   5.707   5.737   3.826
 8367SOL    HW226001   5.709   5.721   3.664
 8368SOL     OW26002   2.981   5.014   6.700
 8368SOL    HW126003   3.015   5.107   6.683
 8368SOL    HW226004   2.937   4.979   6.617
 8369SOL     OW26005   2.166   1.589   1.153
 8369SOL    HW126006   2.082   1.623   1.196
 8369SOL    HW226007   2.234   1.570   1.224
 8370SOL     OW26008   1.532   1.423   6.844
 8370SOL    HW126009   1.481   1.503   6.876
 8370SOL    HW226010   1.468   1.352   6.817
 8371SOL     OW26011   1.822   3.317   0.802
 8371SOL    HW126012   1.908   3.311   0.854
 8371SOL    HW226013   1.745   3.322   0.866
 8372SOL     OW26014   0.233   0.471   2.044
 8372SOL    HW126015   0.136   0.447   2.047
 8372SOL    HW226016   0.244   0.555   1.990
 8373SOL     OW26017   1.482   6.940   5.043
 8373SOL    HW126018   1.553   6.983   4.988
 8373SOL    HW226019   1.479   6.984   5.133
 8374SOL     OW26020   6.239   0.143   6.482
 8374SOL    HW126021   6.245   0.243   6.486
 8374SOL    HW226022   6.330   0.103   6.495
 8375SOL     OW26023   3.571   0.677   6.427
 8375SOL    HW126024   3.666   0.705   6.411
 8375SOL    HW226025   3.564   0.578   6.423
 8376SOL     OW26026   4.081   0.279   4.923
 8376SOL    HW126027   4.048   0.373   4.912
 8376SOL    HW226028   4.005   0.215   4.914
 8377SOL     OW26029   5.562   4.301   0.714
 8377SOL    HW126030   5.479   4.270   0.759
 8377SOL    HW226031   5.602   4.225   0.662
 8378SOL     OW26032   4.858   3.232   3.665
 8378SOL    HW126033   4.865   3.202   3.570
 8378SOL    HW226034   4.810   3.162   3.718
 8379SOL     OW26035   5.661   2.275   1.862
 8379SOL    HW126036   5.577   2.229   1.891
 8379SOL    HW226037   5.704   2.223   1.788
 8380SOL     OW26038   5.128   1.821   3.190
 8380SOL    HW126039   5.089   1.912   3.177
 8380SOL    HW226040   5.134   1.774   3.103
 8381SOL     OW26041   1.940   5.508   4.420
 8381SOL    HW126042   1.955   5.607   4.414
 8381SOL    HW226043   1.855   5.485   4.372
 8382SOL     OW26044   1.043   3.024   2.271
 8382SOL    HW126045   1.024   3.115   2.234
 8382SOL    HW226046   1.073   3.033   2.367
 8383SOL     OW26047   3.555   2.009   6.323
 8383SOL    HW126048   3.625   1.938   6.322
 8383SOL    HW226049   3.466   1.966   6.339
 8384SOL     OW26050   0.762   6.367   1.646
 8384SOL    HW126051   0.774   6.307   1.567
 8384SOL    HW226052   0.843   6.363   1.704
 8385SOL     OW26053   4.409   2.271   0.968
 8385SOL    HW126054   4.382   2.345   1.029
 8385SOL    HW226055   4.481   2.216   1.011
 8386SOL     OW26056   1.587   4.505   2.565
 8386SOL    HW126057   1.492   4.479   2.549
 8386SOL    HW226058   1.634   4.433   2.616
 8387SOL     OW26059   0.544   1.825   1.217
 8387SOL    HW126060   0.461   1.782   1.179
 8387SOL    HW226061   0.520   1.914   1.256
 8388SOL     OW26062   1.130   0.105   2.529
 8388SOL    HW126063   1.090   0.014   2.516
 8388SOL    HW226064   1.199   0.122   2.458
 8389SOL     OW26065   5.028   2.397   2.483
 8389SOL    HW126066   4.930   2.380   2.495
 8389SOL    HW226067   5.080   2.315   2.509
 8390SOL     OW26068   5.555   1.684   6.032
 8390SOL    HW126069   5.612   1.756   6.072
 8390SOL    HW226070   5.593   1.656   5.944
 8391SOL     OW26071   6.596   6.879   1.407
 8391SOL    HW126072   6.589   6.912   1.501
 8391SOL    HW226073   6.691   6.858   1.385
 8392SOL     OW26074   4.975   2.987   5.749
 8392SOL    HW126075   4.919   3.036   5.815
 8392SOL    HW226076   5.037   3.051   5.703
 8393SOL     OW26077   5.073   0.017   1.574
 8393SOL    HW126078   5.062   0.096   1.634
 8393SOL    HW226079   5.125   6.970   1.622
 8394SOL     OW26080   5.835   2.832   2.087
 8394SOL    HW126081   5.887   2.891   2.024
 8394SOL    HW226082   5.777   2.889   2.145
 8395SOL     OW26083   2.262   1.258   4.850
 8395SOL    HW126084   2.222   1.260   4.759
 8395SOL    HW226085   2.299   1.167   4.869
 8396SOL     OW26086   4.519   5.681   4.296
 8396SOL    HW126087   4.421   5.661   4.300
 8396SOL    HW226088   4.546   5.732   4.378
 8397SOL     OW26089   6.088   0.830   2.884
 8397SOL    HW126090   6.125   0.803   2.973
 8397SOL    HW226091   5.991   0.850   2.894
 8398SOL     OW26092   4.918   2.122   6.126
 8398SOL    HW126093   4.927   2.135   6.224
 8398SOL    HW226094   4.823   2.099   6.103
 8399SOL     OW26095   0.438   4.564   1.173
 8399SOL    HW126096   0.390   4.500   1.232
 8399SOL    HW226097   0.382   4.584   1.092
 8400SOL     OW26098   1.596   1.441   4.993
 8400SOL    HW126099   1.579   1.535   5.024
 8400SOL    HW226100   1.517   1.384   5.012
 8401SOL     OW26101   2.332   6.857   5.743
 8401SOL    HW126102   2.362   6.864   5.838
 8401SOL    HW226103   2.406   6.885   5.682
 8402SOL     OW26104   3.517   0.727   5.976
 8402SOL    HW126105   3.565   0.710   6.062
 8402SOL    HW226106   3.584   0.751   5.905
 8403SOL     OW26107   5.813   4.370   4.484
 8403SOL    HW126108   5.763   4.390   4.400
 8403SOL    HW226109   5.901   4.329   4.461
 8404SOL     OW26110   0.954   1.853   6.564
 8404SOL    HW126111   0.855   1.867   6.564
 8404SOL    HW226112   0.978   1.784   6.495
 8405SOL     OW26113   4.351   0.363   5.990
 8405SOL    HW126114   4.401   0.446   5.965
 8405SOL    HW226115   4.285   0.341   5.918
 8406SOL     OW26116   5.271   0.412   6.363
 8406SOL    HW126117   5.306   0.340   6.302
 8406SOL    HW226118   5.240   0.371   6.448
 8407SOL     OW26119   3.407   6.970   4.107
 8407SOL    HW126120   3.310   6.988   4.094
 8407SOL    HW226121   3.424   6.946   4.203
 8408SOL     OW26122   3.579   1.444   1.234
 8408SOL    HW126123   3.521   1.365   1.213
 8408SOL    HW226124   3.674   1.421   1.213
 8409SOL     OW26125   4.439   2.399   1.981
 8409SOL    HW126126   4.408   2.407   2.075
 8409SOL    HW226127   4.372   2.440   1.919
 8410SOL     OW26128   6.854   1.808   1.792
 8410SOL    HW126129   6.785   1.776   1.857
 8410SOL    HW226130   6.945   1.793   1.831
 8411SOL     OW26131   1.184   6.363   0.584
 8411SOL    HW126132   1.229   6.452   0.585
 8411SOL    HW226133   1.138   6.350   0.496
 8412SOL     OW26134   2.602   2.174   6.343
 8412SOL    HW126135   2.614   2.102   6.275
 8412SOL    HW226136   2.633   2.262   6.305
 8413SOL     OW26137   4.234   5.700   4.288
 8413SOL    HW126138   4.197   5.786   4.252
 8413SOL    HW226139   4.159   5.640   4.316
 8414SOL     OW26140   1.026   0.220   1.478
 8414SOL    HW126141   1.034   0.220   1.378
 8414SOL    HW226142   1.110   0.255   1.518
 8415SOL     OW26143   2.668   1.247   5.639
 8415SOL    HW126144   2.603   1.177   5.612
 8415SOL    HW226145   2.643   1.334   5.596
 8416SOL     OW26146   6.712   1.860   5.708
 8416SOL    HW126147   6.804   1.898   5.718
 8416SOL    HW226148   6.677   1.880   5.617
 8417SOL     OW26149   1.532   3.404   5.624
 8417SOL    HW126150   1.568   3.490   5.589
 8417SOL    HW226151   1.587   3.328   5.589
 8418SOL     OW26152   0.781   6.036   2.418
 8418SOL    HW126153   0.772   5.987   2.331
 8418SOL    HW226154   0.716   6.111   2.421
 8419SOL     OW26155   4.670   1.977   4.214
 8419SOL    HW126156   4.686   1.960   4.117
 8419SOL    HW226157   4.753   1.955   4.265
 8420SOL     OW26158   3.456   0.464   1.870
 8420SOL    HW126159   3.539   0.437   1.918
 8420SOL    HW226160   3.454   0.419   1.780
 8421SOL     OW26161   4.744   6.756   6.433
 8421SOL    HW126162   4.794   6.731   6.350
 8421SOL    HW226163   4.802   6.743   6.513
 8422SOL     OW26164   5.227   2.458   3.408
 8422SOL    HW126165   5.197   2.399   3.482
 8422SOL    HW226166   5.186   2.549   3.419
 8423SOL     OW26167   6.967   5.099   6.826
 8423SOL    HW126168   6.966   5.100   6.926
 8423SOL    HW226169   6.915   5.178   6.792
 8424SOL     OW26170   3.267   0.502   4.803
 8424SOL    HW126171   3.265   0.596   4.835
 8424SOL    HW226172   3.359   0.478   4.772
 8425SOL     OW26173   3.521   4.123   2.123
 8425SOL    HW126174   3.613   4.088   2.105
 8425SOL    HW226175   3.515   4.153   2.219
 8426SOL     OW26176   3.980   3.059   1.950
 8426SOL    HW126177   4.066   3.047   1.901
 8426SOL    HW226178   3.912   2.995   1.914
 8427SOL     OW26179   3.614   3.841   3.864
 8427SOL    HW126180   3.536   3.872   3.810
 8427SOL    HW226181   3.584   3.812   3.954
 8428SOL     OW26182   5.858   6.899   1.611
 8428SOL    HW126183   5.796   6.903   1.689
 8428SOL    HW226184   5.860   6.806   1.574
 8429SOL     OW26185   2.998   5.600   5.382
 8429SOL    HW126186   2.962   5.684   5.341
 8429SOL    HW226187   2.983   5.523   5.320
 8430SOL     OW26188   4.937   0.218   4.994
 8430SOL    HW126189   5.018   0.242   4.941
 8430SOL    HW226190   4.859   0.209   4.933
 8431SOL     OW26191   2.054   3.762   5.929
 8431SOL    HW126192   2.004   3.817   5.995
 8431SOL    HW226193   2.055   3.809   5.840
 8432SOL     OW26194   6.212   5.177   5.930
 8432SOL    HW126195   6.240   5.147   6.022
 8432SOL    HW226196   6.190   5.096   5.875
 8433SOL     OW26197   5.308   2.247   0.920
 8433SOL    HW126198   5.284   2.150   0.908
 8433SOL    HW226199   5.274   2.279   1.009
 8434SOL     OW26200   2.889   5.539   4.809
 8434SOL    HW126201   2.813   5.604   4.818
 8434SOL    HW226202   2.975   5.588   4.807
 8435SOL     OW26203   5.476   1.796   3.140
 8435SOL    HW126204   5.559   1.845   3.167
 8435SOL    HW226205   5.435   1.841   3.061
 8436SOL     OW26206   2.280   5.653   2.210
 8436SOL    HW126207   2.246   5.740   2.245
 8436SOL    HW226208   2.344   5.614   2.275
 8437SOL     OW26209   1.148   5.197   2.149
 8437SOL    HW126210   1.183   5.285   2.181
 8437SOL    HW226211   1.055   5.209   2.115
 8438SOL     OW26212   0.700   3.902   2.530
 8438SOL    HW126213   0.692   3.965   2.453
 8438SOL    HW226214   0.769   3.936   2.594
 8439SOL     OW26215   5.926   4.700   2.748
 8439SOL    HW126216   5.870   4.699   2.831
 8439SOL    HW226217   5.887   4.764   2.682
 8440SOL     OW26218   1.673   1.933   2.801
 8440SOL    HW126219   1.711   1.955   2.711
 8440SOL    HW226220   1.662   2.017   2.854
 8441SOL     OW26221   6.686   1.595   5.786
 8441SOL    HW126222   6.677   1.680   5.735
 8441SOL    HW226223   6.781   1.564   5.784
 8442SOL     OW26224   3.960   1.902   6.396
 8442SOL    HW126225   3.916   1.982   6.438
 8442SOL    HW226226   4.009   1.850   6.466
 8443SOL     OW26227   1.423   4.000   3.014
 8443SOL    HW126228   1.476   3.919   2.991
 8443SOL    HW226229   1.447   4.075   2.951
 8444SOL     OW26230   5.636   4.931   5.043
 8444SOL    HW126231   5.645   4.990   4.963
 8444SOL    HW226232   5.579   4.976   5.111
 8445SOL     OW26233   4.341   6.181   6.591
 8445SOL    HW126234   4.333   6.252   6.521
 8445SOL    HW226235   4.352   6.224   6.681
 8446SOL     OW26236   6.731   5.228   4.868
 8446SOL    HW126237   6.795   5.269   4.932
 8446SOL    HW226238   6.653   5.289   4.855
 8447SOL     OW26239   4.323   1.944   3.413
 8447SOL    HW126240   4.371   1.926   3.327
 8447SOL    HW226241   4.389   1.968   3.484
 8448SOL     OW26242   3.119   6.007   3.228
 8448SOL    HW126243   3.210   5.985   3.264
 8448SOL    HW226244   3.115   5.983   3.131
 8449SOL     OW26245   1.912   2.156   3.195
 8449SOL    HW126246   1.845   2.085   3.216
 8449SOL    HW226247   1.906   2.179   3.097
 8450SOL     OW26248   0.168   1.582   6.718
 8450SOL    HW126249   0.154   1.622   6.628
 8450SOL    HW226250   0.225   1.500   6.710
 8451SOL     OW26251   4.186   2.352   0.740
 8451SOL    HW126252   4.151   2.271   0.692
 8451SOL    HW226253   4.282   2.337   0.764
 8452SOL     OW26254   5.072   1.722   5.706
 8452SOL    HW126255   5.013   1.760   5.777
 8452SOL    HW226256   5.019   1.661   5.647
 8453SOL     OW26257   6.621   6.268   0.461
 8453SOL    HW126258   6.564   6.206   0.408
 8453SOL    HW226259   6.705   6.289   0.411
 8454SOL     OW26260   6.718   4.117   6.873
 8454SOL    HW126261   6.672   4.203   6.893
 8454SOL    HW226262   6.691   4.085   6.782
 8455SOL     OW26263   6.782   1.252   2.690
 8455SOL    HW126264   6.791   1.280   2.786
 8455SOL    HW226265   6.781   1.152   2.685
 8456SOL     OW26266   6.793   0.052   3.291
 8456SOL    HW126267   6.798   0.037   3.192
 8456SOL    HW226268   6.797   0.150   3.310
 8457SOL     OW26269   6.937   6.786   5.365
 8457SOL    HW126270   7.018   6.729   5.381
 8457SOL    HW226271   6.909   6.828   5.451
 8458SOL     OW26272   0.620   0.142   6.540
 8458SOL    HW126273   0.630   0.237   6.570
 8458SOL    HW226274   0.549   0.097   6.594
 8459SOL     OW26275   1.563   6.521   3.637
 8459SOL    HW126276   1.474   6.536   3.679
 8459SOL    HW226277   1.557   6.534   3.538
 8460SOL     OW26278   3.786   3.952   3.521
 8460SOL    HW126279   3.719   4.021   3.545
 8460SOL    HW226280   3.759   3.864   3.559
 8461SOL     OW26281   6.516   3.520   4.022
 8461SOL    HW126282   6.535   3.424   4.004
 8461SOL    HW226283   6.442   3.527   4.089
 8462SOL     OW26284   2.561   2.790   1.743
 8462SOL    HW126285   2.646   2.826   1.782
 8462SOL    HW226286   2.512   2.864   1.696
 8463SOL     OW26287   5.239   0.893   2.251
 8463SOL    HW126288   5.229   0.816   2.314
 8463SOL    HW226289   5.214   0.863   2.158
 8464SOL     OW26290   6.610   1.615   5.095
 8464SOL    HW126291   6.531   1.584   5.042
 8464SOL    HW226292   6.629   1.711   5.074
 8465SOL     OW26293   1.607   2.126   6.931
 8465SOL    HW126294   1.658   2.128   7.017
 8465SOL    HW226295   1.574   2.033   6.914
 8466SOL     OW26296   0.516   6.738   3.919
 8466SOL    HW126297   0.610   6.770   3.921
 8466SOL    HW226298   0.454   6.814   3.942
 8467SOL     OW26299   3.656   5.470   1.321
 8467SOL    HW126300   3.693   5.556   1.355
 8467SOL    HW226301   3.699   5.447   1.234
 8468SOL     OW26302   4.442   2.491   0.436
 8468SOL    HW126303   4.445   2.392   0.423
 8468SOL    HW226304   4.387   2.533   0.364
 8469SOL     OW26305   3.861   2.488   6.791
 8469SOL    HW126306   3.779   2.469   6.738
 8469SOL    HW226307   3.885   2.408   6.846
 8470SOL     OW26308   1.768   3.276   6.899
 8470SOL    HW126309   1.672   3.297   6.885
 8470SOL    HW226310   1.776   3.191   6.952
 8471SOL     OW26311   5.106   1.217   4.116
 8471SOL    HW126312   5.065   1.239   4.028
 8471SOL    HW226313   5.052   1.258   4.190
 8472SOL     OW26314   1.461   0.384   2.854
 8472SOL    HW126315   1.367   0.370   2.885
 8472SOL    HW226316   1.524   0.361   2.927
 8473SOL     OW26317   6.362   5.487   6.507
 8473SOL    HW126318   6.405   5.458   6.593
 8473SOL    HW226319   6.263   5.498   6.522
 8474SOL     OW26320   3.770   5.282   0.453
 8474SOL    HW126321   3.723   5.295   0.365
 8474SOL    HW226322   3.718   5.217   0.508
 8475SOL     OW26323   4.557   1.542   2.990
 8475SOL    HW126324   4.610   1.561   3.072
 8475SOL    HW226325   4.475   1.490   3.014
 8476SOL     OW26326   4.425   0.550   2.477
 8476SOL    HW126327   4.476   0.550   2.563
 8476SOL    HW226328   4.431   0.641   2.435
 8477SOL     OW26329   2.435   0.675   2.230
 8477SOL    HW126330   2.427   0.577   2.211
 8477SOL    HW226331   2.377   0.699   2.307
 8478SOL     OW26332   1.545   0.369   5.527
 8478SOL    HW126333   1.457   0.403   5.559
 8478SOL    HW226334   1.592   0.442   5.476
 8479SOL     OW26335   5.154   1.587   2.503
 8479SOL    HW126336   5.212   1.547   2.433
 8479SOL    HW226337   5.058   1.569   2.481
 8480SOL     OW26338   1.134   1.568   1.304
 8480SOL    HW126339   1.176   1.570   1.213
 8480SOL    HW226340   1.035   1.567   1.295
 8481SOL     OW26341   4.552   0.161   5.006
 8481SOL    HW126342   4.457   0.171   4.977
 8481SOL    HW226343   4.559   0.090   5.075
 8482SOL     OW26344   0.351   0.373   2.285
 8482SOL    HW126345   0.306   0.419   2.208
 8482SOL    HW226346   0.431   0.427   2.314
 8483SOL     OW26347   5.000   6.279   2.179
 8483SOL    HW126348   5.000   6.330   2.093
 8483SOL    HW226349   5.058   6.326   2.245
 8484SOL     OW26350   0.595   4.437   4.598
 8484SOL    HW126351   0.599   4.534   4.573
 8484SOL    HW226352   0.666   4.417   4.665
 8485SOL     OW26353   2.499   3.547   5.675
 8485SOL    HW126354   2.432   3.532   5.748
 8485SOL    HW226355   2.587   3.508   5.701
 8486SOL     OW26356   4.084   6.961   2.663
 8486SOL    HW126357   3.998   6.960   2.714
 8486SOL    HW226358   4.064   6.963   2.565
 8487SOL     OW26359   4.878   0.319   1.225
 8487SOL    HW126360   4.789   0.356   1.200
 8487SOL    HW226361   4.946   0.392   1.230
 8488SOL     OW26362   5.418   3.174   4.885
 8488SOL    HW126363   5.462   3.222   4.961
 8488SOL    HW226364   5.475   3.096   4.858
 8489SOL     OW26365   4.101   5.559   2.524
 8489SOL    HW126366   4.156   5.636   2.557
 8489SOL    HW226367   4.096   5.489   2.595
 8490SOL     OW26368   3.694   5.183   2.540
 8490SOL    HW126369   3.693   5.153   2.635
 8490SOL    HW226370   3.605   5.165   2.499
 8491SOL     OW26371   1.333   0.962   2.030
 8491SOL    HW126372   1.256   0.946   1.968
 8491SOL    HW226373   1.372   1.052   2.012
 8492SOL     OW26374   5.292   3.867   4.410
 8492SOL    HW126375   5.234   3.826   4.480
 8492SOL    HW226376   5.354   3.933   4.453
 8493SOL     OW26377   3.487   2.357   0.826
 8493SOL    HW126378   3.567   2.401   0.866
 8493SOL    HW226379   3.415   2.348   0.895
 8494SOL     OW26380   3.608   5.648   0.141
 8494SOL    HW126381   3.553   5.590   0.202
 8494SOL    HW226382   3.548   5.690   0.073
 8495SOL     OW26383   0.682   2.508   0.187
 8495SOL    HW126384   0.708   2.522   0.282
 8495SOL    HW226385   0.733   2.571   0.128
 8496SOL     OW26386   6.769   2.196   3.176
 8496SOL    HW126387   6.757   2.280   3.229
 8496SOL    HW226388   6.867   2.179   3.164
 8497SOL     OW26389   6.233   4.979   3.584
 8497SOL    HW126390   6.329   4.974   3.555
 8497SOL    HW226391   6.205   5.075   3.589
 8498SOL     OW26392   6.474   0.962   0.794
 8498SOL    HW126393   6.422   0.906   0.857
 8498SOL    HW226394   6.458   1.059   0.813
 8499SOL     OW26395   2.578   4.009   6.196
 8499SOL    HW126396   2.596   3.979   6.290
 8499SOL    HW226397   2.657   3.989   6.139
 8500SOL     OW26398   3.414   0.475   6.059
 8500SOL    HW126399   3.432   0.569   6.029
 8500SOL    HW226400   3.406   0.416   5.978
 8501SOL     OW26401   2.644   4.493   6.071
 8501SOL    HW126402   2.713   4.537   6.129
 8501SOL    HW226403   2.558   4.485   6.121
 8502SOL     OW26404   0.340   0.063   2.251
 8502SOL    HW126405   0.384   0.152   2.243
 8502SOL    HW226406   0.408   7.015   2.238
 8503SOL     OW26407   3.142   6.280   2.856
 8503SOL    HW126408   3.198   6.290   2.774
 8503SOL    HW226409   3.054   6.327   2.843
 8504SOL     OW26410   1.360   5.450   3.559
 8504SOL    HW126411   1.403   5.493   3.638
 8504SOL    HW226412   1.379   5.505   3.477
 8505SOL     OW26413   4.800   2.957   3.966
 8505SOL    HW126414   4.888   2.997   3.993
 8505SOL    HW226415   4.803   2.931   3.870
 8506SOL     OW26416   0.521   6.109   0.653
 8506SOL    HW126417   0.443   6.062   0.693
 8506SOL    HW226418   0.593   6.118   0.722
 8507SOL     OW26419   1.809   0.400   4.705
 8507SOL    HW126420   1.892   0.422   4.654
 8507SOL    HW226421   1.810   0.450   4.792
 8508SOL     OW26422   1.178   3.139   6.377
 8508SOL    HW126423   1.219   3.055   6.412
 8508SOL    HW226424   1.082   3.143   6.405
 8509SOL     OW26425   6.272   2.213   4.662
 8509SOL    HW126426   6.178   2.203   4.630
 8509SOL    HW226427   6.273   2.264   4.749
 8510SOL     OW26428   5.009   0.327   2.502
 8510SOL    HW126429   5.109   0.329   2.503
 8510SOL    HW226430   4.975   0.322   2.596
 8511SOL     OW26431   6.821   4.868   1.825
 8511SOL    HW126432   6.753   4.888   1.895
 8511SOL    HW226433   6.805   4.926   1.745
 8512SOL     OW26434   4.102   2.594   0.669
 8512SOL    HW126435   4.134   2.500   0.661
 8512SOL    HW226436   4.145   2.638   0.748
 8513SOL     OW26437   0.499   4.290   1.704
 8513SOL    HW126438   0.515   4.193   1.726
 8513SOL    HW226439   0.476   4.339   1.788
 8514SOL     OW26440   2.542   2.478   5.694
 8514SOL    HW126441   2.532   2.381   5.668
 8514SOL    HW226442   2.503   2.535   5.622
 8515SOL     OW26443   2.036   0.803   0.400
 8515SOL    HW126444   2.063   0.879   0.459
 8515SOL    HW226445   2.106   0.789   0.329
 8516SOL     OW26446   5.369   2.527   3.835
 8516SOL    HW126447   5.282   2.509   3.880
 8516SOL    HW226448   5.423   2.590   3.891
 8517SOL     OW26449   1.881   1.723   6.305
 8517SOL    HW126450   1.969   1.768   6.324
 8517SOL    HW226451   1.807   1.780   6.338
 8518SOL     OW26452   5.477   4.905   6.949
 8518SOL    HW126453   5.552   4.843   6.973
 8518SOL    HW226454   5.434   4.874   6.864
 8519SOL     OW26455   0.928   2.959   1.187
 8519SOL    HW126456   0.865   2.886   1.215
 8519SOL    HW226457   0.995   2.923   1.122
 8520SOL     OW26458   3.797   4.009   6.181
 8520SOL    HW126459   3.832   4.090   6.228
 8520SOL    HW226460   3.776   4.031   6.086
 8521SOL     OW26461   1.892   6.305   5.287
 8521SOL    HW126462   1.880   6.338   5.193
 8521SOL    HW226463   1.888   6.383   5.350
 8522SOL     OW26464   0.518   0.004   0.254
 8522SOL    HW126465   0.545   6.933   0.238
 8522SOL    HW226466   0.588   0.066   0.217
 8523SOL     OW26467   3.633   1.718   0.310
 8523SOL    HW126468   3.673   1.742   0.222
 8523SOL    HW226469   3.543   1.675   0.296
 8524SOL     OW26470   2.526   5.509   5.045
 8524SOL    HW126471   2.569   5.434   5.096
 8524SOL    HW226472   2.461   5.471   4.979
 8525SOL     OW26473   5.922   4.100   1.943
 8525SOL    HW126474   5.964   4.074   1.856
 8525SOL    HW226475   5.932   4.026   2.009
 8526SOL     OW26476   0.540   4.531   0.794
 8526SOL    HW126477   0.599   4.601   0.834
 8526SOL    HW226478   0.586   4.491   0.715
 8527SOL     OW26479   2.990   0.482   5.540
 8527SOL    HW126480   2.946   0.562   5.581
 8527SOL    HW226481   3.086   0.480   5.566
 8528SOL     OW26482   5.028   0.894   0.429
 8528SOL    HW126483   5.100   0.845   0.380
 8528SOL    HW226484   5.018   0.986   0.392
 8529SOL     OW26485   1.174   6.249   6.823
 8529SOL    HW126486   1.180   6.194   6.739
 8529SOL    HW226487   1.223   6.335   6.809
 8530SOL     OW26488   3.371   4.096   3.478
 8530SOL    HW126489   3.454   4.112   3.533
 8530SOL    HW226490   3.374   4.153   3.396
 8531SOL     OW26491   6.784   5.099   4.468
 8531SOL    HW126492   6.723   5.063   4.397
 8531SOL    HW226493   6.871   5.126   4.427
 8532SOL     OW26494   2.889   4.755   6.574
 8532SOL    HW126495   2.902   4.657   6.562
 8532SOL    HW226496   2.858   4.774   6.667
 8533SOL     OW26497   2.781   6.587   5.292
 8533SOL    HW126498   2.787   6.623   5.200
 8533SOL    HW226499   2.837   6.642   5.354
 8534SOL     OW26500   2.158   2.388   3.265
 8534SOL    HW126501   2.138   2.290   3.268
 8534SOL    HW226502   2.137   2.430   3.353
 8535SOL     OW26503   6.516   0.452   2.568
 8535SOL    HW126504   6.463   0.409   2.641
 8535SOL    HW226505   6.580   0.518   2.607
 8536SOL     OW26506   0.482   1.586   4.690
 8536SOL    HW126507   0.551   1.658   4.685
 8536SOL    HW226508   0.442   1.583   4.781
 8537SOL     OW26509   6.603   1.474   2.713
 8537SOL    HW126510   6.649   1.563   2.702
 8537SOL    HW226511   6.668   1.401   2.691
 8538SOL     OW26512   1.071   2.630   0.288
 8538SOL    HW126513   1.073   2.570   0.208
 8538SOL    HW226514   0.984   2.618   0.336
 8539SOL     OW26515   5.486   2.837   2.478
 8539SOL    HW126516   5.524   2.889   2.554
 8539SOL    HW226517   5.403   2.883   2.444
 8540SOL     OW26518   3.535   0.570   0.546
 8540SOL    HW126519   3.440   0.541   0.559
 8540SOL    HW226520   3.564   0.548   0.453
 8541SOL     OW26521   2.047   2.629   4.276
 8541SOL    HW126522   1.979   2.673   4.333
 8541SOL    HW226523   2.132   2.682   4.277
 8542SOL     OW26524   3.362   4.902   0.762
 8542SOL    HW126525   3.424   4.978   0.738
 8542SOL    HW226526   3.281   4.905   0.703
 8543SOL     OW26527   2.369   2.016   6.337
 8543SOL    HW126528   2.357   2.051   6.244
 8543SOL    HW226529   2.451   2.056   6.377
 8544SOL     OW26530   6.113   2.683   3.567
 8544SOL    HW126531   6.196   2.733   3.539
 8544SOL    HW226532   6.048   2.748   3.607
 8545SOL     OW26533   4.324   6.501   4.639
 8545SOL    HW126534   4.261   6.424   4.646
 8545SOL    HW226535   4.273   6.583   4.611
 8546SOL     OW26536   4.695   2.295   6.664
 8546SOL    HW126537   4.617   2.356   6.674
 8546SOL    HW226538   4.717   2.254   6.752
 8547SOL     OW26539   1.179   4.390   2.665
 8547SOL    HW126540   1.250   4.382   2.595
 8547SOL    HW226541   1.136   4.301   2.680
 8548SOL     OW26542   6.436   1.562   5.528
 8548SOL    HW126543   6.502   1.629   5.495
 8548SOL    HW226544   6.480   1.473   5.537
 8549SOL     OW26545   5.284   3.161   5.360
 8549SOL    HW126546   5.340   3.243   5.371
 8549SOL    HW226547   5.196   3.186   5.319
 8550SOL     OW26548   1.175   4.560   6.321
 8550SOL    HW126549   1.260   4.530   6.277
 8550SOL    HW226550   1.194   4.581   6.417
 8551SOL     OW26551   2.717   4.094   1.312
 8551SOL    HW126552   2.720   3.995   1.293
 8551SOL    HW226553   2.762   4.112   1.399
 8552SOL     OW26554   3.214   6.665   4.467
 8552SOL    HW126555   3.309   6.633   4.458
 8552SOL    HW226556   3.165   6.650   4.382
 8553SOL     OW26557   6.197   4.985   6.966
 8553SOL    HW126558   6.221   5.003   0.038
 8553SOL    HW226559   6.242   5.053   6.908
 8554SOL     OW26560   6.025   3.750   6.905
 8554SOL    HW126561   6.065   3.668   6.864
 8554SOL    HW226562   5.930   3.730   6.930
 8555SOL     OW26563   1.422   6.683   4.043
 8555SOL    HW126564   1.517   6.714   4.049
 8555SOL    HW226565   1.389   6.658   4.134
 8556SOL     OW26566   5.986   0.207   4.061
 8556SOL    HW126567   5.892   0.181   4.083
 8556SOL    HW226568   6.042   0.208   4.144
 8557SOL     OW26569   6.798   0.782   0.084
 8557SOL    HW126570   6.712   0.831   0.092
 8557SOL    HW226571   6.861   0.813   0.156
 8558SOL     OW26572   1.044   5.610   2.201
 8558SOL    HW126573   1.066   5.697   2.246
 8558SOL    HW226574   1.127   5.555   2.191
 8559SOL     OW26575   0.221   1.529   5.808
 8559SOL    HW126576   0.216   1.575   5.896
 8559SOL    HW226577   0.257   1.592   5.739
 8560SOL     OW26578   6.774   2.557   6.183
 8560SOL    HW126579   6.734   2.630   6.128
 8560SOL    HW226580   6.745   2.567   6.278
 8561SOL     OW26581   5.157   6.578   5.467
 8561SOL    HW126582   5.079   6.524   5.435
 8561SOL    HW226583   5.167   6.658   5.408
 8562SOL     OW26584   3.547   0.154   4.282
 8562SOL    HW126585   3.551   0.067   4.331
 8562SOL    HW226586   3.453   0.173   4.254
 8563SOL     OW26587   3.029   3.006   6.530
 8563SOL    HW126588   3.105   3.070   6.531
 8563SOL    HW226589   2.974   3.018   6.613
 8564SOL     OW26590   7.012   6.364   3.925
 8564SOL    HW126591   0.076   6.354   3.878
 8564SOL    HW226592   6.947   6.297   3.889
 8565SOL     OW26593   3.740   0.506   1.622
 8565SOL    HW126594   3.742   0.552   1.710
 8565SOL    HW226595   3.660   0.448   1.616
 8566SOL     OW26596   2.169   3.844   3.396
 8566SOL    HW126597   2.153   3.798   3.483
 8566SOL    HW226598   2.191   3.941   3.413
 8567SOL     OW26599   5.288   6.007   0.557
 8567SOL    HW126600   5.367   5.948   0.543
 8567SOL    HW226601   5.257   6.043   0.469
 8568SOL     OW26602   5.316   1.007   6.979
 8568SOL    HW126603   5.285   1.082   6.921
 8568SOL    HW226604   5.266   1.007   0.041
 8569SOL     OW26605   4.047   1.361   5.541
 8569SOL    HW126606   4.033   1.393   5.448
 8569SOL    HW226607   3.970   1.304   5.570
 8570SOL     OW26608   0.315   4.006   6.552
 8570SOL    HW126609   0.330   4.013   6.651
 8570SOL    HW226610   0.332   3.912   6.523
 8571SOL     OW26611   0.064   4.297   4.555
 8571SOL    HW126612   0.115   4.276   4.639
 8571SOL    HW226613   0.128   4.311   4.480
 8572SOL     OW26614   2.947   5.176   5.675
 8572SOL    HW126615   2.934   5.077   5.666
 8572SOL    HW226616   3.040   5.200   5.648
 8573SOL     OW26617   4.229   5.838   4.534
 8573SOL    HW126618   4.260   5.932   4.549
 8573SOL    HW226619   4.251   5.810   4.441
 8574SOL     OW26620   0.158   3.530   4.418
 8574SOL    HW126621   0.246   3.574   4.398
 8574SOL    HW226622   0.093   3.599   4.450
 8575SOL     OW26623   2.632   3.383   6.398
 8575SOL    HW126624   2.730   3.397   6.411
 8575SOL    HW226625   2.611   3.384   6.300
 8576SOL     OW26626   1.600   0.167   1.194
 8576SOL    HW126627   1.632   0.111   1.271
 8576SOL    HW226628   1.652   0.252   1.190
 8577SOL     OW26629   6.631   5.404   3.951
 8577SOL    HW126630   6.702   5.341   3.922
 8577SOL    HW226631   6.672   5.478   4.004
 8578SOL     OW26632   4.953   6.778   3.411
 8578SOL    HW126633   4.926   6.819   3.324
 8578SOL    HW226634   4.872   6.760   3.467
 8579SOL     OW26635   0.560   5.092   2.889
 8579SOL    HW126636   0.623   5.155   2.935
 8579SOL    HW226637   0.516   5.139   2.812
 8580SOL     OW26638   3.090   4.675   6.132
 8580SOL    HW126639   3.190   4.666   6.126
 8580SOL    HW226640   3.052   4.680   6.040
 8581SOL     OW26641   3.423   2.964   0.240
 8581SOL    HW126642   3.468   3.052   0.234
 8581SOL    HW226643   3.392   2.948   0.334
 8582SOL     OW26644   4.398   4.305   1.310
 8582SOL    HW126645   4.345   4.289   1.227
 8582SOL    HW226646   4.379   4.232   1.376
 8583SOL     OW26647   5.215   0.199   5.156
 8583SOL    HW126648   5.140   0.181   5.219
 8583SOL    HW226649   5.219   0.297   5.135
 8584SOL     OW26650   0.717   5.512   6.623
 8584SOL    HW126651   0.662   5.447   6.570
 8584SOL    HW226652   0.772   5.568   6.560
 8585SOL     OW26653   1.002   1.166   0.931
 8585SOL    HW126654   0.942   1.112   0.871
 8585SOL    HW226655   0.971   1.261   0.931
 8586SOL     OW26656   4.115   5.428   4.077
 8586SOL    HW126657   4.207   5.457   4.049
 8586SOL    HW226658   4.055   5.508   4.080
 8587SOL     OW26659   6.642   2.187   1.532
 8587SOL    HW126660   6.660   2.170   1.629
 8587SOL    HW226661   6.726   2.172   1.480
 8588SOL     OW26662   3.988   2.170   0.546
 8588SOL    HW126663   4.008   2.127   0.458
 8588SOL    HW226664   3.962   2.265   0.531
 8589SOL     OW26665   2.875   1.586   4.705
 8589SOL    HW126666   2.782   1.567   4.675
 8589SOL    HW226667   2.874   1.658   4.774
 8590SOL     OW26668   6.228   5.345   5.527
 8590SOL    HW126669   6.221   5.438   5.563
 8590SOL    HW226670   6.199   5.344   5.431
 8591SOL     OW26671   0.783   2.908   0.234
 8591SOL    HW126672   0.752   2.975   0.301
 8591SOL    HW226673   0.883   2.902   0.237
 8592SOL     OW26674   6.592   5.914   6.306
 8592SOL    HW126675   6.552   5.822   6.313
 8592SOL    HW226676   6.520   5.982   6.322
 8593SOL     OW26677   0.284   6.347   3.530
 8593SOL    HW126678   0.280   6.341   3.630
 8593SOL    HW226679   0.353   6.414   3.503
 8594SOL     OW26680   2.894   3.393   3.439
 8594SOL    HW126681   2.903   3.465   3.509
 8594SOL    HW226682   2.918   3.431   3.350
 8595SOL     OW26683   1.970   2.843   1.629
 8595SOL    HW126684   1.948   2.762   1.683
 8595SOL    HW226685   1.969   2.924   1.689
 8596SOL     OW26686   6.585   4.228   2.479
 8596SOL    HW126687   6.675   4.255   2.447
 8596SOL    HW226688   6.515   4.275   2.425
 8597SOL     OW26689   2.495   2.043   0.118
 8597SOL    HW126690   2.488   2.136   0.080
 8597SOL    HW226691   2.405   2.012   0.148
 8598SOL     OW26692   5.113   3.903   1.440
 8598SOL    HW126693   5.195   3.852   1.466
 8598SOL    HW226694   5.041   3.885   1.507
 8599SOL     OW26695   0.680   3.333   1.385
 8599SOL    HW126696   0.714   3.424   1.407
 8599SOL    HW226697   0.736   3.293   1.312
 8600SOL     OW26698   6.143   3.508   6.046
 8600SOL    HW126699   6.226   3.538   6.000
 8600SOL    HW226700   6.126   3.567   6.126
 8601SOL     OW26701   0.388   0.395   5.091
 8601SOL    HW126702   0.443   0.476   5.110
 8601SOL    HW226703   0.301   0.402   5.140
 8602SOL     OW26704   1.884   5.805   2.036
 8602SOL    HW126705   1.862   5.901   2.019
 8602SOL    HW226706   1.976   5.785   2.002
 8603SOL     OW26707   4.559   3.795   1.692
 8603SOL    HW126708   4.603   3.779   1.603
 8603SOL    HW226709   4.484   3.731   1.703
 8604SOL     OW26710   5.598   2.119   2.768
 8604SOL    HW126711   5.673   2.062   2.802
 8604SOL    HW226712   5.590   2.109   2.669
 8605SOL     OW26713   3.058   6.001   2.143
 8605SOL    HW126714   3.139   5.947   2.120
 8605SOL    HW226715   3.084   6.077   2.202
 8606SOL     OW26716   4.210   5.544   5.656
 8606SOL    HW126717   4.122   5.543   5.609
 8606SOL    HW226718   4.233   5.638   5.681
 8607SOL     OW26719   2.849   5.769   1.497
 8607SOL    HW126720   2.892   5.684   1.466
 8607SOL    HW226721   2.880   5.791   1.589
 8608SOL     OW26722   5.997   6.211   2.195
 8608SOL    HW126723   5.934   6.259   2.133
 8608SOL    HW226724   5.958   6.211   2.288
 8609SOL     OW26725   4.193   0.900   6.644
 8609SOL    HW126726   4.132   0.977   6.630
 8609SOL    HW226727   4.225   0.865   6.556
 8610SOL     OW26728   6.874   6.625   4.764
 8610SOL    HW126729   6.892   6.550   4.701
 8610SOL    HW226730   6.930   6.614   4.846
 8611SOL     OW26731   1.276   2.140   3.317
 8611SOL    HW126732   1.373   2.118   3.307
 8611SOL    HW226733   1.240   2.173   3.230
 8612SOL     OW26734   4.843   3.014   4.776
 8612SOL    HW126735   4.943   3.007   4.774
 8612SOL    HW226736   4.812   3.031   4.869
 8613SOL     OW26737   1.441   1.649   7.004
 8613SOL    HW126738   1.380   1.641   0.059
 8613SOL    HW226739   1.536   1.654   0.012
 8614SOL     OW26740   1.279   1.156   3.704
 8614SOL    HW126741   1.187   1.195   3.715
 8614SOL    HW226742   1.347   1.227   3.721
 8615SOL     OW26743   4.392   2.301   5.230
 8615SOL    HW126744   4.319   2.361   5.199
 8615SOL    HW226745   4.400   2.223   5.168
 8616SOL     OW26746   1.457   3.122   0.168
 8616SOL    HW126747   1.444   3.036   0.118
 8616SOL    HW226748   1.537   3.170   0.131
 8617SOL     OW26749   6.367   3.159   0.992
 8617SOL    HW126750   6.358   3.155   0.892
 8617SOL    HW226751   6.317   3.238   1.026
 8618SOL     OW26752   4.456   0.760   3.186
 8618SOL    HW126753   4.476   0.753   3.088
 8618SOL    HW226754   4.537   0.794   3.233
 8619SOL     OW26755   4.287   5.691   0.648
 8619SOL    HW126756   4.355   5.648   0.589
 8619SOL    HW226757   4.314   5.786   0.666
 8620SOL     OW26758   0.012   6.581   2.924
 8620SOL    HW126759   7.004   6.676   2.924
 8620SOL    HW226760   6.964   6.521   2.891
 8621SOL     OW26761   5.646   0.722   3.023
 8621SOL    HW126762   5.590   0.692   3.100
 8621SOL    HW226763   5.730   0.763   3.057
 8622SOL     OW26764   5.386   5.309   6.774
 8622SOL    HW126765   5.462   5.372   6.787
 8622SOL    HW226766   5.303   5.360   6.751
 8623SOL     OW26767   6.050   2.498   2.951
 8623SOL    HW126768   6.125   2.535   2.896
 8623SOL    HW226769   5.965   2.503   2.899
 8624SOL     OW26770   0.137   4.187   4.253
 8624SOL    HW126771   0.143   4.134   4.169
 8624SOL    HW226772   0.050   4.168   4.298
 8625SOL     OW26773   3.396   0.893   6.417
 8625SOL    HW126774   3.433   0.971   6.367
 8625SOL    HW226775   3.459   0.815   6.408
 8626SOL     OW26776   3.444   3.251   2.482
 8626SOL    HW126777   3.492   3.213   2.561
 8626SOL    HW226778   3.355   3.207   2.472
 8627SOL     OW26779   2.392   6.916   6.281
 8627SOL    HW126780   2.311   6.902   6.338
 8627SOL    HW226781   2.463   6.961   6.335
 8628SOL     OW26782   5.666   0.936   6.905
 8628SOL    HW126783   5.591   0.905   6.847
 8628SOL    HW226784   5.637   1.018   6.954
 8629SOL     OW26785   1.709   5.250   3.813
 8629SOL    HW126786   1.662   5.218   3.895
 8629SOL    HW226787   1.801   5.211   3.809
 8630SOL     OW26788   5.606   4.657   3.971
 8630SOL    HW126789   5.661   4.605   4.037
 8630SOL    HW226790   5.568   4.738   4.016
 8631SOL     OW26791   4.626   6.292   3.781
 8631SOL    HW126792   4.531   6.296   3.748
 8631SOL    HW226793   4.658   6.198   3.780
 8632SOL     OW26794   3.977   0.532   3.421
 8632SOL    HW126795   4.029   0.531   3.507
 8632SOL    HW226796   4.007   0.610   3.365
 8633SOL     OW26797   6.212   0.387   3.531
 8633SOL    HW126798   6.221   0.297   3.490
 8633SOL    HW226799   6.302   0.429   3.540
 8634SOL     OW26800   6.366   5.528   1.578
 8634SOL    HW126801   6.271   5.547   1.605
 8634SOL    HW226802   6.381   5.429   1.577
 8635SOL     OW26803   6.148   3.850   5.748
 8635SOL    HW126804   6.048   3.842   5.746
 8635SOL    HW226805   6.188   3.759   5.732
 8636SOL     OW26806   5.407   5.663   0.114
 8636SOL    HW126807   5.471   5.612   0.171
 8636SOL    HW226808   5.398   5.618   0.025
 8637SOL     OW26809   1.693   0.577   1.421
 8637SOL    HW126810   1.610   0.567   1.476
 8637SOL    HW226811   1.706   0.673   1.397
 8638SOL     OW26812   4.865   5.165   0.942
 8638SOL    HW126813   4.813   5.080   0.954
 8638SOL    HW226814   4.805   5.235   0.903
 8639SOL     OW26815   6.473   3.007   1.727
 8639SOL    HW126816   6.410   2.985   1.802
 8639SOL    HW226817   6.564   2.971   1.748
 8640SOL     OW26818   5.129   6.369   1.189
 8640SOL    HW126819   5.069   6.392   1.113
 8640SOL    HW226820   5.182   6.287   1.166
 8641SOL     OW26821   5.519   5.080   3.537
 8641SOL    HW126822   5.449   5.047   3.601
 8641SOL    HW226823   5.593   5.012   3.531
 8642SOL     OW26824   4.713   1.584   1.501
 8642SOL    HW126825   4.750   1.673   1.475
 8642SOL    HW226826   4.708   1.577   1.600
 8643SOL     OW26827   4.427   0.821   6.801
 8643SOL    HW126828   4.482   0.741   6.777
 8643SOL    HW226829   4.348   0.826   6.740
 8644SOL     OW26830   6.517   3.656   5.535
 8644SOL    HW126831   6.460   3.576   5.555
 8644SOL    HW226832   6.461   3.730   5.498
 8645SOL     OW26833   6.009   4.563   1.811
 8645SOL    HW126834   6.053   4.507   1.881
 8645SOL    HW226835   5.921   4.523   1.786
 8646SOL     OW26836   5.425   6.939   1.072
 8646SOL    HW126837   5.496   6.924   1.003
 8646SOL    HW226838   5.366   7.015   1.043
 8647SOL     OW26839   4.526   4.999   1.657
 8647SOL    HW126840   4.515   4.924   1.722
 8647SOL    HW226841   4.595   4.975   1.589
 8648SOL     OW26842   5.554   1.687   4.576
 8648SOL    HW126843   5.562   1.589   4.594
 8648SOL    HW226844   5.644   1.729   4.579
 8649SOL     OW26845   0.536   4.701   6.007
 8649SOL    HW126846   0.580   4.791   6.005
 8649SOL    HW226847   0.585   4.639   5.945
 8650SOL     OW26848   0.677   4.594   1.590
 8650SOL    HW126849   0.614   4.639   1.527
 8650SOL    HW226850   0.634   4.512   1.628
 8651SOL     OW26851   3.312   2.589   1.280
 8651SOL    HW126852   3.230   2.561   1.329
 8651SOL    HW226853   3.390   2.593   1.343
 8652SOL     OW26854   1.189   3.128   3.965
 8652SOL    HW126855   1.274   3.175   3.985
 8652SOL    HW226856   1.206   3.056   3.897
 8653SOL     OW26857   6.149   3.228   6.411
 8653SOL    HW126858   6.126   3.161   6.340
 8653SOL    HW226859   6.175   3.180   6.495
 8654SOL     OW26860   6.935   6.101   2.727
 8654SOL    HW126861   6.952   6.197   2.703
 8654SOL    HW226862   6.920   6.094   2.826
 8655SOL     OW26863   6.095   6.085   3.501
 8655SOL    HW126864   6.002   6.061   3.528
 8655SOL    HW226865   6.117   6.176   3.537
 8656SOL     OW26866   6.527   1.758   1.401
 8656SOL    HW126867   6.534   1.817   1.482
 8656SOL    HW226868   6.583   1.796   1.327
 8657SOL     OW26869   3.022   3.940   0.804
 8657SOL    HW126870   2.951   3.950   0.874
 8657SOL    HW226871   3.072   4.027   0.795
 8658SOL     OW26872   0.452   5.257   6.720
 8658SOL    HW126873   0.360   5.293   6.737
 8658SOL    HW226874   0.505   5.262   6.805
 8659SOL     OW26875   4.492   0.719   3.738
 8659SOL    HW126876   4.567   0.732   3.673
 8659SOL    HW226877   4.460   0.625   3.734
 8660SOL     OW26878   5.246   4.587   0.784
 8660SOL    HW126879   5.264   4.662   0.721
 8660SOL    HW226880   5.333   4.554   0.822
 8661SOL     OW26881   6.344   3.627   1.413
 8661SOL    HW126882   6.257   3.649   1.367
 8661SOL    HW226883   6.325   3.572   1.494
 8662SOL     OW26884   0.044   0.607   0.378
 8662SOL    HW126885   0.035   0.622   0.477
 8662SOL    HW226886   7.004   0.667   0.330
 8663SOL     OW26887   2.056   5.923   0.714
 8663SOL    HW126888   2.132   5.971   0.672
 8663SOL    HW226889   1.979   5.986   0.725
 8664SOL     OW26890   4.464   5.181   1.456
 8664SOL    HW126891   4.411   5.256   1.495
 8664SOL    HW226892   4.459   5.102   1.516
 8665SOL     OW26893   4.933   5.216   4.943
 8665SOL    HW126894   4.904   5.145   4.879
 8665SOL    HW226895   4.967   5.295   4.892
 8666SOL     OW26896   5.859   3.811   4.562
 8666SOL    HW126897   5.823   3.794   4.470
 8666SOL    HW226898   5.956   3.787   4.564
 8667SOL     OW26899   5.132   2.419   3.009
 8667SOL    HW126900   5.042   2.453   2.981
 8667SOL    HW226901   5.201   2.451   2.945
 8668SOL     OW26902   3.170   1.298   4.125
 8668SOL    HW126903   3.222   1.221   4.162
 8668SOL    HW226904   3.075   1.269   4.108
 8669SOL     OW26905   4.420   7.010   5.761
 8669SOL    HW126906   4.441   6.957   5.679
 8669SOL    HW226907   4.415   6.949   5.840
 8670SOL     OW26908   4.188   4.725   3.549
 8670SOL    HW126909   4.174   4.639   3.598
 8670SOL    HW226910   4.259   4.713   3.480
 8671SOL     OW26911   5.966   6.266   2.776
 8671SOL    HW126912   6.023   6.278   2.695
 8671SOL    HW226913   5.937   6.355   2.810
 8672SOL     OW26914   3.340   5.004   5.557
 8672SOL    HW126915   3.397   5.044   5.486
 8672SOL    HW226916   3.270   4.945   5.514
 8673SOL     OW26917   5.690   1.871   0.408
 8673SOL    HW126918   5.737   1.820   0.480
 8673SOL    HW226919   5.758   1.908   0.344
 8674SOL     OW26920   0.679   0.585   2.601
 8674SOL    HW126921   0.670   0.540   2.690
 8674SOL    HW226922   0.765   0.635   2.597
 8675SOL     OW26923   1.871   2.240   2.589
 8675SOL    HW126924   1.959   2.285   2.605
 8675SOL    HW226925   1.800   2.288   2.640
 8676SOL     OW26926   4.853   0.176   3.592
 8676SOL    HW126927   4.869   0.192   3.495
 8676SOL    HW226928   4.852   0.263   3.641
 8677SOL     OW26929   2.328   4.483   5.062
 8677SOL    HW126930   2.266   4.558   5.084
 8677SOL    HW226931   2.381   4.458   5.144
 8678SOL     OW26932   1.451   0.737   6.244
 8678SOL    HW126933   1.442   0.816   6.185
 8678SOL    HW226934   1.485   0.659   6.191
 8679SOL     OW26935   6.761   2.654   5.024
 8679SOL    HW126936   6.756   2.635   4.927
 8679SOL    HW226937   6.680   2.707   5.052
 8680SOL     OW26938   1.029   3.695   0.815
 8680SOL    HW126939   1.008   3.598   0.829
 8680SOL    HW226940   1.100   3.704   0.745
 8681SOL     OW26941   4.114   3.633   1.313
 8681SOL    HW126942   4.151   3.541   1.327
 8681SOL    HW226943   4.106   3.679   1.401
 8682SOL     OW26944   2.413   6.028   3.033
 8682SOL    HW126945   2.511   6.020   3.056
 8682SOL    HW226946   2.393   5.974   2.952
 8683SOL     OW26947   6.179   3.080   6.639
 8683SOL    HW126948   6.161   2.981   6.644
 8683SOL    HW226949   6.122   3.127   6.707
 8684SOL     OW26950   6.302   2.998   4.396
 8684SOL    HW126951   6.317   3.022   4.301
 8684SOL    HW226952   6.265   3.077   4.445
 8685SOL     OW26953   0.432   2.116   5.523
 8685SOL    HW126954   0.417   2.190   5.588
 8685SOL    HW226955   0.506   2.142   5.460
 8686SOL     OW26956   6.540   1.870   3.764
 8686SOL    HW126957   6.450   1.834   3.737
 8686SOL    HW226958   6.612   1.808   3.734
 8687SOL     OW26959   4.008   0.815   2.911
 8687SOL    HW126960   4.082   0.747   2.912
 8687SOL    HW226961   3.924   0.771   2.878
 8688SOL     OW26962   1.864   6.812   2.169
 8688SOL    HW126963   1.772   6.773   2.165
 8688SOL    HW226964   1.900   6.806   2.262
 8689SOL     OW26965   4.805   5.448   0.573
 8689SOL    HW126966   4.902   5.442   0.553
 8689SOL    HW226967   4.778   5.543   0.584
 8690SOL     OW26968   1.171   1.003   2.886
 8690SOL    HW126969   1.247   0.943   2.860
 8690SOL    HW226970   1.201   1.099   2.878
 8691SOL     OW26971   6.059   1.584   0.504
 8691SOL    HW126972   6.068   1.530   0.588
 8691SOL    HW226973   6.146   1.585   0.456
 8692SOL     OW26974   1.639   1.558   3.927
 8692SOL    HW126975   1.689   1.543   4.012
 8692SOL    HW226976   1.598   1.650   3.929
 8693SOL     OW26977   5.631   1.774   6.970
 8693SOL    HW126978   5.632   1.840   0.021
 8693SOL    HW226979   5.664   1.819   6.886
 8694SOL     OW26980   3.777   6.531   6.891
 8694SOL    HW126981   3.781   6.507   6.989
 8694SOL    HW226982   3.683   6.554   6.867
 8695SOL     OW26983   4.459   4.295   5.276
 8695SOL    HW126984   4.382   4.337   5.228
 8695SOL    HW226985   4.525   4.261   5.209
 8696SOL     OW26986   1.721   5.298   0.988
 8696SOL    HW126987   1.696   5.394   0.975
 8696SOL    HW226988   1.701   5.271   1.083
 8697SOL     OW26989   5.653   4.691   6.944
 8697SOL    HW126990   5.750   4.667   6.933
 8697SOL    HW226991   5.601   4.651   6.869
 8698SOL     OW26992   5.725   6.396   4.248
 8698SOL    HW126993   5.809   6.386   4.301
 8698SOL    HW226994   5.656   6.442   4.304
 8699SOL     OW26995   1.275   1.182   5.042
 8699SOL    HW126996   1.216   1.233   5.105
 8699SOL    HW226997   1.292   1.091   5.079
 8700SOL     OW26998   2.149   1.828   6.379
 8700SOL    HW126999   2.201   1.746   6.405
 8700SOL    HW227000   2.212   1.901   6.355
 8701SOL     OW27001   1.244   1.858   4.267
 8701SOL    HW127002   1.153   1.900   4.272
 8701SOL    HW227003   1.263   1.810   4.353
 8702SOL     OW27004   5.367   5.697   6.837
 8702SOL    HW127005   5.273   5.726   6.854
 8702SOL    HW227006   5.409   5.756   6.768
 8703SOL     OW27007   1.755   5.605   1.188
 8703SOL    HW127008   1.740   5.584   1.284
 8703SOL    HW227009   1.835   5.555   1.155
 8704SOL     OW27010   0.532   4.041   1.828
 8704SOL    HW127011   0.480   3.959   1.803
 8704SOL    HW227012   0.525   4.056   1.926
 8705SOL     OW27013   5.336   6.703   4.887
 8705SOL    HW127014   5.291   6.623   4.846
 8705SOL    HW227015   5.419   6.674   4.934
 8706SOL     OW27016   5.065   2.109   5.877
 8706SOL    HW127017   5.134   2.037   5.867
 8706SOL    HW227018   5.032   2.110   5.971
 8707SOL     OW27019   4.653   2.402   5.687
 8707SOL    HW127020   4.708   2.478   5.652
 8707SOL    HW227021   4.706   2.317   5.681
 8708SOL     OW27022   3.782   1.569   0.744
 8708SOL    HW127023   3.786   1.471   0.723
 8708SOL    HW227024   3.808   1.583   0.840
 8709SOL     OW27025   6.430   3.564   1.096
 8709SOL    HW127026   6.419   3.654   1.055
 8709SOL    HW227027   6.453   3.574   1.193
 8710SOL     OW27028   0.152   2.969   3.416
 8710SOL    HW127029   0.191   2.905   3.350
 8710SOL    HW227030   0.133   2.920   3.502
 8711SOL     OW27031   0.745   1.673   4.168
 8711SOL    HW127032   0.713   1.634   4.255
 8711SOL    HW227033   0.673   1.732   4.130
 8712SOL     OW27034   3.590   1.341   5.910
 8712SOL    HW127035   3.577   1.384   5.821
 8712SOL    HW227036   3.688   1.325   5.925
 8713SOL     OW27037   6.054   4.972   2.621
 8713SOL    HW127038   5.959   4.990   2.644
 8713SOL    HW227039   6.099   4.926   2.698
 8714SOL     OW27040   1.758   1.017   4.774
 8714SOL    HW127041   1.755   1.114   4.750
 8714SOL    HW227042   1.808   0.967   4.703
 8715SOL     OW27043   6.156   1.406   2.105
 8715SOL    HW127044   6.073   1.427   2.156
 8715SOL    HW227045   6.215   1.487   2.101
 8716SOL     OW27046   1.268   1.929   1.633
 8716SOL    HW127047   1.262   1.889   1.724
 8716SOL    HW227048   1.365   1.942   1.609
 8717SOL     OW27049   3.980   3.084   0.765
 8717SOL    HW127050   3.935   3.108   0.679
 8717SOL    HW227051   3.973   3.160   0.830
 8718SOL     OW27052   6.998   3.195   5.891
 8718SOL    HW127053   7.016   3.097   5.886
 8718SOL    HW227054   0.055   3.245   5.861
 8719SOL     OW27055   6.854   0.806   6.088
 8719SOL    HW127056   6.952   0.826   6.087
 8719SOL    HW227057   6.805   0.877   6.037
 8720SOL     OW27058   4.861   4.008   6.007
 8720SOL    HW127059   4.860   3.912   6.035
 8720SOL    HW227060   4.814   4.018   5.919
 8721SOL     OW27061   6.896   1.578   4.488
 8721SOL    HW127062   6.957   1.631   4.428
 8721SOL    HW227063   6.898   1.616   4.580
 8722SOL     OW27064   3.093   2.738   0.864
 8722SOL    HW127065   3.063   2.808   0.929
 8722SOL    HW227066   3.189   2.716   0.882
 8723SOL     OW27067   0.207   5.306   6.937
 8723SOL    HW127068   0.241   5.226   6.888
 8723SOL    HW227069   0.198   5.383   6.874
 8724SOL     OW27070   5.493   5.889   6.680
 8724SOL    HW127071   5.571   5.885   6.619
 8724SOL    HW227072   5.505   5.965   6.745
 8725SOL     OW27073   2.140   6.142   1.277
 8725SOL    HW127074   2.094   6.083   1.343
 8725SOL    HW227075   2.079   6.159   1.200
 8726SOL     OW27076   5.032   0.552   1.213
 8726SOL    HW127077   5.049   0.635   1.267
 8726SOL    HW227078   4.997   0.578   1.123
 8727SOL     OW27079   6.243   5.794   0.693
 8727SOL    HW127080   6.159   5.741   0.687
 8727SOL    HW227081   6.314   5.738   0.737
 8728SOL     OW27082   2.147   6.689   5.663
 8728SOL    HW127083   2.206   6.760   5.700
 8728SOL    HW227084   2.086   6.655   5.734
 8729SOL     OW27085   5.527   6.607   4.394
 8729SOL    HW127086   5.534   6.692   4.342
 8729SOL    HW227087   5.582   6.615   4.477
 8730SOL     OW27088   0.084   0.038   1.225
 8730SOL    HW127089   0.152   7.007   1.177
 8730SOL    HW227090   0.059   7.017   1.311
 8731SOL     OW27091   0.912   1.673   2.453
 8731SOL    HW127092   0.985   1.737   2.428
 8731SOL    HW227093   0.945   1.579   2.442
 8732SOL     OW27094   6.042   4.861   1.867
 8732SOL    HW127095   5.987   4.779   1.883
 8732SOL    HW227096   6.011   4.934   1.929
 8733SOL     OW27097   0.007   6.588   1.711
 8733SOL    HW127098   6.939   6.557   1.736
 8733SOL    HW227099   0.008   6.688   1.709
 8734SOL     OW27100   6.633   5.206   0.423
 8734SOL    HW127101   6.630   5.202   0.523
 8734SOL    HW227102   6.692   5.132   0.389
 8735SOL     OW27103   6.752   2.241   6.901
 8735SOL    HW127104   6.775   2.179   6.825
 8735SOL    HW227105   6.774   2.197   6.988
 8736SOL     OW27106   0.485   4.819   6.497
 8736SOL    HW127107   0.541   4.785   6.421
 8736SOL    HW227108   0.531   4.895   6.542
 8737SOL     OW27109   3.738   6.020   6.836
 8737SOL    HW127110   3.805   6.091   6.858
 8737SOL    HW227111   3.646   6.060   6.837
 8738SOL     OW27112   1.473   3.650   4.895
 8738SOL    HW127113   1.395   3.707   4.921
 8738SOL    HW227114   1.558   3.700   4.911
 8739SOL     OW27115   1.416   2.998   5.065
 8739SOL    HW127116   1.328   2.991   5.111
 8739SOL    HW227117   1.481   2.935   5.107
 8740SOL     OW27118   1.742   6.307   1.564
 8740SOL    HW127119   1.719   6.301   1.662
 8740SOL    HW227120   1.812   6.378   1.551
 8741SOL     OW27121   1.229   3.534   2.206
 8741SOL    HW127122   1.190   3.523   2.298
 8741SOL    HW227123   1.306   3.472   2.195
 8742SOL     OW27124   4.834   6.618   2.132
 8742SOL    HW127125   4.753   6.676   2.137
 8742SOL    HW227126   4.813   6.538   2.075
 8743SOL     OW27127   2.516   4.501   3.294
 8743SOL    HW127128   2.423   4.513   3.259
 8743SOL    HW227129   2.520   4.533   3.389
 8744SOL     OW27130   3.118   3.336   5.844
 8744SOL    HW127131   3.105   3.430   5.873
 8744SOL    HW227132   3.143   3.279   5.922
 8745SOL     OW27133   6.639   1.777   6.958
 8745SOL    HW127134   6.606   1.852   6.901
 8745SOL    HW227135   6.610   1.792   0.029
 8746SOL     OW27136   5.050   4.211   5.396
 8746SOL    HW127137   5.081   4.304   5.416
 8746SOL    HW227138   4.961   4.214   5.351
 8747SOL     OW27139   1.596   3.013   3.872
 8747SOL    HW127140   1.546   3.087   3.916
 8747SOL    HW227141   1.534   2.938   3.851
 8748SOL     OW27142   2.937   0.464   6.926
 8748SOL    HW127143   2.872   0.517   6.872
 8748SOL    HW227144   2.990   0.404   6.866
 8749SOL     OW27145   4.250   1.606   4.055
 8749SOL    HW127146   4.185   1.610   3.979
 8749SOL    HW227147   4.209   1.557   4.131
 8750SOL     OW27148   2.240   0.466   5.315
 8750SOL    HW127149   2.242   0.464   5.415
 8750SOL    HW227150   2.254   0.560   5.283
 8751SOL     OW27151   2.148   0.288   3.373
 8751SOL    HW127152   2.149   0.193   3.339
 8751SOL    HW227153   2.238   0.312   3.408
 8752SOL     OW27154   1.985   2.614   6.452
 8752SOL    HW127155   1.977   2.654   6.544
 8752SOL    HW227156   1.894   2.589   6.419
 8753SOL     OW27157   5.910   1.495   5.069
 8753SOL    HW127158   5.977   1.433   5.111
 8753SOL    HW227159   5.927   1.500   4.971
 8754SOL     OW27160   2.248   0.741   5.226
 8754SOL    HW127161   2.152   0.761   5.242
 8754SOL    HW227162   2.282   0.799   5.151
 8755SOL     OW27163   2.342   2.128   0.558
 8755SOL    HW127164   2.269   2.192   0.580
 8755SOL    HW227165   2.422   2.147   0.615
 8756SOL     OW27166   1.861   3.570   3.824
 8756SOL    HW127167   1.861   3.579   3.724
 8756SOL    HW227168   1.889   3.657   3.865
 8757SOL     OW27169   5.000   5.843   4.249
 8757SOL    HW127170   5.095   5.867   4.232
 8757SOL    HW227171   4.957   5.913   4.306
 8758SOL     OW27172   5.057   6.437   1.947
 8758SOL    HW127173   5.068   6.460   1.851
 8758SOL    HW227174   5.077   6.517   2.003
 8759SOL     OW27175   5.034   1.328   5.795
 8759SOL    HW127176   5.017   1.375   5.882
 8759SOL    HW227177   5.131   1.305   5.788
 8760SOL     OW27178   1.846   3.049   3.749
 8760SOL    HW127179   1.755   3.019   3.778
 8760SOL    HW227180   1.916   2.994   3.795
 8761SOL     OW27181   4.744   6.313   0.703
 8761SOL    HW127182   4.709   6.339   0.613
 8761SOL    HW227183   4.843   6.303   0.698
 8762SOL     OW27184   1.166   4.237   0.304
 8762SOL    HW127185   1.172   4.194   0.393
 8762SOL    HW227186   1.080   4.211   0.260
 8763SOL     OW27187   6.871   6.118   5.753
 8763SOL    HW127188   6.815   6.189   5.795
 8763SOL    HW227189   6.836   6.028   5.778
 8764SOL     OW27190   3.279   2.139   5.291
 8764SOL    HW127191   3.249   2.228   5.257
 8764SOL    HW227192   3.199   2.080   5.303
 8765SOL     OW27193   0.124   0.201   5.137
 8765SOL    HW127194   0.214   0.176   5.100
 8765SOL    HW227195   0.128   0.293   5.175
 8766SOL     OW27196   2.416   4.390   2.566
 8766SOL    HW127197   2.321   4.392   2.535
 8766SOL    HW227198   2.474   4.432   2.497
 8767SOL     OW27199   4.981   1.577   4.675
 8767SOL    HW127200   4.947   1.649   4.735
 8767SOL    HW227201   4.944   1.591   4.583
 8768SOL     OW27202   1.586   4.242   6.726
 8768SOL    HW127203   1.550   4.227   6.819
 8768SOL    HW227204   1.509   4.257   6.664
 8769SOL     OW27205   2.526   0.556   5.609
 8769SOL    HW127206   2.593   0.483   5.592
 8769SOL    HW227207   2.436   0.515   5.626
 8770SOL     OW27208   5.205   1.878   2.215
 8770SOL    HW127209   5.188   1.923   2.302
 8770SOL    HW227210   5.296   1.837   2.215
 8771SOL     OW27211   2.199   2.631   6.234
 8771SOL    HW127212   2.117   2.628   6.292
 8771SOL    HW227213   2.235   2.724   6.233
 8772SOL     OW27214   5.791   6.016   6.542
 8772SOL    HW127215   5.785   5.945   6.472
 8772SOL    HW227216   5.777   6.106   6.499
 8773SOL     OW27217   3.313   2.083   3.164
 8773SOL    HW127218   3.225   2.124   3.189
 8773SOL    HW227219   3.383   2.115   3.228
 8774SOL     OW27220   1.347   1.204   0.379
 8774SOL    HW127221   1.342   1.299   0.349
 8774SOL    HW227222   1.406   1.153   0.317
 8775SOL     OW27223   6.794   6.629   4.091
 8775SOL    HW127224   6.764   6.685   4.168
 8775SOL    HW227225   6.894   6.618   4.095
 8776SOL     OW27226   2.994   3.757   4.816
 8776SOL    HW127227   2.945   3.670   4.810
 8776SOL    HW227228   2.994   3.801   4.726
 8777SOL     OW27229   6.575   5.700   2.312
 8777SOL    HW127230   6.617   5.638   2.379
 8777SOL    HW227231   6.503   5.753   2.357
 8778SOL     OW27232   0.738   2.040   3.389
 8778SOL    HW127233   0.688   2.011   3.470
 8778SOL    HW227234   0.754   1.960   3.330
 8779SOL     OW27235   1.433   4.870   1.178
 8779SOL    HW127236   1.361   4.805   1.203
 8779SOL    HW227237   1.520   4.821   1.168
 8780SOL     OW27238   2.407   6.063   4.558
 8780SOL    HW127239   2.442   6.055   4.465
 8780SOL    HW227240   2.465   6.011   4.621
 8781SOL     OW27241   0.788   2.341   2.556
 8781SOL    HW127242   0.814   2.307   2.465
 8781SOL    HW227243   0.864   2.326   2.619
 8782SOL     OW27244   4.791   1.528   3.135
 8782SOL    HW127245   4.872   1.504   3.189
 8782SOL    HW227246   4.747   1.445   3.103
 8783SOL     OW27247   5.331   2.365   5.317
 8783SOL    HW127248   5.232   2.360   5.307
 8783SOL    HW227249   5.363   2.288   5.372
 8784SOL     OW27250   5.387   3.756   6.081
 8784SOL    HW127251   5.289   3.734   6.077
 8784SOL    HW227252   5.413   3.773   6.176
 8785SOL     OW27253   5.186   5.055   6.521
 8785SOL    HW127254   5.273   5.049   6.570
 8785SOL    HW227255   5.200   5.030   6.425
 8786SOL     OW27256   1.397   6.467   0.368
 8786SOL    HW127257   1.441   6.496   0.283
 8786SOL    HW227258   1.326   6.400   0.347
 8787SOL     OW27259   1.482   2.859   0.081
 8787SOL    HW127260   1.419   2.782   0.092
 8787SOL    HW227261   1.568   2.827   0.042
 8788SOL     OW27262   1.154   1.358   5.253
 8788SOL    HW127263   1.059   1.341   5.229
 8788SOL    HW227264   1.187   1.440   5.206
 8789SOL     OW27265   0.388   0.366   6.550
 8789SOL    HW127266   0.336   0.398   6.630
 8789SOL    HW227267   0.329   0.308   6.494
 8790SOL     OW27268   4.797   1.212   0.128
 8790SOL    HW127269   4.765   1.133   0.181
 8790SOL    HW227270   4.892   1.197   0.100
 8791SOL     OW27271   4.384   6.272   5.112
 8791SOL    HW127272   4.302   6.286   5.169
 8791SOL    HW227273   4.408   6.357   5.066
 8792SOL     OW27274   5.235   0.162   3.055
 8792SOL    HW127275   5.237   0.079   2.998
 8792SOL    HW227276   5.177   0.146   3.135
 8793SOL     OW27277   1.106   4.207   3.857
 8793SOL    HW127278   1.178   4.256   3.807
 8793SOL    HW227279   1.140   4.116   3.881
 8794SOL     OW27280   2.593   6.104   2.698
 8794SOL    HW127281   2.556   6.021   2.739
 8794SOL    HW227282   2.524   6.177   2.704
 8795SOL     OW27283   1.881   6.013   4.923
 8795SOL    HW127284   1.888   5.964   5.009
 8795SOL    HW227285   1.968   6.010   4.875
 8796SOL     OW27286   5.842   2.839   5.391
 8796SOL    HW127287   5.790   2.899   5.451
 8796SOL    HW227288   5.897   2.895   5.328
 8797SOL     OW27289   0.650   6.789   6.506
 8797SOL    HW127290   0.642   6.795   6.606
 8797SOL    HW227291   0.680   6.878   6.470
 8798SOL     OW27292   3.989   3.523   5.991
 8798SOL    HW127293   4.016   3.427   6.001
 8798SOL    HW227294   4.064   3.574   5.950
 8799SOL     OW27295   3.855   6.695   2.578
 8799SOL    HW127296   3.770   6.645   2.595
 8799SOL    HW227297   3.841   6.792   2.594
 8800SOL     OW27298   4.451   5.135   0.327
 8800SOL    HW127299   4.392   5.199   0.279
 8800SOL    HW227300   4.395   5.072   0.381
 8801SOL     OW27301   3.258   6.514   5.153
 8801SOL    HW127302   3.257   6.514   5.053
 8801SOL    HW227303   3.353   6.517   5.185
 8802SOL     OW27304   2.081   6.700   1.904
 8802SOL    HW127305   2.077   6.660   1.996
 8802SOL    HW227306   2.069   6.627   1.836
 8803SOL     OW27307   3.698   6.276   0.651
 8803SOL    HW127308   3.646   6.347   0.700
 8803SOL    HW227309   3.642   6.194   0.642
 8804SOL     OW27310   3.351   0.406   0.844
 8804SOL    HW127311   3.316   0.477   0.782
 8804SOL    HW227312   3.419   0.446   0.905
 8805SOL     OW27313   0.352   0.307   3.208
 8805SOL    HW127314   0.323   0.212   3.216
 8805SOL    HW227315   0.399   0.334   3.292
 8806SOL     OW27316   2.528   4.829   0.493
 8806SOL    HW127317   2.516   4.921   0.455
 8806SOL    HW227318   2.586   4.775   0.433
 8807SOL     OW27319   2.033   6.373   6.097
 8807SOL    HW127320   2.012   6.454   6.151
 8807SOL    HW227321   2.014   6.291   6.150
 8808SOL     OW27322   6.104   1.849   1.081
 8808SOL    HW127323   6.187   1.857   1.136
 8808SOL    HW227324   6.039   1.919   1.110
 8809SOL     OW27325   5.999   4.419   0.798
 8809SOL    HW127326   5.982   4.508   0.757
 8809SOL    HW227327   5.948   4.411   0.884
 8810SOL     OW27328   5.508   1.607   3.661
 8810SOL    HW127329   5.535   1.518   3.695
 8810SOL    HW227330   5.521   1.676   3.733
 8811SOL     OW27331   1.486   1.374   3.822
 8811SOL    HW127332   1.545   1.453   3.840
 8811SOL    HW227333   1.528   1.318   3.750
 8812SOL     OW27334   1.752   0.711   0.387
 8812SOL    HW127335   1.835   0.757   0.420
 8812SOL    HW227336   1.752   0.710   0.287
 8813SOL     OW27337   1.084   5.688   0.908
 8813SOL    HW127338   1.139   5.605   0.899
 8813SOL    HW227339   1.127   5.762   0.859
 8814SOL     OW27340   5.348   6.281   0.146
 8814SOL    HW127341   5.364   6.353   0.078
 8814SOL    HW227342   5.435   6.250   0.184
 8815SOL     OW27343   6.838   5.625   3.105
 8815SOL    HW127344   6.793   5.617   3.015
 8815SOL    HW227345   6.769   5.638   3.176
 8816SOL     OW27346   0.983   6.389   1.875
 8816SOL    HW127347   1.075   6.387   1.835
 8816SOL    HW227348   0.991   6.402   1.974
 8817SOL     OW27349   2.785   4.531   5.353
 8817SOL    HW127350   2.860   4.528   5.288
 8817SOL    HW227351   2.706   4.576   5.311
 8818SOL     OW27352   0.124   5.320   4.700
 8818SOL    HW127353   0.032   5.283   4.716
 8818SOL    HW227354   0.167   5.341   4.788
 8819SOL     OW27355   5.722   0.114   3.850
 8819SOL    HW127356   5.778   0.099   3.769
 8819SOL    HW227357   5.626   0.119   3.824
 8820SOL     OW27358   1.378   2.660   4.089
 8820SOL    HW127359   1.302   2.708   4.132
 8820SOL    HW227360   1.411   2.713   4.010
 8821SOL     OW27361   1.760   7.022   6.544
 8821SOL    HW127362   1.685   0.032   6.601
 8821SOL    HW227363   1.841   7.010   6.600
 8822SOL     OW27364   0.460   1.708   3.781
 8822SOL    HW127365   0.554   1.738   3.794
 8822SOL    HW227366   0.456   1.608   3.783
 8823SOL     OW27367   2.468   4.928   2.089
 8823SOL    HW127368   2.513   4.890   2.008
 8823SOL    HW227369   2.407   4.860   2.129
 8824SOL     OW27370   4.664   3.948   0.767
 8824SOL    HW127371   4.734   3.911   0.706
 8824SOL    HW227372   4.636   3.878   0.833
 8825SOL     OW27373   1.797   2.361   0.901
 8825SOL    HW127374   1.856   2.289   0.938
 8825SOL    HW227375   1.739   2.396   0.974
 8826SOL     OW27376   5.500   0.567   0.472
 8826SOL    HW127377   5.440   0.488   0.485
 8826SOL    HW227378   5.595   0.541   0.491
 8827SOL     OW27379   0.383   1.392   3.526
 8827SOL    HW127380   0.420   1.427   3.440
 8827SOL    HW227381   0.292   1.355   3.510
 8828SOL     OW27382   1.423   6.394   2.687
 8828SOL    HW127383   1.402   6.423   2.781
 8828SOL    HW227384   1.455   6.473   2.634
 8829SOL     OW27385   0.590   1.577   0.469
 8829SOL    HW127386   0.600   1.675   0.451
 8829SOL    HW227387   0.643   1.552   0.550
 8830SOL     OW27388   0.938   1.732   0.733
 8830SOL    HW127389   1.004   1.808   0.731
 8830SOL    HW227390   0.976   1.654   0.683
 8831SOL     OW27391   0.057   1.093   2.035
 8831SOL    HW127392   0.006   1.179   2.043
 8831SOL    HW227393   0.052   1.044   2.121
 8832SOL     OW27394   7.012   0.984   2.273
 8832SOL    HW127395   0.023   0.963   2.365
 8832SOL    HW227396   6.913   0.994   2.276
 8833SOL     OW27397   1.365   4.662   3.516
 8833SOL    HW127398   1.420   4.582   3.492
 8833SOL    HW227399   1.319   4.697   3.434
 8834SOL     OW27400   5.947   3.845   4.146
 8834SOL    HW127401   5.856   3.833   4.187
 8834SOL    HW227402   5.956   3.785   4.066
 8835SOL     OW27403   0.440   0.652   6.519
 8835SOL    HW127404   0.373   0.725   6.508
 8835SOL    HW227405   0.403   0.566   6.484
 8836SOL     OW27406   5.060   1.643   1.177
 8836SOL    HW127407   4.997   1.589   1.233
 8836SOL    HW227408   5.089   1.589   1.097
 8837SOL     OW27409   0.689   1.819   2.399
 8837SOL    HW127410   0.776   1.770   2.394
 8837SOL    HW227411   0.663   1.849   2.307
 8838SOL     OW27412   2.324   6.118   3.450
 8838SOL    HW127413   2.293   6.036   3.402
 8838SOL    HW227414   2.424   6.125   3.442
 8839SOL     OW27415   5.386   6.417   4.211
 8839SOL    HW127416   5.423   6.472   4.286
 8839SOL    HW227417   5.305   6.368   4.243
 8840SOL     OW27418   5.120   1.094   2.739
 8840SOL    HW127419   5.145   1.128   2.649
 8840SOL    HW227420   5.172   1.144   2.809
 8841SOL     OW27421   2.078   7.009   4.097
 8841SOL    HW127422   2.044   6.915   4.102
 8841SOL    HW227423   2.009   0.048   4.131
 8842SOL     OW27424   1.469   2.768   1.946
 8842SOL    HW127425   1.556   2.811   1.972
 8842SOL    HW227426   1.456   2.777   1.847
 8843SOL     OW27427   0.370   3.333   5.000
 8843SOL    HW127428   0.436   3.375   4.938
 8843SOL    HW227429   0.343   3.243   4.965
 8844SOL     OW27430   5.830   1.105   6.084
 8844SOL    HW127431   5.899   1.165   6.042
 8844SOL    HW227432   5.860   1.079   6.176
 8845SOL     OW27433   5.757   3.516   0.330
 8845SOL    HW127434   5.668   3.530   0.288
 8845SOL    HW227435   5.747   3.468   0.416
 8846SOL     OW27436   2.779   4.797   3.341
 8846SOL    HW127437   2.725   4.769   3.261
 8846SOL    HW227438   2.744   4.750   3.422
 8847SOL     OW27439   1.773   0.847   2.431
 8847SOL    HW127440   1.741   0.916   2.366
 8847SOL    HW227441   1.710   0.769   2.429
 8848SOL     OW27442   1.021   0.295   3.327
 8848SOL    HW127443   1.082   0.231   3.280
 8848SOL    HW227444   0.960   0.338   3.260
 8849SOL     OW27445   2.295   6.765   1.427
 8849SOL    HW127446   2.314   6.829   1.502
 8849SOL    HW227447   2.379   6.716   1.403
 8850SOL     OW27448   2.648   2.592   6.882
 8850SOL    HW127449   2.699   2.508   6.861
 8850SOL    HW227450   2.615   2.633   6.798
 8851SOL     OW27451   1.791   3.711   2.279
 8851SOL    HW127452   1.847   3.638   2.239
 8851SOL    HW227453   1.707   3.721   2.226
 8852SOL     OW27454   0.890   1.793   5.402
 8852SOL    HW127455   0.865   1.696   5.399
 8852SOL    HW227456   0.923   1.821   5.312
 8853SOL     OW27457   5.335   0.498   1.597
 8853SOL    HW127458   5.260   0.540   1.648
 8853SOL    HW227459   5.309   0.405   1.572
 8854SOL     OW27460   1.113   2.709   5.137
 8854SOL    HW127461   1.185   2.690   5.070
 8854SOL    HW227462   1.105   2.807   5.151
 8855SOL     OW27463   5.421   4.979   1.439
 8855SOL    HW127464   5.516   5.007   1.447
 8855SOL    HW227465   5.363   5.059   1.422
 8856SOL     OW27466   6.600   0.727   5.746
 8856SOL    HW127467   6.562   0.638   5.772
 8856SOL    HW227468   6.693   0.715   5.712
 8857SOL     OW27469   6.922   2.160   6.255
 8857SOL    HW127470   6.853   2.168   6.326
 8857SOL    HW227471   6.987   2.236   6.263
 8858SOL     OW27472   6.628   5.861   5.126
 8858SOL    HW127473   6.538   5.900   5.147
 8858SOL    HW227474   6.658   5.893   5.037
 8859SOL     OW27475   1.396   5.987   3.049
 8859SOL    HW127476   1.330   5.912   3.047
 8859SOL    HW227477   1.444   5.992   2.962
 8860SOL     OW27478   0.075   3.757   2.688
 8860SOL    HW127479   0.002   3.773   2.622
 8860SOL    HW227480   0.129   3.677   2.659
 8861SOL     OW27481   3.679   2.701   1.381
 8861SOL    HW127482   3.692   2.605   1.406
 8861SOL    HW227483   3.758   2.754   1.412
 8862SOL     OW27484   4.446   4.563   4.732
 8862SOL    HW127485   4.409   4.558   4.825
 8862SOL    HW227486   4.442   4.657   4.699
 8863SOL     OW27487   1.768   3.589   3.051
 8863SOL    HW127488   1.771   3.562   3.147
 8863SOL    HW227489   1.786   3.687   3.043
 8864SOL     OW27490   6.452   2.073   5.577
 8864SOL    HW127491   6.508   2.149   5.610
 8864SOL    HW227492   6.512   1.997   5.551
 8865SOL     OW27493   2.899   2.084   0.371
 8865SOL    HW127494   2.981   2.074   0.313
 8865SOL    HW227495   2.820   2.048   0.322
 8866SOL     OW27496   5.862   6.788   2.006
 8866SOL    HW127497   5.794   6.808   1.936
 8866SOL    HW227498   5.882   6.690   2.006
 8867SOL     OW27499   6.302   2.913   2.522
 8867SOL    HW127500   6.319   3.004   2.485
 8867SOL    HW227501   6.290   2.919   2.622
 8868SOL     OW27502   6.555   3.678   3.779
 8868SOL    HW127503   6.542   3.646   3.873
 8868SOL    HW227504   6.546   3.778   3.777
 8869SOL     OW27505   5.068   0.533   3.496
 8869SOL    HW127506   5.063   0.633   3.488
 8869SOL    HW227507   5.148   0.499   3.446
 8870SOL     OW27508   1.424   0.636   1.925
 8870SOL    HW127509   1.327   0.661   1.917
 8870SOL    HW227510   1.459   0.610   1.835
 8871SOL     OW27511   0.205   0.834   1.509
 8871SOL    HW127512   0.136   0.774   1.550
 8871SOL    HW227513   0.207   0.921   1.559
 8872SOL     OW27514   6.804   3.627   3.275
 8872SOL    HW127515   6.746   3.673   3.342
 8872SOL    HW227516   6.803   3.528   3.292
 8873SOL     OW27517   2.376   2.158   3.004
 8873SOL    HW127518   2.315   2.102   2.947
 8873SOL    HW227519   2.409   2.102   3.080
 8874SOL     OW27520   3.016   6.376   0.415
 8874SOL    HW127521   2.994   6.386   0.512
 8874SOL    HW227522   3.086   6.305   0.404
 8875SOL     OW27523   6.647   3.221   4.577
 8875SOL    HW127524   6.686   3.190   4.490
 8875SOL    HW227525   6.694   3.304   4.607
 8876SOL     OW27526   4.073   0.512   0.035
 8876SOL    HW127527   4.006   0.448   0.073
 8876SOL    HW227528   4.066   0.600   0.082
 8877SOL     OW27529   0.874   5.086   1.298
 8877SOL    HW127530   0.964   5.044   1.298
 8877SOL    HW227531   0.856   5.126   1.208
 8878SOL     OW27532   4.778   4.114   1.510
 8878SOL    HW127533   4.715   4.103   1.587
 8878SOL    HW227534   4.796   4.211   1.494
 8879SOL     OW27535   6.692   3.762   2.674
 8879SOL    HW127536   6.618   3.814   2.717
 8879SOL    HW227537   6.750   3.723   2.746
 8880SOL     OW27538   4.149   2.193   3.079
 8880SOL    HW127539   4.174   2.102   3.048
 8880SOL    HW227540   4.050   2.205   3.071
 8881SOL     OW27541   3.977   4.873   3.423
 8881SOL    HW127542   4.037   4.826   3.488
 8881SOL    HW227543   3.978   4.824   3.336
 8882SOL     OW27544   3.867   0.838   0.580
 8882SOL    HW127545   3.965   0.851   0.594
 8882SOL    HW227546   3.850   0.746   0.544
 8883SOL     OW27547   6.902   6.579   3.642
 8883SOL    HW127548   6.873   6.504   3.582
 8883SOL    HW227549   6.831   6.595   3.711
 8884SOL     OW27550   4.827   3.249   5.534
 8884SOL    HW127551   4.831   3.248   5.434
 8884SOL    HW227552   4.916   3.221   5.571
 8885SOL     OW27553   5.776   5.886   0.690
 8885SOL    HW127554   5.690   5.937   0.690
 8885SOL    HW227555   5.778   5.825   0.610
 8886SOL     OW27556   4.207   6.072   6.879
 8886SOL    HW127557   4.190   5.983   6.837
 8886SOL    HW227558   4.285   6.115   6.835
 8887SOL     OW27559   3.993   0.417   1.479
 8887SOL    HW127560   3.995   0.347   1.549
 8887SOL    HW227561   3.903   0.461   1.478
 8888SOL     OW27562   3.358   1.783   2.319
 8888SOL    HW127563   3.342   1.798   2.221
 8888SOL    HW227564   3.374   1.685   2.335
 8889SOL     OW27565   1.537   5.064   0.318
 8889SOL    HW127566   1.448   5.086   0.278
 8889SOL    HW227567   1.586   5.000   0.258
 8890SOL     OW27568   1.034   6.833   6.988
 8890SOL    HW127569   0.934   6.835   6.998
 8890SOL    HW227570   1.073   6.774   0.035
 8891SOL     OW27571   6.175   4.258   5.527
 8891SOL    HW127572   6.237   4.334   5.506
 8891SOL    HW227573   6.223   4.192   5.585
 8892SOL     OW27574   3.104   5.342   4.638
 8892SOL    HW127575   3.160   5.339   4.721
 8892SOL    HW227576   3.064   5.434   4.629
 8893SOL     OW27577   1.210   4.873   5.687
 8893SOL    HW127578   1.263   4.853   5.605
 8893SOL    HW227579   1.137   4.938   5.664
 8894SOL     OW27580   4.958   1.656   1.803
 8894SOL    HW127581   4.861   1.673   1.822
 8894SOL    HW227582   5.014   1.720   1.855
 8895SOL     OW27583   6.645   3.330   1.083
 8895SOL    HW127584   6.572   3.376   1.133
 8895SOL    HW227585   6.713   3.296   1.147
 8896SOL     OW27586   1.031   1.442   3.771
 8896SOL    HW127587   1.100   1.395   3.826
 8896SOL    HW227588   0.955   1.470   3.829
 8897SOL     OW27589   1.736   5.741   3.937
 8897SOL    HW127590   1.665   5.760   4.005
 8897SOL    HW227591   1.702   5.767   3.847
 8898SOL     OW27592   4.980   3.699   2.307
 8898SOL    HW127593   4.985   3.764   2.231
 8898SOL    HW227594   4.952   3.609   2.272
 8899SOL     OW27595   1.826   3.843   3.116
 8899SOL    HW127596   1.834   3.917   3.182
 8899SOL    HW227597   1.913   3.834   3.067
 8900SOL     OW27598   4.346   1.691   4.413
 8900SOL    HW127599   4.384   1.757   4.478
 8900SOL    HW227600   4.362   1.724   4.320
 8901SOL     OW27601   1.245   5.152   4.908
 8901SOL    HW127602   1.208   5.059   4.906
 8901SOL    HW227603   1.170   5.218   4.904
 8902SOL     OW27604   0.103   5.076   0.049
 8902SOL    HW127605   0.155   5.157   0.020
 8902SOL    HW227606   0.140   5.042   0.136
 8903SOL     OW27607   1.345   0.183   5.379
 8903SOL    HW127608   1.270   0.238   5.416
 8903SOL    HW227609   1.322   0.086   5.385
 8904SOL     OW27610   0.793   1.273   3.721
 8904SOL    HW127611   0.706   1.224   3.727
 8904SOL    HW227612   0.865   1.218   3.764
 8905SOL     OW27613   1.312   4.076   2.570
 8905SOL    HW127614   1.277   4.058   2.478
 8905SOL    HW227615   1.236   4.087   2.634
 8906SOL     OW27616   5.885   0.059   6.943
 8906SOL    HW127617   5.956   7.015   6.925
 8906SOL    HW227618   5.928   0.149   6.956
 8907SOL     OW27619   2.859   3.216   5.250
 8907SOL    HW127620   2.790   3.287   5.235
 8907SOL    HW227621   2.948   3.259   5.267
 8908SOL     OW27622   1.573   4.523   6.376
 8908SOL    HW127623   1.630   4.596   6.338
 8908SOL    HW227624   1.572   4.530   6.476
 8909SOL     OW27625   1.727   5.520   1.453
 8909SOL    HW127626   1.678   5.442   1.491
 8909SOL    HW227627   1.749   5.585   1.526
 8910SOL     OW27628   0.974   0.553   3.677
 8910SOL    HW127629   1.043   0.513   3.618
 8910SOL    HW227630   0.971   0.504   3.764
 8911SOL     OW27631   4.742   2.761   4.286
 8911SOL    HW127632   4.673   2.731   4.353
 8911SOL    HW227633   4.760   2.687   4.221
 8912SOL     OW27634   3.553   3.741   4.153
 8912SOL    HW127635   3.534   3.643   4.152
 8912SOL    HW227636   3.637   3.759   4.203
 8913SOL     OW27637   5.123   5.854   0.858
 8913SOL    HW127638   5.068   5.924   0.811
 8913SOL    HW227639   5.134   5.775   0.797
 8914SOL     OW27640   4.842   6.049   5.439
 8914SOL    HW127641   4.931   6.027   5.478
 8914SOL    HW227642   4.774   6.055   5.512
 8915SOL     OW27643   1.760   0.934   3.310
 8915SOL    HW127644   1.818   0.985   3.374
 8915SOL    HW227645   1.818   0.891   3.241
 8916SOL     OW27646   5.068   1.080   1.107
 8916SOL    HW127647   5.096   1.130   1.189
 8916SOL    HW227648   4.969   1.069   1.107
 8917SOL     OW27649   5.778   1.633   0.238
 8917SOL    HW127650   5.835   1.708   0.270
 8917SOL    HW227651   5.777   1.560   0.306
 8918SOL     OW27652   0.814   3.304   3.113
 8918SOL    HW127653   0.855   3.229   3.165
 8918SOL    HW227654   0.719   3.316   3.140
 8919SOL     OW27655   6.207   2.772   1.777
 8919SOL    HW127656   6.264   2.699   1.738
 8919SOL    HW227657   6.215   2.771   1.877
 8920SOL     OW27658   0.212   1.019   0.218
 8920SOL    HW127659   0.278   0.944   0.217
 8920SOL    HW227660   0.238   1.085   0.289
 8921SOL     OW27661   0.711   3.074   2.392
 8921SOL    HW127662   0.703   3.001   2.324
 8921SOL    HW227663   0.807   3.094   2.409
 8922SOL     OW27664   4.146   5.206   3.855
 8922SOL    HW127665   4.220   5.222   3.920
 8922SOL    HW227666   4.076   5.277   3.867
 8923SOL     OW27667   2.420   1.407   4.200
 8923SOL    HW127668   2.489   1.476   4.177
 8923SOL    HW227669   2.373   1.378   4.117
 8924SOL     OW27670   6.564   4.791   5.288
 8924SOL    HW127671   6.650   4.744   5.305
 8924SOL    HW227672   6.548   4.797   5.189
 8925SOL     OW27673   0.964   6.551   2.810
 8925SOL    HW127674   0.932   6.501   2.729
 8925SOL    HW227675   0.886   6.588   2.859
 8926SOL     OW27676   5.886   0.876   0.078
 8926SOL    HW127677   5.796   0.867   0.036
 8926SOL    HW227678   5.930   0.960   0.045
 8927SOL     OW27679   1.627   0.749   6.871
 8927SOL    HW127680   1.570   0.747   6.789
 8927SOL    HW227681   1.724   0.748   6.845
 8928SOL     OW27682   1.267   6.723   5.741
 8928SOL    HW127683   1.349   6.755   5.694
 8928SOL    HW227684   1.292   6.671   5.822
 8929SOL     OW27685   0.021   1.663   4.263
 8929SOL    HW127686   0.058   1.573   4.285
 8929SOL    HW227687   0.040   1.685   4.168
 8930SOL     OW27688   2.038   4.825   3.989
 8930SOL    HW127689   2.085   4.896   4.041
 8930SOL    HW227690   2.079   4.736   4.009
 8931SOL     OW27691   4.064   3.433   0.312
 8931SOL    HW127692   4.028   3.443   0.405
 8931SOL    HW227693   4.145   3.491   0.302
 8932SOL     OW27694   0.369   3.170   3.481
 8932SOL    HW127695   0.435   3.101   3.454
 8932SOL    HW227696   0.284   3.126   3.512
 8933SOL     OW27697   3.896   1.891   5.770
 8933SOL    HW127698   3.818   1.954   5.768
 8933SOL    HW227699   3.941   1.890   5.681
 8934SOL     OW27700   2.568   6.422   3.051
 8934SOL    HW127701   2.515   6.338   3.060
 8934SOL    HW227702   2.657   6.411   3.096
 8935SOL     OW27703   6.757   4.729   0.562
 8935SOL    HW127704   6.661   4.706   0.581
 8935SOL    HW227705   6.764   4.768   0.471
 8936SOL     OW27706   3.745   2.612   0.423
 8936SOL    HW127707   3.812   2.683   0.443
 8936SOL    HW227708   3.686   2.641   0.347
 8937SOL     OW27709   0.507   0.094   5.869
 8937SOL    HW127710   0.546   0.148   5.944
 8937SOL    HW227711   0.421   0.135   5.839
 8938SOL     OW27712   5.005   6.594   1.414
 8938SOL    HW127713   5.047   6.556   1.332
 8938SOL    HW227714   4.932   6.658   1.388
 8939SOL     OW27715   4.884   1.838   5.238
 8939SOL    HW127716   4.821   1.765   5.265
 8939SOL    HW227717   4.903   1.897   5.316
 8940SOL     OW27718   5.711   0.089   2.301
 8940SOL    HW127719   5.762   0.095   2.386
 8940SOL    HW227720   5.680   7.019   2.287
 8941SOL     OW27721   4.531   1.528   6.511
 8941SOL    HW127722   4.496   1.435   6.505
 8941SOL    HW227723   4.626   1.531   6.480
 8942SOL     OW27724   1.432   2.440   5.174
 8942SOL    HW127725   1.413   2.534   5.202
 8942SOL    HW227726   1.500   2.440   5.101
 8943SOL     OW27727   4.921   3.533   1.010
 8943SOL    HW127728   4.975   3.601   0.960
 8943SOL    HW227729   4.982   3.473   1.061
 8944SOL     OW27730   4.411   5.653   1.652
 8944SOL    HW127731   4.483   5.617   1.593
 8944SOL    HW227732   4.333   5.682   1.596
 8945SOL     OW27733   1.934   0.944   4.562
 8945SOL    HW127734   2.024   0.988   4.561
 8945SOL    HW227735   1.888   0.962   4.475
 8946SOL     OW27736   3.920   1.662   4.593
 8946SOL    HW127737   3.902   1.611   4.510
 8946SOL    HW227738   4.002   1.718   4.581
 8947SOL     OW27739   3.713   3.832   5.086
 8947SOL    HW127740   3.801   3.876   5.071
 8947SOL    HW227741   3.693   3.829   5.184
 8948SOL     OW27742   5.776   4.972   2.676
 8948SOL    HW127743   5.737   5.005   2.590
 8948SOL    HW227744   5.709   4.914   2.723
 8949SOL     OW27745   2.229   5.812   5.901
 8949SOL    HW127746   2.313   5.804   5.847
 8949SOL    HW227747   2.164   5.871   5.852
 8950SOL     OW27748   4.874   2.112   4.618
 8950SOL    HW127749   4.810   2.188   4.606
 8950SOL    HW227750   4.912   2.115   4.710
 8951SOL     OW27751   2.139   1.705   5.807
 8951SOL    HW127752   2.224   1.748   5.839
 8951SOL    HW227753   2.070   1.709   5.879
 8952SOL     OW27754   6.275   0.025   3.352
 8952SOL    HW127755   6.324   6.970   3.390
 8952SOL    HW227756   6.201   0.051   3.414
 8953SOL     OW27757   1.421   5.490   6.668
 8953SOL    HW127758   1.432   5.423   6.742
 8953SOL    HW227759   1.333   5.537   6.679
 8954SOL     OW27760   1.708   6.675   6.032
 8954SOL    HW127761   1.611   6.684   6.056
 8954SOL    HW227762   1.731   6.742   5.962
 8955SOL     OW27763   6.135   3.669   4.312
 8955SOL    HW127764   6.126   3.767   4.293
 8955SOL    HW227765   6.045   3.626   4.307
 8956SOL     OW27766   1.261   0.726   4.868
 8956SOL    HW127767   1.218   0.746   4.780
 8956SOL    HW227768   1.349   0.771   4.873
 8957SOL     OW27769   2.551   5.618   1.753
 8957SOL    HW127770   2.613   5.541   1.768
 8957SOL    HW227771   2.485   5.594   1.682
 8958SOL     OW27772   2.620   0.305   4.092
 8958SOL    HW127773   2.629   0.334   4.187
 8958SOL    HW227774   2.687   0.354   4.036
 8959SOL     OW27775   2.839   4.950   0.318
 8959SOL    HW127776   2.829   4.955   0.219
 8959SOL    HW227777   2.797   4.867   0.352
 8960SOL     OW27778   3.525   5.584   1.056
 8960SOL    HW127779   3.586   5.580   0.978
 8960SOL    HW227780   3.497   5.491   1.081
 8961SOL     OW27781   1.684   2.396   4.196
 8961SOL    HW127782   1.777   2.376   4.164
 8961SOL    HW227783   1.619   2.377   4.123
 8962SOL     OW27784   4.762   0.486   3.380
 8962SOL    HW127785   4.713   0.415   3.331
 8962SOL    HW227786   4.774   0.459   3.476
 8963SOL     OW27787   0.128   0.771   3.628
 8963SOL    HW127788   0.104   0.687   3.579
 8963SOL    HW227789   0.047   0.829   3.636
 8964SOL     OW27790   6.683   3.829   3.075
 8964SOL    HW127791   6.622   3.829   2.996
 8964SOL    HW227792   6.738   3.746   3.075
 8965SOL     OW27793   1.328   5.446   1.895
 8965SOL    HW127794   1.267   5.523   1.877
 8965SOL    HW227795   1.323   5.381   1.819
 8966SOL     OW27796   3.255   2.668   5.605
 8966SOL    HW127797   3.307   2.739   5.558
 8966SOL    HW227798   3.266   2.581   5.558
 8967SOL     OW27799   4.446   6.744   0.564
 8967SOL    HW127800   4.522   6.689   0.529
 8967SOL    HW227801   4.475   6.840   0.571
 8968SOL     OW27802   5.003   4.448   2.988
 8968SOL    HW127803   4.979   4.402   3.074
 8968SOL    HW227804   4.979   4.545   2.994
 8969SOL     OW27805   6.509   0.710   4.266
 8969SOL    HW127806   6.424   0.659   4.256
 8969SOL    HW227807   6.586   0.647   4.261
 8970SOL     OW27808   3.336   1.970   1.465
 8970SOL    HW127809   3.389   1.887   1.477
 8970SOL    HW227810   3.288   1.992   1.549
 8971SOL     OW27811   4.493   6.172   3.231
 8971SOL    HW127812   4.559   6.198   3.302
 8971SOL    HW227813   4.495   6.073   3.217
 8972SOL     OW27814   5.752   0.637   4.614
 8972SOL    HW127815   5.691   0.627   4.693
 8972SOL    HW227816   5.824   0.703   4.636
 8973SOL     OW27817   1.915   4.457   7.011
 8973SOL    HW127818   1.855   4.441   6.932
 8973SOL    HW227819   1.907   4.381   0.051
 8974SOL     OW27820   0.532   3.098   4.118
 8974SOL    HW127821   0.572   3.137   4.201
 8974SOL    HW227822   0.603   3.053   4.065
 8975SOL     OW27823   3.186   0.329   6.908
 8975SOL    HW127824   3.251   0.404   6.897
 8975SOL    HW227825   3.214   0.271   6.984
 8976SOL     OW27826   0.828   4.664   4.675
 8976SOL    HW127827   0.787   4.626   4.758
 8976SOL    HW227828   0.849   4.589   4.611
 8977SOL     OW27829   5.394   1.217   6.468
 8977SOL    HW127830   5.467   1.151   6.450
 8977SOL    HW227831   5.312   1.168   6.499
 8978SOL     OW27832   5.686   5.588   0.994
 8978SOL    HW127833   5.777   5.614   0.963
 8978SOL    HW227834   5.686   5.490   1.018
 8979SOL     OW27835   1.880   5.129   4.758
 8979SOL    HW127836   1.858   5.224   4.734
 8979SOL    HW227837   1.799   5.085   4.797
 8980SOL     OW27838   3.920   3.037   4.482
 8980SOL    HW127839   3.992   3.106   4.471
 8980SOL    HW227840   3.925   2.997   4.573
 8981SOL     OW27841   2.927   1.271   5.140
 8981SOL    HW127842   3.018   1.231   5.142
 8981SOL    HW227843   2.918   1.339   5.213
 8982SOL     OW27844   4.435   4.362   0.772
 8982SOL    HW127845   4.440   4.378   0.870
 8982SOL    HW227846   4.491   4.429   0.724
 8983SOL     OW27847   5.356   5.334   0.759
 8983SOL    HW127848   5.273   5.305   0.807
 8983SOL    HW227849   5.333   5.357   0.664
 8984SOL     OW27850   1.428   6.753   3.071
 8984SOL    HW127851   1.429   6.767   3.170
 8984SOL    HW227852   1.422   6.842   3.025
 8985SOL     OW27853   3.130   3.146   6.031
 8985SOL    HW127854   3.154   3.066   6.086
 8985SOL    HW227855   3.053   3.193   6.074
 8986SOL     OW27856   3.648   5.993   2.883
 8986SOL    HW127857   3.741   6.026   2.896
 8986SOL    HW227858   3.583   6.061   2.916
 8987SOL     OW27859   4.960   5.868   2.082
 8987SOL    HW127860   5.051   5.907   2.074
 8987SOL    HW227861   4.898   5.914   2.018
 8988SOL     OW27862   0.823   5.590   5.176
 8988SOL    HW127863   0.862   5.627   5.260
 8988SOL    HW227864   0.725   5.577   5.187
 8989SOL     OW27865   2.972   3.321   6.845
 8989SOL    HW127866   2.894   3.361   6.796
 8989SOL    HW227867   3.057   3.359   6.810
 8990SOL     OW27868   0.454   6.125   3.446
 8990SOL    HW127869   0.382   6.069   3.404
 8990SOL    HW227870   0.415   6.213   3.474
 8991SOL     OW27871   1.022   1.869   5.176
 8991SOL    HW127872   0.997   1.938   5.107
 8991SOL    HW227873   1.122   1.862   5.181
 8992SOL     OW27874   6.656   2.216   0.778
 8992SOL    HW127875   6.592   2.229   0.853
 8992SOL    HW227876   6.611   2.167   0.703
 8993SOL     OW27877   4.639   2.667   0.396
 8993SOL    HW127878   4.578   2.595   0.427
 8993SOL    HW227879   4.652   2.734   0.469
 8994SOL     OW27880   2.130   6.028   3.901
 8994SOL    HW127881   2.208   6.091   3.904
 8994SOL    HW227882   2.069   6.054   3.826
 8995SOL     OW27883   0.251   0.538   0.759
 8995SOL    HW127884   0.284   0.547   0.852
 8995SOL    HW227885   0.184   0.464   0.754
 8996SOL     OW27886   4.242   6.233   5.531
 8996SOL    HW127887   4.189   6.276   5.605
 8996SOL    HW227888   4.215   6.272   5.443
 8997SOL     OW27889   6.278   0.768   4.663
 8997SOL    HW127890   6.366   0.759   4.710
 8997SOL    HW227891   6.292   0.815   4.576
 8998SOL     OW27892   6.428   3.257   4.746
 8998SOL    HW127893   6.512   3.230   4.699
 8998SOL    HW227894   6.441   3.252   4.845
 8999SOL     OW27895   3.680   6.677   5.532
 8999SOL    HW127896   3.744   6.622   5.585
 8999SOL    HW227897   3.716   6.770   5.522
 9000SOL     OW27898   1.524   4.186   1.204
 9000SOL    HW127899   1.565   4.098   1.229
 9000SOL    HW227900   1.587   4.236   1.145
 9001SOL     OW27901   1.062   6.097   2.256
 9001SOL    HW127902   1.033   6.048   2.337
 9001SOL    HW227903   1.124   6.039   2.203
 9002SOL     OW27904   0.519   4.602   6.848
 9002SOL    HW127905   0.484   4.511   6.870
 9002SOL    HW227906   0.611   4.593   6.809
 9003SOL     OW27907   5.291   0.242   1.476
 9003SOL    HW127908   5.228   0.209   1.406
 9003SOL    HW227909   5.334   0.165   1.522
 9004SOL     OW27910   4.572   4.983   0.137
 9004SOL    HW127911   4.561   5.043   0.216
 9004SOL    HW227912   4.555   4.889   0.163
 9005SOL     OW27913   5.237   1.856   5.381
 9005SOL    HW127914   5.326   1.890   5.348
 9005SOL    HW227915   5.223   1.762   5.347
 9006SOL     OW27916   3.744   6.284   0.273
 9006SOL    HW127917   3.799   6.268   0.355
 9006SOL    HW227918   3.764   6.213   0.205
 9007SOL     OW27919   1.626   1.123   3.068
 9007SOL    HW127920   1.674   1.199   3.026
 9007SOL    HW227921   1.647   1.120   3.166
 9008SOL     OW27922   1.015   5.943   2.469
 9008SOL    HW127923   1.035   5.957   2.566
 9008SOL    HW227924   0.922   5.972   2.449
 9009SOL     OW27925   3.539   6.035   1.420
 9009SOL    HW127926   3.497   6.091   1.348
 9009SOL    HW227927   3.585   6.095   1.486
 9010SOL     OW27928   1.543   6.056   4.280
 9010SOL    HW127929   1.486   5.993   4.333
 9010SOL    HW227930   1.568   6.134   4.337
 9011SOL     OW27931   2.620   2.412   1.900
 9011SOL    HW127932   2.677   2.415   1.982
 9011SOL    HW227933   2.661   2.351   1.832
 9012SOL     OW27934   2.028   6.542   6.942
 9012SOL    HW127935   1.976   6.601   6.880
 9012SOL    HW227936   2.118   6.581   6.957
 9013SOL     OW27937   1.983   6.662   4.300
 9013SOL    HW127938   1.893   6.656   4.343
 9013SOL    HW227939   2.048   6.605   4.350
 9014SOL     OW27940   5.343   3.035   3.417
 9014SOL    HW127941   5.325   3.124   3.458
 9014SOL    HW227942   5.441   3.026   3.398
 9015SOL     OW27943   4.813   1.251   6.005
 9015SOL    HW127944   4.889   1.213   5.953
 9015SOL    HW227945   4.775   1.330   5.955
 9016SOL     OW27946   5.185   5.440   6.233
 9016SOL    HW127947   5.163   5.538   6.237
 9016SOL    HW227948   5.216   5.410   6.323
 9017SOL     OW27949   4.238   6.903   4.334
 9017SOL    HW127950   4.298   6.845   4.278
 9017SOL    HW227951   4.257   6.887   4.431
 9018SOL     OW27952   4.345   4.679   6.393
 9018SOL    HW127953   4.412   4.706   6.461
 9018SOL    HW227954   4.385   4.609   6.333
 9019SOL     OW27955   0.296   3.449   3.951
 9019SOL    HW127956   0.344   3.379   4.004
 9019SOL    HW227957   0.235   3.500   4.011
 9020SOL     OW27958   5.212   5.072   2.713
 9020SOL    HW127959   5.216   5.130   2.632
 9020SOL    HW227960   5.301   5.072   2.758
 9021SOL     OW27961   0.609   1.265   4.441
 9021SOL    HW127962   0.596   1.283   4.538
 9021SOL    HW227963   0.538   1.203   4.408
 9022SOL     OW27964   4.880   4.150   6.263
 9022SOL    HW127965   4.843   4.221   6.203
 9022SOL    HW227966   4.886   4.064   6.212
 9023SOL     OW27967   5.921   4.424   0.191
 9023SOL    HW127968   5.851   4.354   0.203
 9023SOL    HW227969   5.912   4.492   0.264
 9024SOL     OW27970   2.206   6.184   5.915
 9024SOL    HW127971   2.153   6.253   5.965
 9024SOL    HW227972   2.143   6.124   5.865
 9025SOL     OW27973   1.062   5.853   1.129
 9025SOL    HW127974   1.067   5.812   1.037
 9025SOL    HW227975   1.038   5.949   1.120
 9026SOL     OW27976   4.910   1.436   0.481
 9026SOL    HW127977   4.826   1.432   0.427
 9026SOL    HW227978   4.900   1.503   0.554
 9027SOL     OW27979   1.035   3.558   3.646
 9027SOL    HW127980   1.064   3.462   3.650
 9027SOL    HW227981   0.953   3.565   3.588
 9028SOL     OW27982   3.390   4.979   6.013
 9028SOL    HW127983   3.488   4.986   6.028
 9028SOL    HW227984   3.341   4.996   6.098
 9029SOL     OW27985   4.731   0.104   4.786
 9029SOL    HW127986   4.733   0.171   4.711
 9029SOL    HW227987   4.666   0.133   4.855
 9030SOL     OW27988   2.925   1.570   2.550
 9030SOL    HW127989   2.961   1.557   2.458
 9030SOL    HW227990   2.937   1.486   2.603
 9031SOL     OW27991   4.681   6.885   4.704
 9031SOL    HW127992   4.695   6.977   4.742
 9031SOL    HW227993   4.658   6.894   4.607
 9032SOL     OW27994   4.940   3.451   2.211
 9032SOL    HW127995   4.862   3.388   2.215
 9032SOL    HW227996   4.993   3.433   2.128
 9033SOL     OW27997   0.421   6.932   3.149
 9033SOL    HW127998   0.404   6.884   3.063
 9033SOL    HW227999   0.472   7.016   3.131
 9034SOL     OW28000   4.792   0.032   4.440
 9034SOL    HW128001   4.707   7.005   4.427
 9034SOL    HW228002   4.772   0.122   4.479
 9035SOL     OW28003   2.272   4.749   6.386
 9035SOL    HW128004   2.361   4.717   6.420
 9035SOL    HW228005   2.279   4.846   6.364
 9036SOL     OW28006   1.576   4.336   5.406
 9036SOL    HW128007   1.496   4.276   5.397
 9036SOL    HW228008   1.564   4.417   5.348
 9037SOL     OW28009   0.929   1.375   3.113
 9037SOL    HW128010   0.905   1.288   3.069
 9037SOL    HW228011   0.887   1.380   3.203
 9038SOL     OW28012   4.566   2.850   5.715
 9038SOL    HW128013   4.555   2.817   5.622
 9038SOL    HW228014   4.511   2.794   5.777
 9039SOL     OW28015   4.170   5.828   6.754
 9039SOL    HW128016   4.257   5.815   6.706
 9039SOL    HW228017   4.155   5.752   6.817
 9040SOL     OW28018   2.292   1.981   1.673
 9040SOL    HW128019   2.324   2.070   1.642
 9040SOL    HW228020   2.316   1.968   1.769
 9041SOL     OW28021   6.743   2.052   2.441
 9041SOL    HW128022   6.840   2.031   2.436
 9041SOL    HW228023   6.707   2.068   2.349
 9042SOL     OW28024   3.850   6.501   0.123
 9042SOL    HW128025   3.782   6.430   0.143
 9042SOL    HW228026   3.942   6.461   0.131
 9043SOL     OW28027   3.318   2.477   0.640
 9043SOL    HW128028   3.367   2.416   0.703
 9043SOL    HW228029   3.384   2.537   0.595
 9044SOL     OW28030   0.864   1.233   0.220
 9044SOL    HW128031   0.869   1.242   0.320
 9044SOL    HW228032   0.771   1.255   0.190
 9045SOL     OW28033   4.227   1.686   2.844
 9045SOL    HW128034   4.324   1.710   2.842
 9045SOL    HW228035   4.200   1.652   2.754
 9046SOL     OW28036   3.252   3.351   1.963
 9046SOL    HW128037   3.242   3.406   2.046
 9046SOL    HW228038   3.342   3.368   1.923
 9047SOL     OW28039   1.369   4.297   6.597
 9047SOL    HW128040   1.381   4.392   6.626
 9047SOL    HW228041   1.272   4.280   6.578
 9048SOL     OW28042   6.510   1.186   6.392
 9048SOL    HW128043   6.542   1.144   6.477
 9048SOL    HW228044   6.447   1.260   6.413
 9049SOL     OW28045   2.750   6.754   6.025
 9049SOL    HW128046   2.672   6.740   6.086
 9049SOL    HW228047   2.757   6.678   5.960
 9050SOL     OW28048   0.875   4.454   0.939
 9050SOL    HW128049   0.925   4.415   0.862
 9050SOL    HW228050   0.847   4.548   0.917
 9051SOL     OW28051   2.582   1.181   1.378
 9051SOL    HW128052   2.668   1.130   1.380
 9051SOL    HW228053   2.601   1.278   1.370
 9052SOL     OW28054   1.190   2.477   5.640
 9052SOL    HW128055   1.153   2.495   5.549
 9052SOL    HW228056   1.163   2.385   5.670
 9053SOL     OW28057   0.989   1.403   0.041
 9053SOL    HW128058   1.048   1.482   0.059
 9053SOL    HW228059   0.964   1.359   0.127
 9054SOL     OW28060   2.461   5.862   2.816
 9054SOL    HW128061   2.495   5.835   2.906
 9054SOL    HW228062   2.450   5.781   2.759
 9055SOL     OW28063   0.384   3.103   5.237
 9055SOL    HW128064   0.339   3.019   5.208
 9055SOL    HW228065   0.414   3.154   5.156
 9056SOL     OW28066   6.327   2.900   2.786
 9056SOL    HW128067   6.397   2.956   2.829
 9056SOL    HW228068   6.321   2.812   2.833
 9057SOL     OW28069   4.420   1.979   3.954
 9057SOL    HW128070   4.383   2.013   3.867
 9057SOL    HW228071   4.519   1.993   3.956
 9058SOL     OW28072   2.850   0.703   5.654
 9058SOL    HW128073   2.770   0.726   5.708
 9058SOL    HW228074   2.847   0.752   5.567
 9059SOL     OW28075   1.342   2.089   2.670
 9059SOL    HW128076   1.259   2.077   2.615
 9059SOL    HW228077   1.356   2.008   2.727
 9060SOL     OW28078   5.265   2.768   5.537
 9060SOL    HW128079   5.320   2.840   5.495
 9060SOL    HW228080   5.189   2.744   5.476
 9061SOL     OW28081   3.083   5.504   2.906
 9061SOL    HW128082   3.120   5.582   2.857
 9061SOL    HW228083   3.149   5.473   2.974
 9062SOL     OW28084   1.495   5.900   1.028
 9062SOL    HW128085   1.585   5.891   1.071
 9062SOL    HW228086   1.494   5.852   0.941
 9063SOL     OW28087   2.578   2.154   2.063
 9063SOL    HW128088   2.676   2.157   2.047
 9063SOL    HW228089   2.552   2.229   2.125
 9064SOL     OW28090   5.421   3.299   0.459
 9064SOL    HW128091   5.388   3.213   0.497
 9064SOL    HW228092   5.477   3.281   0.378
 9065SOL     OW28093   2.688   0.609   6.863
 9065SOL    HW128094   2.750   0.655   6.799
 9065SOL    HW228095   2.596   0.608   6.826
 9066SOL     OW28096   4.934   6.849   0.130
 9066SOL    HW128097   4.872   6.892   0.064
 9066SOL    HW228098   5.007   6.913   0.153
 9067SOL     OW28099   1.521   6.790   1.849
 9067SOL    HW128100   1.423   6.771   1.858
 9067SOL    HW228101   1.539   6.886   1.870
 9068SOL     OW28102   1.584   6.200   6.515
 9068SOL    HW128103   1.669   6.161   6.551
 9068SOL    HW228104   1.557   6.279   6.570
 9069SOL     OW28105   1.234   2.313   6.143
 9069SOL    HW128106   1.236   2.369   6.060
 9069SOL    HW228107   1.223   2.217   6.118
 9070SOL     OW28108   1.366   4.015   3.610
 9070SOL    HW128109   1.280   3.971   3.635
 9070SOL    HW228110   1.382   4.003   3.512
 9071SOL     OW28111   4.673   5.800   0.354
 9071SOL    HW128112   4.690   5.740   0.431
 9071SOL    HW228113   4.578   5.831   0.357
 9072SOL     OW28114   5.534   4.661   0.163
 9072SOL    HW128115   5.490   4.572   0.152
 9072SOL    HW228116   5.599   4.676   0.089
 9073SOL     OW28117   1.752   0.395   1.163
 9073SOL    HW128118   1.762   0.473   1.101
 9073SOL    HW228119   1.741   0.429   1.257
 9074SOL     OW28120   0.440   0.381   3.449
 9074SOL    HW128121   0.451   0.469   3.496
 9074SOL    HW228122   0.530   0.341   3.432
 9075SOL     OW28123   0.546   0.516   1.972
 9075SOL    HW128124   0.587   0.516   1.881
 9075SOL    HW228125   0.459   0.566   1.969
 9076SOL     OW28126   0.198   1.486   5.329
 9076SOL    HW128127   0.227   1.571   5.285
 9076SOL    HW228128   0.202   1.496   5.428
 9077SOL     OW28129   6.055   6.024   1.333
 9077SOL    HW128130   6.140   5.972   1.349
 9077SOL    HW228131   6.054   6.058   1.239
 9078SOL     OW28132   3.968   3.069   5.094
 9078SOL    HW128133   4.017   3.114   5.018
 9078SOL    HW228134   3.889   3.125   5.120
 9079SOL     OW28135   4.094   0.968   5.401
 9079SOL    HW128136   3.995   0.978   5.399
 9079SOL    HW228137   4.137   1.050   5.363
 9080SOL     OW28138   5.107   1.410   0.272
 9080SOL    HW128139   5.178   1.344   0.296
 9080SOL    HW228140   5.044   1.420   0.349
 9081SOL     OW28141   5.476   0.242   3.031
 9081SOL    HW128142   5.378   0.240   3.049
 9081SOL    HW228143   5.493   0.290   2.945
 9082SOL     OW28144   3.136   0.766   2.751
 9082SOL    HW128145   3.083   0.850   2.742
 9082SOL    HW228146   3.226   0.788   2.790
 9083SOL     OW28147   4.726   4.623   3.943
 9083SOL    HW128148   4.714   4.585   4.035
 9083SOL    HW228149   4.792   4.698   3.947
 9084SOL     OW28150   3.609   4.032   3.081
 9084SOL    HW128151   3.692   4.046   3.135
 9084SOL    HW228152   3.630   4.045   2.984
 9085SOL     OW28153   0.972   2.104   0.496
 9085SOL    HW128154   0.900   2.159   0.539
 9085SOL    HW228155   0.966   2.113   0.397
 9086SOL     OW28156   6.922   3.980   0.521
 9086SOL    HW128157   6.926   3.889   0.479
 9086SOL    HW228158   6.828   4.013   0.522
 9087SOL     OW28159   5.168   3.642   1.877
 9087SOL    HW128160   5.107   3.565   1.896
 9087SOL    HW228161   5.152   3.715   1.945
 9088SOL     OW28162   5.010   6.263   0.666
 9088SOL    HW128163   4.991   6.200   0.591
 9088SOL    HW228164   5.067   6.338   0.633
 9089SOL     OW28165   4.061   0.553   5.963
 9089SOL    HW128166   4.104   0.577   6.050
 9089SOL    HW228167   4.128   0.559   5.890
 9090SOL     OW28168   6.028   1.672   3.502
 9090SOL    HW128169   5.984   1.762   3.510
 9090SOL    HW228170   6.117   1.683   3.458
 9091SOL     OW28171   3.831   2.622   6.404
 9091SOL    HW128172   3.768   2.568   6.458
 9091SOL    HW228173   3.924   2.607   6.436
 9092SOL     OW28174   6.962   3.208   6.783
 9092SOL    HW128175   6.996   3.205   6.877
 9092SOL    HW228176   6.866   3.179   6.781
 9093SOL     OW28177   2.181   6.506   4.914
 9093SOL    HW128178   2.279   6.505   4.936
 9093SOL    HW228179   2.167   6.462   4.825
 9094SOL     OW28180   1.661   3.612   1.419
 9094SOL    HW128181   1.610   3.582   1.500
 9094SOL    HW228182   1.688   3.532   1.365
 9095SOL     OW28183   6.692   6.812   6.196
 9095SOL    HW128184   6.621   6.882   6.189
 9095SOL    HW228185   6.684   6.766   6.284
 9096SOL     OW28186   5.798   5.037   4.450
 9096SOL    HW128187   5.868   4.977   4.412
 9096SOL    HW228188   5.840   5.096   4.519
 9097SOL     OW28189   1.132   2.228   5.786
 9097SOL    HW128190   1.185   2.148   5.759
 9097SOL    HW228191   1.083   2.209   5.871
 9098SOL     OW28192   2.259   4.312   3.674
 9098SOL    HW128193   2.227   4.402   3.644
 9098SOL    HW228194   2.216   4.289   3.762
 9099SOL     OW28195   2.322   1.450   6.867
 9099SOL    HW128196   2.278   1.480   6.952
 9099SOL    HW228197   2.259   1.459   6.791
 9100SOL     OW28198   1.829   4.609   3.937
 9100SOL    HW128199   1.871   4.698   3.918
 9100SOL    HW228200   1.888   4.557   3.999
 9101SOL     OW28201   0.498   2.342   0.561
 9101SOL    HW128202   0.466   2.426   0.517
 9101SOL    HW228203   0.450   2.330   0.648
 9102SOL     OW28204   3.952   0.009   2.961
 9102SOL    HW128205   3.862   0.017   2.917
 9102SOL    HW228206   3.972   0.094   3.010
 9103SOL     OW28207   5.994   1.339   1.349
 9103SOL    HW128208   6.067   1.375   1.292
 9103SOL    HW228209   5.948   1.414   1.396
 9104SOL     OW28210   6.122   2.026   6.181
 9104SOL    HW128211   6.066   2.109   6.180
 9104SOL    HW228212   6.177   2.022   6.098
 9105SOL     OW28213   3.071   1.327   5.492
 9105SOL    HW128214   3.105   1.233   5.480
 9105SOL    HW228215   3.023   1.335   5.579
 9106SOL     OW28216   1.774   4.047   6.854
 9106SOL    HW128217   1.848   4.039   6.787
 9106SOL    HW228218   1.717   4.126   6.830
 9107SOL     OW28219   3.129   1.276   0.454
 9107SOL    HW128220   3.077   1.296   0.371
 9107SOL    HW228221   3.186   1.355   0.477
 9108SOL     OW28222   0.077   5.471   5.999
 9108SOL    HW128223   0.020   5.520   6.065
 9108SOL    HW228224   0.102   5.381   6.036
 9109SOL     OW28225   5.816   3.897   2.719
 9109SOL    HW128226   5.727   3.857   2.740
 9109SOL    HW228227   5.870   3.830   2.667
 9110SOL     OW28228   1.686   6.355   3.222
 9110SOL    HW128229   1.728   6.400   3.143
 9110SOL    HW228230   1.598   6.315   3.194
 9111SOL     OW28231   3.688   2.285   6.000
 9111SOL    HW128232   3.713   2.379   5.976
 9111SOL    HW228233   3.631   2.246   5.928
 9112SOL     OW28234   0.670   5.063   2.115
 9112SOL    HW128235   0.579   5.095   2.087
 9112SOL    HW228236   0.661   4.986   2.177
 9113SOL     OW28237   5.590   0.660   3.940
 9113SOL    HW128238   5.658   0.733   3.950
 9113SOL    HW228239   5.499   0.696   3.957
 9114SOL     OW28240   0.869   6.819   5.649
 9114SOL    HW128241   0.958   6.859   5.627
 9114SOL    HW228242   0.814   6.813   5.566
 9115SOL     OW28243   4.964   4.268   5.115
 9115SOL    HW128244   4.980   4.347   5.056
 9115SOL    HW228245   5.052   4.234   5.151
 9116SOL     OW28246   1.717   0.083   3.987
 9116SOL    HW128247   1.750   0.148   4.055
 9116SOL    HW228248   1.774   0.090   3.904
 9117SOL     OW28249   2.113   6.885   0.305
 9117SOL    HW128250   2.042   6.816   0.289
 9117SOL    HW228251   2.142   6.881   0.401
 9118SOL     OW28252   6.715   4.018   1.908
 9118SOL    HW128253   6.749   4.027   2.001
 9118SOL    HW228254   6.714   4.107   1.863
 9119SOL     OW28255   2.997   1.224   0.718
 9119SOL    HW128256   3.005   1.273   0.631
 9119SOL    HW228257   3.070   1.253   0.780
 9120SOL     OW28258   6.178   3.922   4.445
 9120SOL    HW128259   6.273   3.918   4.416
 9120SOL    HW228260   6.162   3.859   4.521
 9121SOL     OW28261   4.031   1.082   4.267
 9121SOL    HW128262   3.997   1.110   4.356
 9121SOL    HW228263   3.977   1.005   4.233
 9122SOL     OW28264   0.400   2.704   1.534
 9122SOL    HW128265   0.421   2.765   1.458
 9122SOL    HW228266   0.442   2.739   1.618
 9123SOL     OW28267   0.758   5.770   4.063
 9123SOL    HW128268   0.675   5.806   4.020
 9123SOL    HW228269   0.738   5.681   4.104
 9124SOL     OW28270   3.720   5.601   0.826
 9124SOL    HW128271   3.773   5.673   0.871
 9124SOL    HW228272   3.702   5.627   0.731
 9125SOL     OW28273   5.291   6.252   1.799
 9125SOL    HW128274   5.302   6.233   1.896
 9125SOL    HW228275   5.233   6.181   1.757
 9126SOL     OW28276   4.223   4.603   0.946
 9126SOL    HW128277   4.132   4.586   0.910
 9126SOL    HW228278   4.286   4.620   0.870
 9127SOL     OW28279   6.459   4.443   5.451
 9127SOL    HW128280   6.466   4.393   5.364
 9127SOL    HW228281   6.551   4.456   5.489
 9128SOL     OW28282   5.628   3.833   5.975
 9128SOL    HW128283   5.671   3.800   6.059
 9128SOL    HW228284   5.532   3.856   5.993
 9129SOL     OW28285   0.694   2.897   0.557
 9129SOL    HW128286   0.661   2.832   0.488
 9129SOL    HW228287   0.736   2.976   0.511
 9130SOL     OW28288   3.092   3.685   5.247
 9130SOL    HW128289   2.994   3.675   5.232
 9130SOL    HW228290   3.121   3.777   5.222
 9131SOL     OW28291   5.393   2.628   0.983
 9131SOL    HW128292   5.340   2.552   1.020
 9131SOL    HW228293   5.469   2.593   0.929
 9132SOL     OW28294   0.938   3.870   4.008
 9132SOL    HW128295   0.925   3.776   3.974
 9132SOL    HW228296   0.852   3.904   4.045
 9133SOL     OW28297   5.753   6.952   1.243
 9133SOL    HW128298   5.731   6.971   1.147
 9133SOL    HW228299   5.832   7.006   1.270
 9134SOL     OW28300   5.164   4.664   0.064
 9134SOL    HW128301   5.115   4.599   0.121
 9134SOL    HW228302   5.155   4.756   0.103
 9135SOL     OW28303   6.650   5.519   2.519
 9135SOL    HW128304   6.600   5.546   2.601
 9135SOL    HW228305   6.615   5.431   2.486
 9136SOL     OW28306   0.636   5.091   0.586
 9136SOL    HW128307   0.645   5.181   0.544
 9136SOL    HW228308   0.541   5.076   0.614
 9137SOL     OW28309   5.750   5.880   5.298
 9137SOL    HW128310   5.824   5.825   5.259
 9137SOL    HW228311   5.679   5.894   5.229
 9138SOL     OW28312   2.073   4.116   5.793
 9138SOL    HW128313   2.037   4.167   5.872
 9138SOL    HW228314   2.162   4.079   5.816
 9139SOL     OW28315   0.342   0.244   1.947
 9139SOL    HW128316   0.291   0.328   1.968
 9139SOL    HW228317   0.424   0.241   2.003
 9140SOL     OW28318   1.851   4.141   2.464
 9140SOL    HW128319   1.865   4.098   2.375
 9140SOL    HW228320   1.931   4.197   2.487
 9141SOL     OW28321   0.323   5.772   4.574
 9141SOL    HW128322   0.282   5.681   4.565
 9141SOL    HW228323   0.397   5.782   4.507
 9142SOL     OW28324   1.035   4.020   3.481
 9142SOL    HW128325   1.056   4.117   3.499
 9142SOL    HW228326   1.068   3.964   3.556
 9143SOL     OW28327   6.240   3.837   3.250
 9143SOL    HW128328   6.183   3.919   3.248
 9143SOL    HW228329   6.330   3.861   3.287
 9144SOL     OW28330   3.049   4.188   5.220
 9144SOL    HW128331   3.031   4.198   5.123
 9144SOL    HW228332   3.140   4.222   5.242
 9145SOL     OW28333   1.461   6.548   5.603
 9145SOL    HW128334   1.413   6.509   5.525
 9145SOL    HW228335   1.553   6.509   5.608
 9146SOL     OW28336   6.176   2.193   3.763
 9146SOL    HW128337   6.196   2.129   3.689
 9146SOL    HW228338   6.155   2.283   3.724
 9147SOL     OW28339   3.921   0.771   5.852
 9147SOL    HW128340   3.956   0.689   5.898
 9147SOL    HW228341   3.984   0.799   5.780
 9148SOL     OW28342   4.718   5.817   1.679
 9148SOL    HW128343   4.701   5.746   1.611
 9148SOL    HW228344   4.714   5.777   1.771
 9149SOL     OW28345   0.815   3.553   1.502
 9149SOL    HW128346   0.903   3.505   1.500
 9149SOL    HW228347   0.816   3.627   1.434
 9150SOL     OW28348   2.971   3.773   6.872
 9150SOL    HW128349   2.897   3.840   6.868
 9150SOL    HW228350   3.044   3.801   6.809
 9151SOL     OW28351   2.281   2.997   3.781
 9151SOL    HW128352   2.375   3.001   3.747
 9151SOL    HW228353   2.269   3.064   3.854
 9152SOL     OW28354   1.876   4.486   2.468
 9152SOL    HW128355   1.804   4.449   2.526
 9152SOL    HW228356   1.905   4.575   2.504
 9153SOL     OW28357   0.109   3.338   0.281
 9153SOL    HW128358   0.024   3.320   0.329
 9153SOL    HW228359   0.168   3.257   0.287
 9154SOL     OW28360   4.841   4.830   3.393
 9154SOL    HW128361   4.919   4.876   3.434
 9154SOL    HW228362   4.771   4.813   3.462
 9155SOL     OW28363   1.103   6.343   2.988
 9155SOL    HW128364   1.085   6.406   2.913
 9155SOL    HW228365   1.105   6.393   3.075
 9156SOL     OW28366   0.098   4.131   5.728
 9156SOL    HW128367   0.043   4.192   5.785
 9156SOL    HW228368   0.111   4.044   5.776
 9157SOL     OW28369   1.980   4.612   5.324
 9157SOL    HW128370   1.935   4.530   5.289
 9157SOL    HW228371   2.062   4.632   5.271
 9158SOL     OW28372   6.959   3.410   4.704
 9158SOL    HW128373   6.984   3.458   4.620
 9158SOL    HW228374   0.000   3.434   4.776
 9159SOL     OW28375   2.559   1.216   3.913
 9159SOL    HW128376   2.646   1.194   3.870
 9159SOL    HW228377   2.548   1.163   3.997
 9160SOL     OW28378   1.072   2.687   6.635
 9160SOL    HW128379   1.006   2.639   6.577
 9160SOL    HW228380   1.032   2.702   6.726
 9161SOL     OW28381   6.174   2.820   3.229
 9161SOL    HW128382   6.088   2.826   3.281
 9161SOL    HW228383   6.201   2.724   3.221
 9162SOL     OW28384   3.905   2.175   1.820
 9162SOL    HW128385   3.948   2.265   1.820
 9162SOL    HW228386   3.807   2.184   1.832
 9163SOL     OW28387   1.737   2.754   4.032
 9163SOL    HW128388   1.697   2.720   4.117
 9163SOL    HW228389   1.811   2.819   4.053
 9164SOL     OW28390   2.453   6.246   6.581
 9164SOL    HW128391   2.383   6.182   6.549
 9164SOL    HW228392   2.507   6.278   6.504
 9165SOL     OW28393   5.828   1.272   6.400
 9165SOL    HW128394   5.824   1.319   6.488
 9165SOL    HW228395   5.754   1.306   6.342
 9166SOL     OW28396   4.438   6.206   1.775
 9166SOL    HW128397   4.538   6.204   1.783
 9166SOL    HW228398   4.398   6.244   1.859
 9167SOL     OW28399   1.519   1.684   4.667
 9167SOL    HW128400   1.505   1.586   4.681
 9167SOL    HW228401   1.607   1.711   4.706
 9168SOL     OW28402   6.114   5.938   5.244
 9168SOL    HW128403   6.073   5.987   5.321
 9168SOL    HW228404   6.207   5.971   5.229
 9169SOL     OW28405   6.553   5.886   0.234
 9169SOL    HW128406   6.527   5.982   0.241
 9169SOL    HW228407   6.472   5.829   0.228
 9170SOL     OW28408   2.377   0.767   5.870
 9170SOL    HW128409   2.426   0.692   5.915
 9170SOL    HW228410   2.306   0.802   5.932
 9171SOL     OW28411   3.436   5.762   7.005
 9171SOL    HW128412   3.344   5.725   6.990
 9171SOL    HW228413   3.464   5.815   6.925
 9172SOL     OW28414   4.275   1.525   5.547
 9172SOL    HW128415   4.330   1.447   5.518
 9172SOL    HW228416   4.178   1.504   5.538
 9173SOL     OW28417   5.944   3.858   5.389
 9173SOL    HW128418   5.974   3.949   5.359
 9173SOL    HW228419   6.023   3.798   5.396
 9174SOL     OW28420   6.210   4.715   0.929
 9174SOL    HW128421   6.292   4.753   0.972
 9174SOL    HW228422   6.170   4.645   0.989
 9175SOL     OW28423   2.018   0.787   1.099
 9175SOL    HW128424   2.079   0.736   1.160
 9175SOL    HW228425   2.072   0.832   1.028
 9176SOL     OW28426   1.765   0.923   2.187
 9176SOL    HW128427   1.750   0.987   2.112
 9176SOL    HW228428   1.737   0.831   2.158
 9177SOL     OW28429   1.112   6.034   3.542
 9177SOL    HW128430   1.182   6.105   3.555
 9177SOL    HW228431   1.021   6.074   3.560
 9178SOL     OW28432   1.259   4.015   1.205
 9178SOL    HW128433   1.285   4.098   1.254
 9178SOL    HW228434   1.203   4.039   1.125
 9179SOL     OW28435   4.210   4.976   3.660
 9179SOL    HW128436   4.161   4.969   3.747
 9179SOL    HW228437   4.203   4.889   3.611
 9180SOL     OW28438   0.527   0.493   5.394
 9180SOL    HW128439   0.603   0.433   5.374
 9180SOL    HW228440   0.460   0.445   5.451
 9181SOL     OW28441   2.857   1.771   3.670
 9181SOL    HW128442   2.799   1.794   3.749
 9181SOL    HW228443   2.953   1.777   3.697
 9182SOL     OW28444   0.261   1.872   2.782
 9182SOL    HW128445   0.260   1.868   2.682
 9182SOL    HW228446   0.353   1.857   2.816
 9183SOL     OW28447   1.898   1.437   5.989
 9183SOL    HW128448   1.878   1.377   5.912
 9183SOL    HW228449   1.920   1.529   5.955
 9184SOL     OW28450   2.746   4.508   1.127
 9184SOL    HW128451   2.666   4.558   1.162
 9184SOL    HW228452   2.814   4.574   1.095
 9185SOL     OW28453   1.398   0.193   6.150
 9185SOL    HW128454   1.353   0.149   6.228
 9185SOL    HW228455   1.346   0.173   6.067
 9186SOL     OW28456   5.630   6.283   6.633
 9186SOL    HW128457   5.667   6.242   6.717
 9186SOL    HW228458   5.631   6.382   6.642
 9187SOL     OW28459   4.860   2.658   0.989
 9187SOL    HW128460   4.862   2.680   1.087
 9187SOL    HW228461   4.837   2.741   0.938
 9188SOL     OW28462   1.285   0.099   1.842
 9188SOL    HW128463   1.204   0.040   1.848
 9188SOL    HW228464   1.257   0.191   1.818
 9189SOL     OW28465   3.247   0.476   5.630
 9189SOL    HW128466   3.255   0.445   5.725
 9189SOL    HW228467   3.330   0.449   5.580
 9190SOL     OW28468   4.318   1.074   5.673
 9190SOL    HW128469   4.336   1.004   5.604
 9190SOL    HW228470   4.398   1.082   5.733
 9191SOL     OW28471   5.348   6.586   1.891
 9191SOL    HW128472   5.260   6.592   1.937
 9191SOL    HW228473   5.407   6.660   1.923
 9192SOL     OW28474   4.716   4.259   4.696
 9192SOL    HW128475   4.665   4.212   4.769
 9192SOL    HW228476   4.795   4.204   4.670
 9193SOL     OW28477   3.813   4.058   3.249
 9193SOL    HW128478   3.901   4.024   3.216
 9193SOL    HW228479   3.797   4.024   3.342
 9194SOL     OW28480   4.017   4.802   3.167
 9194SOL    HW128481   4.068   4.781   3.084
 9194SOL    HW228482   3.919   4.806   3.146
 9195SOL     OW28483   0.693   2.421   3.093
 9195SOL    HW128484   0.726   2.503   3.141
 9195SOL    HW228485   0.623   2.376   3.149
 9196SOL     OW28486   5.048   5.744   3.614
 9196SOL    HW128487   4.973   5.690   3.576
 9196SOL    HW228488   5.027   5.766   3.710
 9197SOL     OW28489   4.458   1.698   6.933
 9197SOL    HW128490   4.414   1.608   6.929
 9197SOL    HW228491   4.541   1.697   6.876
 9198SOL     OW28492   5.789   2.594   5.266
 9198SOL    HW128493   5.821   2.673   5.318
 9198SOL    HW228494   5.690   2.588   5.273
 9199SOL     OW28495   0.989   3.640   6.594
 9199SOL    HW128496   1.073   3.634   6.647
 9199SOL    HW228497   0.974   3.734   6.565
 9200SOL     OW28498   5.289   5.992   1.267
 9200SOL    HW128499   5.324   5.900   1.284
 9200SOL    HW228500   5.238   6.024   1.346
 9201SOL     OW28501   0.161   3.318   1.715
 9201SOL    HW128502   0.170   3.296   1.812
 9201SOL    HW228503   0.226   3.264   1.662
 9202SOL     OW28504   2.667   6.165   4.288
 9202SOL    HW128505   2.754   6.189   4.246
 9202SOL    HW228506   2.628   6.086   4.241
 9203SOL     OW28507   4.824   0.845   0.132
 9203SOL    HW128508   4.751   0.789   0.172
 9203SOL    HW228509   4.825   0.832   0.033
 9204SOL     OW28510   4.905   4.774   2.607
 9204SOL    HW128511   4.854   4.727   2.679
 9204SOL    HW228512   5.001   4.784   2.635
 9205SOL     OW28513   4.069   2.447   1.513
 9205SOL    HW128514   3.974   2.467   1.489
 9205SOL    HW228515   4.100   2.366   1.463
 9206SOL     OW28516   6.142   6.487   4.775
 9206SOL    HW128517   6.145   6.411   4.840
 9206SOL    HW228518   6.083   6.560   4.811
 9207SOL     OW28519   4.259   6.705   0.341
 9207SOL    HW128520   4.197   6.770   0.297
 9207SOL    HW228521   4.282   6.738   0.433
 9208SOL     OW28522   4.620   4.476   1.266
 9208SOL    HW128523   4.543   4.414   1.280
 9208SOL    HW228524   4.588   4.570   1.264
 9209SOL     OW28525   4.409   0.110   3.767
 9209SOL    HW128526   4.419   0.122   3.866
 9209SOL    HW228527   4.314   0.129   3.741
 9210SOL     OW28528   0.736   6.794   6.996
 9210SOL    HW128529   0.741   6.706   6.950
 9210SOL    HW228530   0.675   6.788   0.050
 9211SOL     OW28531   4.716   1.107   6.513
 9211SOL    HW128532   4.711   1.158   6.599
 9211SOL    HW228533   4.747   1.167   6.440
 9212SOL     OW28534   6.188   3.514   5.674
 9212SOL    HW128535   6.250   3.487   5.746
 9212SOL    HW228536   6.223   3.483   5.586
 9213SOL     OW28537   6.488   6.035   1.712
 9213SOL    HW128538   6.389   6.022   1.723
 9213SOL    HW228539   6.507   6.133   1.706
 9214SOL     OW28540   1.813   1.461   6.397
 9214SOL    HW128541   1.824   1.549   6.350
 9214SOL    HW228542   1.786   1.478   6.492
 9215SOL     OW28543   0.169   3.840   3.577
 9215SOL    HW128544   0.205   3.747   3.577
 9215SOL    HW228545   0.227   3.899   3.634
 9216SOL     OW28546   2.555   6.518   3.610
 9216SOL    HW128547   2.457   6.506   3.627
 9216SOL    HW228548   2.571   6.607   3.567
 9217SOL     OW28549   4.051   2.153   0.247
 9217SOL    HW128550   3.973   2.107   0.204
 9217SOL    HW228551   4.027   2.249   0.265
 9218SOL     OW28552   5.002   6.115   6.028
 9218SOL    HW128553   4.973   6.034   6.078
 9218SOL    HW228554   4.926   6.180   6.022
 9219SOL     OW28555   3.266   2.199   5.766
 9219SOL    HW128556   3.219   2.278   5.728
 9219SOL    HW228557   3.232   2.115   5.724
 9220SOL     OW28558   0.524   6.386   3.236
 9220SOL    HW128559   0.539   6.480   3.205
 9220SOL    HW228560   0.600   6.358   3.295
 9221SOL     OW28561   2.808   1.762   1.575
 9221SOL    HW128562   2.835   1.848   1.531
 9221SOL    HW228563   2.819   1.687   1.510
 9222SOL     OW28564   1.562   5.241   3.586
 9222SOL    HW128565   1.618   5.257   3.667
 9222SOL    HW228566   1.484   5.303   3.586
 9223SOL     OW28567   0.075   3.167   5.019
 9223SOL    HW128568   0.014   3.129   4.950
 9223SOL    HW228569   0.170   3.149   4.992
 9224SOL     OW28570   1.858   4.381   2.221
 9224SOL    HW128571   1.780   4.413   2.168
 9224SOL    HW228572   1.849   4.412   2.316
 9225SOL     OW28573   0.592   5.574   6.229
 9225SOL    HW128574   0.512   5.564   6.170
 9225SOL    HW228575   0.589   5.662   6.275
 9226SOL     OW28576   0.773   0.669   4.826
 9226SOL    HW128577   0.800   0.745   4.767
 9226SOL    HW228578   0.821   0.586   4.798
 9227SOL     OW28579   3.443   4.023   0.889
 9227SOL    HW128580   3.489   4.033   0.977
 9227SOL    HW228581   3.420   3.927   0.874
 9228SOL     OW28582   3.873   3.438   5.098
 9228SOL    HW128583   3.796   3.394   5.145
 9228SOL    HW228584   3.948   3.450   5.163
 9229SOL     OW28585   0.141   5.392   0.236
 9229SOL    HW128586   0.157   5.386   0.137
 9229SOL    HW228587   0.138   5.489   0.263
 9230SOL     OW28588   4.448   0.212   5.610
 9230SOL    HW128589   4.520   0.199   5.541
 9230SOL    HW228590   4.437   0.127   5.662
 9231SOL     OW28591   6.184   6.118   1.633
 9231SOL    HW128592   6.102   6.062   1.643
 9231SOL    HW228593   6.225   6.101   1.544
 9232SOL     OW28594   1.373   6.010   2.309
 9232SOL    HW128595   1.337   6.072   2.378
 9232SOL    HW228596   1.325   5.923   2.313
 9233SOL     OW28597   0.983   0.308   5.710
 9233SOL    HW128598   0.883   0.313   5.708
 9233SOL    HW228599   1.015   0.318   5.805
 9234SOL     OW28600   3.442   4.250   6.126
 9234SOL    HW128601   3.463   4.329   6.068
 9234SOL    HW228602   3.354   4.212   6.100
 9235SOL     OW28603   2.313   2.430   3.025
 9235SOL    HW128604   2.224   2.425   3.071
 9235SOL    HW228605   2.353   2.339   3.019
 9236SOL     OW28606   0.949   3.518   5.983
 9236SOL    HW128607   0.890   3.582   6.032
 9236SOL    HW228608   1.030   3.499   6.037
 9237SOL     OW28609   6.531   4.910   3.261
 9237SOL    HW128610   6.494   5.003   3.264
 9237SOL    HW228611   6.621   4.911   3.216
 9238SOL     OW28612   1.558   2.642   4.629
 9238SOL    HW128613   1.599   2.732   4.644
 9238SOL    HW228614   1.609   2.573   4.680
 9239SOL     OW28615   1.466   6.102   6.281
 9239SOL    HW128616   1.514   6.131   6.364
 9239SOL    HW228617   1.529   6.050   6.224
 9240SOL     OW28618   3.607   1.820   4.065
 9240SOL    HW128619   3.528   1.783   4.113
 9240SOL    HW228620   3.614   1.918   4.083
 9241SOL     OW28621   6.024   6.336   0.050
 9241SOL    HW128622   5.977   6.263   0.002
 9241SOL    HW228623   5.999   6.424   0.011
 9242SOL     OW28624   1.777   2.813   0.858
 9242SOL    HW128625   1.836   2.892   0.875
 9242SOL    HW228626   1.834   2.735   0.832
 9243SOL     OW28627   2.117   0.168   0.672
 9243SOL    HW128628   2.037   0.194   0.618
 9243SOL    HW228629   2.193   0.231   0.652
 9244SOL     OW28630   2.424   5.991   6.945
 9244SOL    HW128631   2.338   6.042   6.940
 9244SOL    HW228632   2.469   5.994   6.856
 9245SOL     OW28633   0.845   4.985   2.903
 9245SOL    HW128634   0.765   5.015   2.851
 9245SOL    HW228635   0.855   5.043   2.984
 9246SOL     OW28636   4.830   6.222   6.978
 9246SOL    HW128637   4.783   6.310   6.976
 9246SOL    HW228638   4.855   6.195   6.885
 9247SOL     OW28639   3.474   6.404   2.932
 9247SOL    HW128640   3.426   6.420   2.846
 9247SOL    HW228641   3.504   6.491   2.970
 9248SOL     OW28642   2.883   0.134   6.511
 9248SOL    HW128643   2.924   0.158   6.599
 9248SOL    HW228644   2.829   0.051   6.521
 9249SOL     OW28645   3.064   6.988   0.422
 9249SOL    HW128646   2.995   0.034   0.439
 9249SOL    HW228647   3.150   0.008   0.396
 9250SOL     OW28648   0.265   3.770   3.100
 9250SOL    HW128649   0.308   3.832   3.033
 9250SOL    HW228650   0.317   3.684   3.103
 9251SOL     OW28651   3.284   1.643   0.942
 9251SOL    HW128652   3.273   1.667   1.039
 9251SOL    HW228653   3.377   1.610   0.927
 9252SOL     OW28654   5.343   1.493   4.505
 9252SOL    HW128655   5.397   1.573   4.530
 9252SOL    HW228656   5.361   1.419   4.570
 9253SOL     OW28657   2.370   5.218   4.099
 9253SOL    HW128658   2.430   5.234   4.178
 9253SOL    HW228659   2.370   5.299   4.041
 9254SOL     OW28660   0.009   5.618   2.173
 9254SOL    HW128661   7.022   5.701   2.118
 9254SOL    HW228662   0.105   5.590   2.174
 9255SOL     OW28663   5.923   3.459   0.849
 9255SOL    HW128664   5.996   3.496   0.791
 9255SOL    HW228665   5.956   3.380   0.900
 9256SOL     OW28666   2.405   6.505   1.057
 9256SOL    HW128667   2.331   6.474   0.997
 9256SOL    HW228668   2.366   6.533   1.145
 9257SOL     OW28669   6.299   6.253   4.853
 9257SOL    HW128670   6.323   6.158   4.832
 9257SOL    HW228671   6.333   6.277   4.943
 9258SOL     OW28672   5.075   4.910   2.107
 9258SOL    HW128673   5.084   4.962   2.022
 9258SOL    HW228674   5.128   4.954   2.179
 9259SOL     OW28675   0.780   2.341   7.006
 9259SOL    HW128676   0.762   2.246   0.011
 9259SOL    HW228677   0.747   2.403   0.053
 9260SOL     OW28678   4.812   4.055   4.921
 9260SOL    HW128679   4.838   3.986   4.854
 9260SOL    HW228680   4.888   4.118   4.936
 9261SOL     OW28681   1.504   3.317   1.982
 9261SOL    HW128682   1.486   3.252   1.908
 9261SOL    HW228683   1.564   3.390   1.949
 9262SOL     OW28684   6.992   6.433   5.776
 9262SOL    HW128685   0.002   6.479   5.858
 9262SOL    HW228686   7.020   6.337   5.779
 9263SOL     OW28687   2.593   4.567   2.959
 9263SOL    HW128688   2.531   4.518   2.898
 9263SOL    HW228689   2.687   4.556   2.927
 9264SOL     OW28690   5.191   3.761   5.424
 9264SOL    HW128691   5.122   3.723   5.486
 9264SOL    HW228692   5.267   3.797   5.478
 9265SOL     OW28693   4.881   0.679   1.752
 9265SOL    HW128694   4.864   0.584   1.724
 9265SOL    HW228695   4.795   0.731   1.749
 9266SOL     OW28696   1.507   4.926   0.879
 9266SOL    HW128697   1.461   4.936   0.967
 9266SOL    HW228698   1.534   4.831   0.866
 9267SOL     OW28699   6.859   1.618   3.994
 9267SOL    HW128700   6.907   1.546   4.043
 9267SOL    HW228701   6.811   1.677   4.060
 9268SOL     OW28702   0.721   0.867   1.712
 9268SOL    HW128703   0.629   0.830   1.694
 9268SOL    HW228704   0.726   0.961   1.675
 9269SOL     OW28705   4.309   0.556   0.952
 9269SOL    HW128706   4.288   0.599   0.865
 9269SOL    HW228707   4.374   0.481   0.937
 9270SOL     OW28708   2.708   1.129   5.128
 9270SOL    HW128709   2.650   1.139   5.209
 9270SOL    HW228710   2.790   1.185   5.139
 9271SOL     OW28711   1.320   4.618   5.765
 9271SOL    HW128712   1.382   4.581   5.697
 9271SOL    HW228713   1.264   4.690   5.724
 9272SOL     OW28714   6.362   6.259   5.451
 9272SOL    HW128715   6.454   6.288   5.477
 9272SOL    HW228716   6.324   6.200   5.523
 9273SOL     OW28717   5.499   3.743   4.159
 9273SOL    HW128718   5.423   3.681   4.178
 9273SOL    HW228719   5.494   3.774   4.064
 9274SOL     OW28720   0.283   3.505   0.078
 9274SOL    HW128721   0.232   3.492   7.017
 9274SOL    HW228722   0.226   3.554   0.144
 9275SOL     OW28723   5.728   1.172   0.691
 9275SOL    HW128724   5.707   1.240   0.762
 9275SOL    HW228725   5.661   1.098   0.694
 9276SOL     OW28726   2.414   3.987   7.022
 9276SOL    HW128727   2.339   3.935   0.040
 9276SOL    HW228728   2.414   4.081   0.032
 9277SOL     OW28729   4.437   5.846   2.316
 9277SOL    HW128730   4.401   5.917   2.376
 9277SOL    HW228731   4.385   5.845   2.231
 9278SOL     OW28732   0.656   6.870   5.834
 9278SOL    HW128733   0.604   6.941   5.882
 9278SOL    HW228734   0.744   6.908   5.804
 9279SOL     OW28735   2.620   5.952   1.983
 9279SOL    HW128736   2.562   6.013   1.928
 9279SOL    HW228737   2.693   5.914   1.926
 9280SOL     OW28738   1.255   5.756   2.362
 9280SOL    HW128739   1.248   5.766   2.262
 9280SOL    HW228740   1.326   5.690   2.384
 9281SOL     OW28741   1.491   5.774   0.780
 9281SOL    HW128742   1.400   5.804   0.753
 9281SOL    HW228743   1.506   5.680   0.749
 9282SOL     OW28744   2.520   0.014   4.883
 9282SOL    HW128745   2.551   7.021   4.789
 9282SOL    HW228746   2.465   0.098   4.885
 9283SOL     OW28747   4.657   5.814   0.073
 9283SOL    HW128748   4.614   5.903   0.059
 9283SOL    HW228749   4.681   5.804   0.170
 9284SOL     OW28750   3.998   6.456   0.565
 9284SOL    HW128751   4.089   6.498   0.567
 9284SOL    HW228752   3.955   6.463   0.655
 9285SOL     OW28753   0.048   6.088   3.641
 9285SOL    HW128754   0.129   6.141   3.616
 9285SOL    HW228755   0.057   6.056   3.735
 9286SOL     OW28756   4.927   6.726   1.780
 9286SOL    HW128757   4.943   6.798   1.848
 9286SOL    HW228758   4.829   6.716   1.765
 9287SOL     OW28759   4.682   4.160   6.642
 9287SOL    HW128760   4.646   4.115   6.560
 9287SOL    HW228761   4.614   4.157   6.715
 9288SOL     OW28762   3.770   1.724   2.293
 9288SOL    HW128763   3.675   1.747   2.314
 9288SOL    HW228764   3.822   1.719   2.379
 9289SOL     OW28765   4.495   6.448   1.512
 9289SOL    HW128766   4.489   6.362   1.563
 9289SOL    HW228767   4.590   6.475   1.501
 9290SOL     OW28768   5.697   1.051   3.474
 9290SOL    HW128769   5.770   1.071   3.539
 9290SOL    HW228770   5.688   1.127   3.409
 9291SOL     OW28771   0.594   4.265   5.812
 9291SOL    HW128772   0.509   4.313   5.834
 9291SOL    HW228773   0.586   4.224   5.721
 9292SOL     OW28774   0.626   1.842   6.641
 9292SOL    HW128775   0.539   1.799   6.667
 9292SOL    HW228776   0.608   1.930   6.597
 9293SOL     OW28777   4.562   1.849   5.489
 9293SOL    HW128778   4.545   1.947   5.480
 9293SOL    HW228779   4.494   1.810   5.552
 9294SOL     OW28780   4.759   6.486   7.001
 9294SOL    HW128781   4.780   6.525   0.067
 9294SOL    HW228782   4.724   6.558   6.941
 9295SOL     OW28783   6.449   0.493   3.549
 9295SOL    HW128784   6.482   0.582   3.518
 9295SOL    HW228785   6.526   0.430   3.558
 9296SOL     OW28786   2.057   4.314   5.588
 9296SOL    HW128787   2.112   4.297   5.506
 9296SOL    HW228788   2.053   4.231   5.644
 9297SOL     OW28789   0.052   4.858   1.979
 9297SOL    HW128790   0.089   4.767   1.995
 9297SOL    HW228791   6.987   4.851   1.932
 9298SOL     OW28792   0.106   4.222   6.555
 9298SOL    HW128793   0.167   4.299   6.575
 9298SOL    HW228794   0.140   4.140   6.602
 9299SOL     OW28795   3.100   1.536   4.259
 9299SOL    HW128796   3.090   1.481   4.176
 9299SOL    HW228797   3.106   1.633   4.236
 9300SOL     OW28798   2.706   5.880   5.380
 9300SOL    HW128799   2.724   5.936   5.461
 9300SOL    HW228800   2.790   5.871   5.327
 9301SOL     OW28801   0.728   4.026   4.075
 9301SOL    HW128802   0.709   4.058   4.168
 9301SOL    HW228803   0.773   4.099   4.023
 9302SOL     OW28804   2.992   5.446   3.990
 9302SOL    HW128805   2.984   5.359   4.039
 9302SOL    HW228806   2.914   5.505   4.014
 9303SOL     OW28807   2.695   4.709   0.054
 9303SOL    HW128808   2.599   4.700   0.029
 9303SOL    HW228809   2.728   4.799   0.025
 9304SOL     OW28810   5.301   5.817   6.485
 9304SOL    HW128811   5.368   5.863   6.428
 9304SOL    HW228812   5.343   5.737   6.528
 9305SOL     OW28813   1.551   1.804   1.065
 9305SOL    HW128814   1.482   1.782   1.134
 9305SOL    HW228815   1.511   1.798   0.974
 9306SOL     OW28816   6.748   5.938   4.558
 9306SOL    HW128817   6.745   6.015   4.496
 9306SOL    HW228818   6.658   5.894   4.562
 9307SOL     OW28819   2.416   3.535   1.402
 9307SOL    HW128820   2.351   3.459   1.412
 9307SOL    HW228821   2.448   3.564   1.492
 9308SOL     OW28822   2.459   3.595   1.667
 9308SOL    HW128823   2.405   3.542   1.733
 9308SOL    HW228824   2.554   3.563   1.669
 9309SOL     OW28825   4.674   5.118   6.394
 9309SOL    HW128826   4.742   5.085   6.329
 9309SOL    HW228827   4.678   5.218   6.398
 9310SOL     OW28828   6.139   6.460   5.392
 9310SOL    HW128829   6.214   6.402   5.424
 9310SOL    HW228830   6.063   6.457   5.457
 9311SOL     OW28831   5.631   4.051   0.565
 9311SOL    HW128832   5.622   4.023   0.661
 9311SOL    HW228833   5.576   3.990   0.508
 9312SOL     OW28834   6.397   2.760   3.962
 9312SOL    HW128835   6.457   2.799   4.032
 9312SOL    HW228836   6.375   2.665   3.986
 9313SOL     OW28837   0.250   0.731   2.666
 9313SOL    HW128838   0.200   0.787   2.733
 9313SOL    HW228839   0.343   0.715   2.699
 9314SOL     OW28840   5.196   5.440   1.424
 9314SOL    HW128841   5.227   5.520   1.475
 9314SOL    HW228842   5.117   5.464   1.368
 9315SOL     OW28843   5.796   5.478   5.629
 9315SOL    HW128844   5.770   5.571   5.604
 9315SOL    HW228845   5.845   5.436   5.552
 9316SOL     OW28846   5.129   6.829   1.013
 9316SOL    HW128847   5.210   6.773   0.995
 9316SOL    HW228848   5.119   6.897   0.941
 9317SOL     OW28849   2.162   5.725   3.926
 9317SOL    HW128850   2.252   5.736   3.967
 9317SOL    HW228851   2.129   5.814   3.894
 9318SOL     OW28852   3.398   6.620   2.709
 9318SOL    HW128853   3.407   6.720   2.707
 9318SOL    HW228854   3.341   6.590   2.633
 9319SOL     OW28855   4.308   2.100   0.285
 9319SOL    HW128856   4.214   2.128   0.265
 9319SOL    HW228857   4.367   2.122   0.207
 9320SOL     OW28858   6.653   6.769   6.853
 9320SOL    HW128859   6.633   6.734   6.762
 9320SOL    HW228860   6.668   6.868   6.849
 9321SOL     OW28861   0.986   2.845   3.790
 9321SOL    HW128862   0.977   2.935   3.834
 9321SOL    HW228863   0.984   2.855   3.691
 9322SOL     OW28864   4.965   2.140   0.113
 9322SOL    HW128865   4.881   2.193   0.103
 9322SOL    HW228866   5.042   2.203   0.130
 9323SOL     OW28867   0.295   2.530   5.851
 9323SOL    HW128868   0.346   2.506   5.769
 9323SOL    HW228869   0.260   2.623   5.843
 9324SOL     OW28870   0.440   5.235   1.262
 9324SOL    HW128871   0.471   5.159   1.205
 9324SOL    HW228872   0.361   5.279   1.219
 9325SOL     OW28873   0.821   4.640   3.352
 9325SOL    HW128874   0.732   4.617   3.392
 9325SOL    HW228875   0.809   4.714   3.286
 9326SOL     OW28876   4.777   4.666   0.634
 9326SOL    HW128877   4.805   4.710   0.549
 9326SOL    HW228878   4.857   4.652   0.692
 9327SOL     OW28879   2.850   1.598   3.412
 9327SOL    HW128880   2.844   1.666   3.486
 9327SOL    HW228881   2.875   1.509   3.450
 9328SOL     OW28882   2.142   0.811   3.408
 9328SOL    HW128883   2.106   0.837   3.497
 9328SOL    HW228884   2.121   0.715   3.389
 9329SOL     OW28885   1.340   5.498   6.214
 9329SOL    HW128886   1.340   5.398   6.215
 9329SOL    HW228887   1.259   5.532   6.262
 9330SOL     OW28888   0.849   6.836   0.387
 9330SOL    HW128889   0.829   6.873   0.478
 9330SOL    HW228890   0.929   6.882   0.350
 9331SOL     OW28891   1.948   4.766   4.283
 9331SOL    HW128892   2.026   4.736   4.228
 9331SOL    HW228893   1.935   4.864   4.270
 9332SOL     OW28894   6.511   5.208   0.152
 9332SOL    HW128895   6.492   5.118   0.113
 9332SOL    HW228896   6.553   5.197   0.242
 9333SOL     OW28897   2.462   4.949   1.331
 9333SOL    HW128898   2.559   4.935   1.310
 9333SOL    HW228899   2.454   4.980   1.426
 9334SOL     OW28900   6.780   5.620   6.412
 9334SOL    HW128901   6.792   5.522   6.427
 9334SOL    HW228902   6.753   5.664   6.497
 9335SOL     OW28903   0.331   3.634   1.016
 9335SOL    HW128904   0.413   3.584   1.044
 9335SOL    HW228905   0.322   3.716   1.073
 9336SOL     OW28906   4.919   6.450   5.410
 9336SOL    HW128907   4.860   6.374   5.383
 9336SOL    HW228908   4.910   6.524   5.344
 9337SOL     OW28909   2.615   1.496   5.485
 9337SOL    HW128910   2.627   1.581   5.537
 9337SOL    HW228911   2.626   1.515   5.388
 9338SOL     OW28912   5.147   6.572   0.717
 9338SOL    HW128913   5.218   6.584   0.786
 9338SOL    HW228914   5.062   6.612   0.750
 9339SOL     OW28915   6.690   3.719   5.359
 9339SOL    HW128916   6.651   3.692   5.447
 9339SOL    HW228917   6.617   3.751   5.299
 9340SOL     OW28918   2.411   4.908   2.536
 9340SOL    HW128919   2.473   4.841   2.496
 9340SOL    HW228920   2.451   4.999   2.528
 9341SOL     OW28921   5.903   5.112   0.081
 9341SOL    HW128922   5.932   5.055   0.158
 9341SOL    HW228923   5.881   5.204   0.114
 9342SOL     OW28924   3.152   0.181   5.124
 9342SOL    HW128925   3.074   0.156   5.181
 9342SOL    HW228926   3.125   0.181   5.028
 9343SOL     OW28927   4.829   3.995   1.248
 9343SOL    HW128928   4.810   4.016   1.344
 9343SOL    HW228929   4.820   4.078   1.193
 9344SOL     OW28930   5.813   0.219   4.731
 9344SOL    HW128931   5.835   0.175   4.644
 9344SOL    HW228932   5.882   0.289   4.751
 9345SOL     OW28933   0.201   4.733   6.793
 9345SOL    HW128934   0.293   4.749   6.757
 9345SOL    HW228935   0.208   4.708   6.890
 9346SOL     OW28936   5.080   0.523   2.193
 9346SOL    HW128937   5.122   0.554   2.278
 9346SOL    HW228938   4.993   0.570   2.180
 9347SOL     OW28939   4.822   6.020   1.829
 9347SOL    HW128940   4.909   6.067   1.815
 9347SOL    HW228941   4.805   5.958   1.753
 9348SOL     OW28942   2.561   5.216   2.086
 9348SOL    HW128943   2.491   5.277   2.122
 9348SOL    HW228944   2.534   5.121   2.101
 9349SOL     OW28945   6.442   6.430   0.824
 9349SOL    HW128946   6.415   6.424   0.920
 9349SOL    HW228947   6.383   6.371   0.769
 9350SOL     OW28948   6.274   0.289   0.201
 9350SOL    HW128949   6.268   0.293   0.301
 9350SOL    HW228950   6.370   0.285   0.174
 9351SOL     OW28951   4.364   3.456   6.207
 9351SOL    HW128952   4.448   3.448   6.261
 9351SOL    HW228953   4.305   3.526   6.247
 9352SOL     OW28954   2.800   2.486   6.520
 9352SOL    HW128955   2.707   2.504   6.489
 9352SOL    HW228956   2.823   2.549   6.595
 9353SOL     OW28957   1.142   3.019   1.451
 9353SOL    HW128958   1.218   3.078   1.423
 9353SOL    HW228959   1.087   2.995   1.371
 9354SOL     OW28960   5.473   2.072   1.932
 9354SOL    HW128961   5.412   2.105   2.004
 9354SOL    HW228962   5.550   2.023   1.973
 9355SOL     OW28963   0.003   1.644   1.965
 9355SOL    HW128964   7.010   1.547   1.946
 9355SOL    HW228965   0.087   1.673   1.918
 9356SOL     OW28966   5.703   3.143   2.626
 9356SOL    HW128967   5.756   3.103   2.701
 9356SOL    HW228968   5.661   3.228   2.657
 9357SOL     OW28969   2.492   4.555   0.490
 9357SOL    HW128970   2.479   4.637   0.545
 9357SOL    HW228971   2.511   4.477   0.550
 9358SOL     OW28972   5.130   3.676   2.558
 9358SOL    HW128973   5.102   3.695   2.464
 9358SOL    HW228974   5.192   3.748   2.589
 9359SOL     OW28975   5.098   5.418   5.937
 9359SOL    HW128976   5.096   5.322   5.909
 9359SOL    HW228977   5.131   5.425   6.031
 9360SOL     OW28978   0.980   1.071   4.864
 9360SOL    HW128979   0.964   1.024   4.951
 9360SOL    HW228980   1.070   1.113   4.864
 9361SOL     OW28981   2.254   1.153   2.215
 9361SOL    HW128982   2.181   1.221   2.222
 9361SOL    HW228983   2.343   1.201   2.214
 9362SOL     OW28984   2.149   2.000   3.235
 9362SOL    HW128985   2.084   2.068   3.204
 9362SOL    HW228986   2.242   2.038   3.233
 9363SOL     OW28987   1.634   6.397   2.098
 9363SOL    HW128988   1.682   6.468   2.046
 9363SOL    HW228989   1.697   6.321   2.116
 9364SOL     OW28990   5.604   4.542   1.100
 9364SOL    HW128991   5.525   4.491   1.134
 9364SOL    HW228992   5.602   4.635   1.137
 9365SOL     OW28993   2.452   0.967   4.267
 9365SOL    HW128994   2.363   1.010   4.282
 9365SOL    HW228995   2.452   0.876   4.309
 9366SOL     OW28996   3.075   0.920   1.961
 9366SOL    HW128997   3.064   0.949   1.866
 9366SOL    HW228998   2.985   0.897   2.000
 9367SOL     OW28999   6.378   6.347   4.346
 9367SOL    HW129000   6.408   6.292   4.424
 9367SOL    HW229001   6.450   6.348   4.277
 9368SOL     OW29002   4.455   2.928   0.634
 9368SOL    HW129003   4.381   2.897   0.693
 9368SOL    HW229004   4.493   3.013   0.670
 9369SOL     OW29005   0.107   2.367   5.585
 9369SOL    HW129006   0.048   2.398   5.660
 9369SOL    HW229007   0.199   2.404   5.599
 9370SOL     OW29008   6.206   5.775   3.036
 9370SOL    HW129009   6.178   5.693   2.986
 9370SOL    HW229010   6.298   5.761   3.073
 9371SOL     OW29011   1.074   6.674   0.196
 9371SOL    HW129012   1.026   6.643   0.279
 9371SOL    HW229013   1.110   6.596   0.146
 9372SOL     OW29014   5.579   6.275   0.293
 9372SOL    HW129015   5.649   6.218   0.336
 9372SOL    HW229016   5.610   6.370   0.290
 9373SOL     OW29017   5.348   2.610   4.547
 9373SOL    HW129018   5.440   2.576   4.527
 9373SOL    HW229019   5.280   2.551   4.503
 9374SOL     OW29020   4.778   4.233   0.557
 9374SOL    HW129021   4.794   4.185   0.471
 9374SOL    HW229022   4.866   4.252   0.602
 9375SOL     OW29023   6.965   1.370   4.047
 9375SOL    HW129024   6.964   1.274   4.077
 9375SOL    HW229025   0.035   1.395   4.021
 9376SOL     OW29026   1.850   2.899   1.388
 9376SOL    HW129027   1.776   2.966   1.399
 9376SOL    HW229028   1.900   2.890   1.474
 9377SOL     OW29029   6.475   5.090   2.558
 9377SOL    HW129030   6.444   5.145   2.636
 9377SOL    HW229031   6.395   5.062   2.504
 9378SOL     OW29032   3.360   5.780   1.378
 9378SOL    HW129033   3.444   5.754   1.329
 9378SOL    HW229034   3.335   5.874   1.353
 9379SOL     OW29035   6.166   4.638   5.086
 9379SOL    HW129036   6.176   4.669   4.991
 9379SOL    HW229037   6.201   4.544   5.093
 9380SOL     OW29038   5.779   5.777   6.134
 9380SOL    HW129039   5.761   5.776   6.232
 9380SOL    HW229040   5.853   5.713   6.113
 9381SOL     OW29041   1.491   1.087   0.582
 9381SOL    HW129042   1.430   1.135   0.519
 9381SOL    HW229043   1.484   0.988   0.567
 9382SOL     OW29044   5.190   2.134   2.047
 9382SOL    HW129045   5.149   2.062   1.991
 9382SOL    HW229046   5.180   2.111   2.143
 9383SOL     OW29047   6.284   5.073   5.633
 9383SOL    HW129048   6.266   5.167   5.602
 9383SOL    HW229049   6.319   5.019   5.557
 9384SOL     OW29050   3.711   6.271   2.962
 9384SOL    HW129051   3.628   6.313   2.924
 9384SOL    HW229052   3.770   6.240   2.887
 9385SOL     OW29053   3.913   0.849   4.257
 9385SOL    HW129054   3.991   0.800   4.294
 9385SOL    HW229055   3.833   0.789   4.255
 9386SOL     OW29056   4.257   0.366   5.501
 9386SOL    HW129057   4.281   0.444   5.444
 9386SOL    HW229058   4.340   0.328   5.542
 9387SOL     OW29059   3.863   6.172   0.988
 9387SOL    HW129060   3.952   6.192   0.946
 9387SOL    HW229061   3.876   6.147   1.084
 9388SOL     OW29062   6.290   6.837   2.187
 9388SOL    HW129063   6.328   6.754   2.147
 9388SOL    HW229064   6.269   6.903   2.114
 9389SOL     OW29065   3.489   1.588   0.020
 9389SOL    HW129066   3.485   1.491   7.022
 9389SOL    HW229067   3.493   1.600   0.119
 9390SOL     OW29068   2.716   5.911   1.314
 9390SOL    HW129069   2.757   5.854   1.385
 9390SOL    HW229070   2.787   5.938   1.249
 9391SOL     OW29071   0.139   0.902   5.577
 9391SOL    HW129072   0.173   0.827   5.635
 9391SOL    HW229073   0.172   0.889   5.484
 9392SOL     OW29074   1.225   6.735   4.515
 9392SOL    HW129075   1.299   6.707   4.575
 9392SOL    HW229076   1.258   6.802   4.449
 9393SOL     OW29077   3.867   1.823   5.242
 9393SOL    HW129078   3.797   1.894   5.230
 9393SOL    HW229079   3.831   1.735   5.211
 9394SOL     OW29080   5.406   2.589   1.576
 9394SOL    HW129081   5.456   2.535   1.644
 9394SOL    HW229082   5.309   2.568   1.582
 9395SOL     OW29083   1.901   3.089   6.300
 9395SOL    HW129084   1.825   3.024   6.292
 9395SOL    HW229085   1.880   3.172   6.249
 9396SOL     OW29086   6.485   0.719   6.853
 9396SOL    HW129087   6.435   0.744   6.770
 9396SOL    HW229088   6.421   0.695   6.925
 9397SOL     OW29089   2.708   1.448   1.385
 9397SOL    HW129090   2.666   1.434   1.475
 9397SOL    HW229091   2.645   1.498   1.326
 9398SOL     OW29092   2.173   1.635   0.814
 9398SOL    HW129093   2.220   1.717   0.780
 9398SOL    HW229094   2.240   1.563   0.833
 9399SOL     OW29095   6.655   0.416   5.554
 9399SOL    HW129096   6.600   0.434   5.635
 9399SOL    HW229097   6.729   0.353   5.577
 9400SOL     OW29098   4.078   2.066   3.338
 9400SOL    HW129099   4.169   2.032   3.363
 9400SOL    HW229100   4.080   2.099   3.244
 9401SOL     OW29101   4.178   0.159   3.425
 9401SOL    HW129102   4.149   0.152   3.521
 9401SOL    HW229103   4.213   0.252   3.409
 9402SOL     OW29104   2.263   4.902   0.436
 9402SOL    HW129105   2.304   4.834   0.497
 9402SOL    HW229106   2.167   4.915   0.462
 9403SOL     OW29107   5.753   0.935   4.962
 9403SOL    HW129108   5.703   0.850   4.945
 9403SOL    HW229109   5.851   0.917   4.963
 9404SOL     OW29110   1.222   4.308   5.419
 9404SOL    HW129111   1.288   4.234   5.404
 9404SOL    HW229112   1.256   4.391   5.376
 9405SOL     OW29113   6.995   0.247   0.858
 9405SOL    HW129114   6.904   0.285   0.841
 9405SOL    HW229115   0.027   0.255   0.776
 9406SOL     OW29116   6.628   1.051   5.662
 9406SOL    HW129117   6.575   0.970   5.636
 9406SOL    HW229118   6.725   1.029   5.662
 9407SOL     OW29119   3.752   5.932   3.180
 9407SOL    HW129120   3.662   5.976   3.176
 9407SOL    HW229121   3.745   5.839   3.143
 9408SOL     OW29122   4.126   2.074   6.890
 9408SOL    HW129123   4.140   2.042   6.796
 9408SOL    HW229124   4.112   1.995   6.950
 9409SOL     OW29125   5.901   3.262   3.509
 9409SOL    HW129126   5.957   3.337   3.545
 9409SOL    HW229127   5.960   3.189   3.476
 9410SOL     OW29128   4.636   6.683   1.849
 9410SOL    HW129129   4.587   6.628   1.916
 9410SOL    HW229130   4.648   6.631   1.765
 9411SOL     OW29131   4.759   5.672   1.423
 9411SOL    HW129132   4.790   5.714   1.337
 9411SOL    HW229133   4.775   5.573   1.419
 9412SOL     OW29134   6.352   2.981   1.993
 9412SOL    HW129135   6.408   2.904   2.021
 9412SOL    HW229136   6.286   3.003   2.065
 9413SOL     OW29137   3.707   5.271   4.085
 9413SOL    HW129138   3.684   5.179   4.116
 9413SOL    HW229139   3.757   5.266   3.998
 9414SOL     OW29140   2.151   0.979   2.401
 9414SOL    HW129141   2.210   1.043   2.351
 9414SOL    HW229142   2.146   0.893   2.351
 9415SOL     OW29143   2.644   1.023   2.197
 9415SOL    HW129144   2.669   1.025   2.294
 9415SOL    HW229145   2.640   0.928   2.166
 9416SOL     OW29146   1.701   2.031   1.070
 9416SOL    HW129147   1.797   2.019   1.045
 9416SOL    HW229148   1.654   1.943   1.063
 9417SOL     OW29149   2.022   0.464   4.459
 9417SOL    HW129150   2.024   0.374   4.415
 9417SOL    HW229151   2.097   0.472   4.524
 9418SOL     OW29152   4.050   4.244   1.312
 9418SOL    HW129153   4.133   4.256   1.257
 9418SOL    HW229154   3.975   4.294   1.271
 9419SOL     OW29155   3.533   5.661   4.145
 9419SOL    HW129156   3.596   5.620   4.078
 9419SOL    HW229157   3.556   5.757   4.157
 9420SOL     OW29158   1.177   1.522   4.723
 9420SOL    HW129159   1.203   1.561   4.635
 9420SOL    HW229160   1.209   1.581   4.796
 9421SOL     OW29161   1.643   5.239   4.459
 9421SOL    HW129162   1.696   5.183   4.396
 9421SOL    HW229163   1.701   5.268   4.535
 9422SOL     OW29164   4.346   0.997   2.761
 9422SOL    HW129165   4.306   0.951   2.681
 9422SOL    HW229166   4.446   0.996   2.754
 9423SOL     OW29167   4.999   0.006   4.776
 9423SOL    HW129168   5.051   0.091   4.770
 9423SOL    HW229169   4.906   0.026   4.807
 9424SOL     OW29170   3.201   6.148   4.349
 9424SOL    HW129171   3.200   6.177   4.253
 9424SOL    HW229172   3.121   6.091   4.367
 9425SOL     OW29173   1.257   4.768   3.290
 9425SOL    HW129174   1.307   4.770   3.203
 9425SOL    HW229175   1.195   4.689   3.291
 9426SOL     OW29176   3.443   5.942   0.981
 9426SOL    HW129177   3.394   6.016   0.935
 9426SOL    HW229178   3.540   5.946   0.957
 9427SOL     OW29179   3.285   4.937   4.226
 9427SOL    HW129180   3.247   4.845   4.233
 9427SOL    HW229181   3.346   4.942   4.147
 9428SOL     OW29182   4.790   6.096   2.268
 9428SOL    HW129183   4.831   6.005   2.256
 9428SOL    HW229184   4.860   6.166   2.256
 9429SOL     OW29185   7.020   3.220   2.715
 9429SOL    HW129186   0.045   3.243   2.800
 9429SOL    HW229187   6.975   3.302   2.680
 9430SOL     OW29188   5.498   0.046   1.909
 9430SOL    HW129189   5.416   0.032   1.966
 9430SOL    HW229190   5.521   0.143   1.908
 9431SOL     OW29191   6.424   3.861   1.089
 9431SOL    HW129192   6.417   3.877   1.187
 9431SOL    HW229193   6.335   3.877   1.046
 9432SOL     OW29194   6.725   6.810   4.287
 9432SOL    HW129195   6.730   6.788   4.384
 9432SOL    HW229196   6.778   6.893   4.268
 9433SOL     OW29197   3.442   4.966   4.737
 9433SOL    HW129198   3.397   4.880   4.713
 9433SOL    HW229199   3.492   5.001   4.658
 9434SOL     OW29200   5.485   4.630   2.965
 9434SOL    HW129201   5.431   4.555   2.928
 9434SOL    HW229202   5.436   4.671   3.042
 9435SOL     OW29203   1.768   1.777   4.779
 9435SOL    HW129204   1.839   1.708   4.784
 9435SOL    HW229205   1.801   1.856   4.726
 9436SOL     OW29206   2.088   2.263   5.957
 9436SOL    HW129207   2.012   2.265   6.022
 9436SOL    HW229208   2.138   2.350   5.962
 9437SOL     OW29209   0.750   5.043   3.787
 9437SOL    HW129210   0.801   5.117   3.744
 9437SOL    HW229211   0.685   5.082   3.853
 9438SOL     OW29212   0.525   6.905   2.182
 9438SOL    HW129213   0.605   6.966   2.186
 9438SOL    HW229214   0.487   6.906   2.089
 9439SOL     OW29215   1.631   3.011   1.625
 9439SOL    HW129216   1.632   3.108   1.604
 9439SOL    HW229217   1.617   2.997   1.723
 9440SOL     OW29218   4.398   5.891   5.220
 9440SOL    HW129219   4.497   5.904   5.225
 9440SOL    HW229220   4.364   5.924   5.132
 9441SOL     OW29221   1.737   5.654   5.209
 9441SOL    HW129222   1.697   5.670   5.300
 9441SOL    HW229223   1.700   5.569   5.171
 9442SOL     OW29224   0.521   3.672   1.254
 9442SOL    HW129225   0.589   3.736   1.289
 9442SOL    HW229226   0.444   3.667   1.319
 9443SOL     OW29227   2.254   3.327   1.362
 9443SOL    HW129228   2.251   3.259   1.288
 9443SOL    HW229229   2.165   3.329   1.408
 9444SOL     OW29230   0.610   4.082   6.035
 9444SOL    HW129231   0.618   4.141   5.955
 9444SOL    HW229232   0.658   4.123   6.113
 9445SOL     OW29233   6.380   3.346   1.755
 9445SOL    HW129234   6.415   3.291   1.679
 9445SOL    HW229235   6.281   3.357   1.745
 9446SOL     OW29236   5.915   4.711   0.779
 9446SOL    HW129237   5.845   4.768   0.822
 9446SOL    HW229238   6.003   4.727   0.824
 9447SOL     OW29239   6.042   2.311   1.496
 9447SOL    HW129240   6.137   2.289   1.474
 9447SOL    HW229241   6.014   2.391   1.442
 9448SOL     OW29242   6.080   6.411   0.305
 9448SOL    HW129243   6.139   6.491   0.310
 9448SOL    HW229244   6.068   6.384   0.209
 9449SOL     OW29245   6.720   5.034   5.140
 9449SOL    HW129246   6.763   5.064   5.055
 9449SOL    HW229247   6.785   4.980   5.194
 9450SOL     OW29248   2.879   5.556   4.261
 9450SOL    HW129249   2.846   5.484   4.322
 9450SOL    HW229250   2.976   5.573   4.277
 9451SOL     OW29251   4.225   4.226   5.669
 9451SOL    HW129252   4.248   4.322   5.678
 9451SOL    HW229253   4.257   4.176   5.749
 9452SOL     OW29254   2.873   4.444   1.373
 9452SOL    HW129255   2.838   4.473   1.284
 9452SOL    HW229256   2.969   4.474   1.382
 9453SOL     OW29257   3.235   5.332   1.412
 9453SOL    HW129258   3.147   5.313   1.367
 9453SOL    HW229259   3.248   5.430   1.419
 9454SOL     OW29260   1.822   1.616   5.663
 9454SOL    HW129261   1.806   1.684   5.735
 9454SOL    HW229262   1.921   1.609   5.646
 9455SOL     OW29263   2.528   2.309   2.273
 9455SOL    HW129264   2.622   2.319   2.308
 9455SOL    HW229265   2.469   2.279   2.348
 9456SOL     OW29266   1.327   3.737   0.680
 9456SOL    HW129267   1.348   3.803   0.752
 9456SOL    HW229268   1.354   3.645   0.710
 9457SOL     OW29269   6.697   3.546   0.639
 9457SOL    HW129270   6.653   3.537   0.729
 9457SOL    HW229271   6.651   3.485   0.574
 9458SOL     OW29272   0.716   5.550   4.216
 9458SOL    HW129273   0.689   5.455   4.202
 9458SOL    HW229274   0.805   5.553   4.261
 9459SOL     OW29275   4.276   6.044   1.562
 9459SOL    HW129276   4.226   6.116   1.514
 9459SOL    HW229277   4.358   6.083   1.604
 9460SOL     OW29278   1.019   2.589   5.863
 9460SOL    HW129279   0.990   2.502   5.904
 9460SOL    HW229280   1.037   2.575   5.765
 9461SOL     OW29281   1.602   0.633   2.792
 9461SOL    HW129282   1.688   0.665   2.831
 9461SOL    HW229283   1.566   0.557   2.846
 9462SOL     OW29284   0.095   3.374   2.926
 9462SOL    HW129285   0.077   3.460   2.974
 9462SOL    HW229286   0.094   3.299   2.991
 9463SOL     OW29287   5.530   1.897   6.657
 9463SOL    HW129288   5.483   1.971   6.609
 9463SOL    HW229289   5.625   1.923   6.674
 9464SOL     OW29290   4.374   6.863   5.998
 9464SOL    HW129291   4.451   6.906   6.046
 9464SOL    HW229292   4.296   6.924   5.998
 9465SOL     OW29293   5.690   0.187   4.337
 9465SOL    HW129294   5.752   0.144   4.403
 9465SOL    HW229295   5.599   0.196   4.379
 9466SOL     OW29296   2.267   2.212   6.837
 9466SOL    HW129297   2.296   2.160   6.757
 9466SOL    HW229298   2.340   2.213   6.905
 9467SOL     OW29299   2.157   3.176   2.094
 9467SOL    HW129300   2.174   3.274   2.081
 9467SOL    HW229301   2.151   3.155   2.191
 9468SOL     OW29302   0.585   2.394   6.286
 9468SOL    HW129303   0.651   2.459   6.324
 9468SOL    HW229304   0.510   2.445   6.243
 9469SOL     OW29305   6.485   3.861   2.824
 9469SOL    HW129306   6.479   3.949   2.777
 9469SOL    HW229307   6.396   3.837   2.862
 9470SOL     OW29308   6.045   3.463   1.519
 9470SOL    HW129309   5.953   3.502   1.514
 9470SOL    HW229310   6.050   3.400   1.596
 9471SOL     OW29311   0.701   2.718   6.046
 9471SOL    HW129312   0.688   2.633   5.994
 9471SOL    HW229313   0.685   2.796   5.986
 9472SOL     OW29314   6.459   2.308   4.483
 9472SOL    HW129315   6.406   2.377   4.434
 9472SOL    HW229316   6.413   2.284   4.568
 9473SOL     OW29317   3.734   5.431   4.750
 9473SOL    HW129318   3.756   5.337   4.777
 9473SOL    HW229319   3.722   5.487   4.832
 9474SOL     OW29320   3.859   5.166   3.591
 9474SOL    HW129321   3.875   5.068   3.598
 9474SOL    HW229322   3.920   5.205   3.521
 9475SOL     OW29323   1.840   3.199   1.388
 9475SOL    HW129324   1.919   3.243   1.431
 9475SOL    HW229325   1.871   3.145   1.310
 9476SOL     OW29326   3.737   3.582   5.493
 9476SOL    HW129327   3.814   3.518   5.485
 9476SOL    HW229328   3.727   3.633   5.408
 9477SOL     OW29329   0.083   1.890   1.137
 9477SOL    HW129330   0.134   1.911   1.053
 9477SOL    HW229331   0.012   1.823   1.116
 9478SOL     OW29332   5.343   4.183   5.323
 9478SOL    HW129333   5.248   4.174   5.355
 9478SOL    HW229334   5.343   4.226   5.233
 9479SOL     OW29335   6.448   5.664   5.240
 9479SOL    HW129336   6.413   5.659   5.334
 9479SOL    HW229337   6.508   5.743   5.231
 9480SOL     OW29338   5.631   4.002   6.367
 9480SOL    HW129339   5.727   3.996   6.392
 9480SOL    HW229340   5.599   3.914   6.333
 9481SOL     OW29341   6.144   3.564   2.590
 9481SOL    HW129342   6.209   3.598   2.523
 9481SOL    HW229343   6.181   3.579   2.682
 9482SOL     OW29344   4.547   0.111   2.818
 9482SOL    HW129345   4.473   0.057   2.777
 9482SOL    HW229346   4.593   0.164   2.747
 9483SOL     OW29347   1.913   1.886   0.683
 9483SOL    HW129348   1.890   1.800   0.639
 9483SOL    HW229349   1.950   1.868   0.774
 9484SOL     OW29350   6.147   1.209   2.523
 9484SOL    HW129351   6.115   1.128   2.573
 9484SOL    HW229352   6.237   1.236   2.557
 9485SOL     OW29353   1.069   0.474   3.097
 9485SOL    HW129354   1.056   0.528   3.014
 9485SOL    HW229355   1.049   0.531   3.177
 9486SOL     OW29356   2.705   5.615   2.064
 9486SOL    HW129357   2.619   5.600   2.015
 9486SOL    HW229358   2.692   5.683   2.136
 9487SOL     OW29359   3.378   2.933   3.409
 9487SOL    HW129360   3.463   2.947   3.460
 9487SOL    HW229361   3.322   3.015   3.413
 9488SOL     OW29362   1.043   0.981   1.556
 9488SOL    HW129363   1.011   0.911   1.493
 9488SOL    HW229364   1.131   1.017   1.525
 9489SOL     OW29365   3.250   4.251   0.507
 9489SOL    HW129366   3.338   4.296   0.492
 9489SOL    HW229367   3.213   4.278   0.596
 9490SOL     OW29368   5.596   1.341   0.199
 9490SOL    HW129369   5.573   1.345   0.296
 9490SOL    HW229370   5.688   1.379   0.185
 9491SOL     OW29371   6.935   4.883   5.284
 9491SOL    HW129372   6.893   4.864   5.373
 9491SOL    HW229373   7.000   4.810   5.262
 9492SOL     OW29374   2.900   4.205   1.540
 9492SOL    HW129375   2.871   4.282   1.484
 9492SOL    HW229376   2.963   4.237   1.611
 9493SOL     OW29377   5.788   6.632   2.572
 9493SOL    HW129378   5.840   6.553   2.539
 9493SOL    HW229379   5.694   6.605   2.591
 9494SOL     OW29380   3.433   3.149   6.040
 9494SOL    HW129381   3.334   3.141   6.043
 9494SOL    HW229382   3.469   3.093   5.965
 9495SOL     OW29383   5.707   2.088   4.766
 9495SOL    HW129384   5.640   2.018   4.791
 9495SOL    HW229385   5.712   2.157   4.838
 9496SOL     OW29386   5.861   3.853   0.156
 9496SOL    HW129387   5.895   3.878   0.246
 9496SOL    HW229388   5.923   3.787   0.114
 9497SOL     OW29389   0.121   6.589   5.975
 9497SOL    HW129390   0.163   6.559   5.889
 9497SOL    HW229391   0.159   6.678   6.000
 9498SOL     OW29392   3.949   0.017   5.991
 9498SOL    HW129393   3.999   7.008   5.911
 9498SOL    HW229394   3.994   7.009   6.074
 9499SOL     OW29395   4.691   4.459   6.498
 9499SOL    HW129396   4.768   4.515   6.469
 9499SOL    HW229397   4.623   4.455   6.424
 9500SOL     OW29398   4.930   5.560   2.131
 9500SOL    HW129399   5.026   5.532   2.133
 9500SOL    HW229400   4.924   5.655   2.100
 9501SOL     OW29401   3.205   1.660   4.805
 9501SOL    HW129402   3.151   1.691   4.884
 9501SOL    HW229403   3.148   1.603   4.746
 9502SOL     OW29404   5.089   3.459   5.824
 9502SOL    HW129405   5.106   3.534   5.889
 9502SOL    HW229406   5.061   3.377   5.874
 9503SOL     OW29407   1.239   6.921   0.726
 9503SOL    HW129408   1.193   6.922   0.815
 9503SOL    HW229409   1.205   6.997   0.670
 9504SOL     OW29410   1.154   3.400   6.925
 9504SOL    HW129411   1.064   3.443   6.916
 9504SOL    HW229412   1.152   3.310   6.883
 9505SOL     OW29413   4.938   3.525   2.833
 9505SOL    HW129414   4.849   3.479   2.826
 9505SOL    HW229415   5.009   3.457   2.853
 9506SOL     OW29416   6.439   2.791   0.701
 9506SOL    HW129417   6.454   2.706   0.650
 9506SOL    HW229418   6.527   2.829   0.728
 9507SOL     OW29419   0.995   2.004   4.264
 9507SOL    HW129420   0.968   2.042   4.175
 9507SOL    HW229421   0.913   1.991   4.320
 9508SOL     OW29422   5.024   1.977   6.651
 9508SOL    HW129423   5.051   1.880   6.652
 9508SOL    HW229424   5.059   2.022   6.733
 9509SOL     OW29425   2.917   6.371   5.644
 9509SOL    HW129426   2.936   6.284   5.690
 9509SOL    HW229427   2.996   6.396   5.587
 9510SOL     OW29428   6.565   4.391   3.505
 9510SOL    HW129429   6.640   4.356   3.449
 9510SOL    HW229430   6.506   4.449   3.449
 9511SOL     OW29431   1.703   1.231   1.156
 9511SOL    HW129432   1.714   1.330   1.164
 9511SOL    HW229433   1.784   1.185   1.192
 9512SOL     OW29434   1.348   2.548   4.510
 9512SOL    HW129435   1.381   2.479   4.444
 9512SOL    HW229436   1.426   2.600   4.545
 9513SOL     OW29437   2.312   4.403   4.030
 9513SOL    HW129438   2.292   4.309   4.003
 9513SOL    HW229439   2.348   4.404   4.123
 9514SOL     OW29440   2.464   2.781   6.354
 9514SOL    HW129441   2.414   2.804   6.437
 9514SOL    HW229442   2.432   2.838   6.279
 9515SOL     OW29443   2.414   5.458   5.541
 9515SOL    HW129444   2.473   5.531   5.508
 9515SOL    HW229445   2.373   5.410   5.464
 9516SOL     OW29446   5.186   4.039   4.723
 9516SOL    HW129447   5.182   3.987   4.808
 9516SOL    HW229448   5.282   4.055   4.699
 9517SOL     OW29449   0.874   5.824   1.773
 9517SOL    HW129450   0.777   5.809   1.795
 9517SOL    HW229451   0.885   5.827   1.674
 9518SOL     OW29452   0.818   3.132   5.277
 9518SOL    HW129453   0.785   3.044   5.310
 9518SOL    HW229454   0.740   3.192   5.261
 9519SOL     OW29455   3.915   3.051   3.606
 9519SOL    HW129456   3.912   3.042   3.507
 9519SOL    HW229457   3.854   2.984   3.648
 9520SOL     OW29458   5.001   0.298   6.456
 9520SOL    HW129459   4.936   0.251   6.396
 9520SOL    HW229460   4.954   0.367   6.510
 9521SOL     OW29461   3.294   1.011   0.951
 9521SOL    HW129462   3.376   0.966   0.914
 9521SOL    HW229463   3.272   1.091   0.896
 9522SOL     OW29464   3.306   5.825   1.839
 9522SOL    HW129465   3.361   5.853   1.761
 9522SOL    HW229466   3.347   5.861   1.923
 9523SOL     OW29467   2.639   4.650   4.027
 9523SOL    HW129468   2.726   4.687   4.060
 9523SOL    HW229469   2.563   4.698   4.072
 9524SOL     OW29470   2.167   4.065   0.920
 9524SOL    HW129471   2.254   4.110   0.940
 9524SOL    HW229472   2.150   3.993   0.986
 9525SOL     OW29473   2.386   3.235   5.390
 9525SOL    HW129474   2.433   3.181   5.320
 9525SOL    HW229475   2.399   3.332   5.371
 9526SOL     OW29476   5.484   5.061   0.167
 9526SOL    HW129477   5.535   5.010   0.097
 9526SOL    HW229478   5.401   5.098   0.126
 9527SOL     OW29479   4.484   6.603   3.895
 9527SOL    HW129480   4.474   6.701   3.916
 9527SOL    HW229481   4.438   6.583   3.809
 9528SOL     OW29482   5.274   2.047   0.364
 9528SOL    HW129483   5.323   2.007   0.441
 9528SOL    HW229484   5.176   2.028   0.373
 9529SOL     OW29485   5.980   1.092   1.849
 9529SOL    HW129486   5.913   1.162   1.873
 9529SOL    HW229487   6.070   1.117   1.885
 9530SOL     OW29488   1.772   5.505   3.716
 9530SOL    HW129489   1.817   5.548   3.794
 9530SOL    HW229490   1.759   5.408   3.735
 9531SOL     OW29491   3.621   5.481   2.322
 9531SOL    HW129492   3.684   5.552   2.291
 9531SOL    HW229493   3.668   5.393   2.324
 9532SOL     OW29494   6.557   5.163   3.440
 9532SOL    HW129495   6.641   5.190   3.394
 9532SOL    HW229496   6.580   5.111   3.523
 9533SOL     OW29497   1.692   3.931   3.585
 9533SOL    HW129498   1.605   3.944   3.538
 9533SOL    HW229499   1.679   3.869   3.662
 9534SOL     OW29500   5.559   5.213   4.605
 9534SOL    HW129501   5.611   5.289   4.644
 9534SOL    HW229502   5.551   5.140   4.673
 9535SOL     OW29503   0.376   1.521   4.954
 9535SOL    HW129504   0.373   1.583   5.032
 9535SOL    HW229505   0.300   1.456   4.960
 9536SOL     OW29506   3.496   4.005   5.065
 9536SOL    HW129507   3.405   3.963   5.067
 9536SOL    HW229508   3.566   3.934   5.062
 9537SOL     OW29509   6.937   1.925   4.319
 9537SOL    HW129510   7.018   1.980   4.342
 9537SOL    HW229511   6.965   1.831   4.298
 9538SOL     OW29512   5.196   6.979   5.086
 9538SOL    HW129513   5.211   0.050   5.113
 9538SOL    HW229514   5.220   6.968   4.990
 9539SOL     OW29515   3.181   3.494   2.187
 9539SOL    HW129516   3.197   3.482   2.285
 9539SOL    HW229517   3.172   3.592   2.167
 9540SOL     OW29518   4.501   4.988   3.059
 9540SOL    HW129519   4.437   4.917   3.089
 9540SOL    HW229520   4.521   4.974   2.962
 9541SOL     OW29521   2.335   5.306   5.312
 9541SOL    HW129522   2.335   5.232   5.245
 9541SOL    HW229523   2.245   5.312   5.355
 9542SOL     OW29524   6.230   4.513   4.004
 9542SOL    HW129525   6.149   4.479   4.054
 9542SOL    HW229526   6.244   4.456   3.922
 9543SOL     OW29527   2.359   0.104   5.858
 9543SOL    HW129528   2.330   0.063   5.772
 9543SOL    HW229529   2.348   0.203   5.853
 9544SOL     OW29530   5.863   3.083   4.709
 9544SOL    HW129531   5.952   3.040   4.727
 9544SOL    HW229532   5.816   3.098   4.796
 9545SOL     OW29533   6.829   4.603   1.978
 9545SOL    HW129534   6.926   4.619   1.960
 9545SOL    HW229535   6.801   4.656   2.058
 9546SOL     OW29536   2.762   2.918   0.438
 9546SOL    HW129537   2.683   2.950   0.491
 9546SOL    HW229538   2.796   2.832   0.477
 9547SOL     OW29539   4.289   6.832   3.711
 9547SOL    HW129540   4.189   6.837   3.705
 9547SOL    HW229541   4.317   6.737   3.718
 9548SOL     OW29542   1.136   5.015   6.732
 9548SOL    HW129543   1.104   4.922   6.750
 9548SOL    HW229544   1.140   5.031   6.633
 9549SOL     OW29545   4.821   1.732   1.011
 9549SOL    HW129546   4.820   1.658   0.944
 9549SOL    HW229547   4.895   1.718   1.076
 9550SOL     OW29548   5.396   3.343   1.594
 9550SOL    HW129549   5.342   3.378   1.670
 9550SOL    HW229550   5.387   3.244   1.590
 9551SOL     OW29551   6.244   3.482   6.439
 9551SOL    HW129552   6.342   3.484   6.420
 9551SOL    HW229553   6.210   3.388   6.430
 9552SOL     OW29554   3.223   1.596   6.962
 9552SOL    HW129555   3.204   1.609   6.865
 9552SOL    HW229556   3.318   1.621   6.981
 9553SOL     OW29557   5.339   1.412   6.651
 9553SOL    HW129558   5.361   1.344   6.581
 9553SOL    HW229559   5.394   1.494   6.638
 9554SOL     OW29560   3.338   1.007   4.140
 9554SOL    HW129561   3.396   1.065   4.084
 9554SOL    HW229562   3.394   0.943   4.192
 9555SOL     OW29563   7.019   0.067   3.907
 9555SOL    HW129564   7.013   6.995   3.880
 9555SOL    HW229565   0.081   0.105   3.875
 9556SOL     OW29566   2.003   4.815   6.400
 9556SOL    HW129567   1.997   4.806   6.499
 9556SOL    HW229568   2.095   4.790   6.369
 9557SOL     OW29569   5.298   0.612   1.974
 9557SOL    HW129570   5.260   0.704   1.976
 9557SOL    HW229571   5.397   0.617   1.956
 9558SOL     OW29572   4.752   6.747   6.874
 9558SOL    HW129573   4.814   6.719   6.801
 9558SOL    HW229574   4.759   6.845   6.888
 9559SOL     OW29575   1.807   4.255   0.154
 9559SOL    HW129576   1.760   4.213   0.231
 9559SOL    HW229577   1.816   4.188   0.080
 9560SOL     OW29578   3.252   6.970   2.425
 9560SOL    HW129579   3.237   6.891   2.366
 9560SOL    HW229580   3.330   7.022   2.393
 9561SOL     OW29581   0.478   0.912   0.494
 9561SOL    HW129582   0.419   0.870   0.425
 9561SOL    HW229583   0.556   0.852   0.513
 9562SOL     OW29584   2.653   6.420   2.728
 9562SOL    HW129585   2.565   6.383   2.757
 9562SOL    HW229586   2.723   6.397   2.796
 9563SOL     OW29587   0.317   6.138   6.668
 9563SOL    HW129588   0.307   6.205   6.595
 9563SOL    HW229589   0.238   6.145   6.730
 9564SOL     OW29590   1.841   0.796   0.112
 9564SOL    HW129591   1.808   0.748   0.031
 9564SOL    HW229592   1.935   0.768   0.132
 9565SOL     OW29593   2.901   1.705   4.077
 9565SOL    HW129594   2.983   1.689   4.133
 9565SOL    HW229595   2.852   1.785   4.111
 9566SOL     OW29596   3.131   0.784   6.636
 9566SOL    HW129597   3.094   0.727   6.562
 9566SOL    HW229598   3.215   0.828   6.605
 9567SOL     OW29599   6.959   3.640   1.129
 9567SOL    HW129600   7.016   3.711   1.169
 9567SOL    HW229601   7.015   3.579   1.073
 9568SOL     OW29602   4.796   1.184   6.816
 9568SOL    HW129603   4.870   1.171   6.883
 9568SOL    HW229604   4.709   1.154   6.855
 9569SOL     OW29605   5.502   0.734   2.210
 9569SOL    HW129606   5.480   0.705   2.117
 9569SOL    HW229607   5.483   0.832   2.220
 9570SOL     OW29608   0.545   3.262   1.821
 9570SOL    HW129609   0.502   3.173   1.811
 9570SOL    HW229610   0.616   3.257   1.890
 9571SOL     OW29611   1.718   2.197   6.349
 9571SOL    HW129612   1.754   2.171   6.259
 9571SOL    HW229613   1.660   2.278   6.339
 9572SOL     OW29614   2.254   4.125   3.971
 9572SOL    HW129615   2.271   4.075   4.056
 9572SOL    HW229616   2.202   4.067   3.908
 9573SOL     OW29617   6.777   0.871   4.798
 9573SOL    HW129618   6.744   0.909   4.712
 9573SOL    HW229619   6.864   0.823   4.783
 9574SOL     OW29620   3.428   3.029   1.082
 9574SOL    HW129621   3.467   2.991   1.166
 9574SOL    HW229622   3.360   3.099   1.104
 9575SOL     OW29623   5.790   6.354   2.049
 9575SOL    HW129624   5.804   6.323   1.955
 9575SOL    HW229625   5.696   6.383   2.061
 9576SOL     OW29626   1.055   7.008   6.672
 9576SOL    HW129627   1.026   0.030   6.755
 9576SOL    HW229628   1.150   0.008   6.652
 9577SOL     OW29629   6.267   5.584   2.392
 9577SOL    HW129630   6.215   5.549   2.471
 9577SOL    HW229631   6.313   5.669   2.418
 9578SOL     OW29632   2.132   3.475   2.677
 9578SOL    HW129633   2.101   3.535   2.750
 9578SOL    HW229634   2.057   3.457   2.613
 9579SOL     OW29635   6.323   5.829   1.969
 9579SOL    HW129636   6.280   5.770   2.037
 9579SOL    HW229637   6.408   5.785   1.936
 9580SOL     OW29638   5.424   4.188   3.185
 9580SOL    HW129639   5.516   4.159   3.211
 9580SOL    HW229640   5.393   4.262   3.245
 9581SOL     OW29641   6.011   1.098   0.006
 9581SOL    HW129642   5.996   1.139   6.940
 9581SOL    HW229643   6.105   1.118   0.036
 9582SOL     OW29644   5.202   6.483   4.831
 9582SOL    HW129645   5.173   6.425   4.908
 9582SOL    HW229646   5.128   6.486   4.763
 9583SOL     OW29647   3.783   4.688   1.636
 9583SOL    HW129648   3.733   4.708   1.720
 9583SOL    HW229649   3.762   4.596   1.605
 9584SOL     OW29650   2.572   5.245   4.296
 9584SOL    HW129651   2.642   5.181   4.263
 9584SOL    HW229652   2.591   5.270   4.391
 9585SOL     OW29653   4.311   5.614   0.919
 9585SOL    HW129654   4.293   5.700   0.967
 9585SOL    HW229655   4.290   5.625   0.822
 9586SOL     OW29656   4.222   4.755   2.935
 9586SOL    HW129657   4.245   4.740   2.838
 9586SOL    HW229658   4.300   4.730   2.992
 9587SOL     OW29659   2.980   5.574   1.334
 9587SOL    HW129660   2.923   5.501   1.296
 9587SOL    HW229661   3.003   5.638   1.260
 9588SOL     OW29662   6.506   5.651   0.411
 9588SOL    HW129663   6.562   5.571   0.391
 9588SOL    HW229664   6.477   5.695   0.325
 9589SOL     OW29665   1.491   3.550   6.414
 9589SOL    HW129666   1.489   3.459   6.371
 9589SOL    HW229667   1.428   3.551   6.492
 9590SOL     OW29668   6.127   0.581   1.461
 9590SOL    HW129669   6.169   0.659   1.507
 9590SOL    HW229670   6.030   0.576   1.485
 9591SOL     OW29671   4.181   0.870   6.970
 9591SOL    HW129672   4.106   0.895   6.909
 9591SOL    HW229673   4.247   0.814   6.921
 9592SOL     OW29674   1.979   6.489   5.480
 9592SOL    HW129675   2.022   6.569   5.439
 9592SOL    HW229676   2.047   6.441   5.536
 9593SOL     OW29677   2.199   1.705   4.184
 9593SOL    HW129678   2.190   1.693   4.085
 9593SOL    HW229679   2.288   1.672   4.214
 9594SOL     OW29680   0.355   6.321   4.164
 9594SOL    HW129681   0.335   6.238   4.113
 9594SOL    HW229682   0.422   6.376   4.114
 9595SOL     OW29683   0.040   3.236   3.356
 9595SOL    HW129684   0.084   3.148   3.368
 9595SOL    HW229685   0.015   3.274   3.445
 9596SOL     OW29686   0.239   6.549   0.917
 9596SOL    HW129687   0.274   6.471   0.866
 9596SOL    HW229688   0.267   6.634   0.872
 9597SOL     OW29689   1.367   3.156   2.614
 9597SOL    HW129690   1.450   3.104   2.637
 9597SOL    HW229691   1.294   3.092   2.588
 9598SOL     OW29692   1.858   4.047   4.042
 9598SOL    HW129693   1.813   4.088   3.963
 9598SOL    HW229694   1.902   4.118   4.096
 9599SOL     OW29695   4.750   6.749   3.596
 9599SOL    HW129696   4.713   6.660   3.620
 9599SOL    HW229697   4.689   6.821   3.631
 9600SOL     OW29698   3.409   0.734   1.785
 9600SOL    HW129699   3.383   0.739   1.689
 9600SOL    HW229700   3.408   0.639   1.816
 9601SOL     OW29701   0.983   3.733   1.087
 9601SOL    HW129702   0.963   3.635   1.097
 9601SOL    HW229703   1.011   3.751   0.993
 9602SOL     OW29704   4.430   5.258   5.364
 9602SOL    HW129705   4.384   5.185   5.416
 9602SOL    HW229706   4.483   5.217   5.290
 9603SOL     OW29707   5.081   5.870   5.307
 9603SOL    HW129708   5.064   5.901   5.400
 9603SOL    HW229709   5.127   5.942   5.256
 9604SOL     OW29710   5.104   6.359   0.406
 9604SOL    HW129711   5.200   6.385   0.404
 9604SOL    HW229712   5.066   6.362   0.314
 9605SOL     OW29713   6.352   5.820   2.448
 9605SOL    HW129714   6.282   5.880   2.409
 9605SOL    HW229715   6.374   5.852   2.540
 9606SOL     OW29716   1.708   1.099   6.872
 9606SOL    HW129717   1.666   1.186   6.848
 9606SOL    HW229718   1.660   1.024   6.826
 9607SOL     OW29719   2.934   2.385   6.189
 9607SOL    HW129720   2.838   2.373   6.212
 9607SOL    HW229721   2.948   2.477   6.151
 9608SOL     OW29722   6.513   3.306   3.859
 9608SOL    HW129723   6.573   3.346   3.790
 9608SOL    HW229724   6.492   3.211   3.834
 9609SOL     OW29725   4.396   2.972   6.332
 9609SOL    HW129726   4.364   3.007   6.420
 9609SOL    HW229727   4.407   2.873   6.338
 9610SOL     OW29728   1.083   4.571   3.273
 9610SOL    HW129729   1.073   4.497   3.206
 9610SOL    HW229730   1.001   4.576   3.330
 9611SOL     OW29731   2.006   0.544   0.489
 9611SOL    HW129732   2.004   0.643   0.474
 9611SOL    HW229733   1.977   0.524   0.582
 9612SOL     OW29734   6.468   2.740   3.638
 9612SOL    HW129735   6.483   2.727   3.736
 9612SOL    HW229736   6.496   2.657   3.589
 9613SOL     OW29737   6.153   5.652   3.352
 9613SOL    HW129738   6.212   5.727   3.319
 9613SOL    HW229739   6.101   5.684   3.432
 9614SOL     OW29740   4.521   2.516   3.796
 9614SOL    HW129741   4.504   2.536   3.700
 9614SOL    HW229742   4.604   2.564   3.825
 9615SOL     OW29743   2.840   4.014   0.967
 9615SOL    HW129744   2.838   4.093   1.028
 9615SOL    HW229745   2.760   4.016   0.907
 9616SOL     OW29746   4.287   3.610   0.214
 9616SOL    HW129747   4.329   3.611   0.305
 9616SOL    HW229748   4.315   3.528   0.165
 9617SOL     OW29749   1.899   2.279   3.444
 9617SOL    HW129750   1.913   2.245   3.351
 9617SOL    HW229751   1.908   2.203   3.509
 9618SOL     OW29752   2.329   1.450   0.919
 9618SOL    HW129753   2.319   1.492   1.010
 9618SOL    HW229754   2.379   1.364   0.928
 9619SOL     OW29755   3.123   0.905   5.174
 9619SOL    HW129756   3.204   0.853   5.149
 9619SOL    HW229757   3.145   1.003   5.176
 9620SOL     OW29758   6.194   0.881   5.723
 9620SOL    HW129759   6.237   0.951   5.780
 9620SOL    HW229760   6.223   0.791   5.754
 9621SOL     OW29761   1.750   2.699   3.626
 9621SOL    HW129762   1.795   2.673   3.712
 9621SOL    HW229763   1.753   2.621   3.563
 9622SOL     OW29764   5.337   6.663   1.561
 9622SOL    HW129765   5.355   6.725   1.484
 9622SOL    HW229766   5.263   6.700   1.617
 9623SOL     OW29767   2.638   3.684   6.742
 9623SOL    HW129768   2.712   3.710   6.805
 9623SOL    HW229769   2.552   3.725   6.773
 9624SOL     OW29770   6.321   3.183   3.621
 9624SOL    HW129771   6.255   3.114   3.650
 9624SOL    HW229772   6.410   3.139   3.606
 9625SOL     OW29773   5.904   5.715   0.878
 9625SOL    HW129774   5.972   5.680   0.814
 9625SOL    HW229775   5.845   5.780   0.831
 9626SOL     OW29776   2.963   6.433   6.749
 9626SOL    HW129777   2.913   6.365   6.804
 9626SOL    HW229778   3.058   6.405   6.740
 9627SOL     OW29779   1.348   6.781   6.523
 9627SOL    HW129780   1.426   6.740   6.475
 9627SOL    HW229781   1.264   6.734   6.496
 9628SOL     OW29782   4.033   6.378   2.136
 9628SOL    HW129783   3.990   6.355   2.223
 9628SOL    HW229784   3.993   6.462   2.100
 9629SOL     OW29785   2.136   6.885   1.208
 9629SOL    HW129786   2.039   6.874   1.230
 9629SOL    HW229787   2.190   6.824   1.266
 9630SOL     OW29788   6.674   0.949   6.298
 9630SOL    HW129789   6.685   1.048   6.295
 9630SOL    HW229790   6.708   0.908   6.214
 9631SOL     OW29791   6.270   6.539   6.933
 9631SOL    HW129792   6.329   6.494   6.865
 9631SOL    HW229793   6.193   6.582   6.886
 9632SOL     OW29794   1.417   5.929   1.715
 9632SOL    HW129795   1.319   5.943   1.701
 9632SOL    HW229796   1.463   5.916   1.627
 9633SOL     OW29797   0.094   5.190   6.067
 9633SOL    HW129798   0.023   5.227   6.006
 9633SOL    HW229799   0.064   5.101   6.102
 9634SOL     OW29800   1.191   6.268   4.968
 9634SOL    HW129801   1.155   6.352   4.927
 9634SOL    HW229802   1.128   6.193   4.951
 9635SOL     OW29803   1.261   5.386   5.540
 9635SOL    HW129804   1.290   5.426   5.627
 9635SOL    HW229805   1.262   5.457   5.469
 9636SOL     OW29806   4.073   1.766   6.612
 9636SOL    HW129807   4.107   1.859   6.629
 9636SOL    HW229808   4.142   1.700   6.639
 9637SOL     OW29809   2.475   1.222   6.996
 9637SOL    HW129810   2.538   1.211   0.049
 9637SOL    HW229811   2.482   1.314   6.959
 9638SOL     OW29812   6.560   1.889   5.936
 9638SOL    HW129813   6.596   1.814   5.991
 9638SOL    HW229814   6.598   1.884   5.843
 9639SOL     OW29815   4.063   1.070   2.843
 9639SOL    HW129816   4.037   0.978   2.873
 9639SOL    HW229817   4.159   1.069   2.814
 9640SOL     OW29818   1.911   2.277   2.072
 9640SOL    HW129819   1.990   2.307   2.125
 9640SOL    HW229820   1.942   2.243   1.983
 9641SOL     OW29821   6.313   5.734   0.164
 9641SOL    HW129822   6.339   5.677   0.086
 9641SOL    HW229823   6.266   5.816   0.131
 9642SOL     OW29824   3.862   0.009   3.842
 9642SOL    HW129825   3.770   7.018   3.804
 9642SOL    HW229826   3.929   6.986   3.784
 9643SOL     OW29827   4.378   4.677   3.365
 9643SOL    HW129828   4.399   4.774   3.354
 9643SOL    HW229829   4.362   4.635   3.276
 9644SOL     OW29830   2.565   2.117   6.757
 9644SOL    HW129831   2.605   2.098   6.667
 9644SOL    HW229832   2.625   2.177   6.809
 9645SOL     OW29833   3.251   5.349   5.072
 9645SOL    HW129834   3.296   5.276   5.123
 9645SOL    HW229835   3.250   5.433   5.127
 9646SOL     OW29836   4.171   5.706   3.692
 9646SOL    HW129837   4.184   5.722   3.790
 9646SOL    HW229838   4.257   5.724   3.644
 9647SOL     OW29839   6.768   3.013   0.185
 9647SOL    HW129840   6.778   3.077   0.110
 9647SOL    HW229841   6.745   2.922   0.149
 9648SOL     OW29842   4.229   3.775   1.110
 9648SOL    HW129843   4.312   3.768   1.165
 9648SOL    HW229844   4.156   3.723   1.153
 9649SOL     OW29845   1.911   5.858   1.139
 9649SOL    HW129846   1.874   5.862   1.046
 9649SOL    HW229847   1.881   5.939   1.190
 9650SOL     OW29848   0.292   6.995   2.001
 9650SOL    HW129849   0.288   0.059   1.954
 9650SOL    HW229850   0.285   7.009   2.100
 9651SOL     OW29851   0.290   1.615   5.552
 9651SOL    HW129852   0.381   1.575   5.549
 9651SOL    HW229853   0.296   1.708   5.587
 9652SOL     OW29854   0.408   5.483   2.489
 9652SOL    HW129855   0.351   5.492   2.408
 9652SOL    HW229856   0.495   5.441   2.464
 9653SOL     OW29857   6.305   5.906   4.327
 9653SOL    HW129858   6.379   5.929   4.264
 9653SOL    HW229859   6.298   5.976   4.398
 9654SOL     OW29860   2.144   3.112   2.376
 9654SOL    HW129861   2.142   3.018   2.344
 9654SOL    HW229862   2.157   3.113   2.475
 9655SOL     OW29863   5.890   2.283   6.778
 9655SOL    HW129864   5.939   2.198   6.798
 9655SOL    HW229865   5.951   2.361   6.794
 9656SOL     OW29866   3.438   0.970   3.161
 9656SOL    HW129867   3.443   1.068   3.146
 9656SOL    HW229868   3.343   0.940   3.163
 9657SOL     OW29869   0.354   0.052   5.050
 9657SOL    HW129870   0.341   6.977   5.049
 9657SOL    HW229871   0.436   0.076   4.996
 9658SOL     OW29872   5.710   1.957   3.152
 9658SOL    HW129873   5.758   1.874   3.121
 9658SOL    HW229874   5.739   2.035   3.096
 9659SOL     OW29875   0.939   4.979   0.085
 9659SOL    HW129876   0.910   4.975   0.181
 9659SOL    HW229877   0.953   5.074   0.058
 9660SOL     OW29878   0.368   5.017   0.720
 9660SOL    HW129879   0.300   5.063   0.777
 9660SOL    HW229880   0.321   4.959   0.653
 9661SOL     OW29881   4.592   6.547   0.838
 9661SOL    HW129882   4.656   6.489   0.787
 9661SOL    HW229883   4.501   6.507   0.834
 9662SOL     OW29884   4.870   0.995   4.384
 9662SOL    HW129885   4.892   0.999   4.481
 9662SOL    HW229886   4.800   1.063   4.363
 9663SOL     OW29887   2.277   6.217   3.203
 9663SOL    HW129888   2.296   6.201   3.300
 9663SOL    HW229889   2.305   6.137   3.150
 9664SOL     OW29890   2.449   5.878   1.616
 9664SOL    HW129891   2.423   5.783   1.597
 9664SOL    HW229892   2.507   5.881   1.698
 9665SOL     OW29893   5.139   4.231   3.846
 9665SOL    HW129894   5.111   4.326   3.831
 9665SOL    HW229895   5.084   4.171   3.789
 9666SOL     OW29896   5.581   4.453   4.663
 9666SOL    HW129897   5.656   4.431   4.601
 9666SOL    HW229898   5.512   4.508   4.616
 9667SOL     OW29899   3.713   3.335   3.327
 9667SOL    HW129900   3.764   3.314   3.244
 9667SOL    HW229901   3.751   3.284   3.404
 9668SOL     OW29902   0.733   1.090   5.137
 9668SOL    HW129903   0.653   1.148   5.120
 9668SOL    HW229904   0.725   1.005   5.085
 9669SOL     OW29905   1.941   6.424   0.297
 9669SOL    HW129906   1.876   6.356   0.332
 9669SOL    HW229907   1.962   6.405   0.201
 9670SOL     OW29908   6.316   4.631   6.639
 9670SOL    HW129909   6.276   4.573   6.710
 9670SOL    HW229910   6.395   4.680   6.676
 9671SOL     OW29911   0.486   0.585   0.143
 9671SOL    HW129912   0.441   0.503   0.180
 9671SOL    HW229913   0.488   0.579   0.043
 9672SOL     OW29914   1.047   6.636   4.694
 9672SOL    HW129915   1.060   6.539   4.674
 9672SOL    HW229916   1.109   6.690   4.637
 9673SOL     OW29917   2.382   2.436   6.172
 9673SOL    HW129918   2.344   2.516   6.218
 9673SOL    HW229919   2.422   2.463   6.085
 9674SOL     OW29920   2.402   6.825   2.221
 9674SOL    HW129921   2.433   6.740   2.178
 9674SOL    HW229922   2.327   6.863   2.167
 9675SOL     OW29923   0.217   2.472   1.808
 9675SOL    HW129924   0.244   2.398   1.747
 9675SOL    HW229925   0.143   2.441   1.868
 9676SOL     OW29926   0.275   3.478   5.212
 9676SOL    HW129927   0.337   3.527   5.273
 9676SOL    HW229928   0.327   3.433   5.140
 9677SOL     OW29929   1.856   3.273   5.061
 9677SOL    HW129930   1.784   3.221   5.015
 9677SOL    HW229931   1.944   3.229   5.044
 9678SOL     OW29932   3.797   3.301   3.065
 9678SOL    HW129933   3.748   3.320   2.980
 9678SOL    HW229934   3.840   3.211   3.059
 9679SOL     OW29935   0.651   3.498   0.794
 9679SOL    HW129936   0.676   3.553   0.874
 9679SOL    HW229937   0.682   3.544   0.711
 9680SOL     OW29938   5.356   5.021   3.303
 9680SOL    HW129939   5.411   5.066   3.373
 9680SOL    HW229940   5.416   4.973   3.239
 9681SOL     OW29941   0.945   1.346   4.162
 9681SOL    HW129942   0.869   1.307   4.110
 9681SOL    HW229943   0.994   1.412   4.105
 9682SOL     OW29944   0.229   4.919   3.029
 9682SOL    HW129945   0.217   4.933   2.931
 9682SOL    HW229946   0.291   4.988   3.066
 9683SOL     OW29947   4.337   6.389   6.416
 9683SOL    HW129948   4.298   6.479   6.431
 9683SOL    HW229949   4.317   6.359   6.322
 9684SOL     OW29950   0.783   4.085   3.437
 9684SOL    HW129951   0.872   4.041   3.445
 9684SOL    HW229952   0.747   4.104   3.528
 9685SOL     OW29953   1.363   2.582   0.113
 9685SOL    HW129954   1.409   2.523   0.047
 9685SOL    HW229955   1.323   2.526   0.186
 9686SOL     OW29956   5.587   0.607   1.605
 9686SOL    HW129957   5.501   0.555   1.596
 9686SOL    HW229958   5.575   0.698   1.567
 9687SOL     OW29959   3.757   1.069   4.097
 9687SOL    HW129960   3.735   0.982   4.053
 9687SOL    HW229961   3.785   1.136   4.027
 9688SOL     OW29962   6.464   1.813   4.025
 9688SOL    HW129963   6.543   1.775   4.073
 9688SOL    HW229964   6.496   1.865   3.946
 9689SOL     OW29965   1.614   5.983   6.101
 9689SOL    HW129966   1.624   5.896   6.053
 9689SOL    HW229967   1.596   6.056   6.035
 9690SOL     OW29968   6.051   4.294   0.576
 9690SOL    HW129969   6.061   4.332   0.669
 9690SOL    HW229970   5.959   4.313   0.542
 9691SOL     OW29971   1.409   4.210   1.622
 9691SOL    HW129972   1.309   4.202   1.629
 9691SOL    HW229973   1.435   4.306   1.623
 9692SOL     OW29974   2.367   5.790   0.838
 9692SOL    HW129975   2.387   5.858   0.767
 9692SOL    HW229976   2.393   5.699   0.806
 9693SOL     OW29977   6.217   5.243   1.738
 9693SOL    HW129978   6.178   5.257   1.647
 9693SOL    HW229979   6.187   5.154   1.774
 9694SOL     OW29980   1.618   1.931   0.288
 9694SOL    HW129981   1.667   1.912   0.203
 9694SOL    HW229982   1.683   1.960   0.359
 9695SOL     OW29983   6.183   3.931   0.974
 9695SOL    HW129984   6.117   3.878   1.029
 9695SOL    HW229985   6.151   4.025   0.965
 9696SOL     OW29986   3.807   3.828   0.990
 9696SOL    HW129987   3.745   3.861   1.061
 9696SOL    HW229988   3.877   3.897   0.972
 9697SOL     OW29989   0.636   6.289   6.490
 9697SOL    HW129990   0.587   6.276   6.403
 9697SOL    HW229991   0.663   6.385   6.498
 9698SOL     OW29992   5.493   1.576   5.469
 9698SOL    HW129993   5.459   1.610   5.556
 9698SOL    HW229994   5.417   1.560   5.407
 9699SOL     OW29995   1.849   2.978   0.273
 9699SOL    HW129996   1.874   3.069   0.305
 9699SOL    HW229997   1.814   2.924   0.350
 9700SOL     OW29998   3.134   4.047   4.029
 9700SOL    HW129999   3.201   3.977   4.053
 9700SOL    HW230000   3.154   4.131   4.079
 9701SOL     OW30001   4.702   4.207   5.121
 9701SOL    HW130002   4.797   4.234   5.103
 9701SOL    HW230003   4.680   4.127   5.066
 9702SOL     OW30004   4.458   7.019   0.527
 9702SOL    HW130005   4.428   0.007   0.433
 9702SOL    HW230006   4.475   0.085   0.568
 9703SOL     OW30007   3.225   6.255   4.090
 9703SOL    HW130008   3.249   6.261   3.993
 9703SOL    HW230009   3.286   6.314   4.143
 9704SOL     OW30010   2.778   0.502   3.703
 9704SOL    HW130011   2.842   0.546   3.640
 9704SOL    HW230012   2.685   0.524   3.675
 9705SOL     OW30013   3.956   3.887   0.621
 9705SOL    HW130014   4.045   3.932   0.628
 9705SOL    HW230015   3.888   3.954   0.591
 9706SOL     OW30016   5.827   2.538   2.815
 9706SOL    HW130017   5.808   2.490   2.729
 9706SOL    HW230018   5.766   2.617   2.823
 9707SOL     OW30019   2.873   5.531   3.084
 9707SOL    HW130020   2.937   5.471   3.036
 9707SOL    HW230021   2.902   5.626   3.074
 9708SOL     OW30022   2.168   1.864   2.630
 9708SOL    HW130023   2.112   1.782   2.617
 9708SOL    HW230024   2.145   1.931   2.559
 9709SOL     OW30025   1.964   4.989   3.031
 9709SOL    HW130026   2.063   4.994   3.032
 9709SOL    HW230027   1.925   5.081   3.024
 9710SOL     OW30028   0.246   0.461   3.727
 9710SOL    HW130029   0.205   0.443   3.816
 9710SOL    HW230030   0.174   0.476   3.659
 9711SOL     OW30031   1.429   3.559   5.892
 9711SOL    HW130032   1.453   3.560   5.795
 9711SOL    HW230033   1.512   3.554   5.947
 9712SOL     OW30034   4.715   2.827   4.630
 9712SOL    HW130035   4.757   2.896   4.688
 9712SOL    HW230036   4.646   2.871   4.572
 9713SOL     OW30037   6.876   5.379   2.465
 9713SOL    HW130038   6.860   5.389   2.563
 9713SOL    HW230039   6.802   5.327   2.423
 9714SOL     OW30040   1.359   2.558   2.124
 9714SOL    HW130041   1.406   2.607   2.050
 9714SOL    HW230042   1.354   2.461   2.102
 9715SOL     OW30043   5.619   5.427   5.122
 9715SOL    HW130044   5.683   5.414   5.198
 9715SOL    HW230045   5.541   5.482   5.153
 9716SOL     OW30046   4.011   2.335   6.387
 9716SOL    HW130047   3.940   2.291   6.332
 9716SOL    HW230048   4.040   2.420   6.342
 9717SOL     OW30049   6.265   4.820   3.148
 9717SOL    HW130050   6.350   4.860   3.180
 9717SOL    HW230051   6.218   4.775   3.224
 9718SOL     OW30052   4.502   3.391   1.684
 9718SOL    HW130053   4.571   3.376   1.614
 9718SOL    HW230054   4.486   3.489   1.694
 9719SOL     OW30055   0.345   1.469   0.558
 9719SOL    HW130056   0.339   1.429   0.650
 9719SOL    HW230057   0.441   1.493   0.539
 9720SOL     OW30058   0.725   0.318   0.964
 9720SOL    HW130059   0.672   0.361   0.890
 9720SOL    HW230060   0.666   0.254   1.014
 9721SOL     OW30061   6.554   3.190   2.628
 9721SOL    HW130062   6.457   3.212   2.629
 9721SOL    HW230063   6.596   3.226   2.544
 9722SOL     OW30064   6.632   0.391   4.479
 9722SOL    HW130065   6.645   0.446   4.562
 9722SOL    HW230066   6.570   0.316   4.499
 9723SOL     OW30067   6.693   1.275   3.589
 9723SOL    HW130068   6.665   1.181   3.609
 9723SOL    HW230069   6.654   1.336   3.658
 9724SOL     OW30070   3.853   3.004   1.221
 9724SOL    HW130071   3.755   2.999   1.241
 9724SOL    HW230072   3.905   2.978   1.302
 9725SOL     OW30073   4.629   3.434   5.591
 9725SOL    HW130074   4.690   3.359   5.563
 9725SOL    HW230075   4.607   3.490   5.512
 9726SOL     OW30076   6.020   5.533   5.028
 9726SOL    HW130077   6.101   5.588   5.005
 9726SOL    HW230078   6.028   5.443   4.986
 9727SOL     OW30079   1.257   1.514   6.470
 9727SOL    HW130080   1.336   1.566   6.500
 9727SOL    HW230081   1.274   1.478   6.378
 9728SOL     OW30082   3.038   5.651   0.216
 9728SOL    HW130083   3.018   5.749   0.211
 9728SOL    HW230084   3.005   5.606   0.133
 9729SOL     OW30085   2.526   5.151   2.485
 9729SOL    HW130086   2.487   5.232   2.441
 9729SOL    HW230087   2.598   5.179   2.549
 9730SOL     OW30088   5.846   3.733   3.001
 9730SOL    HW130089   5.813   3.780   2.919
 9730SOL    HW230090   5.866   3.800   3.072
 9731SOL     OW30091   5.112   5.770   1.109
 9731SOL    HW130092   5.196   5.795   1.157
 9731SOL    HW230093   5.119   5.797   1.013
 9732SOL     OW30094   6.451   5.230   3.797
 9732SOL    HW130095   6.396   5.206   3.877
 9732SOL    HW230096   6.467   5.147   3.743
 9733SOL     OW30097   5.815   4.372   6.460
 9733SOL    HW130098   5.739   4.331   6.511
 9733SOL    HW230099   5.882   4.301   6.437
 9734SOL     OW30100   5.310   2.730   4.801
 9734SOL    HW130101   5.298   2.702   4.706
 9734SOL    HW230102   5.328   2.649   4.858
 9735SOL     OW30103   2.661   4.086   0.305
 9735SOL    HW130104   2.679   4.017   0.235
 9735SOL    HW230105   2.604   4.046   0.377
 9736SOL     OW30106   3.351   1.380   1.807
 9736SOL    HW130107   3.421   1.447   1.833
 9736SOL    HW230108   3.382   1.331   1.725
 9737SOL     OW30109   4.117   2.199   4.927
 9737SOL    HW130110   4.135   2.289   4.966
 9737SOL    HW230111   4.153   2.128   4.988
 9738SOL     OW30112   1.962   0.697   2.021
 9738SOL    HW130113   1.993   0.667   1.931
 9738SOL    HW230114   1.862   0.694   2.024
 9739SOL     OW30115   5.338   4.956   1.728
 9739SOL    HW130116   5.334   4.950   1.628
 9739SOL    HW230117   5.409   5.021   1.754
 9740SOL     OW30118   6.420   3.474   3.521
 9740SOL    HW130119   6.492   3.525   3.568
 9740SOL    HW230120   6.451   3.449   3.429
 9741SOL     OW30121   3.662   1.931   1.503
 9741SOL    HW130122   3.613   1.903   1.586
 9741SOL    HW230123   3.680   1.851   1.447
 9742SOL     OW30124   4.664   1.666   3.902
 9742SOL    HW130125   4.718   1.609   3.840
 9742SOL    HW230126   4.567   1.648   3.887
 9743SOL     OW30127   1.614   1.661   5.391
 9743SOL    HW130128   1.689   1.668   5.326
 9743SOL    HW230129   1.636   1.714   5.473
 9744SOL     OW30130   2.043   0.768   1.651
 9744SOL    HW130131   2.102   0.776   1.732
 9744SOL    HW230132   2.076   0.829   1.579
 9745SOL     OW30133   6.922   1.498   4.934
 9745SOL    HW130134   6.845   1.434   4.931
 9745SOL    HW230135   6.999   1.458   4.883
 9746SOL     OW30136   6.070   0.930   3.981
 9746SOL    HW130137   6.083   0.993   4.058
 9746SOL    HW230138   6.149   0.869   3.974
 9747SOL     OW30139   0.443   0.075   6.798
 9747SOL    HW130140   0.416   0.007   6.866
 9747SOL    HW230141   0.374   0.147   6.794
 9748SOL     OW30142   0.755   4.983   4.338
 9748SOL    HW130143   0.813   5.062   4.357
 9748SOL    HW230144   0.696   4.965   4.416
 9749SOL     OW30145   0.465   3.915   4.339
 9749SOL    HW130146   0.549   3.965   4.360
 9749SOL    HW230147   0.464   3.891   4.242
 9750SOL     OW30148   3.620   5.495   3.229
 9750SOL    HW130149   3.593   5.418   3.287
 9750SOL    HW230150   3.714   5.481   3.198
 9751SOL     OW30151   1.713   2.559   0.470
 9751SOL    HW130152   1.734   2.645   0.424
 9751SOL    HW230153   1.798   2.518   0.503
 9752SOL     OW30154   3.520   2.137   5.836
 9752SOL    HW130155   3.431   2.175   5.811
 9752SOL    HW230156   3.512   2.037   5.845
 9753SOL     OW30157   6.740   6.070   5.366
 9753SOL    HW130158   6.685   6.066   5.283
 9753SOL    HW230159   6.823   6.122   5.348
 9754SOL     OW30160   7.018   2.444   6.595
 9754SOL    HW130161   6.939   2.413   6.542
 9754SOL    HW230162   7.006   2.540   6.619
 9755SOL     OW30163   3.726   5.014   5.493
 9755SOL    HW130164   3.720   4.915   5.498
 9755SOL    HW230165   3.814   5.040   5.454
 9756SOL     OW30166   5.182   2.525   5.652
 9756SOL    HW130167   5.206   2.617   5.623
 9756SOL    HW230168   5.265   2.472   5.668
 9757SOL     OW30169   6.211   1.764   3.731
 9757SOL    HW130170   6.213   1.762   3.831
 9757SOL    HW230171   6.130   1.714   3.699
 9758SOL     OW30172   3.105   0.635   0.084
 9758SOL    HW130173   3.136   0.714   0.031
 9758SOL    HW230174   3.057   0.571   0.024
 9759SOL     OW30175   2.915   5.953   1.077
 9759SOL    HW130176   2.867   5.948   0.989
 9759SOL    HW230177   2.912   6.047   1.111
 9760SOL     OW30178   5.775   4.427   5.974
 9760SOL    HW130179   5.744   4.343   6.020
 9760SOL    HW230180   5.720   4.504   6.004
 9761SOL     OW30181   5.114   5.447   2.659
 9761SOL    HW130182   5.196   5.418   2.708
 9761SOL    HW230183   5.096   5.544   2.677
 9762SOL     OW30184   3.019   1.160   3.330
 9762SOL    HW130185   3.046   1.251   3.362
 9762SOL    HW230186   3.082   1.092   3.369
 9763SOL     OW30187   1.931   1.597   1.756
 9763SOL    HW130188   1.967   1.563   1.842
 9763SOL    HW230189   1.840   1.560   1.740
 9764SOL     OW30190   1.288   2.965   2.064
 9764SOL    HW130191   1.311   2.879   2.018
 9764SOL    HW230192   1.209   2.950   2.124
 9765SOL     OW30193   0.319   1.126   5.031
 9765SOL    HW130194   0.369   1.066   4.969
 9765SOL    HW230195   0.379   1.152   5.107
 9766SOL     OW30196   2.304   0.123   2.555
 9766SOL    HW130197   2.368   0.070   2.611
 9766SOL    HW230198   2.338   0.216   2.543
 9767SOL     OW30199   5.141   0.191   5.500
 9767SOL    HW130200   5.041   0.184   5.505
 9767SOL    HW230201   5.180   0.101   5.480
 9768SOL     OW30202   5.010   2.806   3.727
 9768SOL    HW130203   5.106   2.816   3.701
 9768SOL    HW230204   5.004   2.760   3.816
 9769SOL     OW30205   0.630   1.679   1.734
 9769SOL    HW130206   0.585   1.590   1.730
 9769SOL    HW230207   0.636   1.716   1.641
 9770SOL     OW30208   6.533   4.074   6.174
 9770SOL    HW130209   6.493   4.164   6.190
 9770SOL    HW230210   6.460   4.005   6.173
 9771SOL     OW30211   2.908   5.190   4.099
 9771SOL    HW130212   2.854   5.132   4.161
 9771SOL    HW230213   3.003   5.190   4.130
 9772SOL     OW30214   6.863   0.177   1.471
 9772SOL    HW130215   6.802   0.177   1.551
 9772SOL    HW230216   6.813   0.210   1.391
 9773SOL     OW30217   5.129   5.248   3.473
 9773SOL    HW130218   5.103   5.154   3.454
 9773SOL    HW230219   5.167   5.290   3.391
 9774SOL     OW30220   0.074   4.732   3.460
 9774SOL    HW130221   0.152   4.748   3.400
 9774SOL    HW230222   0.094   4.770   3.551
 9775SOL     OW30223   2.891   2.161   5.068
 9775SOL    HW130224   2.855   2.078   5.025
 9775SOL    HW230225   2.984   2.178   5.035
 9776SOL     OW30226   0.532   4.378   4.348
 9776SOL    HW130227   0.536   4.472   4.313
 9776SOL    HW230228   0.544   4.378   4.447
 9777SOL     OW30229   5.937   5.219   6.213
 9777SOL    HW130230   5.915   5.173   6.127
 9777SOL    HW230231   5.935   5.152   6.288
 9778SOL     OW30232   4.199   0.783   4.000
 9778SOL    HW130233   4.166   0.771   3.907
 9778SOL    HW230234   4.172   0.873   4.034
 9779SOL     OW30235   2.660   1.936   6.531
 9779SOL    HW130236   2.561   1.926   6.520
 9779SOL    HW230237   2.698   1.977   6.448
 9780SOL     OW30238   3.335   3.974   0.445
 9780SOL    HW130239   3.361   3.905   0.513
 9780SOL    HW230240   3.284   4.048   0.491
 9781SOL     OW30241   1.632   6.534   4.292
 9781SOL    HW130242   1.542   6.510   4.257
 9781SOL    HW230243   1.687   6.452   4.302
 9782SOL     OW30244   5.802   0.405   1.255
 9782SOL    HW130245   5.737   0.366   1.319
 9782SOL    HW230246   5.756   0.425   1.169
 9783SOL     OW30247   6.190   1.159   2.881
 9783SOL    HW130248   6.187   1.210   2.967
 9783SOL    HW230249   6.097   1.139   2.851
 9784SOL     OW30250   5.831   0.873   4.430
 9784SOL    HW130251   5.739   0.834   4.437
 9784SOL    HW230252   5.851   0.928   4.511
 9785SOL     OW30253   0.460   3.029   0.647
 9785SOL    HW130254   0.388   3.011   0.579
 9785SOL    HW230255   0.547   2.994   0.612
 9786SOL     OW30256   2.243   0.191   5.260
 9786SOL    HW130257   2.226   0.127   5.335
 9786SOL    HW230258   2.225   0.284   5.292
 9787SOL     OW30259   6.100   4.541   1.127
 9787SOL    HW130260   6.030   4.479   1.161
 9787SOL    HW230261   6.181   4.489   1.102
 9788SOL     OW30262   7.005   0.901   5.236
 9788SOL    HW130263   0.062   0.853   5.202
 9788SOL    HW230264   7.019   1.000   5.228
 9789SOL     OW30265   1.501   5.428   4.331
 9789SOL    HW130266   1.523   5.354   4.395
 9789SOL    HW230267   1.523   5.516   4.374
 9790SOL     OW30268   6.819   0.956   4.207
 9790SOL    HW130269   6.851   1.050   4.194
 9790SOL    HW230270   6.778   0.923   4.122
 9791SOL     OW30271   1.142   2.656   1.370
 9791SOL    HW130272   1.176   2.566   1.395
 9791SOL    HW230273   1.052   2.647   1.326
 9792SOL     OW30274   4.070   5.679   1.804
 9792SOL    HW130275   4.104   5.767   1.838
 9792SOL    HW230276   4.012   5.636   1.873
 9793SOL     OW30277   5.312   6.179   2.328
 9793SOL    HW130278   5.366   6.183   2.412
 9793SOL    HW230279   5.243   6.252   2.329
 9794SOL     OW30280   2.732   3.404   6.748
 9794SOL    HW130281   2.660   3.340   6.720
 9794SOL    HW230282   2.699   3.498   6.735
 9795SOL     OW30283   2.445   4.750   4.238
 9795SOL    HW130284   2.391   4.828   4.208
 9795SOL    HW230285   2.460   4.756   4.337
 9796SOL     OW30286   3.653   4.194   0.795
 9796SOL    HW130287   3.583   4.142   0.845
 9796SOL    HW230288   3.615   4.226   0.708
 9797SOL     OW30289   5.102   3.028   4.821
 9797SOL    HW130290   5.138   3.112   4.780
 9797SOL    HW230291   5.158   3.002   4.899
 9798SOL     OW30292   2.295   1.699   1.801
 9798SOL    HW130293   2.345   1.705   1.714
 9798SOL    HW230294   2.250   1.611   1.808
 9799SOL     OW30295   2.960   3.743   2.266
 9799SOL    HW130296   3.040   3.758   2.208
 9799SOL    HW230297   2.964   3.805   2.345
 9800SOL     OW30298   3.745   5.059   0.170
 9800SOL    HW130299   3.833   5.032   0.130
 9800SOL    HW230300   3.689   4.977   0.184
 9801SOL     OW30301   5.083   5.401   0.539
 9801SOL    HW130302   5.076   5.361   0.631
 9801SOL    HW230303   5.172   5.379   0.500
 9802SOL     OW30304   0.989   5.220   1.614
 9802SOL    HW130305   0.965   5.144   1.554
 9802SOL    HW230306   0.906   5.258   1.656
 9803SOL     OW30307   4.739   0.427   6.463
 9803SOL    HW130308   4.723   0.371   6.382
 9803SOL    HW230309   4.653   0.444   6.510
 9804SOL     OW30310   5.485   5.345   4.206
 9804SOL    HW130311   5.419   5.326   4.280
 9804SOL    HW230312   5.563   5.283   4.215
 9805SOL     OW30313   3.610   4.455   1.261
 9805SOL    HW130314   3.521   4.409   1.264
 9805SOL    HW230315   3.680   4.395   1.299
 9806SOL     OW30316   6.992   1.787   2.547
 9806SOL    HW130317   7.012   1.812   2.452
 9806SOL    HW230318   0.046   1.738   2.586
 9807SOL     OW30319   2.838   2.981   0.930
 9807SOL    HW130320   2.926   3.021   0.959
 9807SOL    HW230321   2.782   3.052   0.887
 9808SOL     OW30322   1.569   2.064   4.942
 9808SOL    HW130323   1.525   2.112   4.866
 9808SOL    HW230324   1.608   1.978   4.909
 9809SOL     OW30325   0.690   0.666   4.534
 9809SOL    HW130326   0.669   0.575   4.570
 9809SOL    HW230327   0.788   0.684   4.543
 9810SOL     OW30328   4.493   1.764   2.817
 9810SOL    HW130329   4.519   1.861   2.824
 9810SOL    HW230330   4.528   1.715   2.897
 9811SOL     OW30331   1.065   0.326   2.677
 9811SOL    HW130332   1.090   0.257   2.609
 9811SOL    HW230333   1.124   0.406   2.667
 9812SOL     OW30334   5.546   2.727   5.341
 9812SOL    HW130335   5.510   2.661   5.406
 9812SOL    HW230336   5.519   2.819   5.368
 9813SOL     OW30337   6.341   4.441   0.771
 9813SOL    HW130338   6.242   4.445   0.759
 9813SOL    HW230339   6.362   4.423   0.868
 9814SOL     OW30340   6.850   0.744   5.652
 9814SOL    HW130341   6.886   0.836   5.663
 9814SOL    HW230342   6.926   0.679   5.648
 9815SOL     OW30343   0.291   3.999   2.666
 9815SOL    HW130344   0.290   3.902   2.641
 9815SOL    HW230345   0.209   4.044   2.631
 9816SOL     OW30346   6.006   0.833   6.095
 9816SOL    HW130347   5.979   0.868   6.185
 9816SOL    HW230348   5.963   0.889   6.024
 9817SOL     OW30349   2.402   0.807   0.594
 9817SOL    HW130350   2.449   0.879   0.643
 9817SOL    HW230351   2.319   0.780   0.644
 9818SOL     OW30352   0.337   6.824   2.921
 9818SOL    HW130353   0.276   6.872   2.858
 9818SOL    HW230354   0.298   6.734   2.942
 9819SOL     OW30355   6.745   2.236   4.499
 9819SOL    HW130356   6.647   2.221   4.486
 9819SOL    HW230357   6.759   2.288   4.584
 9820SOL     OW30358   3.479   2.228   6.190
 9820SOL    HW130359   3.529   2.155   6.236
 9820SOL    HW230360   3.543   2.279   6.131
 9821SOL     OW30361   3.928   2.809   0.534
 9821SOL    HW130362   3.977   2.764   0.609
 9821SOL    HW230363   3.914   2.905   0.557
 9822SOL     OW30364   3.350   5.481   4.221
 9822SOL    HW130365   3.273   5.527   4.265
 9822SOL    HW230366   3.424   5.547   4.206
 9823SOL     OW30367   3.960   6.519   3.529
 9823SOL    HW130368   3.958   6.427   3.570
 9823SOL    HW230369   4.042   6.528   3.472
 9824SOL     OW30370   1.604   5.753   5.466
 9824SOL    HW130371   1.575   5.663   5.434
 9824SOL    HW230372   1.562   5.771   5.555
 9825SOL     OW30373   0.219   6.167   5.206
 9825SOL    HW130374   0.293   6.134   5.148
 9825SOL    HW230375   0.154   6.093   5.224
 9826SOL     OW30376   1.844   5.630   5.828
 9826SOL    HW130377   1.780   5.554   5.827
 9826SOL    HW230378   1.843   5.676   5.740
 9827SOL     OW30379   2.240   4.706   1.737
 9827SOL    HW130380   2.338   4.686   1.745
 9827SOL    HW230381   2.188   4.636   1.785
 9828SOL     OW30382   4.480   2.111   4.992
 9828SOL    HW130383   4.563   2.063   5.017
 9828SOL    HW230384   4.468   2.109   4.893
 9829SOL     OW30385   5.420   4.675   5.392
 9829SOL    HW130386   5.509   4.631   5.406
 9829SOL    HW230387   5.393   4.663   5.296
 9830SOL     OW30388   5.841   1.556   3.677
 9830SOL    HW130389   5.799   1.641   3.711
 9830SOL    HW230390   5.922   1.579   3.623
 9831SOL     OW30391   0.469   4.339   1.994
 9831SOL    HW130392   0.567   4.319   1.994
 9831SOL    HW230393   0.442   4.368   2.086
 9832SOL     OW30394   4.878   5.637   4.613
 9832SOL    HW130395   4.916   5.730   4.615
 9832SOL    HW230396   4.920   5.586   4.538
 9833SOL     OW30397   4.067   3.269   4.487
 9833SOL    HW130398   4.118   3.325   4.553
 9833SOL    HW230399   4.059   3.318   4.401
 9834SOL     OW30400   3.338   5.764   5.650
 9834SOL    HW130401   3.239   5.754   5.643
 9834SOL    HW230402   3.379   5.676   5.673
 9835SOL     OW30403   4.079   3.603   3.724
 9835SOL    HW130404   3.982   3.610   3.745
 9835SOL    HW230405   4.103   3.671   3.654
 9836SOL     OW30406   6.627   3.253   5.470
 9836SOL    HW130407   6.620   3.331   5.407
 9836SOL    HW230408   6.629   3.168   5.416
 9837SOL     OW30409   6.245   1.319   3.108
 9837SOL    HW130410   6.316   1.278   3.166
 9837SOL    HW230411   6.232   1.415   3.134
 9838SOL     OW30412   0.318   5.948   0.757
 9838SOL    HW130413   0.350   5.881   0.690
 9838SOL    HW230414   0.280   5.901   0.836
 9839SOL     OW30415   4.896   6.278   3.424
 9839SOL    HW130416   4.974   6.228   3.463
 9839SOL    HW230417   4.928   6.366   3.390
 9840SOL     OW30418   6.296   1.583   6.347
 9840SOL    HW130419   6.384   1.628   6.365
 9840SOL    HW230420   6.277   1.585   6.249
 9841SOL     OW30421   6.786   5.870   2.640
 9841SOL    HW130422   6.816   5.864   2.545
 9841SOL    HW230423   6.827   5.951   2.683
 9842SOL     OW30424   3.347   0.398   0.253
 9842SOL    HW130425   3.285   0.385   0.330
 9842SOL    HW230426   3.304   0.364   0.169
 9843SOL     OW30427   6.832   0.488   1.197
 9843SOL    HW130428   6.871   0.400   1.169
 9843SOL    HW230429   6.888   0.527   1.270
 9844SOL     OW30430   5.028   0.616   5.552
 9844SOL    HW130431   5.117   0.573   5.538
 9844SOL    HW230432   4.972   0.602   5.470
 9845SOL     OW30433   0.894   3.879   2.177
 9845SOL    HW130434   0.947   3.928   2.109
 9845SOL    HW230435   0.955   3.845   2.249
 9846SOL     OW30436   5.801   1.832   1.838
 9846SOL    HW130437   5.728   1.831   1.906
 9846SOL    HW230438   5.768   1.791   1.753
 9847SOL     OW30439   4.121   4.346   6.697
 9847SOL    HW130440   4.137   4.391   6.785
 9847SOL    HW230441   4.127   4.247   6.708
 9848SOL     OW30442   3.293   4.034   5.461
 9848SOL    HW130443   3.379   4.073   5.494
 9848SOL    HW230444   3.269   4.075   5.373
 9849SOL     OW30445   1.985   2.287   3.806
 9849SOL    HW130446   1.896   2.334   3.807
 9849SOL    HW230447   1.988   2.223   3.730
 9850SOL     OW30448   1.152   0.226   4.296
 9850SOL    HW130449   1.250   0.206   4.294
 9850SOL    HW230450   1.111   0.197   4.209
 9851SOL     OW30451   3.925   5.928   3.700
 9851SOL    HW130452   3.861   5.875   3.645
 9851SOL    HW230453   3.958   6.006   3.646
 9852SOL     OW30454   1.974   6.313   0.040
 9852SOL    HW130455   2.001   6.400   7.022
 9852SOL    HW230456   1.951   6.247   6.992
 9853SOL     OW30457   0.394   4.259   3.817
 9853SOL    HW130458   0.465   4.248   3.748
 9853SOL    HW230459   0.435   4.257   3.908
 9854SOL     OW30460   6.544   3.689   6.964
 9854SOL    HW130461   6.535   3.776   7.013
 9854SOL    HW230462   6.635   3.652   6.981
 9855SOL     OW30463   0.414   6.218   0.200
 9855SOL    HW130464   0.339   6.275   0.234
 9855SOL    HW230465   0.440   6.152   0.270
 9856SOL     OW30466   5.135   3.690   2.935
 9856SOL    HW130467   5.068   3.724   3.001
 9856SOL    HW230468   5.088   3.660   2.852
 9857SOL     OW30469   4.815   0.360   5.801
 9857SOL    HW130470   4.798   0.457   5.784
 9857SOL    HW230471   4.760   0.330   5.879
 9858SOL     OW30472   6.371   6.129   2.537
 9858SOL    HW130473   6.376   6.040   2.583
 9858SOL    HW230474   6.290   6.131   2.479
 9859SOL     OW30475   0.806   5.485   2.605
 9859SOL    HW130476   0.729   5.451   2.659
 9859SOL    HW230477   0.773   5.514   2.515
 9860SOL     OW30478   1.464   3.254   3.991
 9860SOL    HW130479   1.477   3.264   4.090
 9860SOL    HW230480   1.550   3.275   3.944
 9861SOL     OW30481   3.817   2.166   3.415
 9861SOL    HW130482   3.910   2.128   3.411
 9861SOL    HW230483   3.779   2.153   3.506
 9862SOL     OW30484   1.743   3.403   6.466
 9862SOL    HW130485   1.697   3.492   6.463
 9862SOL    HW230486   1.822   3.404   6.403
 9863SOL     OW30487   4.539   6.591   2.128
 9863SOL    HW130488   4.455   6.631   2.163
 9863SOL    HW230489   4.557   6.503   2.172
 9864SOL     OW30490   2.537   6.396   5.246
 9864SOL    HW130491   2.626   6.433   5.276
 9864SOL    HW230492   2.485   6.366   5.325
 9865SOL     OW30493   2.047   5.744   5.443
 9865SOL    HW130494   2.132   5.788   5.471
 9865SOL    HW230495   2.051   5.647   5.467
 9866SOL     OW30496   6.443   5.279   5.818
 9866SOL    HW130497   6.496   5.224   5.754
 9866SOL    HW230498   6.352   5.237   5.830
 9867SOL     OW30499   4.245   1.346   1.740
 9867SOL    HW130500   4.171   1.372   1.802
 9867SOL    HW230501   4.324   1.315   1.793
 9868SOL     OW30502   2.300   4.707   3.877
 9868SOL    HW130503   2.329   4.617   3.911
 9868SOL    HW230504   2.344   4.779   3.931
 9869SOL     OW30505   6.907   2.388   2.144
 9869SOL    HW130506   6.945   2.395   2.051
 9869SOL    HW230507   6.897   2.480   2.182
 9870SOL     OW30508   1.954   2.018   2.954
 9870SOL    HW130509   1.861   2.045   2.931
 9870SOL    HW230510   1.964   1.919   2.945
 9871SOL     OW30511   5.512   5.792   3.406
 9871SOL    HW130512   5.585   5.781   3.473
 9871SOL    HW230513   5.536   5.742   3.323
 9872SOL     OW30514   0.642   5.928   5.540
 9872SOL    HW130515   0.615   5.878   5.622
 9872SOL    HW230516   0.603   5.884   5.459
 9873SOL     OW30517   0.974   1.058   5.421
 9873SOL    HW130518   1.073   1.061   5.430
 9873SOL    HW230519   0.937   0.994   5.489
 9874SOL     OW30520   0.157   2.546   3.724
 9874SOL    HW130521   0.156   2.461   3.777
 9874SOL    HW230522   0.084   2.606   3.757
 9875SOL     OW30523   6.239   6.224   0.720
 9875SOL    HW130524   6.299   6.157   0.675
 9875SOL    HW230525   6.159   6.240   0.662
 9876SOL     OW30526   0.047   6.790   3.911
 9876SOL    HW130527   0.059   6.715   3.975
 9876SOL    HW230528   6.976   6.791   3.878
 9877SOL     OW30529   0.943   6.220   4.876
 9877SOL    HW130530   0.874   6.261   4.936
 9877SOL    HW230531   0.899   6.182   4.795
 9878SOL     OW30532   3.586   2.743   6.729
 9878SOL    HW130533   3.575   2.791   6.642
 9878SOL    HW230534   3.588   2.809   6.804
 9879SOL     OW30535   6.523   5.771   4.593
 9879SOL    HW130536   6.424   5.764   4.606
 9879SOL    HW230537   6.546   5.743   4.500
 9880SOL     OW30538   3.211   1.133   1.188
 9880SOL    HW130539   3.223   1.083   1.103
 9880SOL    HW230540   3.232   1.230   1.173
 9881SOL     OW30541   6.098   0.537   3.246
 9881SOL    HW130542   6.101   0.553   3.147
 9881SOL    HW230543   6.061   0.446   3.264
 9882SOL     OW30544   3.431   3.236   4.817
 9882SOL    HW130545   3.526   3.239   4.847
 9882SOL    HW230546   3.372   3.219   4.896
 9883SOL     OW30547   1.887   6.451   2.322
 9883SOL    HW130548   1.897   6.452   2.421
 9883SOL    HW230549   1.825   6.377   2.295
 9884SOL     OW30550   3.297   2.557   5.357
 9884SOL    HW130551   3.251   2.474   5.328
 9884SOL    HW230552   3.264   2.635   5.304
 9885SOL     OW30553   4.380   2.452   5.618
 9885SOL    HW130554   4.332   2.390   5.555
 9885SOL    HW230555   4.472   2.417   5.635
 9886SOL     OW30556   2.759   6.141   1.457
 9886SOL    HW130557   2.730   6.058   1.409
 9886SOL    HW230558   2.702   6.218   1.427
 9887SOL     OW30559   3.349   0.904   0.288
 9887SOL    HW130560   3.367   0.901   0.190
 9887SOL    HW230561   3.256   0.937   0.303
 9888SOL     OW30562   6.072   6.900   3.643
 9888SOL    HW130563   6.062   6.934   3.737
 9888SOL    HW230564   6.079   6.978   3.581
 9889SOL     OW30565   6.927   5.308   3.008
 9889SOL    HW130566   6.862   5.364   3.059
 9889SOL    HW230567   7.015   5.307   3.055
 9890SOL     OW30568   1.248   3.348   2.896
 9890SOL    HW130569   1.249   3.352   2.996
 9890SOL    HW230570   1.247   3.252   2.867
 9891SOL     OW30571   4.761   6.399   1.970
 9891SOL    HW130572   4.747   6.326   2.037
 9891SOL    HW230573   4.737   6.366   1.879
 9892SOL     OW30574   1.618   5.863   3.725
 9892SOL    HW130575   1.592   5.949   3.770
 9892SOL    HW230576   1.590   5.866   3.629
 9893SOL     OW30577   5.887   4.399   5.595
 9893SOL    HW130578   5.929   4.456   5.524
 9893SOL    HW230579   5.956   4.337   5.632
 9894SOL     OW30580   4.389   4.000   5.300
 9894SOL    HW130581   4.292   3.978   5.309
 9894SOL    HW230582   4.399   4.099   5.283
 9895SOL     OW30583   5.336   2.070   6.276
 9895SOL    HW130584   5.302   2.001   6.213
 9895SOL    HW230585   5.377   2.145   6.224
 9896SOL     OW30586   3.891   3.506   6.690
 9896SOL    HW130587   3.881   3.512   6.790
 9896SOL    HW230588   3.988   3.494   6.668
 9897SOL     OW30589   0.499   1.661   3.150
 9897SOL    HW130590   0.432   1.716   3.200
 9897SOL    HW230591   0.529   1.585   3.207
 9898SOL     OW30592   1.189   4.823   0.002
 9898SOL    HW130593   1.152   4.916   0.008
 9898SOL    HW230594   1.261   4.821   6.956
 9899SOL     OW30595   4.365   5.169   2.267
 9899SOL    HW130596   4.284   5.174   2.208
 9899SOL    HW230597   4.426   5.246   2.247
 9900SOL     OW30598   2.114   4.586   4.115
 9900SOL    HW130599   2.167   4.514   4.070
 9900SOL    HW230600   2.065   4.547   4.193
 9901SOL     OW30601   1.795   2.105   5.790
 9901SOL    HW130602   1.859   2.153   5.730
 9901SOL    HW230603   1.743   2.172   5.844
 9902SOL     OW30604   4.469   3.778   6.499
 9902SOL    HW130605   4.497   3.741   6.588
 9902SOL    HW230606   4.549   3.784   6.439
 9903SOL     OW30607   3.096   1.765   1.484
 9903SOL    HW130608   3.130   1.855   1.511
 9903SOL    HW230609   3.104   1.702   1.561
 9904SOL     OW30610   0.213   6.645   2.682
 9904SOL    HW130611   0.145   6.637   2.754
 9904SOL    HW230612   0.298   6.601   2.711
 9905SOL     OW30613   1.881   6.765   5.801
 9905SOL    HW130614   1.926   6.839   5.851
 9905SOL    HW230615   1.899   6.678   5.847
 9906SOL     OW30616   3.222   3.827   6.013
 9906SOL    HW130617   3.224   3.829   5.913
 9906SOL    HW230618   3.313   3.803   6.048
 9907SOL     OW30619   1.460   6.947   2.852
 9907SOL    HW130620   1.421   6.868   2.804
 9907SOL    HW230621   1.393   7.022   2.853
 9908SOL     OW30622   6.247   3.080   5.691
 9908SOL    HW130623   6.222   3.028   5.609
 9908SOL    HW230624   6.182   3.155   5.703
 9909SOL     OW30625   3.660   6.985   2.304
 9909SOL    HW130626   3.602   6.920   2.256
 9909SOL    HW230627   3.674   0.042   2.246
 9910SOL     OW30628   1.020   5.145   0.920
 9910SOL    HW130629   1.099   5.194   0.957
 9910SOL    HW230630   1.045   5.049   0.905
 9911SOL     OW30631   3.752   4.853   3.096
 9911SOL    HW130632   3.672   4.792   3.106
 9911SOL    HW230633   3.723   4.948   3.109
 9912SOL     OW30634   4.461   7.016   1.047
 9912SOL    HW130635   4.393   0.001   0.974
 9912SOL    HW230636   4.553   7.016   1.007
 9913SOL     OW30637   4.850   2.421   2.878
 9913SOL    HW130638   4.841   2.486   2.803
 9913SOL    HW230639   4.769   2.425   2.936
 9914SOL     OW30640   2.418   5.514   4.588
 9914SOL    HW130641   2.425   5.415   4.584
 9914SOL    HW230642   2.416   5.544   4.683
 9915SOL     OW30643   6.317   4.146   4.224
 9915SOL    HW130644   6.366   4.232   4.237
 9915SOL    HW230645   6.368   4.071   4.267
 9916SOL     OW30646   2.894   3.959   0.447
 9916SOL    HW130647   2.938   3.942   0.535
 9916SOL    HW230648   2.796   3.975   0.462
 9917SOL     OW30649   2.178   3.069   4.876
 9917SOL    HW130650   2.261   3.034   4.918
 9917SOL    HW230651   2.194   3.163   4.845
 9918SOL     OW30652   2.476   0.717   4.397
 9918SOL    HW130653   2.569   0.717   4.361
 9918SOL    HW230654   2.478   0.702   4.496
 9919SOL     OW30655   0.900   5.190   2.036
 9919SOL    HW130656   0.839   5.133   2.090
 9919SOL    HW230657   0.859   5.208   1.946
 9920SOL     OW30658   4.387   6.929   2.689
 9920SOL    HW130659   4.410   6.839   2.728
 9920SOL    HW230660   4.313   6.919   2.623
 9921SOL     OW30661   4.936   0.429   2.749
 9921SOL    HW130662   4.906   0.520   2.774
 9921SOL    HW230663   4.962   0.378   2.831
 9922SOL     OW30664   5.348   2.368   1.946
 9922SOL    HW130665   5.363   2.375   2.045
 9922SOL    HW230666   5.302   2.282   1.925
 9923SOL     OW30667   6.007   0.617   6.603
 9923SOL    HW130668   5.923   0.665   6.632
 9923SOL    HW230669   6.047   0.570   6.681
 9924SOL     OW30670   5.099   0.953   4.042
 9924SOL    HW130671   5.102   0.959   3.942
 9924SOL    HW230672   5.070   1.041   4.079
 9925SOL     OW30673   3.848   2.112   4.593
 9925SOL    HW130674   3.866   2.112   4.691
 9925SOL    HW230675   3.815   2.022   4.565
 9926SOL     OW30676   1.853   1.010   5.471
 9926SOL    HW130677   1.897   0.920   5.465
 9926SOL    HW230678   1.755   0.997   5.491
 9927SOL     OW30679   0.780   2.689   2.857
 9927SOL    HW130680   0.738   2.677   2.767
 9927SOL    HW230681   0.879   2.687   2.848
 9928SOL     OW30682   0.110   3.243   2.049
 9928SOL    HW130683   0.056   3.169   2.010
 9928SOL    HW230684   0.064   3.279   2.130
 9929SOL     OW30685   0.480   5.150   5.458
 9929SOL    HW130686   0.491   5.236   5.508
 9929SOL    HW230687   0.470   5.075   5.522
 9930SOL     OW30688   6.739   5.576   6.064
 9930SOL    HW130689   6.717   5.658   6.010
 9930SOL    HW230690   6.826   5.591   6.112
 9931SOL     OW30691   2.303   5.091   6.878
 9931SOL    HW130692   2.308   5.105   6.779
 9931SOL    HW230693   2.217   5.044   6.901
 9932SOL     OW30694   2.435   2.887   1.040
 9932SOL    HW130695   2.455   2.792   1.064
 9932SOL    HW230696   2.480   2.948   1.106
 9933SOL     OW30697   0.997   1.122   2.553
 9933SOL    HW130698   1.085   1.155   2.518
 9933SOL    HW230699   0.990   1.024   2.537
 9934SOL     OW30700   4.989   0.366   6.093
 9934SOL    HW130701   4.946   0.431   6.031
 9934SOL    HW230702   5.052   0.413   6.154
 9935SOL     OW30703   2.468   3.003   0.782
 9935SOL    HW130704   2.469   2.929   0.715
 9935SOL    HW230705   2.450   2.966   0.873
 9936SOL     OW30706   5.047   6.499   6.916
 9936SOL    HW130707   4.966   6.451   6.949
 9936SOL    HW230708   5.092   6.544   6.993
 9937SOL     OW30709   1.705   6.789   3.669
 9937SOL    HW130710   1.681   6.692   3.662
 9937SOL    HW230711   1.789   6.798   3.722
 9938SOL     OW30712   0.094   1.221   3.518
 9938SOL    HW130713   0.047   1.268   3.592
 9938SOL    HW230714   0.107   1.283   3.441
 9939SOL     OW30715   2.590   3.838   1.256
 9939SOL    HW130716   2.589   3.821   1.158
 9939SOL    HW230717   2.509   3.893   1.281
 9940SOL     OW30718   0.195   0.524   3.285
 9940SOL    HW130719   0.148   0.517   3.197
 9940SOL    HW230720   0.267   0.455   3.290
 9941SOL     OW30721   5.434   3.461   0.980
 9941SOL    HW130722   5.408   3.557   0.983
 9941SOL    HW230723   5.528   3.453   0.947
 9942SOL     OW30724   6.494   5.872   2.670
 9942SOL    HW130725   6.594   5.878   2.668
 9942SOL    HW230726   6.466   5.809   2.742
 9943SOL     OW30727   1.789   4.206   5.489
 9943SOL    HW130728   1.798   4.219   5.588
 9943SOL    HW230729   1.711   4.259   5.456
 9944SOL     OW30730   2.167   5.425   6.668
 9944SOL    HW130731   2.147   5.425   6.570
 9944SOL    HW230732   2.258   5.462   6.684
 9945SOL     OW30733   6.363   3.254   6.909
 9945SOL    HW130734   6.361   3.160   6.873
 9945SOL    HW230735   6.378   3.252   7.007
 9946SOL     OW30736   4.868   2.345   1.378
 9946SOL    HW130737   4.823   2.354   1.467
 9946SOL    HW230738   4.899   2.251   1.366
 9947SOL     OW30739   1.124   1.558   2.786
 9947SOL    HW130740   1.027   1.568   2.807
 9947SOL    HW230741   1.177   1.622   2.842
 9948SOL     OW30742   5.941   0.640   5.516
 9948SOL    HW130743   5.865   0.647   5.452
 9948SOL    HW230744   5.906   0.618   5.607
 9949SOL     OW30745   6.421   3.575   2.823
 9949SOL    HW130746   6.442   3.673   2.822
 9949SOL    HW230747   6.500   3.524   2.854
 9950SOL     OW30748   4.768   5.218   5.918
 9950SOL    HW130749   4.785   5.303   5.968
 9950SOL    HW230750   4.720   5.240   5.833
 9951SOL     OW30751   0.295   2.352   3.134
 9951SOL    HW130752   0.322   2.361   3.038
 9951SOL    HW230753   0.373   2.373   3.193
 9952SOL     OW30754   1.408   4.783   1.521
 9952SOL    HW130755   1.353   4.788   1.604
 9952SOL    HW230756   1.349   4.772   1.442
 9953SOL     OW30757   6.429   4.428   4.402
 9953SOL    HW130758   6.488   4.410   4.481
 9953SOL    HW230759   6.345   4.473   4.433
 9954SOL     OW30760   3.961   1.203   0.984
 9954SOL    HW130761   3.917   1.114   0.970
 9954SOL    HW230762   4.018   1.224   0.904
 9955SOL     OW30763   6.042   4.899   1.075
 9955SOL    HW130764   6.097   4.830   1.029
 9955SOL    HW230765   6.098   4.946   1.144
 9956SOL     OW30766   1.492   3.178   3.529
 9956SOL    HW130767   1.467   3.257   3.585
 9956SOL    HW230768   1.582   3.195   3.487
 9957SOL     OW30769   5.230   6.965   0.419
 9957SOL    HW130770   5.230   6.870   0.450
 9957SOL    HW230771   5.275   7.023   0.487
 9958SOL     OW30772   5.844   6.301   6.137
 9958SOL    HW130773   5.927   6.285   6.084
 9958SOL    HW230774   5.766   6.313   6.076
 9959SOL     OW30775   5.906   4.551   6.948
 9959SOL    HW130776   5.907   4.508   0.015
 9959SOL    HW230777   5.987   4.608   6.938
 9960SOL     OW30778   6.597   0.263   7.012
 9960SOL    HW130779   6.614   0.360   6.995
 9960SOL    HW230780   6.628   0.239   0.079
 9961SOL     OW30781   3.142   5.999   0.549
 9961SOL    HW130782   3.175   6.035   0.461
 9961SOL    HW230783   3.091   6.071   0.596
 9962SOL     OW30784   3.423   0.711   1.495
 9962SOL    HW130785   3.523   0.713   1.485
 9962SOL    HW230786   3.389   0.620   1.472
 9963SOL     OW30787   0.937   0.218   6.308
 9963SOL    HW130788   0.940   0.310   6.348
 9963SOL    HW230789   0.922   0.150   6.380
 9964SOL     OW30790   4.570   5.206   5.116
 9964SOL    HW130791   4.617   5.172   5.034
 9964SOL    HW230792   4.522   5.290   5.094
 9965SOL     OW30793   2.986   4.820   4.365
 9965SOL    HW130794   3.069   4.857   4.407
 9965SOL    HW230795   2.927   4.783   4.436
 9966SOL     OW30796   3.269   5.890   2.584
 9966SOL    HW130797   3.344   5.873   2.647
 9966SOL    HW230798   3.182   5.864   2.627
 9967SOL     OW30799   0.486   0.483   3.007
 9967SOL    HW130800   0.484   0.579   3.036
 9967SOL    HW230801   0.445   0.426   3.078
 9968SOL     OW30802   4.399   6.614   6.646
 9968SOL    HW130803   4.463   6.548   6.608
 9968SOL    HW230804   4.342   6.569   6.715
 9969SOL     OW30805   0.035   5.687   3.267
 9969SOL    HW130806   0.029   5.783   3.295
 9969SOL    HW230807   6.968   5.655   3.239
 9970SOL     OW30808   6.692   3.256   2.135
 9970SOL    HW130809   6.733   3.166   2.118
 9970SOL    HW230810   6.600   3.258   2.094
 9971SOL     OW30811   0.255   5.178   4.304
 9971SOL    HW130812   0.323   5.204   4.372
 9971SOL    HW230813   0.256   5.244   4.229
 9972SOL     OW30814   2.745   4.352   5.840
 9972SOL    HW130815   2.677   4.283   5.813
 9972SOL    HW230816   2.718   4.393   5.927
 9973SOL     OW30817   3.238   1.721   2.900
 9973SOL    HW130818   3.140   1.723   2.878
 9973SOL    HW230819   3.284   1.798   2.856
 9974SOL     OW30820   1.111   2.159   3.067
 9974SOL    HW130821   1.020   2.177   3.029
 9974SOL    HW230822   1.114   2.066   3.104
 9975SOL     OW30823   2.467   4.251   6.282
 9975SOL    HW130824   2.510   4.169   6.244
 9975SOL    HW230825   2.376   4.263   6.244
 9976SOL     OW30826   3.877   6.218   5.090
 9976SOL    HW130827   3.813   6.293   5.070
 9976SOL    HW230828   3.957   6.226   5.031
 9977SOL     OW30829   4.356   0.592   5.359
 9977SOL    HW130830   4.325   0.627   5.270
 9977SOL    HW230831   4.455   0.603   5.366
 9978SOL     OW30832   0.340   2.809   0.193
 9978SOL    HW130833   0.328   2.847   0.102
 9978SOL    HW230834   0.386   2.876   0.252
 9979SOL     OW30835   3.709   3.711   4.568
 9979SOL    HW130836   3.617   3.732   4.603
 9979SOL    HW230837   3.744   3.629   4.614
 9980SOL     OW30838   0.907   0.988   0.116
 9980SOL    HW130839   0.973   1.010   0.044
 9980SOL    HW230840   0.881   1.072   0.164
 9981SOL     OW30841   5.390   0.642   0.238
 9981SOL    HW130842   5.434   0.616   0.324
 9981SOL    HW230843   5.324   0.571   0.211
 9982SOL     OW30844   2.712   2.260   4.359
 9982SOL    HW130845   2.758   2.277   4.446
 9982SOL    HW230846   2.777   2.223   4.293
 9983SOL     OW30847   0.435   3.386   2.115
 9983SOL    HW130848   0.426   3.292   2.145
 9983SOL    HW230849   0.461   3.388   2.018
 9984SOL     OW30850   0.594   4.783   1.069
 9984SOL    HW130851   0.519   4.721   1.095
 9984SOL    HW230852   0.632   4.824   1.151
 9985SOL     OW30853   4.783   4.384   0.241
 9985SOL    HW130854   4.872   4.430   0.237
 9985SOL    HW230855   4.713   4.449   0.270
 9986SOL     OW30856   5.267   4.787   0.583
 9986SOL    HW130857   5.202   4.857   0.613
 9986SOL    HW230858   5.281   4.794   0.484
 9987SOL     OW30859   5.074   2.075   1.121
 9987SOL    HW130860   4.987   2.108   1.083
 9987SOL    HW230861   5.055   2.019   1.202
 9988SOL     OW30862   5.970   6.668   3.508
 9988SOL    HW130863   6.034   6.651   3.433
 9988SOL    HW230864   6.005   6.743   3.564
 9989SOL     OW30865   6.617   5.584   2.061
 9989SOL    HW130866   6.616   5.642   2.142
 9989SOL    HW230867   6.661   5.497   2.082
 9990SOL     OW30868   0.041   6.424   3.463
 9990SOL    HW130869   0.076   6.362   3.393
 9990SOL    HW230870   0.111   6.440   3.532
 9991SOL     OW30871   2.302   4.185   2.285
 9991SOL    HW130872   2.229   4.239   2.327
 9991SOL    HW230873   2.391   4.222   2.313
 9992SOL     OW30874   2.653   5.326   0.380
 9992SOL    HW130875   2.589   5.259   0.416
 9992SOL    HW230876   2.616   5.418   0.395
 9993SOL     OW30877   4.459   0.326   4.642
 9993SOL    HW130878   4.399   0.286   4.710
 9993SOL    HW230879   4.468   0.424   4.660
 9994SOL     OW30880   6.300   5.198   4.814
 9994SOL    HW130881   6.300   5.123   4.880
 9994SOL    HW230882   6.335   5.165   4.726
 9995SOL     OW30883   4.333   1.731   6.180
 9995SOL    HW130884   4.292   1.777   6.101
 9995SOL    HW230885   4.342   1.633   6.160
 9996SOL     OW30886   2.737   4.258   1.076
 9996SOL    HW130887   2.703   4.210   1.157
 9996SOL    HW230888   2.742   4.356   1.095
 9997SOL     OW30889   6.744   1.352   2.955
 9997SOL    HW130890   6.711   1.281   3.017
 9997SOL    HW230891   6.668   1.411   2.929
 9998SOL     OW30892   5.290   3.910   2.573
 9998SOL    HW130893   5.309   3.993   2.520
 9998SOL    HW230894   5.347   3.910   2.655
 9999SOL     OW30895   0.507   6.711   4.714
 9999SOL    HW130896   0.475   6.801   4.745
 9999SOL    HW230897   0.601   6.697   4.744
10000SOL     OW30898   4.410   2.245   1.335
10000SOL    HW130899   4.485   2.283   1.281
10000SOL    HW230900   4.354   2.186   1.277
10001SOL     OW30901   4.152   5.924   1.846
10001SOL    HW130902   4.243   5.927   1.886
10001SOL    HW230903   4.157   5.945   1.748
10002SOL     OW30904   2.184   6.939   2.079
10002SOL    HW130905   2.124   6.901   2.009
10002SOL    HW230906   2.202   0.012   2.059
10003SOL     OW30907   1.290   1.221   2.560
10003SOL    HW130908   1.327   1.128   2.551
10003SOL    HW230909   1.255   1.252   2.472
10004SOL     OW30910   0.313   3.951   3.768
10004SOL    HW130911   0.320   4.038   3.817
10004SOL    HW230912   0.405   3.920   3.742
10005SOL     OW30913   2.490   5.854   3.285
10005SOL    HW130914   2.392   5.876   3.284
10005SOL    HW230915   2.501   5.755   3.292
10006SOL     OW30916   5.241   1.572   5.347
10006SOL    HW130917   5.152   1.565   5.393
10006SOL    HW230918   5.243   1.509   5.269
10007SOL     OW30919   1.543   5.060   4.069
10007SOL    HW130920   1.541   4.993   4.143
10007SOL    HW230921   1.571   5.015   3.984
10008SOL     OW30922   4.281   1.128   6.002
10008SOL    HW130923   4.379   1.143   5.991
10008SOL    HW230924   4.230   1.200   5.954
10009SOL     OW30925   0.815   4.794   2.170
10009SOL    HW130926   0.858   4.861   2.231
10009SOL    HW230927   0.886   4.739   2.126
10010SOL     OW30928   1.980   4.269   1.460
10010SOL    HW130929   1.921   4.190   1.444
10010SOL    HW230930   1.959   4.340   1.392
10011SOL     OW30931   2.792   2.984   0.160
10011SOL    HW130932   2.862   3.055   0.161
10011SOL    HW230933   2.770   2.957   0.253
10012SOL     OW30934   5.622   1.812   3.494
10012SOL    HW130935   5.577   1.752   3.561
10012SOL    HW230936   5.553   1.856   3.437
10013SOL     OW30937   0.693   6.502   4.394
10013SOL    HW130938   0.731   6.453   4.316
10013SOL    HW230939   0.647   6.584   4.363
10014SOL     OW30940   1.170   0.830   3.318
10014SOL    HW130941   1.206   0.920   3.296
10014SOL    HW230942   1.240   0.761   3.299
10015SOL     OW30943   3.689   6.799   6.419
10015SOL    HW130944   3.622   6.725   6.414
10015SOL    HW230945   3.649   6.883   6.383
10016SOL     OW30946   2.203   1.011   4.570
10016SOL    HW130947   2.181   1.036   4.476
10016SOL    HW230948   2.231   0.915   4.573
10017SOL     OW30949   3.224   1.451   2.794
10017SOL    HW130950   3.138   1.419   2.755
10017SOL    HW230951   3.215   1.547   2.820
10018SOL     OW30952   0.104   3.915   5.292
10018SOL    HW130953   0.022   3.973   5.286
10018SOL    HW230954   0.085   3.827   5.250
10019SOL     OW30955   0.188   2.210   1.983
10019SOL    HW130956   0.233   2.250   2.063
10019SOL    HW230957   0.237   2.128   1.954
10020SOL     OW30958   6.676   1.421   2.154
10020SOL    HW130959   6.724   1.408   2.241
10020SOL    HW230960   6.609   1.347   2.143
10021SOL     OW30961   0.773   3.189   1.973
10021SOL    HW130962   0.841   3.218   2.041
10021SOL    HW230963   0.775   3.089   1.965
10022SOL     OW30964   1.188   6.120   5.841
10022SOL    HW130965   1.217   6.109   5.746
10022SOL    HW230966   1.158   6.215   5.856
10023SOL     OW30967   6.947   1.648   6.026
10023SOL    HW130968   6.977   1.647   5.931
10023SOL    HW230969   7.015   1.696   6.082
10024SOL     OW30970   2.175   4.445   2.983
10024SOL    HW130971   2.192   4.523   3.043
10024SOL    HW230972   2.255   4.429   2.925
10025SOL     OW30973   0.952   3.488   1.192
10025SOL    HW130974   1.029   3.444   1.148
10025SOL    HW230975   0.873   3.426   1.193
10026SOL     OW30976   5.813   1.193   5.316
10026SOL    HW130977   5.816   1.095   5.335
10026SOL    HW230978   5.742   1.235   5.371
10027SOL     OW30979   3.374   1.531   5.029
10027SOL    HW130980   3.353   1.508   4.934
10027SOL    HW230981   3.371   1.630   5.041
10028SOL     OW30982   4.451   0.141   1.898
10028SOL    HW130983   4.503   0.189   1.828
10028SOL    HW230984   4.499   0.057   1.925
10029SOL     OW30985   0.202   4.437   4.267
10029SOL    HW130986   0.175   4.343   4.248
10029SOL    HW230987   0.302   4.441   4.279
10030SOL     OW30988   2.809   0.299   4.650
10030SOL    HW130989   2.891   0.353   4.667
10030SOL    HW230990   2.728   0.351   4.679
10031SOL     OW30991   2.189   6.345   2.930
10031SOL    HW130992   2.115   6.288   2.965
10031SOL    HW230993   2.205   6.421   2.992
10032SOL     OW30994   3.213   5.949   4.795
10032SOL    HW130995   3.199   5.856   4.829
10032SOL    HW230996   3.311   5.962   4.776
10033SOL     OW30997   3.533   1.238   5.092
10033SOL    HW130998   3.458   1.212   5.032
10033SOL    HW230999   3.497   1.291   5.169
10034SOL     OW31000   2.608   1.122   2.624
10034SOL    HW131001   2.526   1.178   2.615
10034SOL    HW231002   2.665   1.158   2.698
10035SOL     OW31003   6.818   2.996   2.447
10035SOL    HW131004   6.790   3.089   2.473
10035SOL    HW231005   6.859   2.950   2.526
10036SOL     OW31006   1.195   1.235   0.002
10036SOL    HW131007   1.110   1.284   0.023
10036SOL    HW231008   1.272   1.285   0.042
10037SOL     OW31009   5.311   6.601   6.281
10037SOL    HW131010   5.313   6.501   6.285
10037SOL    HW231011   5.231   6.634   6.330
10038SOL     OW31012   4.606   6.521   6.481
10038SOL    HW131013   4.642   6.612   6.463
10038SOL    HW231014   4.538   6.498   6.412
10039SOL     OW31015   0.347   5.795   2.299
10039SOL    HW131016   0.349   5.817   2.396
10039SOL    HW231017   0.330   5.697   2.287
10040SOL     OW31018   2.541   0.334   0.699
10040SOL    HW131019   2.590   0.395   0.637
10040SOL    HW231020   2.444   0.359   0.700
10041SOL     OW31021   5.697   5.331   4.877
10041SOL    HW131022   5.679   5.311   4.973
10041SOL    HW231023   5.693   5.430   4.863
10042SOL     OW31024   6.579   0.412   5.292
10042SOL    HW131025   6.488   0.451   5.279
10042SOL    HW231026   6.605   0.418   5.388
10043SOL     OW31027   0.655   0.849   3.778
10043SOL    HW131028   0.638   0.777   3.845
10043SOL    HW231029   0.752   0.847   3.752
10044SOL     OW31030   3.099   2.067   0.116
10044SOL    HW131031   3.027   2.026   0.059
10044SOL    HW231032   3.154   2.129   0.060
10045SOL     OW31033   4.168   6.715   4.579
10045SOL    HW131034   4.136   6.798   4.623
10045SOL    HW231035   4.093   6.674   4.526
10046SOL     OW31036   6.342   2.549   1.414
10046SOL    HW131037   6.261   2.532   1.358
10046SOL    HW231038   6.349   2.647   1.434
10047SOL     OW31039   0.544   2.269   3.323
10047SOL    HW131040   0.620   2.207   3.344
10047SOL    HW231041   0.458   2.228   3.354
10048SOL     OW31042   3.860   2.679   1.688
10048SOL    HW131043   3.782   2.616   1.701
10048SOL    HW231044   3.939   2.645   1.739
10049SOL     OW31045   1.615   6.561   4.621
10049SOL    HW131046   1.675   6.632   4.585
10049SOL    HW231047   1.670   6.488   4.663
10050SOL     OW31048   5.672   1.490   4.346
10050SOL    HW131049   5.666   1.469   4.444
10050SOL    HW231050   5.657   1.407   4.293
10051SOL     OW31051   6.344   1.978   0.060
10051SOL    HW131052   6.354   2.025   0.148
10051SOL    HW231053   6.257   2.003   0.018
10052SOL     OW31054   0.989   4.037   1.990
10052SOL    HW131055   0.919   4.104   1.966
10052SOL    HW231056   1.064   4.042   1.923
10053SOL     OW31057   3.023   6.675   3.116
10053SOL    HW131058   3.081   6.747   3.154
10053SOL    HW231059   3.057   6.649   3.026
10054SOL     OW31060   4.548   5.786   4.025
10054SOL    HW131061   4.535   5.765   4.122
10054SOL    HW231062   4.614   5.722   3.986
10055SOL     OW31063   6.900   3.374   6.588
10055SOL    HW131064   6.961   3.320   6.646
10055SOL    HW231065   6.849   3.439   6.645
10056SOL     OW31066   6.607   4.935   1.978
10056SOL    HW131067   6.516   4.960   1.946
10056SOL    HW231068   6.606   4.921   2.077
10057SOL     OW31069   2.552   2.260   3.478
10057SOL    HW131070   2.635   2.229   3.431
10057SOL    HW231071   2.553   2.359   3.484
10058SOL     OW31072   0.845   4.195   3.903
10058SOL    HW131073   0.938   4.193   3.867
10058SOL    HW231074   0.808   4.287   3.894
10059SOL     OW31075   5.700   6.695   1.332
10059SOL    HW131076   5.692   6.783   1.285
10059SOL    HW231077   5.785   6.650   1.305
10060SOL     OW31078   2.224   2.858   2.249
10060SOL    HW131079   2.246   2.825   2.157
10060SOL    HW231080   2.127   2.842   2.267
10061SOL     OW31081   6.528   2.027   4.760
10061SOL    HW131082   6.464   2.094   4.723
10061SOL    HW231083   6.553   1.962   4.688
10062SOL     OW31084   6.175   5.362   3.338
10062SOL    HW131085   6.178   5.462   3.345
10062SOL    HW231086   6.094   5.334   3.287
10063SOL     OW31087   1.047   2.727   2.866
10063SOL    HW131088   1.138   2.740   2.828
10063SOL    HW231089   1.045   2.762   2.960
10064SOL     OW31090   5.645   6.052   4.830
10064SOL    HW131091   5.602   5.965   4.808
10064SOL    HW231092   5.626   6.076   4.925
10065SOL     OW31093   0.447   6.660   3.183
10065SOL    HW131094   0.357   6.616   3.177
10065SOL    HW231095   0.435   6.759   3.187
10066SOL     OW31096   0.503   0.888   3.546
10066SOL    HW131097   0.406   0.912   3.548
10066SOL    HW231098   0.550   0.931   3.623
10067SOL     OW31099   4.696   6.476   3.360
10067SOL    HW131100   4.690   6.556   3.420
10067SOL    HW231101   4.749   6.405   3.406
10068SOL     OW31102   5.056   4.018   5.580
10068SOL    HW131103   4.980   3.955   5.565
10068SOL    HW231104   5.061   4.082   5.503
10069SOL     OW31105   4.492   1.209   3.765
10069SOL    HW131106   4.455   1.278   3.827
10069SOL    HW231107   4.467   1.231   3.671
10070SOL     OW31108   0.773   6.841   4.445
10070SOL    HW131109   0.673   6.834   4.439
10070SOL    HW231110   0.800   6.838   4.542
10071SOL     OW31111   5.310   5.246   5.113
10071SOL    HW131112   5.214   5.236   5.140
10071SOL    HW231113   5.321   5.218   5.018
10072SOL     OW31114   1.015   6.835   3.807
10072SOL    HW131115   1.065   6.755   3.841
10072SOL    HW231116   1.079   6.897   3.763
10073SOL     OW31117   0.565   5.240   6.957
10073SOL    HW131118   0.596   5.334   6.971
10073SOL    HW231119   0.521   5.207   0.017
10074SOL     OW31120   2.231   6.388   5.578
10074SOL    HW131121   2.300   6.345   5.519
10074SOL    HW231122   2.267   6.393   5.671
10075SOL     OW31123   1.685   2.420   3.837
10075SOL    HW131124   1.725   2.505   3.872
10075SOL    HW231125   1.613   2.389   3.898
10076SOL     OW31126   5.336   0.441   4.568
10076SOL    HW131127   5.386   0.423   4.653
10076SOL    HW231128   5.284   0.359   4.542
10077SOL     OW31129   3.735   1.229   6.799
10077SOL    HW131130   3.760   1.325   6.814
10077SOL    HW231131   3.676   1.223   6.718
10078SOL     OW31132   5.921   6.330   5.537
10078SOL    HW131133   5.832   6.365   5.566
10078SOL    HW231134   5.910   6.237   5.501
10079SOL     OW31135   6.705   3.689   6.120
10079SOL    HW131136   6.716   3.601   6.166
10079SOL    HW231137   6.795   3.732   6.111
10080SOL     OW31138   1.461   2.883   6.067
10080SOL    HW131139   1.375   2.933   6.072
10080SOL    HW231140   1.450   2.792   6.107
10081SOL     OW31141   0.404   1.211   6.878
10081SOL    HW131142   0.493   1.247   6.849
10081SOL    HW231143   0.417   1.123   6.922
10082SOL     OW31144   6.420   1.228   0.864
10082SOL    HW131145   6.383   1.299   0.923
10082SOL    HW231146   6.508   1.198   0.899
10083SOL     OW31147   5.228   1.118   4.333
10083SOL    HW131148   5.311   1.062   4.321
10083SOL    HW231149   5.197   1.151   4.244
10084SOL     OW31150   2.489   1.049   6.207
10084SOL    HW131151   2.399   1.036   6.166
10084SOL    HW231152   2.560   1.022   6.141
10085SOL     OW31153   0.573   5.528   2.916
10085SOL    HW131154   0.523   5.507   3.001
10085SOL    HW231155   0.554   5.622   2.888
10086SOL     OW31156   6.354   3.676   2.448
10086SOL    HW131157   6.446   3.654   2.415
10086SOL    HW231158   6.339   3.775   2.441
10087SOL     OW31159   1.430   0.360   3.833
10087SOL    HW131160   1.415   0.285   3.898
10087SOL    HW231161   1.344   0.410   3.821
10088SOL     OW31162   6.801   0.497   4.920
10088SOL    HW131163   6.834   0.499   5.015
10088SOL    HW231164   6.813   0.405   4.883
10089SOL     OW31165   1.612   3.168   2.395
10089SOL    HW131166   1.563   3.107   2.332
10089SOL    HW231167   1.590   3.143   2.489
10090SOL     OW31168   0.727   4.544   1.193
10090SOL    HW131169   0.632   4.575   1.205
10090SOL    HW231170   0.740   4.512   1.099
10091SOL     OW31171   0.292   2.412   4.138
10091SOL    HW131172   0.370   2.421   4.200
10091SOL    HW231173   0.321   2.364   4.055
10092SOL     OW31174   1.821   3.543   4.898
10092SOL    HW131175   1.806   3.452   4.859
10092SOL    HW231176   1.802   3.540   4.996
10093SOL     OW31177   6.988   4.985   6.203
10093SOL    HW131178   6.907   5.035   6.232
10093SOL    HW231179   6.989   4.895   6.247
10094SOL     OW31180   1.496   1.014   1.673
10094SOL    HW131181   1.421   1.080   1.671
10094SOL    HW231182   1.458   0.922   1.678
10095SOL     OW31183   0.466   1.012   5.958
10095SOL    HW131184   0.529   1.085   5.930
10095SOL    HW231185   0.498   0.925   5.921
10096SOL     OW31186   0.523   4.737   1.911
10096SOL    HW131187   0.467   4.751   1.830
10096SOL    HW231188   0.607   4.791   1.903
10097SOL     OW31189   1.335   2.382   6.563
10097SOL    HW131190   1.346   2.475   6.599
10097SOL    HW231191   1.251   2.378   6.508
10098SOL     OW31192   3.360   4.685   6.393
10098SOL    HW131193   3.337   4.593   6.361
10098SOL    HW231194   3.420   4.729   6.326
10099SOL     OW31195   6.636   4.639   4.719
10099SOL    HW131196   6.653   4.646   4.817
10099SOL    HW231197   6.629   4.731   4.680
10100SOL     OW31198   5.657   0.970   5.709
10100SOL    HW131199   5.604   0.953   5.792
10100SOL    HW231200   5.754   0.952   5.727
10101SOL     OW31201   0.109   4.621   2.040
10101SOL    HW131202   0.170   4.553   1.999
10101SOL    HW231203   0.103   4.604   2.139
10102SOL     OW31204   4.030   1.156   3.114
10102SOL    HW131205   4.026   1.131   3.017
10102SOL    HW231206   4.053   1.253   3.123
10103SOL     OW31207   2.749   1.984   0.165
10103SOL    HW131208   2.650   1.976   0.153
10103SOL    HW231209   2.793   1.998   0.077
10104SOL     OW31210   1.649   5.725   4.968
10104SOL    HW131211   1.721   5.704   5.034
10104SOL    HW231212   1.661   5.666   4.887
10105SOL     OW31213   2.735   0.384   6.427
10105SOL    HW131214   2.768   0.290   6.437
10105SOL    HW231215   2.786   0.430   6.354
10106SOL     OW31216   5.584   5.533   0.261
10106SOL    HW131217   5.629   5.549   0.349
10106SOL    HW231218   5.646   5.481   0.201
10107SOL     OW31219   5.649   0.913   5.988
10107SOL    HW131220   5.718   0.982   6.011
10107SOL    HW231221   5.586   0.902   6.065
10108SOL     OW31222   5.716   6.506   6.880
10108SOL    HW131223   5.685   6.415   6.909
10108SOL    HW231224   5.680   6.526   6.789
10109SOL     OW31225   4.664   5.221   3.375
10109SOL    HW131226   4.655   5.171   3.461
10109SOL    HW231227   4.691   5.157   3.302
10110SOL     OW31228   3.313   1.492   5.775
10110SOL    HW131229   3.319   1.578   5.826
10110SOL    HW231230   3.307   1.415   5.839
10111SOL     OW31231   0.699   2.733   2.573
10111SOL    HW131232   0.632   2.805   2.555
10111SOL    HW231233   0.714   2.679   2.490
10112SOL     OW31234   4.166   4.127   6.125
10112SOL    HW131235   4.077   4.152   6.163
10112SOL    HW231236   4.153   4.062   6.051
10113SOL     OW31237   3.205   6.343   6.746
10113SOL    HW131238   3.236   6.396   6.825
10113SOL    HW231239   3.244   6.382   6.662
10114SOL     OW31240   4.096   1.757   1.086
10114SOL    HW131241   4.175   1.698   1.103
10114SOL    HW231242   4.076   1.810   1.168
10115SOL     OW31243   1.178   2.023   3.922
10115SOL    HW131244   1.177   1.924   3.937
10115SOL    HW231245   1.086   2.059   3.936
10116SOL     OW31246   0.931   0.966   1.108
10116SOL    HW131247   0.951   1.063   1.090
10116SOL    HW231248   0.837   0.946   1.080
10117SOL     OW31249   5.302   0.795   5.769
10117SOL    HW131250   5.275   0.837   5.682
10117SOL    HW231251   5.222   0.755   5.813
10118SOL     OW31252   6.699   5.006   2.702
10118SOL    HW131253   6.673   5.002   2.798
10118SOL    HW231254   6.623   5.045   2.649
10119SOL     OW31255   2.852   6.990   5.492
10119SOL    HW131256   2.866   0.020   5.575
10119SOL    HW231257   2.862   0.026   5.412
10120SOL     OW31258   6.183   2.435   3.601
10120SOL    HW131259   6.144   2.524   3.579
10120SOL    HW231260   6.279   2.446   3.628
10121SOL     OW31261   6.457   4.975   4.090
10121SOL    HW131262   6.478   5.072   4.100
10121SOL    HW231263   6.361   4.965   4.063
10122SOL     OW31264   5.593   3.179   0.264
10122SOL    HW131265   5.578   3.099   0.322
10122SOL    HW231266   5.686   3.178   0.228
10123SOL     OW31267   6.987   6.766   0.342
10123SOL    HW131268   0.018   6.695   0.297
10123SOL    HW231269   6.904   6.783   0.289
10124SOL     OW31270   2.862   4.256   0.767
10124SOL    HW131271   2.843   4.261   0.866
10124SOL    HW231272   2.960   4.258   0.752
10125SOL     OW31273   1.306   6.865   1.339
10125SOL    HW131274   1.294   6.952   1.387
10125SOL    HW231275   1.376   6.876   1.268
10126SOL     OW31276   5.934   4.934   0.288
10126SOL    HW131277   5.845   4.892   0.305
10126SOL    HW231278   5.963   4.984   0.370
10127SOL     OW31279   3.362   4.581   5.364
10127SOL    HW131280   3.414   4.495   5.362
10127SOL    HW231281   3.365   4.620   5.456
10128SOL     OW31282   0.005   1.868   1.528
10128SOL    HW131283   6.987   1.780   1.504
10128SOL    HW231284   0.067   1.897   1.456
10129SOL     OW31285   5.318   2.302   3.203
10129SOL    HW131286   5.236   2.270   3.155
10129SOL    HW231287   5.290   2.355   3.283
10130SOL     OW31288   6.791   5.091   2.112
10130SOL    HW131289   6.714   5.061   2.056
10130SOL    HW231290   6.787   5.190   2.124
10131SOL     OW31291   6.362   0.788   0.973
10131SOL    HW131292   6.392   0.697   1.002
10131SOL    HW231293   6.355   0.848   1.054
10132SOL     OW31294   3.032   0.093   2.430
10132SOL    HW131295   3.004   0.079   2.335
10132SOL    HW231296   3.122   0.053   2.445
10133SOL     OW31297   5.008   5.509   3.083
10133SOL    HW131298   5.012   5.442   3.008
10133SOL    HW231299   4.944   5.476   3.152
10134SOL     OW31300   0.200   1.372   2.485
10134SOL    HW131301   0.165   1.418   2.566
10134SOL    HW231302   0.196   1.273   2.498
10135SOL     OW31303   3.271   5.719   2.887
10135SOL    HW131304   3.338   5.747   2.818
10135SOL    HW231305   3.301   5.751   2.977
10136SOL     OW31306   6.242   7.011   1.988
10136SOL    HW131307   6.281   7.009   1.895
10136SOL    HW231308   6.143   0.001   1.982
10137SOL     OW31309   5.560   4.952   4.381
10137SOL    HW131310   5.477   5.002   4.406
10137SOL    HW231311   5.637   4.985   4.436
10138SOL     OW31312   5.427   2.537   6.776
10138SOL    HW131313   5.461   2.546   6.683
10138SOL    HW231314   5.463   2.452   6.817
10139SOL     OW31315   4.045   3.289   3.344
10139SOL    HW131316   4.112   3.318   3.413
10139SOL    HW231317   4.028   3.191   3.354
10140SOL     OW31318   0.462   4.891   5.625
10140SOL    HW131319   0.400   4.878   5.702
10140SOL    HW231320   0.417   4.860   5.541
10141SOL     OW31321   2.285   0.289   4.198
10141SOL    HW131322   2.381   0.296   4.171
10141SOL    HW231323   2.229   0.345   4.136
10142SOL     OW31324   5.473   5.828   4.708
10142SOL    HW131325   5.482   5.730   4.690
10142SOL    HW231326   5.441   5.874   4.625
10143SOL     OW31327   5.331   6.191   1.076
10143SOL    HW131328   5.337   6.167   0.979
10143SOL    HW231329   5.344   6.108   1.131
10144SOL     OW31330   3.059   5.269   3.465
10144SOL    HW131331   3.115   5.252   3.546
10144SOL    HW231332   2.971   5.308   3.492
10145SOL     OW31333   3.133   6.171   6.069
10145SOL    HW131334   3.105   6.077   6.089
10145SOL    HW231335   3.154   6.179   5.971
10146SOL     OW31336   4.731   4.882   4.452
10146SOL    HW131337   4.704   4.964   4.402
10146SOL    HW231338   4.824   4.856   4.427
10147SOL     OW31339   5.262   5.355   4.660
10147SOL    HW131340   5.318   5.314   4.732
10147SOL    HW231341   5.171   5.376   4.697
10148SOL     OW31342   5.586   5.206   1.280
10148SOL    HW131343   5.573   5.291   1.331
10148SOL    HW231344   5.500   5.178   1.239
10149SOL     OW31345   3.880   3.670   0.767
10149SOL    HW131346   3.917   3.740   0.706
10149SOL    HW231347   3.856   3.712   0.855
10150SOL     OW31348   5.058   4.676   1.414
10150SOL    HW131349   5.081   4.609   1.485
10150SOL    HW231350   4.979   4.729   1.443
10151SOL     OW31351   1.109   6.553   5.574
10151SOL    HW131352   1.146   6.620   5.638
10151SOL    HW231353   1.010   6.547   5.587
10152SOL     OW31354   0.453   5.018   3.612
10152SOL    HW131355   0.550   5.000   3.632
10152SOL    HW231356   0.447   5.091   3.543
10153SOL     OW31357   5.439   6.538   3.727
10153SOL    HW131358   5.417   6.488   3.643
10153SOL    HW231359   5.473   6.473   3.796
10154SOL     OW31360   6.556   5.533   5.715
10154SOL    HW131361   6.502   5.449   5.724
10154SOL    HW231362   6.651   5.510   5.696
10155SOL     OW31363   3.964   1.503   6.498
10155SOL    HW131364   4.001   1.482   6.408
10155SOL    HW231365   3.990   1.596   6.524
10156SOL     OW31366   5.949   0.399   2.186
10156SOL    HW131367   5.849   0.391   2.187
10156SOL    HW231368   5.982   0.386   2.092
10157SOL     OW31369   5.231   0.713   6.091
10157SOL    HW131370   5.323   0.693   6.126
10157SOL    HW231371   5.238   0.783   6.019
10158SOL     OW31372   4.249   3.734   6.302
10158SOL    HW131373   4.315   3.712   6.373
10158SOL    HW231374   4.193   3.812   6.331
10159SOL     OW31375   1.403   1.128   6.505
10159SOL    HW131376   1.343   1.048   6.514
10159SOL    HW231377   1.364   1.204   6.556
10160SOL     OW31378   0.902   5.738   3.085
10160SOL    HW131379   0.814   5.778   3.110
10160SOL    HW231380   0.955   5.805   3.032
10161SOL     OW31381   2.404   5.892   5.718
10161SOL    HW131382   2.429   5.987   5.738
10161SOL    HW231383   2.351   5.889   5.634
10162SOL     OW31384   3.415   1.827   6.763
10162SOL    HW131385   3.319   1.802   6.763
10162SOL    HW231386   3.453   1.819   6.855
10163SOL     OW31387   6.471   2.892   5.591
10163SOL    HW131388   6.484   2.932   5.501
10163SOL    HW231389   6.373   2.880   5.609
10164SOL     OW31390   0.626   2.394   5.591
10164SOL    HW131391   0.650   2.420   5.685
10164SOL    HW231392   0.706   2.403   5.532
10165SOL     OW31393   6.762   1.897   3.333
10165SOL    HW131394   6.756   1.804   3.368
10165SOL    HW231395   6.677   1.946   3.352
10166SOL     OW31396   1.453   0.891   2.265
10166SOL    HW131397   1.545   0.861   2.242
10166SOL    HW231398   1.405   0.920   2.182
10167SOL     OW31399   4.679   0.674   0.302
10167SOL    HW131400   4.698   0.589   0.254
10167SOL    HW231401   4.721   0.671   0.393
10168SOL     OW31402   6.818   4.251   4.621
10168SOL    HW131403   6.918   4.251   4.616
10168SOL    HW231404   6.781   4.308   4.547
10169SOL     OW31405   6.591   4.499   4.180
10169SOL    HW131406   6.609   4.590   4.216
10169SOL    HW231407   6.513   4.459   4.227
10170SOL     OW31408   1.814   4.206   4.650
10170SOL    HW131409   1.868   4.190   4.733
10170SOL    HW231410   1.840   4.294   4.610
10171SOL     OW31411   5.908   3.545   5.816
10171SOL    HW131412   5.930   3.643   5.814
10171SOL    HW231413   5.843   3.527   5.890
10172SOL     OW31414   4.945   1.661   3.345
10172SOL    HW131415   4.989   1.589   3.398
10172SOL    HW231416   5.010   1.699   3.280
10173SOL     OW31417   2.132   1.625   2.248
10173SOL    HW131418   2.148   1.655   2.154
10173SOL    HW231419   2.062   1.682   2.291
10174SOL     OW31420   6.504   4.406   1.320
10174SOL    HW131421   6.533   4.427   1.226
10174SOL    HW231422   6.573   4.438   1.385
10175SOL     OW31423   6.174   2.433   6.061
10175SOL    HW131424   6.245   2.456   6.126
10175SOL    HW231425   6.215   2.418   5.970
10176SOL     OW31426   2.494   4.242   0.158
10176SOL    HW131427   2.555   4.185   0.213
10176SOL    HW231428   2.420   4.277   0.215
10177SOL     OW31429   1.617   7.019   6.296
10177SOL    HW131430   1.620   6.980   6.387
10177SOL    HW231431   1.698   0.052   6.281
10178SOL     OW31432   5.559   2.494   4.443
10178SOL    HW131433   5.578   2.466   4.349
10178SOL    HW231434   5.586   2.421   4.506
10179SOL     OW31435   1.542   3.441   6.847
10179SOL    HW131436   1.592   3.501   6.785
10179SOL    HW231437   1.477   3.495   6.901
10180SOL     OW31438   2.645   6.391   5.610
10180SOL    HW131439   2.741   6.408   5.630
10180SOL    HW231440   2.596   6.478   5.606
10181SOL     OW31441   5.153   3.076   1.066
10181SOL    HW131442   5.165   3.154   1.005
10181SOL    HW231443   5.208   2.999   1.034
10182SOL     OW31444   5.230   1.271   0.606
10182SOL    HW131445   5.211   1.187   0.657
10182SOL    HW231446   5.218   1.255   0.508
10183SOL     OW31447   1.476   1.668   6.519
10183SOL    HW131448   1.558   1.653   6.574
10183SOL    HW231449   1.478   1.760   6.480
10184SOL     OW31450   4.146   0.889   6.129
10184SOL    HW131451   4.200   0.959   6.082
10184SOL    HW231452   4.089   0.841   6.062
10185SOL     OW31453   4.872   0.303   7.024
10185SOL    HW131454   4.869   0.360   6.941
10185SOL    HW231455   4.966   0.275   0.017
10186SOL     OW31456   4.311   2.385   3.216
10186SOL    HW131457   4.226   2.344   3.184
10186SOL    HW231458   4.379   2.314   3.233
10187SOL     OW31459   1.017   2.439   1.914
10187SOL    HW131460   1.106   2.399   1.891
10187SOL    HW231461   0.952   2.420   1.840
10188SOL     OW31462   3.565   5.822   1.184
10188SOL    HW131463   3.508   5.885   1.133
10188SOL    HW231464   3.562   5.731   1.141
10189SOL     OW31465   1.270   6.730   5.098
10189SOL    HW131466   1.353   6.787   5.095
10189SOL    HW231467   1.259   6.692   5.190
10190SOL     OW31468   5.592   2.644   0.310
10190SOL    HW131469   5.569   2.740   0.289
10190SOL    HW231470   5.572   2.626   0.407
10191SOL     OW31471   6.271   4.700   7.021
10191SOL    HW131472   6.257   4.790   0.037
10191SOL    HW231473   6.248   4.703   6.923
10192SOL     OW31474   3.078   1.272   6.244
10192SOL    HW131475   3.153   1.308   6.299
10192SOL    HW231476   3.049   1.341   6.177
10193SOL     OW31477   4.674   3.838   0.284
10193SOL    HW131478   4.593   3.838   0.343
10193SOL    HW231479   4.690   3.931   0.251
10194SOL     OW31480   5.405   3.758   5.637
10194SOL    HW131481   5.502   3.747   5.657
10194SOL    HW231482   5.373   3.845   5.674
10195SOL     OW31483   6.735   4.213   2.197
10195SOL    HW131484   6.828   4.184   2.177
10195SOL    HW231485   6.735   4.310   2.222
10196SOL     OW31486   0.546   1.846   4.913
10196SOL    HW131487   0.534   1.887   4.823
10196SOL    HW231488   0.522   1.913   4.983
10197SOL     OW31489   5.548   1.010   6.450
10197SOL    HW131490   5.647   1.017   6.434
10197SOL    HW231491   5.532   0.960   6.535
10198SOL     OW31492   3.808   6.877   3.561
10198SOL    HW131493   3.724   6.919   3.598
10198SOL    HW231494   3.860   6.947   3.512
10199SOL     OW31495   1.108   2.527   5.369
10199SOL    HW131496   1.099   2.614   5.320
10199SOL    HW231497   1.160   2.463   5.312
10200SOL     OW31498   5.671   2.597   1.147
10200SOL    HW131499   5.600   2.528   1.163
10200SOL    HW231500   5.702   2.633   1.235
10201SOL     OW31501   0.983   3.438   0.829
10201SOL    HW131502   1.033   3.352   0.814
10201SOL    HW231503   0.891   3.417   0.862
10202SOL     OW31504   3.988   0.537   4.877
10202SOL    HW131505   4.060   0.603   4.855
10202SOL    HW231506   3.899   0.579   4.863
10203SOL     OW31507   6.520   2.867   4.451
10203SOL    HW131508   6.559   2.897   4.538
10203SOL    HW231509   6.435   2.917   4.433
10204SOL     OW31510   5.729   5.500   6.474
10204SOL    HW131511   5.666   5.461   6.407
10204SOL    HW231512   5.821   5.505   6.435
10205SOL     OW31513   1.229   0.575   5.968
10205SOL    HW131514   1.304   0.590   5.903
10205SOL    HW231515   1.263   0.528   6.049
10206SOL     OW31516   1.530   0.916   4.863
10206SOL    HW131517   1.618   0.960   4.846
10206SOL    HW231518   1.540   0.846   4.933
10207SOL     OW31519   1.961   2.378   5.153
10207SOL    HW131520   1.875   2.402   5.199
10207SOL    HW231521   2.036   2.379   5.219
10208SOL     OW31522   6.860   5.154   5.515
10208SOL    HW131523   6.883   5.065   5.475
10208SOL    HW231524   6.944   5.204   5.537
10209SOL     OW31525   6.866   0.178   5.298
10209SOL    HW131526   6.821   0.112   5.238
10209SOL    HW231527   6.964   0.179   5.278
10210SOL     OW31528   2.970   6.944   1.787
10210SOL    HW131529   3.019   0.003   1.759
10210SOL    HW231530   3.010   6.865   1.739
10211SOL     OW31531   5.348   6.114   5.695
10211SOL    HW131532   5.305   6.197   5.660
10211SOL    HW231533   5.362   6.122   5.794
10212SOL     OW31534   0.459   0.573   6.910
10212SOL    HW131535   0.453   0.672   6.895
10212SOL    HW231536   0.396   0.526   6.849
10213SOL     OW31537   6.225   1.766   0.810
10213SOL    HW131538   6.191   1.791   0.901
10213SOL    HW231539   6.149   1.764   0.745
10214SOL     OW31540   0.991   2.048   0.223
10214SOL    HW131541   1.053   2.097   0.162
10214SOL    HW231542   0.902   2.037   0.180
10215SOL     OW31543   3.249   2.947   2.276
10215SOL    HW131544   3.221   3.033   2.317
10215SOL    HW231545   3.240   2.953   2.176
10216SOL     OW31546   0.326   6.216   2.326
10216SOL    HW131547   0.305   6.171   2.413
10216SOL    HW231548   0.247   6.210   2.265
10217SOL     OW31549   3.611   1.390   4.695
10217SOL    HW131550   3.562   1.359   4.613
10217SOL    HW231551   3.563   1.469   4.734
10218SOL     OW31552   1.591   3.033   2.658
10218SOL    HW131553   1.553   2.947   2.622
10218SOL    HW231554   1.590   3.031   2.758
10219SOL     OW31555   6.619   6.591   3.060
10219SOL    HW131556   6.647   6.683   3.083
10219SOL    HW231557   6.686   6.549   2.998
10220SOL     OW31558   3.388   2.715   0.889
10220SOL    HW131559   3.447   2.688   0.812
10220SOL    HW231560   3.443   2.719   0.972
10221SOL     OW31561   0.939   4.954   3.988
10221SOL    HW131562   0.882   4.993   3.916
10221SOL    HW231563   1.027   4.925   3.950
10222SOL     OW31564   3.283   3.447   4.403
10222SOL    HW131565   3.379   3.420   4.401
10222SOL    HW231566   3.264   3.511   4.329
10223SOL     OW31567   0.675   6.273   0.849
10223SOL    HW131568   0.768   6.237   0.860
10223SOL    HW231569   0.666   6.358   0.900
10224SOL     OW31570   6.126   4.147   3.012
10224SOL    HW131571   6.203   4.160   3.076
10224SOL    HW231572   6.082   4.235   2.995
10225SOL     OW31573   2.235   3.909   5.561
10225SOL    HW131574   2.272   3.973   5.495
10225SOL    HW231575   2.236   3.950   5.653
10226SOL     OW31576   5.196   2.874   0.089
10226SOL    HW131577   5.168   2.778   0.093
10226SOL    HW231578   5.114   2.932   0.082
10227SOL     OW31579   5.197   3.324   0.961
10227SOL    HW131580   5.291   3.358   0.970
10227SOL    HW231581   5.148   3.382   0.896
10228SOL     OW31582   5.089   1.020   0.671
10228SOL    HW131583   5.030   1.068   0.606
10228SOL    HW231584   5.130   0.940   0.628
10229SOL     OW31585   0.028   3.435   5.100
10229SOL    HW131586   0.038   3.344   5.059
10229SOL    HW231587   0.116   3.466   5.135
10230SOL     OW31588   0.295   6.465   2.132
10230SOL    HW131589   0.315   6.393   2.199
10230SOL    HW231590   0.230   6.430   2.065
10231SOL     OW31591   0.686   5.286   3.048
10231SOL    HW131592   0.689   5.368   2.990
10231SOL    HW231593   0.779   5.259   3.073
10232SOL     OW31594   5.186   4.800   3.856
10232SOL    HW131595   5.108   4.766   3.805
10232SOL    HW231596   5.194   4.751   3.943
10233SOL     OW31597   3.279   3.768   5.753
10233SOL    HW131598   3.205   3.793   5.690
10233SOL    HW231599   3.339   3.702   5.709
10234SOL     OW31600   0.411   1.487   2.317
10234SOL    HW131601   0.336   1.467   2.380
10234SOL    HW231602   0.498   1.465   2.361
10235SOL     OW31603   1.599   0.745   3.441
10235SOL    HW131604   1.633   0.829   3.400
10235SOL    HW231605   1.597   0.755   3.541
10236SOL     OW31606   2.182   6.791   2.380
10236SOL    HW131607   2.129   6.872   2.404
10236SOL    HW231608   2.269   6.819   2.340
10237SOL     OW31609   0.551   3.536   5.122
10237SOL    HW131610   0.531   3.561   5.217
10237SOL    HW231611   0.626   3.469   5.120
10238SOL     OW31612   3.115   0.091   1.630
10238SOL    HW131613   3.072   0.089   1.540
10238SOL    HW231614   3.121   0.185   1.662
10239SOL     OW31615   0.719   2.224   4.189
10239SOL    HW131616   0.677   2.308   4.226
10239SOL    HW231617   0.668   2.145   4.223
10240SOL     OW31618   2.229   6.545   0.840
10240SOL    HW131619   2.172   6.587   0.911
10240SOL    HW231620   2.284   6.616   0.796
10241SOL     OW31621   4.175   2.919   1.461
10241SOL    HW131622   4.266   2.961   1.462
10241SOL    HW231623   4.161   2.873   1.374
10242SOL     OW31624   0.211   2.877   6.834
10242SOL    HW131625   0.310   2.857   6.835
10242SOL    HW231626   0.162   2.796   6.866
10243SOL     OW31627   2.681   5.585   1.361
10243SOL    HW131628   2.624   5.622   1.288
10243SOL    HW231629   2.701   5.657   1.428
10244SOL     OW31630   2.655   4.919   1.559
10244SOL    HW131631   2.751   4.948   1.568
10244SOL    HW231632   2.652   4.829   1.515
10245SOL     OW31633   4.779   4.197   1.041
10245SOL    HW131634   4.821   4.247   1.116
10245SOL    HW231635   4.682   4.219   1.036
10246SOL     OW31636   3.340   2.940   4.286
10246SOL    HW131637   3.268   3.008   4.303
10246SOL    HW231638   3.387   2.919   4.372
10247SOL     OW31639   1.008   2.691   4.251
10247SOL    HW131640   0.958   2.680   4.166
10247SOL    HW231641   0.989   2.614   4.311
10248SOL     OW31642   1.295   1.221   4.408
10248SOL    HW131643   1.220   1.155   4.413
10248SOL    HW231644   1.382   1.172   4.417
10249SOL     OW31645   2.755   5.055   5.885
10249SOL    HW131646   2.766   5.077   5.788
10249SOL    HW231647   2.845   5.039   5.926
10250SOL     OW31648   3.946   2.372   0.909
10250SOL    HW131649   3.923   2.275   0.909
10250SOL    HW231650   4.032   2.386   0.860
10251SOL     OW31651   1.644   0.523   4.504
10251SOL    HW131652   1.687   0.477   4.582
10251SOL    HW231653   1.618   0.455   4.435
10252SOL     OW31654   5.410   4.615   6.225
10252SOL    HW131655   5.487   4.552   6.210
10252SOL    HW231656   5.367   4.636   6.138
10253SOL     OW31657   3.403   5.805   6.548
10253SOL    HW131658   3.390   5.853   6.635
10253SOL    HW231659   3.320   5.756   6.524
10254SOL     OW31660   5.665   1.591   5.786
10254SOL    HW131661   5.740   1.525   5.791
10254SOL    HW231662   5.618   1.581   5.698
10255SOL     OW31663   4.062   4.474   1.676
10255SOL    HW131664   4.160   4.467   1.693
10255SOL    HW231665   4.037   4.569   1.660
10256SOL     OW31666   3.960   1.414   3.544
10256SOL    HW131667   4.046   1.376   3.577
10256SOL    HW231668   3.915   1.347   3.485
10257SOL     OW31669   3.717   5.714   2.996
10257SOL    HW131670   3.643   5.648   3.003
10257SOL    HW231671   3.688   5.791   2.939
10258SOL     OW31672   1.940   1.406   1.957
10258SOL    HW131673   1.916   1.315   1.923
10258SOL    HW231674   1.869   1.437   2.020
10259SOL     OW31675   2.061   4.387   4.348
10259SOL    HW131676   2.156   4.412   4.329
10259SOL    HW231677   2.056   4.291   4.374
10260SOL     OW31678   0.640   0.742   3.366
10260SOL    HW131679   0.685   0.661   3.403
10260SOL    HW231680   0.583   0.785   3.436
10261SOL     OW31681   0.270   3.809   0.756
10261SOL    HW131682   0.202   3.831   0.825
10261SOL    HW231683   0.360   3.803   0.799
10262SOL     OW31684   4.163   1.473   0.962
10262SOL    HW131685   4.236   1.514   1.016
10262SOL    HW231686   4.114   1.545   0.912
10263SOL     OW31687   5.814   1.002   2.386
10263SOL    HW131688   5.738   0.950   2.424
10263SOL    HW231689   5.830   0.972   2.292
10264SOL     OW31690   6.466   6.986   6.683
10264SOL    HW131691   6.527   6.923   6.634
10264SOL    HW231692   6.391   6.935   6.723
10265SOL     OW31693   2.281   1.853   0.719
10265SOL    HW131694   2.287   1.879   0.622
10265SOL    HW231695   2.350   1.901   0.772
10266SOL     OW31696   2.734   3.583   1.632
10266SOL    HW131697   2.751   3.640   1.551
10266SOL    HW231698   2.800   3.607   1.704
10267SOL     OW31699   5.525   0.906   1.266
10267SOL    HW131700   5.600   0.972   1.258
10267SOL    HW231701   5.534   0.857   1.353
10268SOL     OW31702   3.604   6.257   2.045
10268SOL    HW131703   3.531   6.213   1.994
10268SOL    HW231704   3.616   6.350   2.012
10269SOL     OW31705   2.785   2.118   0.613
10269SOL    HW131706   2.853   2.073   0.670
10269SOL    HW231707   2.825   2.139   0.524
10270SOL     OW31708   3.140   0.465   3.043
10270SOL    HW131709   3.219   0.526   3.053
10270SOL    HW231710   3.166   0.372   3.065
10271SOL     OW31711   1.458   1.882   6.361
10271SOL    HW131712   1.555   1.908   6.363
10271SOL    HW231713   1.405   1.952   6.409
10272SOL     OW31714   6.075   0.224   4.350
10272SOL    HW131715   5.998   0.286   4.360
10272SOL    HW231716   6.142   0.242   4.422
10273SOL     OW31717   2.348   5.191   3.796
10273SOL    HW131718   2.356   5.287   3.822
10273SOL    HW231719   2.360   5.133   3.877
10274SOL     OW31720   0.961   4.937   5.300
10274SOL    HW131721   0.904   4.930   5.381
10274SOL    HW231722   1.018   5.019   5.306
10275SOL     OW31723   6.638   0.872   2.120
10275SOL    HW131724   6.640   0.775   2.142
10275SOL    HW231725   6.676   0.925   2.196
10276SOL     OW31726   3.762   5.395   5.059
10276SOL    HW131727   3.803   5.417   5.147
10276SOL    HW231728   3.762   5.296   5.047
10277SOL     OW31729   1.155   5.706   3.883
10277SOL    HW131730   1.105   5.792   3.874
10277SOL    HW231731   1.243   5.713   3.836
10278SOL     OW31732   6.763   6.991   5.121
10278SOL    HW131733   6.697   6.980   5.046
10278SOL    HW231734   6.849   6.946   5.096
10279SOL     OW31735   2.083   6.429   3.918
10279SOL    HW131736   2.007   6.370   3.946
10279SOL    HW231737   2.164   6.406   3.972
10280SOL     OW31738   6.466   4.520   0.107
10280SOL    HW131739   6.388   4.577   0.081
10280SOL    HW231740   6.444   4.467   0.188
10281SOL     OW31741   6.304   1.209   3.516
10281SOL    HW131742   6.337   1.161   3.597
10281SOL    HW231743   6.339   1.303   3.517
10282SOL     OW31744   5.146   3.388   3.265
10282SOL    HW131745   5.070   3.441   3.228
10282SOL    HW231746   5.153   3.301   3.216
10283SOL     OW31747   1.119   2.855   1.025
10283SOL    HW131748   1.101   2.813   0.936
10283SOL    HW231749   1.202   2.910   1.018
10284SOL     OW31750   7.004   3.829   4.228
10284SOL    HW131751   6.909   3.861   4.218
10284SOL    HW231752   0.015   3.856   4.317
10285SOL     OW31753   6.233   6.088   5.639
10285SOL    HW131754   6.134   6.088   5.653
10285SOL    HW231755   6.278   6.046   5.719
10286SOL     OW31756   3.099   1.405   3.397
10286SOL    HW131757   3.180   1.376   3.449
10286SOL    HW231758   3.128   1.465   3.322
10287SOL     OW31759   2.299   5.655   3.131
10287SOL    HW131760   2.265   5.746   3.154
10287SOL    HW231761   2.225   5.588   3.144
10288SOL     OW31762   3.994   6.549   5.237
10288SOL    HW131763   4.063   6.574   5.304
10288SOL    HW231764   4.004   6.606   5.155
10289SOL     OW31765   3.313   5.367   7.003
10289SOL    HW131766   3.337   5.270   7.002
10289SOL    HW231767   3.333   5.405   0.069
10290SOL     OW31768   3.791   2.886   1.869
10290SOL    HW131769   3.837   2.829   1.800
10290SOL    HW231770   3.775   2.831   1.952
10291SOL     OW31771   2.185   1.770   2.041
10291SOL    HW131772   2.210   1.864   2.063
10291SOL    HW231773   2.229   1.743   1.955
10292SOL     OW31774   6.612   0.070   5.747
10292SOL    HW131775   6.659   0.010   5.682
10292SOL    HW231776   6.680   0.122   5.800
10293SOL     OW31777   1.222   4.214   4.681
10293SOL    HW131778   1.258   4.281   4.615
10293SOL    HW231779   1.298   4.168   4.726
10294SOL     OW31780   3.492   1.398   2.137
10294SOL    HW131781   3.525   1.315   2.183
10294SOL    HW231782   3.528   1.400   2.044
10295SOL     OW31783   1.235   1.771   6.763
10295SOL    HW131784   1.214   1.860   6.722
10295SOL    HW231785   1.314   1.731   6.716
10296SOL     OW31786   6.020   1.207   5.692
10296SOL    HW131787   6.096   1.223   5.754
10296SOL    HW231788   6.055   1.179   5.602
10297SOL     OW31789   3.390   1.325   7.022
10297SOL    HW131790   3.384   1.237   6.976
10297SOL    HW231791   3.299   1.367   0.001
10298SOL     OW31792   0.417   2.415   2.422
10298SOL    HW131793   0.454   2.363   2.499
10298SOL    HW231794   0.390   2.506   2.453
10299SOL     OW31795   4.488   6.803   3.032
10299SOL    HW131796   4.545   6.767   2.958
10299SOL    HW231797   4.405   6.843   2.994
10300SOL     OW31798   1.269   3.986   1.881
10300SOL    HW131799   1.265   3.915   1.950
10300SOL    HW231800   1.249   3.947   1.791
10301SOL     OW31801   3.610   0.498   6.934
10301SOL    HW131802   3.599   0.542   7.023
10301SOL    HW231803   3.671   0.553   6.877
10302SOL     OW31804   3.049   6.312   5.054
10302SOL    HW131805   3.084   6.399   5.021
10302SOL    HW231806   3.074   6.300   5.150
10303SOL     OW31807   0.470   5.438   4.581
10303SOL    HW131808   0.373   5.461   4.570
10303SOL    HW231809   0.496   5.447   4.677
10304SOL     OW31810   5.905   6.442   0.680
10304SOL    HW131811   5.878   6.538   0.673
10304SOL    HW231812   5.867   6.403   0.764
10305SOL     OW31813   3.337   4.303   5.681
10305SOL    HW131814   3.274   4.358   5.626
10305SOL    HW231815   3.300   4.211   5.694
10306SOL     OW31816   3.991   0.274   1.095
10306SOL    HW131817   4.000   0.180   1.128
10306SOL    HW231818   3.970   0.273   0.997
10307SOL     OW31819   2.226   0.326   5.780
10307SOL    HW131820   2.184   0.238   5.759
10307SOL    HW231821   2.190   0.359   5.868
10308SOL     OW31822   2.753   4.837   2.219
10308SOL    HW131823   2.672   4.896   2.223
10308SOL    HW231824   2.739   4.766   2.150
10309SOL     OW31825   0.206   1.214   4.598
10309SOL    HW131826   0.280   1.157   4.633
10309SOL    HW231827   0.235   1.309   4.597
10310SOL     OW31828   1.902   3.922   5.709
10310SOL    HW131829   1.894   3.921   5.609
10310SOL    HW231830   1.943   4.009   5.738
10311SOL     OW31831   4.773   5.435   6.771
10311SOL    HW131832   4.770   5.339   6.797
10311SOL    HW231833   4.774   5.492   6.854
10312SOL     OW31834   4.301   0.444   2.173
10312SOL    HW131835   4.254   0.477   2.254
10312SOL    HW231836   4.258   0.483   2.091
10313SOL     OW31837   5.341   6.802   3.346
10313SOL    HW131838   5.394   6.723   3.318
10313SOL    HW231839   5.398   6.884   3.342
10314SOL     OW31840   0.401   0.287   0.841
10314SOL    HW131841   0.340   0.329   0.908
10314SOL    HW231842   0.459   0.358   0.801
10315SOL     OW31843   5.678   5.334   3.715
10315SOL    HW131844   5.605   5.385   3.761
10315SOL    HW231845   5.664   5.338   3.616
10316SOL     OW31846   0.314   2.066   0.072
10316SOL    HW131847   0.392   2.087   0.013
10316SOL    HW231848   0.242   2.134   0.059
10317SOL     OW31849   3.752   5.964   4.914
10317SOL    HW131850   3.799   5.892   4.965
10317SOL    HW231851   3.728   5.931   4.823
10318SOL     OW31852   6.253   6.882   0.641
10318SOL    HW131853   6.334   6.908   0.588
10318SOL    HW231854   6.220   6.793   0.608
10319SOL     OW31855   0.667   4.131   3.693
10319SOL    HW131856   0.635   4.039   3.719
10319SOL    HW231857   0.717   4.171   3.770
10320SOL     OW31858   0.555   6.356   3.886
10320SOL    HW131859   0.646   6.397   3.880
10320SOL    HW231860   0.489   6.411   3.835
10321SOL     OW31861   5.153   2.818   2.256
10321SOL    HW131862   5.214   2.822   2.177
10321SOL    HW231863   5.181   2.744   2.317
10322SOL     OW31864   4.632   4.439   4.976
10322SOL    HW131865   4.647   4.350   5.020
10322SOL    HW231866   4.539   4.470   4.993
10323SOL     OW31867   0.955   4.316   5.649
10323SOL    HW131868   0.908   4.234   5.680
10323SOL    HW231869   1.009   4.295   5.568
10324SOL     OW31870   3.013   3.429   1.791
10324SOL    HW131871   3.083   3.368   1.828
10324SOL    HW231872   2.927   3.378   1.781
10325SOL     OW31873   6.867   5.838   3.765
10325SOL    HW131874   6.908   5.747   3.756
10325SOL    HW231875   6.792   5.847   3.700
10326SOL     OW31876   5.510   3.618   6.793
10326SOL    HW131877   5.483   3.563   6.872
10326SOL    HW231878   5.604   3.650   6.805
10327SOL     OW31879   1.949   4.462   1.243
10327SOL    HW131880   2.015   4.463   1.168
10327SOL    HW231881   1.943   4.553   1.284
10328SOL     OW31882   5.607   2.115   2.493
10328SOL    HW131883   5.628   2.191   2.431
10328SOL    HW231884   5.691   2.064   2.513
10329SOL     OW31885   3.755   1.901   3.157
10329SOL    HW131886   3.745   1.858   3.067
10329SOL    HW231887   3.812   1.983   3.148
10330SOL     OW31888   4.805   1.135   1.812
10330SOL    HW131889   4.874   1.171   1.749
10330SOL    HW231890   4.719   1.185   1.801
10331SOL     OW31891   6.222   5.486   6.163
10331SOL    HW131892   6.270   5.404   6.192
10331SOL    HW231893   6.126   5.480   6.193
10332SOL     OW31894   1.895   0.978   6.528
10332SOL    HW131895   1.880   1.021   6.439
10332SOL    HW231896   1.969   0.911   6.520
10333SOL     OW31897   1.185   4.102   4.255
10333SOL    HW131898   1.103   4.047   4.273
10333SOL    HW231899   1.158   4.192   4.220
10334SOL     OW31900   3.634   0.823   3.623
10334SOL    HW131901   3.580   0.740   3.609
10334SOL    HW231902   3.671   0.824   3.716
10335SOL     OW31903   0.600   2.218   5.328
10335SOL    HW131904   0.609   2.268   5.241
10335SOL    HW231905   0.685   2.169   5.346
10336SOL     OW31906   5.243   6.794   3.622
10336SOL    HW131907   5.297   6.773   3.541
10336SOL    HW231908   5.169   6.857   3.597
10337SOL     OW31909   6.421   5.608   6.933
10337SOL    HW131910   6.481   5.528   6.933
10337SOL    HW231911   6.444   5.667   6.855
10338SOL     OW31912   1.574   6.291   1.808
10338SOL    HW131913   1.597   6.194   1.818
10338SOL    HW231914   1.569   6.333   1.898
10339SOL     OW31915   6.290   2.637   5.826
10339SOL    HW131916   6.235   2.689   5.891
10339SOL    HW231917   6.318   2.550   5.867
10340SOL     OW31918   2.404   3.278   6.475
10340SOL    HW131919   2.381   3.251   6.382
10340SOL    HW231920   2.487   3.335   6.474
10341SOL     OW31921   2.168   3.174   3.113
10341SOL    HW131922   2.086   3.142   3.161
10341SOL    HW231923   2.206   3.100   3.059
10342SOL     OW31924   0.475   0.986   4.099
10342SOL    HW131925   0.424   1.052   4.042
10342SOL    HW231926   0.550   0.948   4.046
10343SOL     OW31927   3.391   5.584   2.177
10343SOL    HW131928   3.355   5.535   2.097
10343SOL    HW231929   3.482   5.550   2.198
10344SOL     OW31930   4.365   5.919   5.988
10344SOL    HW131931   4.307   5.998   5.972
10344SOL    HW231932   4.409   5.891   5.902
10345SOL     OW31933   1.995   3.556   4.373
10345SOL    HW131934   1.969   3.571   4.468
10345SOL    HW231935   2.066   3.485   4.368
10346SOL     OW31936   6.788   5.855   0.101
10346SOL    HW131937   6.707   5.867   0.042
10346SOL    HW231938   6.783   5.921   0.176
10347SOL     OW31939   4.927   1.733   4.376
10347SOL    HW131940   5.014   1.685   4.361
10347SOL    HW231941   4.852   1.667   4.377
10348SOL     OW31942   6.782   4.295   0.803
10348SOL    HW131943   6.839   4.257   0.730
10348SOL    HW231944   6.808   4.254   0.890
10349SOL     OW31945   0.856   0.044   6.488
10349SOL    HW131946   0.771   0.082   6.523
10349SOL    HW231947   0.926   0.048   6.560
10350SOL     OW31948   2.942   6.965   6.003
10350SOL    HW131949   3.007   6.916   5.944
10350SOL    HW231950   2.874   6.900   6.038
10351SOL     OW31951   4.271   5.175   6.974
10351SOL    HW131952   4.207   5.252   6.981
10351SOL    HW231953   4.342   5.197   6.908
10352SOL     OW31954   3.145   3.795   6.285
10352SOL    HW131955   3.219   3.752   6.337
10352SOL    HW231956   3.154   3.774   6.188
10353SOL     OW31957   1.021   2.706   4.736
10353SOL    HW131958   0.934   2.750   4.714
10353SOL    HW231959   1.010   2.649   4.817
10354SOL     OW31960   5.696   1.447   1.572
10354SOL    HW131961   5.693   1.528   1.513
10354SOL    HW231962   5.626   1.382   1.543
10355SOL     OW31963   1.472   4.911   2.615
10355SOL    HW131964   1.527   4.847   2.562
10355SOL    HW231965   1.527   4.949   2.689
10356SOL     OW31966   0.254   2.634   4.697
10356SOL    HW131967   0.231   2.695   4.773
10356SOL    HW231968   0.225   2.676   4.611
10357SOL     OW31969   2.508   2.309   0.003
10357SOL    HW131970   2.470   2.401   0.004
10357SOL    HW231971   2.605   2.313   7.003
10358SOL     OW31972   0.172   1.401   2.127
10358SOL    HW131973   0.119   1.432   2.207
10358SOL    HW231974   0.269   1.400   2.151
10359SOL     OW31975   0.404   1.406   1.191
10359SOL    HW131976   0.493   1.390   1.234
10359SOL    HW231977   0.373   1.499   1.214
10360SOL     OW31978   6.848   6.289   3.402
10360SOL    HW131979   6.872   6.212   3.343
10360SOL    HW231980   6.930   6.345   3.419
10361SOL     OW31981   1.620   4.937   1.583
10361SOL    HW131982   1.586   4.981   1.666
10361SOL    HW231983   1.555   4.868   1.552
10362SOL     OW31984   1.367   5.165   4.490
10362SOL    HW131985   1.340   5.261   4.492
10362SOL    HW231986   1.460   5.158   4.453
10363SOL     OW31987   5.990   0.459   3.654
10363SOL    HW131988   6.081   0.469   3.614
10363SOL    HW231989   5.928   0.526   3.613
10364SOL     OW31990   1.405   4.458   1.252
10364SOL    HW131991   1.500   4.484   1.233
10364SOL    HW231992   1.404   4.372   1.302
10365SOL     OW31993   4.515   6.041   0.067
10365SOL    HW131994   4.531   6.114   0.001
10365SOL    HW231995   4.420   6.045   0.098
10366SOL     OW31996   3.553   6.913   3.881
10366SOL    HW131997   3.502   6.943   3.962
10366SOL    HW231998   3.607   6.832   3.903
10367SOL     OW31999   6.570   1.963   3.146
10367SOL    HW132000   6.649   2.024   3.146
10367SOL    HW232001   6.522   1.971   3.233
10368SOL     OW32002   2.905   0.257   1.096
10368SOL    HW132003   2.880   0.165   1.128
10368SOL    HW232004   2.826   0.298   1.050
10369SOL     OW32005   4.486   3.177   0.118
10369SOL    HW132006   4.532   3.140   0.199
10369SOL    HW232007   4.427   3.106   0.078
10370SOL     OW32008   4.011   0.690   5.296
10370SOL    HW132009   3.927   0.684   5.242
10370SOL    HW232010   4.038   0.786   5.305
10371SOL     OW32011   5.117   6.590   5.725
10371SOL    HW132012   5.184   6.637   5.783
10371SOL    HW232013   5.143   6.601   5.629
10372SOL     OW32014   1.170   0.476   3.489
10372SOL    HW132015   1.241   0.414   3.456
10372SOL    HW232016   1.107   0.497   3.415
10373SOL     OW32017   1.368   5.485   4.678
10373SOL    HW132018   1.350   5.428   4.758
10373SOL    HW232019   1.324   5.445   4.598
10374SOL     OW32020   2.756   2.259   4.669
10374SOL    HW132021   2.850   2.243   4.700
10374SOL    HW232022   2.703   2.175   4.676
10375SOL     OW32023   0.080   2.216   0.489
10375SOL    HW132024   0.024   2.136   0.467
10375SOL    HW232025   0.122   2.203   0.579
10376SOL     OW32026   6.564   0.785   3.731
10376SOL    HW132027   6.544   0.803   3.635
10376SOL    HW232028   6.648   0.730   3.738
10377SOL     OW32029   0.528   6.723   4.438
10377SOL    HW132030   0.514   6.711   4.536
10377SOL    HW232031   0.444   6.757   4.396
10378SOL     OW32032   6.453   6.933   5.916
10378SOL    HW132033   6.489   7.003   5.854
10378SOL    HW232034   6.484   6.843   5.885
10379SOL     OW32035   5.231   1.697   4.745
10379SOL    HW132036   5.176   1.627   4.699
10379SOL    HW232037   5.254   1.770   4.680
10380SOL     OW32038   4.634   0.743   3.504
10380SOL    HW132039   4.698   0.685   3.454
10380SOL    HW232040   4.636   0.836   3.467
10381SOL     OW32041   4.155   5.102   5.165
10381SOL    HW132042   4.218   5.118   5.241
10381SOL    HW232043   4.164   5.008   5.134
10382SOL     OW32044   1.757   6.267   0.400
10382SOL    HW132045   1.679   6.279   0.338
10382SOL    HW232046   1.725   6.224   0.485
10383SOL     OW32047   5.747   2.492   6.917
10383SOL    HW132048   5.807   2.430   6.867
10383SOL    HW232049   5.781   2.586   6.909
10384SOL     OW32050   6.032   0.614   0.035
10384SOL    HW132051   5.997   0.703   0.064
10384SOL    HW232052   6.014   0.546   0.106
10385SOL     OW32053   5.417   2.279   6.901
10385SOL    HW132054   5.356   2.200   6.895
10385SOL    HW232055   5.443   2.294   6.997
10386SOL     OW32056   6.585   2.080   6.332
10386SOL    HW132057   6.527   2.041   6.404
10386SOL    HW232058   6.530   2.137   6.272
10387SOL     OW32059   2.059   3.950   2.554
10387SOL    HW132060   1.975   3.993   2.520
10387SOL    HW232061   2.085   3.875   2.493
10388SOL     OW32062   1.436   4.611   2.340
10388SOL    HW132063   1.507   4.576   2.401
10388SOL    HW232064   1.383   4.681   2.388
10389SOL     OW32065   0.672   5.545   3.377
10389SOL    HW132066   0.626   5.567   3.292
10389SOL    HW232067   0.771   5.550   3.364
10390SOL     OW32068   2.124   3.462   3.237
10390SOL    HW132069   2.072   3.426   3.315
10390SOL    HW232070   2.155   3.387   3.179
10391SOL     OW32071   3.518   6.209   5.012
10391SOL    HW132072   3.575   6.133   4.980
10391SOL    HW232073   3.576   6.279   5.054
10392SOL     OW32074   6.549   5.382   6.742
10392SOL    HW132075   6.585   5.376   6.835
10392SOL    HW232076   6.546   5.290   6.702
10393SOL     OW32077   0.966   1.117   3.853
10393SOL    HW132078   0.955   1.051   3.778
10393SOL    HW232079   0.990   1.068   3.937
10394SOL     OW32080   2.959   6.579   0.089
10394SOL    HW132081   2.954   6.651   0.157
10394SOL    HW232082   2.891   6.508   0.110
10395SOL     OW32083   1.289   1.591   5.090
10395SOL    HW132084   1.271   1.613   4.994
10395SOL    HW232085   1.375   1.633   5.119
10396SOL     OW32086   0.558   6.718   5.044
10396SOL    HW132087   0.628   6.649   5.022
10396SOL    HW232088   0.479   6.705   4.983
10397SOL     OW32089   4.146   2.075   2.364
10397SOL    HW132090   4.100   2.012   2.302
10397SOL    HW232091   4.080   2.109   2.431
10398SOL     OW32092   6.616   3.702   2.226
10398SOL    HW132093   6.684   3.645   2.181
10398SOL    HW232094   6.556   3.744   2.158
10399SOL     OW32095   6.192   2.911   5.447
10399SOL    HW132096   6.218   2.856   5.368
10399SOL    HW232097   6.118   2.973   5.421
10400SOL     OW32098   1.695   4.494   1.844
10400SOL    HW132099   1.714   4.425   1.774
10400SOL    HW232100   1.695   4.585   1.802
10401SOL     OW32101   0.688   5.659   0.460
10401SOL    HW132102   0.660   5.589   0.395
10401SOL    HW232103   0.617   5.669   0.530
10402SOL     OW32104   0.725   2.199   4.528
10402SOL    HW132105   0.664   2.244   4.593
10402SOL    HW232106   0.820   2.208   4.560
10403SOL     OW32107   4.620   1.207   2.250
10403SOL    HW132108   4.693   1.213   2.318
10403SOL    HW232109   4.585   1.299   2.230
10404SOL     OW32110   0.286   6.914   3.899
10404SOL    HW132111   0.257   6.981   3.831
10404SOL    HW232112   0.212   6.850   3.918
10405SOL     OW32113   2.157   6.540   6.418
10405SOL    HW132114   2.182   6.478   6.493
10405SOL    HW232115   2.067   6.580   6.436
10406SOL     OW32116   1.993   6.009   5.845
10406SOL    HW132117   1.924   6.051   5.904
10406SOL    HW232118   1.952   5.986   5.757
10407SOL     OW32119   2.080   1.393   6.228
10407SOL    HW132120   2.041   1.411   6.137
10407SOL    HW232121   2.024   1.438   6.298
10408SOL     OW32122   4.268   6.114   3.417
10408SOL    HW132123   4.186   6.087   3.366
10408SOL    HW232124   4.336   6.151   3.354
10409SOL     OW32125   6.769   4.533   2.285
10409SOL    HW132126   6.822   4.618   2.293
10409SOL    HW232127   6.798   4.469   2.356
10410SOL     OW32128   5.793   6.151   0.428
10410SOL    HW132129   5.889   6.144   0.455
10410SOL    HW232130   5.737   6.169   0.510
10411SOL     OW32131   1.742   4.337   2.698
10411SOL    HW132132   1.703   4.248   2.719
10411SOL    HW232133   1.805   4.364   2.771
10412SOL     OW32134   0.090   2.070   6.609
10412SOL    HW132135   0.036   1.995   6.648
10412SOL    HW232136   0.099   2.144   6.676
10413SOL     OW32137   0.263   1.859   5.672
10413SOL    HW132138   0.331   1.916   5.627
10413SOL    HW232139   0.235   1.902   5.758
10414SOL     OW32140   5.602   6.313   4.734
10414SOL    HW132141   5.614   6.216   4.755
10414SOL    HW232142   5.513   6.328   4.692
10415SOL     OW32143   0.252   5.565   3.148
10415SOL    HW132144   0.335   5.598   3.191
10415SOL    HW232145   0.176   5.626   3.170
10416SOL     OW32146   4.782   7.004   6.977
10416SOL    HW132147   4.694   0.024   6.994
10416SOL    HW232148   4.840   0.040   6.921
10417SOL     OW32149   3.910   4.917   4.175
10417SOL    HW132150   3.969   4.840   4.201
10417SOL    HW232151   3.965   4.999   4.162
10418SOL     OW32152   6.631   3.952   0.070
10418SOL    HW132153   6.678   3.985   7.013
10418SOL    HW232154   6.605   4.029   0.128
10419SOL     OW32155   1.888   0.683   4.359
10419SOL    HW132156   1.803   0.688   4.411
10419SOL    HW232157   1.945   0.609   4.396
10420SOL     OW32158   5.859   3.346   4.644
10420SOL    HW132159   5.886   3.252   4.663
10420SOL    HW232160   5.793   3.348   4.570
10421SOL     OW32161   1.424   4.459   4.074
10421SOL    HW132162   1.400   4.362   4.075
10421SOL    HW232163   1.483   4.478   3.995
10422SOL     OW32164   5.610   3.222   5.342
10422SOL    HW132165   5.708   3.226   5.362
10422SOL    HW232166   5.560   3.277   5.409
10423SOL     OW32167   2.738   5.225   3.847
10423SOL    HW132168   2.685   5.298   3.805
10423SOL    HW232169   2.816   5.264   3.897
10424SOL     OW32170   3.871   1.247   1.577
10424SOL    HW132171   3.893   1.184   1.652
10424SOL    HW232172   3.874   1.197   1.491
10425SOL     OW32173   1.526   3.930   0.405
10425SOL    HW132174   1.578   3.847   0.383
10425SOL    HW232175   1.578   4.010   0.377
10426SOL     OW32176   5.958   2.439   6.437
10426SOL    HW132177   6.041   2.447   6.492
10426SOL    HW232178   5.938   2.342   6.422
10427SOL     OW32179   5.884   0.928   3.053
10427SOL    HW132180   5.870   1.011   2.999
10427SOL    HW232181   5.915   0.953   3.145
10428SOL     OW32182   1.589   6.676   5.015
10428SOL    HW132183   1.557   6.603   5.077
10428SOL    HW232184   1.578   6.764   5.060
10429SOL     OW32185   2.156   3.860   1.554
10429SOL    HW132186   2.081   3.912   1.596
10429SOL    HW232187   2.235   3.860   1.615
10430SOL     OW32188   3.465   0.367   4.681
10430SOL    HW132189   3.533   0.381   4.609
10430SOL    HW232190   3.463   0.270   4.706
10431SOL     OW32191   4.101   1.424   4.246
10431SOL    HW132192   4.024   1.390   4.191
10431SOL    HW232193   4.154   1.346   4.279
10432SOL     OW32194   1.207   5.229   0.291
10432SOL    HW132195   1.203   5.129   0.279
10432SOL    HW232196   1.116   5.268   0.277
10433SOL     OW32197   4.123   6.346   3.732
10433SOL    HW132198   4.126   6.307   3.824
10433SOL    HW232199   4.059   6.293   3.675
10434SOL     OW32200   4.108   1.150   6.237
10434SOL    HW132201   4.194   1.143   6.187
10434SOL    HW232202   4.069   1.058   6.248
10435SOL     OW32203   2.367   1.720   1.412
10435SOL    HW132204   2.287   1.747   1.465
10435SOL    HW232205   2.402   1.798   1.361
10436SOL     OW32206   1.270   3.389   4.552
10436SOL    HW132207   1.277   3.298   4.510
10436SOL    HW232208   1.341   3.399   4.622
10437SOL     OW32209   6.940   6.248   5.366
10437SOL    HW132210   6.997   6.188   5.422
10437SOL    HW232211   6.993   6.279   5.287
10438SOL     OW32212   6.803   6.002   6.628
10438SOL    HW132213   6.882   6.042   6.672
10438SOL    HW232214   6.748   6.074   6.584
10439SOL     OW32215   6.282   5.498   4.852
10439SOL    HW132216   6.329   5.412   4.870
10439SOL    HW232217   6.305   5.564   4.924
10440SOL     OW32218   5.809   2.313   0.964
10440SOL    HW132219   5.717   2.320   0.925
10440SOL    HW232220   5.839   2.403   0.994
10441SOL     OW32221   4.691   2.082   6.875
10441SOL    HW132222   4.597   2.050   6.864
10441SOL    HW232223   4.751   2.004   6.894
10442SOL     OW32224   2.388   1.532   4.935
10442SOL    HW132225   2.295   1.513   4.964
10442SOL    HW232226   2.447   1.456   4.961
10443SOL     OW32227   0.908   0.472   0.681
10443SOL    HW132228   0.879   0.486   0.587
10443SOL    HW232229   0.976   0.541   0.705
10444SOL     OW32230   4.673   4.752   3.612
10444SOL    HW132231   4.628   4.760   3.701
10444SOL    HW232232   4.640   4.670   3.565
10445SOL     OW32233   0.924   3.110   3.829
10445SOL    HW132234   0.964   3.140   3.915
10445SOL    HW232235   0.827   3.133   3.827
10446SOL     OW32236   2.480   4.768   5.028
10446SOL    HW132237   2.398   4.818   4.998
10446SOL    HW232238   2.535   4.745   4.948
10447SOL     OW32239   0.989   2.051   2.760
10447SOL    HW132240   0.933   2.104   2.823
10447SOL    HW232241   0.937   1.972   2.727
10448SOL     OW32242   1.678   6.036   2.405
10448SOL    HW132243   1.586   5.999   2.414
10448SOL    HW232244   1.690   6.112   2.469
10449SOL     OW32245   3.993   5.087   4.588
10449SOL    HW132246   3.928   5.035   4.532
10449SOL    HW232247   4.070   5.028   4.613
10450SOL     OW32248   0.653   1.584   4.422
10450SOL    HW132249   0.631   1.487   4.406
10450SOL    HW232250   0.694   1.594   4.513
10451SOL     OW32251   3.328   2.134   4.057
10451SOL    HW132252   3.411   2.178   4.023
10451SOL    HW232253   3.289   2.076   3.985
10452SOL     OW32254   6.813   2.772   4.572
10452SOL    HW132255   6.800   2.724   4.486
10452SOL    HW232256   6.805   2.708   4.649
10453SOL     OW32257   4.193   6.051   4.281
10453SOL    HW132258   4.250   6.122   4.321
10453SOL    HW232259   4.096   6.075   4.295
10454SOL     OW32260   6.513   0.905   0.035
10454SOL    HW132261   6.439   0.871   0.094
10454SOL    HW232262   6.520   0.846   6.979
10455SOL     OW32263   0.669   5.980   2.658
10455SOL    HW132264   0.572   6.001   2.649
10455SOL    HW232265   0.717   6.003   2.574
10456SOL     OW32266   1.121   5.612   6.003
10456SOL    HW132267   1.126   5.709   6.025
10456SOL    HW232268   1.214   5.576   5.991
10457SOL     OW32269   4.277   1.601   6.620
10457SOL    HW132270   4.262   1.551   6.706
10457SOL    HW232271   4.354   1.561   6.571
10458SOL     OW32272   1.552   6.400   6.765
10458SOL    HW132273   1.471   6.456   6.747
10458SOL    HW232274   1.533   6.334   6.837
10459SOL     OW32275   6.246   5.638   1.087
10459SOL    HW132276   6.146   5.644   1.089
10459SOL    HW232277   6.281   5.641   1.181
10460SOL     OW32278   6.410   0.881   0.516
10460SOL    HW132279   6.447   0.908   0.605
10460SOL    HW232280   6.453   0.937   0.444
10461SOL     OW32281   6.757   4.545   6.116
10461SOL    HW132282   6.677   4.553   6.176
10461SOL    HW232283   6.821   4.479   6.155
10462SOL     OW32284   2.943   3.837   6.481
10462SOL    HW132285   3.010   3.817   6.410
10462SOL    HW232286   2.987   3.887   6.556
10463SOL     OW32287   5.217   2.778   6.342
10463SOL    HW132288   5.205   2.708   6.412
10463SOL    HW232289   5.268   2.855   6.381
10464SOL     OW32290   6.476   4.438   1.806
10464SOL    HW132291   6.388   4.482   1.791
10464SOL    HW232292   6.538   4.459   1.730
10465SOL     OW32293   5.982   4.890   1.494
10465SOL    HW132294   5.949   4.906   1.401
10465SOL    HW232295   5.908   4.851   1.549
10466SOL     OW32296   6.058   4.136   5.977
10466SOL    HW132297   5.958   4.142   5.978
10466SOL    HW232298   6.095   4.213   5.925
10467SOL     OW32299   0.130   2.308   6.767
10467SOL    HW132300   0.188   2.369   6.820
10467SOL    HW232301   0.076   2.360   6.701
10468SOL     OW32302   1.415   4.383   4.531
10468SOL    HW132303   1.456   4.299   4.496
10468SOL    HW232304   1.487   4.445   4.564
10469SOL     OW32305   0.882   1.628   3.938
10469SOL    HW132306   0.835   1.639   4.025
10469SOL    HW232307   0.966   1.682   3.939
10470SOL     OW32308   2.161   4.026   2.098
10470SOL    HW132309   2.208   4.043   2.185
10470SOL    HW232310   2.171   3.929   2.074
10471SOL     OW32311   2.145   5.485   6.338
10471SOL    HW132312   2.238   5.460   6.310
10471SOL    HW232313   2.081   5.465   6.264
10472SOL     OW32314   3.884   5.223   6.526
10472SOL    HW132315   3.854   5.144   6.580
10472SOL    HW232316   3.957   5.270   6.575
10473SOL     OW32317   6.543   4.585   0.675
10473SOL    HW132318   6.472   4.521   0.704
10473SOL    HW232319   6.529   4.609   0.579
10474SOL     OW32320   6.510   6.976   4.977
10474SOL    HW132321   6.522   0.044   5.014
10474SOL    HW232322   6.426   6.973   4.923
10475SOL     OW32323   0.789   5.323   1.377
10475SOL    HW132324   0.797   5.223   1.373
10475SOL    HW232325   0.872   5.365   1.340
10476SOL     OW32326   5.016   6.418   0.947
10476SOL    HW132327   5.066   6.396   0.863
10476SOL    HW232328   4.931   6.366   0.950
10477SOL     OW32329   0.185   5.689   3.948
10477SOL    HW132330   0.230   5.704   4.036
10477SOL    HW232331   0.254   5.674   3.877
10478SOL     OW32332   0.069   0.952   6.535
10478SOL    HW132333   0.110   0.889   6.601
10478SOL    HW232334   7.013   0.910   6.493
10479SOL     OW32335   0.536   3.354   2.453
10479SOL    HW132336   0.527   3.340   2.552
10479SOL    HW232337   0.448   3.340   2.409
10480SOL     OW32338   2.907   0.931   3.162
10480SOL    HW132339   2.818   0.888   3.149
10480SOL    HW232340   2.902   0.993   3.241
10481SOL     OW32341   6.470   1.492   1.424
10481SOL    HW132342   6.435   1.476   1.516
10481SOL    HW232343   6.479   1.591   1.409
10482SOL     OW32344   5.562   2.997   3.704
10482SOL    HW132345   5.556   2.909   3.656
10482SOL    HW232346   5.573   3.071   3.637
10483SOL     OW32347   5.916   0.077   0.218
10483SOL    HW132348   5.940   0.028   0.134
10483SOL    HW232349   5.829   0.125   0.205
10484SOL     OW32350   6.757   0.793   1.856
10484SOL    HW132351   6.713   0.704   1.846
10484SOL    HW232352   6.714   0.843   1.932
10485SOL     OW32353   5.154   3.314   4.927
10485SOL    HW132354   5.179   3.408   4.904
10485SOL    HW232355   5.232   3.254   4.908
10486SOL     OW32356   5.080   2.726   2.736
10486SOL    HW132357   5.125   2.666   2.803
10486SOL    HW232358   5.004   2.677   2.693
10487SOL     OW32359   4.825   0.034   2.157
10487SOL    HW132360   4.870   7.016   2.236
10487SOL    HW232361   4.860   0.126   2.143
10488SOL     OW32362   3.713   3.984   6.784
10488SOL    HW132363   3.654   3.912   6.821
10488SOL    HW232364   3.788   3.943   6.732
10489SOL     OW32365   1.918   5.358   5.288
10489SOL    HW132366   1.896   5.404   5.202
10489SOL    HW232367   1.833   5.329   5.332
10490SOL     OW32368   6.421   0.254   4.203
10490SOL    HW132369   6.365   0.191   4.150
10490SOL    HW232370   6.439   0.215   4.293
10491SOL     OW32371   0.119   5.060   5.177
10491SOL    HW132372   0.136   5.010   5.092
10491SOL    HW232373   0.050   5.011   5.231
10492SOL     OW32374   3.836   4.440   5.993
10492SOL    HW132375   3.781   4.395   6.063
10492SOL    HW232376   3.892   4.511   6.036
10493SOL     OW32377   3.604   1.391   0.526
10493SOL    HW132378   3.683   1.331   0.509
10493SOL    HW232379   3.531   1.338   0.569
10494SOL     OW32380   5.497   1.906   5.250
10494SOL    HW132381   5.496   2.006   5.260
10494SOL    HW232382   5.478   1.882   5.155
10495SOL     OW32383   1.544   0.179   0.087
10495SOL    HW132384   1.508   0.265   0.123
10495SOL    HW232385   1.566   0.118   0.163
10496SOL     OW32386   6.258   0.545   5.777
10496SOL    HW132387   6.340   0.554   5.834
10496SOL    HW232388   6.285   0.547   5.680
10497SOL     OW32389   1.078   1.855   6.960
10497SOL    HW132390   1.117   1.799   6.887
10497SOL    HW232391   0.978   1.853   6.954
10498SOL     OW32392   2.895   4.575   5.737
10498SOL    HW132393   2.899   4.640   5.812
10498SOL    HW232394   2.827   4.505   5.757
10499SOL     OW32395   3.205   5.208   3.252
10499SOL    HW132396   3.219   5.110   3.232
10499SOL    HW232397   3.149   5.217   3.334
10500SOL     OW32398   1.861   1.971   6.797
10500SOL    HW132399   1.896   1.898   6.737
10500SOL    HW232400   1.908   2.057   6.775
10501SOL     OW32401   1.143   2.540   3.460
10501SOL    HW132402   1.150   2.443   3.482
10501SOL    HW232403   1.121   2.591   3.543
10502SOL     OW32404   2.942   5.840   5.265
10502SOL    HW132405   3.037   5.870   5.276
10502SOL    HW232406   2.921   5.831   5.167
10503SOL     OW32407   2.779   3.255   5.538
10503SOL    HW132408   2.768   3.313   5.458
10503SOL    HW232409   2.737   3.166   5.520
10504SOL     OW32410   2.475   3.194   1.480
10504SOL    HW132411   2.529   3.237   1.552
10504SOL    HW232412   2.398   3.254   1.455
10505SOL     OW32413   0.198   0.375   0.989
10505SOL    HW132414   0.197   0.328   1.077
10505SOL    HW232415   0.133   0.332   0.927
10506SOL     OW32416   0.380   3.840   5.370
10506SOL    HW132417   0.422   3.864   5.283
10506SOL    HW232418   0.283   3.867   5.368
10507SOL     OW32419   1.687   0.435   3.866
10507SOL    HW132420   1.682   0.490   3.949
10507SOL    HW232421   1.596   0.402   3.842
10508SOL     OW32422   5.442   3.387   2.371
10508SOL    HW132423   5.401   3.456   2.313
10508SOL    HW232424   5.370   3.341   2.424
10509SOL     OW32425   1.791   0.762   6.243
10509SOL    HW132426   1.876   0.786   6.196
10509SOL    HW232427   1.757   0.841   6.294
10510SOL     OW32428   5.845   6.757   6.584
10510SOL    HW132429   5.783   6.834   6.598
10510SOL    HW232430   5.866   6.747   6.487
10511SOL     OW32431   0.453   2.135   0.896
10511SOL    HW132432   0.520   2.178   0.956
10511SOL    HW232433   0.401   2.205   0.847
10512SOL     OW32434   3.065   6.501   6.079
10512SOL    HW132435   2.971   6.478   6.052
10512SOL    HW232436   3.063   6.578   6.142
10513SOL     OW32437   7.017   1.924   0.579
10513SOL    HW132438   0.071   1.870   0.546
10513SOL    HW232439   7.002   1.903   0.676
10514SOL     OW32440   6.933   3.184   1.354
10514SOL    HW132441   6.833   3.179   1.352
10514SOL    HW232442   6.961   3.242   1.431
10515SOL     OW32443   6.210   2.757   4.297
10515SOL    HW132444   6.226   2.853   4.320
10515SOL    HW232445   6.149   2.752   4.218
10516SOL     OW32446   3.081   0.033   0.765
10516SOL    HW132447   2.997   7.001   0.769
10516SOL    HW232448   3.113   0.037   0.670
10517SOL     OW32449   6.711   2.182   2.765
10517SOL    HW132450   6.797   2.158   2.720
10517SOL    HW232451   6.660   2.099   2.788
10518SOL     OW32452   0.472   6.525   2.774
10518SOL    HW132453   0.503   6.473   2.854
10518SOL    HW232454   0.550   6.576   2.737
10519SOL     OW32455   3.478   3.513   5.323
10519SOL    HW132456   3.453   3.590   5.382
10519SOL    HW232457   3.415   3.510   5.245
10520SOL     OW32458   3.645   4.389   6.515
10520SOL    HW132459   3.723   4.405   6.574
10520SOL    HW232460   3.563   4.375   6.570
10521SOL     OW32461   6.328   5.338   2.301
10521SOL    HW132462   6.336   5.435   2.325
10521SOL    HW232463   6.244   5.301   2.340
10522SOL     OW32464   6.554   6.966   1.669
10522SOL    HW132465   6.620   0.012   1.694
10522SOL    HW232466   6.462   7.007   1.667
10523SOL     OW32467   0.194   5.802   6.647
10523SOL    HW132468   0.210   5.786   6.549
10523SOL    HW232469   0.280   5.825   6.691
10524SOL     OW32470   4.815   0.594   4.299
10524SOL    HW132471   4.830   0.674   4.242
10524SOL    HW232472   4.835   0.511   4.247
10525SOL     OW32473   3.137   5.996   5.078
10525SOL    HW132474   3.105   6.090   5.092
10525SOL    HW232475   3.133   5.973   4.981
10526SOL     OW32476   5.293   0.303   2.202
10526SOL    HW132477   5.358   0.303   2.127
10526SOL    HW232478   5.236   0.386   2.197
10527SOL     OW32479   1.975   2.675   4.615
10527SOL    HW132480   1.930   2.712   4.696
10527SOL    HW232481   1.917   2.689   4.535
10528SOL     OW32482   6.254   4.619   5.452
10528SOL    HW132483   6.293   4.712   5.448
10528SOL    HW232484   6.324   4.553   5.424
10529SOL     OW32485   0.054   6.248   4.698
10529SOL    HW132486   0.138   6.276   4.653
10529SOL    HW232487   0.066   6.158   4.739
10530SOL     OW32488   2.291   1.868   5.383
10530SOL    HW132489   2.220   1.882   5.453
10530SOL    HW232490   2.267   1.790   5.326
10531SOL     OW32491   1.302   2.032   5.762
10531SOL    HW132492   1.392   2.032   5.805
10531SOL    HW232493   1.302   1.968   5.684
10532SOL     OW32494   3.508   3.072   5.223
10532SOL    HW132495   3.420   3.076   5.272
10532SOL    HW232496   3.491   3.063   5.125
10533SOL     OW32497   2.689   1.342   6.499
10533SOL    HW132498   2.775   1.298   6.524
10533SOL    HW232499   2.685   1.434   6.536
10534SOL     OW32500   5.970   5.627   1.165
10534SOL    HW132501   5.955   5.671   1.254
10534SOL    HW232502   5.939   5.687   1.092
10535SOL     OW32503   0.425   1.573   2.056
10535SOL    HW132504   0.510   1.627   2.055
10535SOL    HW232505   0.402   1.549   2.150
10536SOL     OW32506   5.288   5.986   3.989
10536SOL    HW132507   5.282   5.989   4.088
10536SOL    HW232508   5.376   5.948   3.962
10537SOL     OW32509   0.037   5.627   1.393
10537SOL    HW132510   6.968   5.615   1.429
10537SOL    HW232511   0.063   5.724   1.400
10538SOL     OW32512   4.448   4.080   6.829
10538SOL    HW132513   4.388   4.035   6.763
10538SOL    HW232514   4.476   4.014   6.900
10539SOL     OW32515   1.074   3.341   5.542
10539SOL    HW132516   1.136   3.329   5.465
10539SOL    HW232517   1.108   3.414   5.602
10540SOL     OW32518   2.786   0.900   0.306
10540SOL    HW132519   2.695   0.912   0.346
10540SOL    HW232520   2.811   0.803   0.310
10541SOL     OW32521   4.764   2.200   0.459
10541SOL    HW132522   4.704   2.220   0.537
10541SOL    HW232523   4.841   2.263   0.461
10542SOL     OW32524   1.313   2.355   0.310
10542SOL    HW132525   1.250   2.359   0.388
10542SOL    HW232526   1.407   2.353   0.343
10543SOL     OW32527   2.725   0.864   5.049
10543SOL    HW132528   2.727   0.957   5.087
10543SOL    HW232529   2.780   0.804   5.107
10544SOL     OW32530   0.083   2.300   1.295
10544SOL    HW132531   0.082   2.393   1.258
10544SOL    HW232532   0.007   2.248   1.257
10545SOL     OW32533   5.074   0.799   3.495
10545SOL    HW132534   5.058   0.860   3.417
10545SOL    HW232535   5.024   0.833   3.575
10546SOL     OW32536   4.111   1.424   5.270
10546SOL    HW132537   4.110   1.516   5.231
10546SOL    HW232538   4.200   1.382   5.253
10547SOL     OW32539   3.898   6.958   1.336
10547SOL    HW132540   3.844   0.016   1.316
10547SOL    HW232541   3.917   6.953   1.434
10548SOL     OW32542   4.199   4.841   5.485
10548SOL    HW132543   4.175   4.771   5.417
10548SOL    HW232544   4.187   4.804   5.577
10549SOL     OW32545   1.312   1.237   1.598
10549SOL    HW132546   1.310   1.323   1.547
10549SOL    HW232547   1.297   1.161   1.534
10550SOL     OW32548   5.586   0.082   4.755
10550SOL    HW132549   5.593   0.013   4.827
10550SOL    HW232550   5.665   0.144   4.759
10551SOL     OW32551   1.218   3.003   6.128
10551SOL    HW132552   1.148   2.932   6.131
10551SOL    HW232553   1.205   3.065   6.205
10552SOL     OW32554   3.372   1.934   4.799
10552SOL    HW132555   3.346   1.908   4.892
10552SOL    HW232556   3.296   1.916   4.736
10553SOL     OW32557   3.016   5.016   5.978
10553SOL    HW132558   3.083   5.035   5.906
10553SOL    HW232559   3.061   5.026   6.067
10554SOL     OW32560   6.421   4.486   6.005
10554SOL    HW132561   6.418   4.406   5.945
10554SOL    HW232562   6.448   4.567   5.952
10555SOL     OW32563   3.295   2.467   1.034
10555SOL    HW132564   3.301   2.501   1.128
10555SOL    HW232565   3.344   2.529   0.973
10556SOL     OW32566   1.763   3.607   4.250
10556SOL    HW132567   1.838   3.555   4.291
10556SOL    HW232568   1.801   3.679   4.191
10557SOL     OW32569   5.635   1.312   3.331
10557SOL    HW132570   5.545   1.275   3.306
10557SOL    HW232571   5.684   1.341   3.249
10558SOL     OW32572   5.098   5.689   4.997
10558SOL    HW132573   5.028   5.757   4.973
10558SOL    HW232574   5.081   5.657   5.091
10559SOL     OW32575   4.301   2.542   1.079
10559SOL    HW132576   4.227   2.547   1.146
10559SOL    HW232577   4.386   2.574   1.122
10560SOL     OW32578   0.225   3.188   4.381
10560SOL    HW132579   0.310   3.197   4.433
10560SOL    HW232580   0.233   3.110   4.318
10561SOL     OW32581   3.238   4.155   5.995
10561SOL    HW132582   3.264   4.234   5.939
10561SOL    HW232583   3.216   4.078   5.935
10562SOL     OW32584   3.212   1.589   0.467
10562SOL    HW132585   3.112   1.595   0.468
10562SOL    HW232586   3.250   1.659   0.527
10563SOL     OW32587   1.180   1.852   3.339
10563SOL    HW132588   1.207   1.947   3.355
10563SOL    HW232589   1.248   1.807   3.281
10564SOL     OW32590   7.002   2.222   2.333
10564SOL    HW132591   0.018   2.283   2.401
10564SOL    HW232592   6.949   2.276   2.267
10565SOL     OW32593   5.265   1.393   5.135
10565SOL    HW132594   5.183   1.365   5.085
10565SOL    HW232595   5.315   1.462   5.081
10566SOL     OW32596   4.247   5.478   0.444
10566SOL    HW132597   4.159   5.525   0.444
10566SOL    HW232598   4.249   5.413   0.520
10567SOL     OW32599   2.025   5.116   4.118
10567SOL    HW132600   2.086   5.194   4.130
10567SOL    HW232601   1.975   5.126   4.032
10568SOL     OW32602   3.796   1.817   2.878
10568SOL    HW132603   3.729   1.752   2.842
10568SOL    HW232604   3.782   1.906   2.836
10569SOL     OW32605   5.909   2.942   3.305
10569SOL    HW132606   5.983   3.003   3.334
10569SOL    HW232607   5.863   2.906   3.386
10570SOL     OW32608   1.140   4.175   1.584
10570SOL    HW132609   1.070   4.208   1.647
10570SOL    HW232610   1.158   4.078   1.602
10571SOL     OW32611   6.202   6.693   5.033
10571SOL    HW132612   6.127   6.721   5.092
10571SOL    HW232613   6.240   6.773   4.986
10572SOL     OW32614   6.432   3.188   1.537
10572SOL    HW132615   6.358   3.143   1.487
10572SOL    HW232616   6.476   3.123   1.598
10573SOL     OW32617   6.344   4.433   6.435
10573SOL    HW132618   6.329   4.515   6.491
10573SOL    HW232619   6.358   4.354   6.494
10574SOL     OW32620   0.660   1.961   3.661
10574SOL    HW132621   0.685   1.967   3.758
10574SOL    HW232622   0.691   1.873   3.624
10575SOL     OW32623   0.417   6.857   6.208
10575SOL    HW132624   0.481   6.933   6.218
10575SOL    HW232625   0.467   6.774   6.186
10576SOL     OW32626   1.302   5.273   3.306
10576SOL    HW132627   1.316   5.338   3.231
10576SOL    HW232628   1.246   5.315   3.377
10577SOL     OW32629   0.634   3.274   5.551
10577SOL    HW132630   0.535   3.257   5.544
10577SOL    HW232631   0.678   3.197   5.598
10578SOL     OW32632   5.532   1.207   5.730
10578SOL    HW132633   5.563   1.113   5.723
10578SOL    HW232634   5.612   1.268   5.737
10579SOL     OW32635   4.886   7.023   1.094
10579SOL    HW132636   4.862   0.081   1.147
10579SOL    HW232637   4.973   6.987   1.125
10580SOL     OW32638   6.665   6.321   0.716
10580SOL    HW132639   6.594   6.366   0.771
10580SOL    HW232640   6.638   6.322   0.620
10581SOL     OW32641   4.915   2.199   3.586
10581SOL    HW132642   4.990   2.264   3.595
10581SOL    HW232643   4.828   2.248   3.596
10582SOL     OW32644   3.330   4.791   0.284
10582SOL    HW132645   3.258   4.848   0.244
10582SOL    HW232646   3.291   4.703   0.311
10583SOL     OW32647   4.169   0.858   1.569
10583SOL    HW132648   4.130   0.908   1.492
10583SOL    HW232649   4.248   0.907   1.604
10584SOL     OW32650   5.864   0.147   1.580
10584SOL    HW132651   5.883   0.060   1.626
10584SOL    HW232652   5.940   0.170   1.519
10585SOL     OW32653   2.187   4.427   6.418
10585SOL    HW132654   2.272   4.415   6.469
10585SOL    HW232655   2.202   4.404   6.322
10586SOL     OW32656   4.695   1.397   0.319
10586SOL    HW132657   4.597   1.384   0.305
10586SOL    HW232658   4.745   1.337   0.257
10587SOL     OW32659   5.919   3.225   0.409
10587SOL    HW132660   5.932   3.313   0.457
10587SOL    HW232661   5.858   3.238   0.332
10588SOL     OW32662   1.485   4.929   3.538
10588SOL    HW132663   1.439   4.998   3.481
10588SOL    HW232664   1.447   4.839   3.518
10589SOL     OW32665   6.157   1.321   4.459
10589SOL    HW132666   6.226   1.252   4.434
10589SOL    HW232667   6.066   1.284   4.440
10590SOL     OW32668   1.595   0.725   5.067
10590SOL    HW132669   1.690   0.722   5.097
10590SOL    HW232670   1.535   0.702   5.144
10591SOL     OW32671   1.317   2.589   0.945
10591SOL    HW132672   1.359   2.554   0.861
10591SOL    HW232673   1.299   2.513   1.007
10592SOL     OW32674   6.070   1.540   6.780
10592SOL    HW132675   6.012   1.596   6.721
10592SOL    HW232676   6.140   1.597   6.822
10593SOL     OW32677   1.377   4.980   2.126
10593SOL    HW132678   1.303   5.018   2.182
10593SOL    HW232679   1.461   4.977   2.180
10594SOL     OW32680   0.872   1.318   4.416
10594SOL    HW132681   0.907   1.333   4.323
10594SOL    HW232682   0.785   1.268   4.411
10595SOL     OW32683   2.599   5.326   5.241
10595SOL    HW132684   2.637   5.234   5.234
10595SOL    HW232685   2.513   5.322   5.292
10596SOL     OW32686   3.176   0.727   2.272
10596SOL    HW132687   3.116   0.805   2.290
10596SOL    HW232688   3.230   0.745   2.190
10597SOL     OW32689   2.481   0.515   3.720
10597SOL    HW132690   2.477   0.520   3.820
10597SOL    HW232691   2.505   0.605   3.683
10598SOL     OW32692   2.205   1.428   0.090
10598SOL    HW132693   2.157   1.341   0.101
10598SOL    HW232694   2.139   1.503   0.093
10599SOL     OW32695   4.854   0.523   6.819
10599SOL    HW132696   4.926   0.502   6.753
10599SOL    HW232697   4.876   0.607   6.867
10600SOL     OW32698   1.634   1.863   5.600
10600SOL    HW132699   1.694   1.850   5.679
10600SOL    HW232700   1.665   1.941   5.547
10601SOL     OW32701   3.753   5.641   5.635
10601SOL    HW132702   3.766   5.617   5.732
10601SOL    HW232703   3.659   5.671   5.621
10602SOL     OW32704   4.756   0.828   1.272
10602SOL    HW132705   4.753   0.902   1.204
10602SOL    HW232706   4.732   0.742   1.228
10603SOL     OW32707   0.871   5.060   4.842
10603SOL    HW132708   0.957   5.020   4.875
10603SOL    HW232709   0.885   5.100   4.752
10604SOL     OW32710   6.978   4.389   5.480
10604SOL    HW132711   7.009   4.427   5.567
10604SOL    HW232712   7.023   4.302   5.463
10605SOL     OW32713   1.917   5.125   6.146
10605SOL    HW132714   1.844   5.186   6.116
10605SOL    HW232715   1.897   5.032   6.116
10606SOL     OW32716   0.737   0.725   2.917
10606SOL    HW132717   0.820   0.770   2.884
10606SOL    HW232718   0.729   0.635   2.872
10607SOL     OW32719   5.638   4.747   6.521
10607SOL    HW132720   5.706   4.684   6.558
10607SOL    HW232721   5.581   4.782   6.595
10608SOL     OW32722   5.826   0.578   2.720
10608SOL    HW132723   5.892   0.522   2.671
10608SOL    HW232724   5.851   0.674   2.711
10609SOL     OW32725   3.922   6.616   2.304
10609SOL    HW132726   3.843   6.576   2.258
10609SOL    HW232727   3.901   6.632   2.400
10610SOL     OW32728   1.948   4.477   4.580
10610SOL    HW132729   1.987   4.438   4.497
10610SOL    HW232730   2.014   4.470   4.655
10611SOL     OW32731   5.148   2.530   6.119
10611SOL    HW132732   5.152   2.618   6.071
10611SOL    HW232733   5.060   2.521   6.164
10612SOL     OW32734   1.586   6.699   1.069
10612SOL    HW132735   1.587   6.760   1.148
10612SOL    HW232736   1.524   6.623   1.086
10613SOL     OW32737   0.199   6.887   6.586
10613SOL    HW132738   0.113   6.936   6.570
10613SOL    HW232739   0.269   6.953   6.614
10614SOL     OW32740   6.670   0.813   4.026
10614SOL    HW132741   6.626   0.725   4.010
10614SOL    HW232742   6.601   0.885   4.031
10615SOL     OW32743   6.678   5.809   5.520
10615SOL    HW132744   6.587   5.773   5.498
10615SOL    HW232745   6.703   5.879   5.454
10616SOL     OW32746   2.573   5.887   0.618
10616SOL    HW132747   2.623   5.863   0.701
10616SOL    HW232748   2.637   5.920   0.549
10617SOL     OW32749   6.904   1.831   6.612
10617SOL    HW132750   6.879   1.746   6.658
10617SOL    HW232751   6.887   1.821   6.514
10618SOL     OW32752   6.513   3.828   1.347
10618SOL    HW132753   6.455   3.751   1.375
10618SOL    HW232754   6.609   3.800   1.351
10619SOL     OW32755   0.458   4.216   3.171
10619SOL    HW132756   0.401   4.200   3.252
10619SOL    HW232757   0.405   4.196   3.089
10620SOL     OW32758   1.131   5.272   4.284
10620SOL    HW132759   1.092   5.261   4.192
10620SOL    HW232760   1.167   5.184   4.316
10621SOL     OW32761   2.803   6.639   0.604
10621SOL    HW132762   2.794   6.623   0.702
10621SOL    HW232763   2.719   6.610   0.558
10622SOL     OW32764   4.527   1.935   1.262
10622SOL    HW132765   4.458   2.007   1.251
10622SOL    HW232766   4.526   1.904   1.357
10623SOL     OW32767   6.956   0.597   4.465
10623SOL    HW132768   6.978   0.657   4.388
10623SOL    HW232769   6.982   0.642   4.551
10624SOL     OW32770   2.741   1.394   4.287
10624SOL    HW132771   2.726   1.412   4.189
10624SOL    HW232772   2.743   1.481   4.337
10625SOL     OW32773   0.946   3.176   0.136
10625SOL    HW132774   1.024   3.207   0.190
10625SOL    HW232775   0.972   3.096   0.082
10626SOL     OW32776   5.900   2.106   1.804
10626SOL    HW132777   5.876   2.010   1.820
10626SOL    HW232778   5.989   2.126   1.845
10627SOL     OW32779   6.050   5.787   4.390
10627SOL    HW132780   6.032   5.828   4.480
10627SOL    HW232781   6.144   5.806   4.363
10628SOL     OW32782   0.038   5.757   5.813
10628SOL    HW132783   6.979   5.801   5.779
10628SOL    HW232784   0.013   5.686   5.879
10629SOL     OW32785   2.678   4.997   6.213
10629SOL    HW132786   2.750   5.061   6.186
10629SOL    HW232787   2.691   4.909   6.167
10630SOL     OW32788   6.725   0.986   2.347
10630SOL    HW132789   6.681   1.075   2.353
10630SOL    HW232790   6.686   0.925   2.417
10631SOL     OW32791   0.836   6.799   4.703
10631SOL    HW132792   0.883   6.713   4.684
10631SOL    HW232793   0.866   6.834   4.792
10632SOL     OW32794   0.249   3.005   5.948
10632SOL    HW132795   0.170   2.999   6.010
10632SOL    HW232796   0.271   3.100   5.932
10633SOL     OW32797   0.788   5.200   1.069
10633SOL    HW132798   0.704   5.156   1.035
10633SOL    HW232799   0.865   5.176   1.010
10634SOL     OW32800   4.309   6.252   2.008
10634SOL    HW132801   4.218   6.291   2.023
10634SOL    HW232802   4.312   6.160   2.045
10635SOL     OW32803   1.351   0.776   1.632
10635SOL    HW132804   1.418   0.705   1.657
10635SOL    HW232805   1.337   0.775   1.533
10636SOL     OW32806   6.053   1.455   0.756
10636SOL    HW132807   6.012   1.524   0.815
10636SOL    HW232808   6.060   1.368   0.806
10637SOL     OW32809   3.426   4.432   5.917
10637SOL    HW132810   3.396   4.415   5.823
10637SOL    HW232811   3.407   4.527   5.942
10638SOL     OW32812   6.802   0.207   5.900
10638SOL    HW132813   6.747   0.225   5.981
10638SOL    HW232814   6.839   0.293   5.864
10639SOL     OW32815   3.355   1.790   5.081
10639SOL    HW132816   3.276   1.849   5.064
10639SOL    HW232817   3.395   1.814   5.170
10640SOL     OW32818   4.416   5.906   0.762
10640SOL    HW132819   4.418   5.893   0.861
10640SOL    HW232820   4.502   5.948   0.732
10641SOL     OW32821   3.847   1.068   6.541
10641SOL    HW132822   3.783   1.141   6.518
10641SOL    HW232823   3.913   1.101   6.609
10642SOL     OW32824   0.327   4.750   0.308
10642SOL    HW132825   0.381   4.683   0.358
10642SOL    HW232826   0.297   4.711   0.221
10643SOL     OW32827   4.184   3.358   5.605
10643SOL    HW132828   4.251   3.412   5.655
10643SOL    HW232829   4.224   3.271   5.577
10644SOL     OW32830   3.867   1.403   4.721
10644SOL    HW132831   3.772   1.374   4.729
10644SOL    HW232832   3.872   1.492   4.674
10645SOL     OW32833   2.261   6.964   5.064
10645SOL    HW132834   2.211   6.898   5.008
10645SOL    HW232835   2.213   0.028   5.061
10646SOL     OW32836   1.373   4.518   6.748
10646SOL    HW132837   1.470   4.536   6.759
10646SOL    HW232838   1.330   4.593   6.698
10647SOL     OW32839   0.146   5.800   0.912
10647SOL    HW132840   0.097   5.868   0.966
10647SOL    HW232841   0.104   5.793   0.822
10648SOL     OW32842   4.439   5.294   6.785
10648SOL    HW132843   4.395   5.271   6.699
10648SOL    HW232844   4.505   5.367   6.771
10649SOL     OW32845   6.979   4.449   6.283
10649SOL    HW132846   0.041   4.422   6.239
10649SOL    HW232847   6.955   4.381   6.353
10650SOL     OW32848   3.321   0.750   5.446
10650SOL    HW132849   3.247   0.765   5.512
10650SOL    HW232850   3.321   0.655   5.416
10651SOL     OW32851   2.691   0.343   5.551
10651SOL    HW132852   2.713   0.260   5.602
10651SOL    HW232853   2.772   0.375   5.502
10652SOL     OW32854   3.771   1.230   0.401
10652SOL    HW132855   3.859   1.215   0.356
10652SOL    HW232856   3.701   1.175   0.357
10653SOL     OW32857   5.672   3.153   4.239
10653SOL    HW132858   5.577   3.133   4.215
10653SOL    HW232859   5.728   3.154   4.156
10654SOL     OW32860   4.465   0.734   1.681
10654SOL    HW132861   4.389   0.694   1.732
10654SOL    HW232862   4.455   0.712   1.584
10655SOL     OW32863   2.775   5.602   1.027
10655SOL    HW132864   2.780   5.509   1.063
10655SOL    HW232865   2.855   5.654   1.055
10656SOL     OW32866   6.363   2.665   6.906
10656SOL    HW132867   6.451   2.663   6.860
10656SOL    HW232868   6.328   2.572   6.917
10657SOL     OW32869   6.092   0.185   1.408
10657SOL    HW132870   6.167   0.231   1.361
10657SOL    HW232871   6.125   0.101   1.451
10658SOL     OW32872   0.384   6.459   4.677
10658SOL    HW132873   0.373   6.549   4.719
10658SOL    HW232874   0.481   6.439   4.664
10659SOL     OW32875   4.814   0.888   0.613
10659SOL    HW132876   4.823   0.790   0.595
10659SOL    HW232877   4.883   0.938   0.562
10660SOL     OW32878   5.580   5.754   5.886
10660SOL    HW132879   5.556   5.657   5.888
10660SOL    HW232880   5.657   5.771   5.948
10661SOL     OW32881   0.561   0.551   2.372
10661SOL    HW132882   0.595   0.574   2.463
10661SOL    HW232883   0.632   0.572   2.304
10662SOL     OW32884   6.339   1.708   0.033
10662SOL    HW132885   6.267   1.653   0.075
10662SOL    HW232886   6.321   1.805   0.049
10663SOL     OW32887   0.266   1.824   0.707
10663SOL    HW132888   0.245   1.769   0.626
10663SOL    HW232889   0.356   1.867   0.696
10664SOL     OW32890   1.987   5.452   6.117
10664SOL    HW132891   1.962   5.548   6.105
10664SOL    HW232892   2.073   5.434   6.070
10665SOL     OW32893   5.549   1.151   6.723
10665SOL    HW132894   5.573   1.175   6.817
10665SOL    HW232895   5.499   1.064   6.722
10666SOL     OW32896   0.253   7.008   0.335
10666SOL    HW132897   0.190   7.002   0.258
10666SOL    HW232898   0.345   0.005   0.302
10667SOL     OW32899   3.106   2.452   5.758
10667SOL    HW132900   3.026   2.506   5.731
10667SOL    HW232901   3.185   2.513   5.767
10668SOL     OW32902   2.485   0.934   6.467
10668SOL    HW132903   2.567   0.878   6.473
10668SOL    HW232904   2.495   1.000   6.393
10669SOL     OW32905   1.078   6.663   6.705
10669SOL    HW132906   1.057   6.735   6.771
10669SOL    HW232907   1.083   6.703   6.613
10670SOL     OW32908   6.624   4.259   4.851
10670SOL    HW132909   6.701   4.242   4.790
10670SOL    HW232910   6.633   4.349   4.892
10671SOL     OW32911   1.553   2.173   3.201
10671SOL    HW132912   1.585   2.106   3.268
10671SOL    HW232913   1.536   2.260   3.247
10672SOL     OW32914   0.025   2.543   1.175
10672SOL    HW132915   0.089   2.613   1.141
10672SOL    HW232916   6.977   2.587   1.229
10673SOL     OW32917   3.315   3.455   4.692
10673SOL    HW132918   3.338   3.362   4.719
10673SOL    HW232919   3.274   3.455   4.601
10674SOL     OW32920   4.011   1.411   2.374
10674SOL    HW132921   4.012   1.331   2.434
10674SOL    HW232922   3.966   1.387   2.288
10675SOL     OW32923   0.790   0.944   6.027
10675SOL    HW132924   0.786   1.037   5.988
10675SOL    HW232925   0.816   0.950   6.123
10676SOL     OW32926   6.714   0.212   6.728
10676SOL    HW132927   6.776   0.230   6.805
10676SOL    HW232928   6.620   0.215   6.760
10677SOL     OW32929   6.184   1.023   0.779
10677SOL    HW132930   6.228   0.936   0.755
10677SOL    HW232931   6.168   1.076   0.695
10678SOL     OW32932   2.038   5.227   3.620
10678SOL    HW132933   2.125   5.229   3.570
10678SOL    HW232934   1.965   5.201   3.557
10679SOL     OW32935   5.760   4.892   3.556
10679SOL    HW132936   5.795   4.801   3.576
10679SOL    HW232937   5.782   4.954   3.631
10680SOL     OW32938   0.969   2.486   3.942
10680SOL    HW132939   0.955   2.570   3.890
10680SOL    HW232940   0.976   2.409   3.879
10681SOL     OW32941   0.408   2.458   6.593
10681SOL    HW132942   0.391   2.467   6.691
10681SOL    HW232943   0.442   2.366   6.573
10682SOL     OW32944   6.539   1.949   2.871
10682SOL    HW132945   6.560   1.955   2.969
10682SOL    HW232946   6.496   1.861   2.851
10683SOL     OW32947   1.562   0.378   4.269
10683SOL    HW132948   1.473   0.411   4.238
10683SOL    HW232949   1.635   0.426   4.220
10684SOL     OW32950   5.498   5.926   0.200
10684SOL    HW132951   5.416   5.983   0.201
10684SOL    HW232952   5.476   5.837   0.159
10685SOL     OW32953   6.158   2.376   2.358
10685SOL    HW132954   6.231   2.307   2.356
10685SOL    HW232955   6.198   2.467   2.355
10686SOL     OW32956   4.163   4.781   0.655
10686SOL    HW132957   4.255   4.752   0.681
10686SOL    HW232958   4.125   4.716   0.589
10687SOL     OW32959   6.654   5.415   1.119
10687SOL    HW132960   6.646   5.510   1.149
10687SOL    HW232961   6.602   5.402   1.035
10688SOL     OW32962   0.358   5.263   0.932
10688SOL    HW132963   0.319   5.316   1.007
10688SOL    HW232964   0.339   5.309   0.845
10689SOL     OW32965   0.738   6.992   1.143
10689SOL    HW132966   0.678   0.040   1.106
10689SOL    HW232967   0.733   6.992   1.243
10690SOL     OW32968   4.667   6.367   3.118
10690SOL    HW132969   4.695   6.406   3.206
10690SOL    HW232970   4.591   6.303   3.133
10691SOL     OW32971   6.137   1.487   1.789
10691SOL    HW132972   6.095   1.401   1.759
10691SOL    HW232973   6.104   1.509   1.881
10692SOL     OW32974   6.187   6.322   3.582
10692SOL    HW132975   6.221   6.351   3.671
10692SOL    HW232976   6.159   6.403   3.529
10693SOL     OW32977   5.272   2.785   3.701
10693SOL    HW132978   5.348   2.824   3.650
10693SOL    HW232979   5.298   2.694   3.734
10694SOL     OW32980   2.892   6.810   0.249
10694SOL    HW132981   2.807   6.853   0.216
10694SOL    HW232982   2.918   6.851   0.336
10695SOL     OW32983   5.437   2.962   5.427
10695SOL    HW132984   5.521   3.001   5.464
10695SOL    HW232985   5.371   3.034   5.407
10696SOL     OW32986   6.144   6.972   1.513
10696SOL    HW132987   6.205   6.903   1.475
10696SOL    HW232988   6.059   6.927   1.543
10697SOL     OW32989   1.816   6.644   2.645
10697SOL    HW132990   1.785   6.637   2.740
10697SOL    HW232991   1.893   6.582   2.631
10698SOL     OW32992   3.271   0.186   4.275
10698SOL    HW132993   3.220   0.100   4.283
10698SOL    HW232994   3.268   0.235   4.362
10699SOL     OW32995   1.762   2.534   3.401
10699SOL    HW132996   1.817   2.451   3.405
10699SOL    HW232997   1.713   2.538   3.314
10700SOL     OW32998   1.112   1.860   2.431
10700SOL    HW132999   1.138   1.869   2.335
10700SOL    HW233000   1.109   1.951   2.473
10701SOL     OW33001   3.059   0.356   1.595
10701SOL    HW133002   2.988   0.354   1.525
10701SOL    HW233003   3.050   0.440   1.649
10702SOL     OW33004   4.882   2.434   0.824
10702SOL    HW133005   4.802   2.430   0.764
10702SOL    HW233006   4.871   2.510   0.889
10703SOL     OW33007   3.707   2.926   4.046
10703SOL    HW133008   3.710   2.902   4.143
10703SOL    HW233009   3.735   3.021   4.034
10704SOL     OW33010   5.593   5.869   2.221
10704SOL    HW133011   5.683   5.833   2.196
10704SOL    HW233012   5.604   5.949   2.279
10705SOL     OW33013   1.568   3.178   6.500
10705SOL    HW133014   1.625   3.254   6.469
10705SOL    HW233015   1.519   3.204   6.583
10706SOL     OW33016   3.132   2.969   1.058
10706SOL    HW133017   3.223   2.932   1.037
10706SOL    HW233018   3.086   2.909   1.122
10707SOL     OW33019   6.062   7.015   6.385
10707SOL    HW133020   6.081   7.023   6.287
10707SOL    HW233021   6.118   0.057   6.435
10708SOL     OW33022   5.085   1.255   1.307
10708SOL    HW133023   5.019   1.322   1.273
10708SOL    HW233024   5.067   1.236   1.404
10709SOL     OW33025   0.623   0.210   6.058
10709SOL    HW133026   0.709   0.180   6.016
10709SOL    HW233027   0.639   0.295   6.108
10710SOL     OW33028   6.765   6.224   3.841
10710SOL    HW133029   6.786   6.177   3.755
10710SOL    HW233030   6.710   6.305   3.822
10711SOL     OW33031   2.414   4.952   5.342
10711SOL    HW133032   2.419   5.010   5.423
10711SOL    HW233033   2.364   5.001   5.270
10712SOL     OW33034   3.489   1.502   6.103
10712SOL    HW133035   3.572   1.526   6.153
10712SOL    HW233036   3.508   1.427   6.039
10713SOL     OW33037   1.850   6.754   0.696
10713SOL    HW133038   1.887   6.797   0.778
10713SOL    HW233039   1.780   6.688   0.723
10714SOL     OW33040   6.238   5.730   4.644
10714SOL    HW133041   6.258   5.665   4.718
10714SOL    HW233042   6.143   5.759   4.650
10715SOL     OW33043   5.811   0.854   2.708
10715SOL    HW133044   5.738   0.839   2.641
10715SOL    HW233045   5.770   0.882   2.795
10716SOL     OW33046   0.332   1.000   2.012
10716SOL    HW133047   0.389   1.046   2.079
10716SOL    HW233048   0.240   1.040   2.014
10717SOL     OW33049   0.002   6.469   2.277
10717SOL    HW133050   0.052   6.527   2.341
10717SOL    HW233051   0.026   6.373   2.294
10718SOL     OW33052   0.979   4.327   5.259
10718SOL    HW133053   1.064   4.298   5.305
10718SOL    HW233054   0.942   4.407   5.305
10719SOL     OW33055   3.714   6.059   2.188
10719SOL    HW133056   3.778   6.005   2.133
10719SOL    HW233057   3.649   6.105   2.127
10720SOL     OW33058   0.153   3.463   6.651
10720SOL    HW133059   0.133   3.553   6.611
10720SOL    HW233060   0.204   3.408   6.585
10721SOL     OW33061   5.360   2.082   4.388
10721SOL    HW133062   5.261   2.083   4.373
10721SOL    HW233063   5.405   2.131   4.313
10722SOL     OW33064   0.263   5.279   0.470
10722SOL    HW133065   0.263   5.183   0.498
10722SOL    HW233066   0.211   5.288   0.385
10723SOL     OW33067   6.269   4.417   6.826
10723SOL    HW133068   6.232   4.369   6.906
10723SOL    HW233069   6.259   4.359   6.745
10724SOL     OW33070   3.773   6.931   5.487
10724SOL    HW133071   3.726   6.954   5.401
10724SOL    HW233072   3.808   7.014   5.529
10725SOL     OW33073   0.268   6.780   5.032
10725SOL    HW133074   0.246   6.814   4.941
10725SOL    HW233075   0.200   6.814   5.098
10726SOL     OW33076   6.767   0.594   3.651
10726SOL    HW133077   6.826   0.587   3.731
10726SOL    HW233078   6.743   0.503   3.619
10727SOL     OW33079   4.289   6.941   6.326
10727SOL    HW133080   4.236   6.976   6.404
10727SOL    HW233081   4.386   6.947   6.347
10728SOL     OW33082   5.926   5.476   3.827
10728SOL    HW133083   5.856   5.444   3.764
10728SOL    HW233084   5.899   5.455   3.921
10729SOL     OW33085   6.077   3.469   4.098
10729SOL    HW133086   6.123   3.486   4.185
10729SOL    HW233087   6.112   3.385   4.058
10730SOL     OW33088   1.091   6.433   4.302
10730SOL    HW133089   1.044   6.521   4.297
10730SOL    HW233090   1.054   6.380   4.378
10731SOL     OW33091   5.100   5.692   6.362
10731SOL    HW133092   5.027   5.668   6.426
10731SOL    HW233093   5.175   5.736   6.411
10732SOL     OW33094   6.785   5.850   2.182
10732SOL    HW133095   6.868   5.904   2.197
10732SOL    HW233096   6.762   5.801   2.266
10733SOL     OW33097   0.334   1.926   6.088
10733SOL    HW133098   0.390   1.948   6.168
10733SOL    HW233099   0.367   1.978   6.009
10734SOL     OW33100   0.807   0.642   4.263
10734SOL    HW133101   0.848   0.551   4.271
10734SOL    HW233102   0.751   0.661   4.344
10735SOL     OW33103   0.139   0.714   2.192
10735SOL    HW133104   0.201   0.644   2.155
10735SOL    HW233105   0.193   0.788   2.231
10736SOL     OW33106   6.182   5.872   3.959
10736SOL    HW133107   6.106   5.881   3.894
10736SOL    HW233108   6.264   5.915   3.920
10737SOL     OW33109   0.058   0.682   1.655
10737SOL    HW133110   0.086   0.748   1.725
10737SOL    HW233111   6.984   0.692   1.637
10738SOL     OW33112   2.523   0.297   1.313
10738SOL    HW133113   2.563   0.384   1.342
10738SOL    HW233114   2.556   0.224   1.373
10739SOL     OW33115   4.819   3.012   4.288
10739SOL    HW133116   4.808   2.913   4.298
10739SOL    HW233117   4.828   3.035   4.191
10740SOL     OW33118   3.033   0.184   5.896
10740SOL    HW133119   3.000   0.103   5.943
10740SOL    HW233120   3.029   0.263   5.957
10741SOL     OW33121   1.212   2.616   3.722
10741SOL    HW133122   1.299   2.570   3.705
10741SOL    HW233123   1.200   2.628   3.821
10742SOL     OW33124   6.892   0.424   2.024
10742SOL    HW133125   6.875   0.512   2.068
10742SOL    HW233126   6.833   0.354   2.064
10743SOL     OW33127   3.516   1.945   5.561
10743SOL    HW133128   3.567   2.027   5.536
10743SOL    HW233129   3.529   1.926   5.658
10744SOL     OW33130   2.516   1.710   1.648
10744SOL    HW133131   2.612   1.736   1.656
10744SOL    HW233132   2.482   1.738   1.558
10745SOL     OW33133   2.403   5.608   1.546
10745SOL    HW133134   2.415   5.578   1.451
10745SOL    HW233135   2.306   5.602   1.570
10746SOL     OW33136   2.001   5.719   6.033
10746SOL    HW133137   1.944   5.709   5.952
10746SOL    HW233138   2.094   5.742   6.005
10747SOL     OW33139   0.325   1.007   4.723
10747SOL    HW133140   0.382   0.943   4.672
10747SOL    HW233141   0.232   0.971   4.729
10748SOL     OW33142   2.813   6.460   2.505
10748SOL    HW133143   2.764   6.445   2.590
10748SOL    HW233144   2.893   6.400   2.501
10749SOL     OW33145   6.059   4.336   1.985
10749SOL    HW133146   6.039   4.375   2.075
10749SOL    HW233147   6.004   4.253   1.971
10750SOL     OW33148   4.223   2.120   4.295
10750SOL    HW133149   4.185   2.171   4.373
10750SOL    HW233150   4.299   2.063   4.326
10751SOL     OW33151   6.309   6.227   4.031
10751SOL    HW133152   6.263   6.226   4.120
10751SOL    HW233153   6.264   6.293   3.971
10752SOL     OW33154   6.921   6.553   6.686
10752SOL    HW133155   6.894   6.590   6.597
10752SOL    HW233156   6.964   6.625   6.740
10753SOL     OW33157   5.611   6.959   5.079
10753SOL    HW133158   5.554   7.007   5.146
10753SOL    HW233159   5.592   6.861   5.084
10754SOL     OW33160   0.774   5.601   2.344
10754SOL    HW133161   0.738   5.685   2.303
10754SOL    HW233162   0.871   5.593   2.323
10755SOL     OW33163   0.366   2.269   1.670
10755SOL    HW133164   0.425   2.302   1.595
10755SOL    HW233165   0.423   2.249   1.750
10756SOL     OW33166   0.895   0.120   0.097
10756SOL    HW133167   0.942   0.120   0.008
10756SOL    HW233168   0.932   0.047   0.154
10757SOL     OW33169   6.756   2.980   2.143
10757SOL    HW133170   6.775   2.970   2.240
10757SOL    HW233171   6.692   2.909   2.114
10758SOL     OW33172   1.436   1.486   0.360
10758SOL    HW133173   1.441   1.581   0.329
10758SOL    HW233174   1.525   1.457   0.394
10759SOL     OW33175   2.891   3.498   4.752
10759SOL    HW133176   2.871   3.402   4.772
10759SOL    HW233177   2.905   3.509   4.654
10760SOL     OW33178   0.547   5.287   0.353
10760SOL    HW133179   0.528   5.229   0.274
10760SOL    HW233180   0.465   5.295   0.409
10761SOL     OW33181   1.583   1.123   6.033
10761SOL    HW133182   1.596   1.185   6.111
10761SOL    HW233183   1.542   1.174   5.957
10762SOL     OW33184   1.599   6.760   0.351
10762SOL    HW133185   1.577   6.677   0.403
10762SOL    HW233186   1.694   6.787   0.370
10763SOL     OW33187   4.680   0.916   3.165
10763SOL    HW133188   4.614   0.868   3.108
10763SOL    HW233189   4.771   0.876   3.151
10764SOL     OW33190   4.845   5.874   4.861
10764SOL    HW133191   4.830   5.919   4.773
10764SOL    HW233192   4.789   5.791   4.866
10765SOL     OW33193   0.912   2.180   0.929
10765SOL    HW133194   0.830   2.193   0.984
10765SOL    HW233195   0.940   2.268   0.889
10766SOL     OW33196   2.227   5.355   6.019
10766SOL    HW133197   2.262   5.399   5.937
10766SOL    HW233198   2.265   5.263   6.026
10767SOL     OW33199   1.402   5.080   6.711
10767SOL    HW133200   1.399   5.156   6.646
10767SOL    HW233201   1.310   5.041   6.721
10768SOL     OW33202   5.273   6.475   6.745
10768SOL    HW133203   5.286   6.384   6.705
10768SOL    HW233204   5.183   6.480   6.787
10769SOL     OW33205   2.996   3.495   4.482
10769SOL    HW133206   3.087   3.465   4.455
10769SOL    HW233207   2.936   3.497   4.402
10770SOL     OW33208   5.065   0.338   3.281
10770SOL    HW133209   5.021   0.394   3.351
10770SOL    HW233210   5.011   0.256   3.265
10771SOL     OW33211   4.539   6.135   6.109
10771SOL    HW133212   4.556   6.063   6.176
10771SOL    HW233213   4.449   6.175   6.125
10772SOL     OW33214   5.192   4.383   2.473
10772SOL    HW133215   5.143   4.449   2.416
10772SOL    HW233216   5.171   4.399   2.569
10773SOL     OW33217   0.749   4.111   0.413
10773SOL    HW133218   0.782   4.124   0.506
10773SOL    HW233219   0.689   4.187   0.388
10774SOL     OW33220   0.347   3.452   0.765
10774SOL    HW133221   0.446   3.454   0.774
10774SOL    HW233222   0.304   3.477   0.852
10775SOL     OW33223   1.941   3.916   0.531
10775SOL    HW133224   1.939   3.948   0.436
10775SOL    HW233225   1.853   3.931   0.574
10776SOL     OW33226   0.771   2.825   3.422
10776SOL    HW133227   0.848   2.865   3.470
10776SOL    HW233228   0.795   2.734   3.390
10777SOL     OW33229   1.142   0.017   1.026
10777SOL    HW133230   1.091   0.079   0.967
10777SOL    HW233231   1.239   0.020   1.002
10778SOL     OW33232   4.529   0.357   3.713
10778SOL    HW133233   4.542   0.410   3.796
10778SOL    HW233234   4.499   0.264   3.737
10779SOL     OW33235   5.715   2.976   5.574
10779SOL    HW133236   5.795   3.025   5.609
10779SOL    HW233237   5.640   2.983   5.641
10780SOL     OW33238   1.332   4.841   5.025
10780SOL    HW133239   1.337   4.742   5.013
10780SOL    HW233240   1.382   4.868   5.107
10781SOL     OW33241   5.948   2.252   6.116
10781SOL    HW133242   5.912   2.187   6.049
10781SOL    HW233243   6.014   2.312   6.072
10782SOL     OW33244   1.321   2.710   4.930
10782SOL    HW133245   1.385   2.637   4.908
10782SOL    HW233246   1.348   2.794   4.882
10783SOL     OW33247   1.469   3.509   3.469
10783SOL    HW133248   1.563   3.502   3.503
10783SOL    HW233249   1.453   3.437   3.401
10784SOL     OW33250   4.934   5.353   3.607
10784SOL    HW133251   5.010   5.318   3.552
10784SOL    HW233252   4.858   5.288   3.601
10785SOL     OW33253   1.948   5.076   1.767
10785SOL    HW133254   1.926   5.086   1.670
10785SOL    HW233255   1.864   5.090   1.821
10786SOL     OW33256   4.892   1.556   2.369
10786SOL    HW133257   4.869   1.459   2.380
10786SOL    HW233258   4.920   1.573   2.275
10787SOL     OW33259   3.887   1.832   3.693
10787SOL    HW133260   3.986   1.822   3.676
10787SOL    HW233261   3.856   1.758   3.753
10788SOL     OW33262   1.978   3.337   0.110
10788SOL    HW133263   1.949   3.419   0.160
10788SOL    HW233264   1.903   3.305   0.052
10789SOL     OW33265   0.048   1.555   2.332
10789SOL    HW133266   0.099   1.641   2.330
10789SOL    HW233267   0.093   1.491   2.395
10790SOL     OW33268   0.095   2.091   5.475
10790SOL    HW133269   0.106   2.184   5.510
10790SOL    HW233270   0.037   2.038   5.536
10791SOL     OW33271   1.868   2.611   3.848
10791SOL    HW133272   1.843   2.674   3.922
10791SOL    HW233273   1.966   2.592   3.853
10792SOL     OW33274   3.792   0.909   2.502
10792SOL    HW133275   3.747   0.989   2.543
10792SOL    HW233276   3.760   0.827   2.549
10793SOL     OW33277   3.349   1.667   4.500
10793SOL    HW133278   3.422   1.628   4.555
10793SOL    HW233279   3.277   1.599   4.487
10794SOL     OW33280   4.741   2.776   6.813
10794SOL    HW133281   4.784   2.851   6.764
10794SOL    HW233282   4.797   2.753   6.893
10795SOL     OW33283   6.280   3.186   3.179
10795SOL    HW133284   6.182   3.170   3.183
10795SOL    HW233285   6.308   3.201   3.084
10796SOL     OW33286   0.444   1.690   5.975
10796SOL    HW133287   0.512   1.662   6.043
10796SOL    HW233288   0.385   1.761   6.014
10797SOL     OW33289   5.188   4.594   6.819
10797SOL    HW133290   5.192   4.648   6.903
10797SOL    HW233291   5.106   4.536   6.821
10798SOL     OW33292   2.050   6.433   0.633
10798SOL    HW133293   2.050   6.453   0.535
10798SOL    HW233294   2.116   6.492   0.679
10799SOL     OW33295   3.522   0.325   2.500
10799SOL    HW133296   3.471   0.388   2.441
10799SOL    HW233297   3.620   0.339   2.487
10800SOL     OW33298   2.000   6.951   5.223
10800SOL    HW133299   1.995   6.906   5.312
10800SOL    HW233300   2.067   6.904   5.166
10801SOL     OW33301   2.543   6.004   6.679
10801SOL    HW133302   2.482   5.926   6.664
10801SOL    HW233303   2.505   6.086   6.636
10802SOL     OW33304   0.748   4.687   4.342
10802SOL    HW133305   0.717   4.777   4.373
10802SOL    HW233306   0.692   4.657   4.265
10803SOL     OW33307   6.747   3.740   4.811
10803SOL    HW133308   6.686   3.813   4.842
10803SOL    HW233309   6.729   3.657   4.864
10804SOL     OW33310   3.769   4.604   1.074
10804SOL    HW133311   3.700   4.649   1.018
10804SOL    HW233312   3.726   4.567   1.157
10805SOL     OW33313   3.899   5.959   0.423
10805SOL    HW133314   3.818   5.938   0.368
10805SOL    HW233315   3.888   6.048   0.467
10806SOL     OW33316   5.845   3.516   6.571
10806SOL    HW133317   5.904   3.594   6.593
10806SOL    HW233318   5.872   3.478   6.482
10807SOL     OW33319   5.147   2.450   4.378
10807SOL    HW133320   5.064   2.466   4.432
10807SOL    HW233321   5.147   2.356   4.345
10808SOL     OW33322   0.802   2.157   6.630
10808SOL    HW133323   0.878   2.180   6.690
10808SOL    HW233324   0.716   2.179   6.675
10809SOL     OW33325   1.445   1.005   2.517
10809SOL    HW133326   1.439   0.984   2.419
10809SOL    HW233327   1.538   0.991   2.549
10810SOL     OW33328   2.091   1.114   6.256
10810SOL    HW133329   2.087   1.214   6.254
10810SOL    HW233330   2.000   1.078   6.280
10811SOL     OW33331   4.143   5.603   6.938
10811SOL    HW133332   4.236   5.566   6.933
10811SOL    HW233333   4.078   5.527   6.948
10812SOL     OW33334   6.537   2.809   2.425
10812SOL    HW133335   6.451   2.833   2.469
10812SOL    HW233336   6.600   2.887   2.430
10813SOL     OW33337   3.479   6.361   2.357
10813SOL    HW133338   3.537   6.313   2.423
10813SOL    HW233339   3.438   6.294   2.294
10814SOL     OW33340   1.616   6.833   4.294
10814SOL    HW133341   1.611   6.744   4.340
10814SOL    HW233342   1.646   6.821   4.200
10815SOL     OW33343   5.172   1.847   5.054
10815SOL    HW133344   5.175   1.947   5.045
10815SOL    HW233345   5.102   1.821   5.120
10816SOL     OW33346   2.140   1.789   1.557
10816SOL    HW133347   2.176   1.869   1.605
10816SOL    HW233348   2.064   1.750   1.609
10817SOL     OW33349   3.796   1.542   1.641
10817SOL    HW133350   3.815   1.459   1.693
10817SOL    HW233351   3.874   1.563   1.582
10818SOL     OW33352   4.656   3.476   6.314
10818SOL    HW133353   4.712   3.441   6.238
10818SOL    HW233354   4.701   3.457   6.400
10819SOL     OW33355   1.649   3.867   5.392
10819SOL    HW133356   1.747   3.886   5.389
10819SOL    HW233357   1.623   3.813   5.312
10820SOL     OW33358   0.796   5.925   4.442
10820SOL    HW133359   0.859   5.885   4.375
10820SOL    HW233360   0.720   5.969   4.394
10821SOL     OW33361   0.715   1.026   6.869
10821SOL    HW133362   0.666   1.008   6.955
10821SOL    HW233363   0.798   0.969   6.866
10822SOL     OW33364   0.692   4.247   6.736
10822SOL    HW133365   0.600   4.211   6.754
10822SOL    HW233366   0.689   4.309   6.657
10823SOL     OW33367   1.921   2.600   0.789
10823SOL    HW133368   1.860   2.526   0.816
10823SOL    HW233369   2.006   2.594   0.842
10824SOL     OW33370   5.589   1.306   4.137
10824SOL    HW133371   5.508   1.357   4.164
10824SOL    HW233372   5.564   1.236   4.071
10825SOL     OW33373   2.979   1.352   2.697
10825SOL    HW133374   2.955   1.360   2.794
10825SOL    HW233375   2.973   1.256   2.669
10826SOL     OW33376   0.236   3.326   1.276
10826SOL    HW133377   0.226   3.236   1.234
10826SOL    HW233378   0.154   3.348   1.329
10827SOL     OW33379   0.596   2.441   4.302
10827SOL    HW133380   0.648   2.459   4.385
10827SOL    HW233381   0.578   2.527   4.254
10828SOL     OW33382   2.490   5.106   0.448
10828SOL    HW133383   2.466   5.099   0.544
10828SOL    HW233384   2.411   5.137   0.396
10829SOL     OW33385   2.307   4.122   1.871
10829SOL    HW133386   2.266   4.118   1.962
10829SOL    HW233387   2.336   4.031   1.843
10830SOL     OW33388   6.110   0.722   3.435
10830SOL    HW133389   6.189   0.710   3.495
10830SOL    HW233390   6.097   0.640   3.380
10831SOL     OW33391   5.514   2.545   1.846
10831SOL    HW133392   5.440   2.486   1.880
10831SOL    HW233393   5.591   2.489   1.817
10832SOL     OW33394   0.595   3.062   2.847
10832SOL    HW133395   0.675   3.114   2.879
10832SOL    HW233396   0.568   3.095   2.757
10833SOL     OW33397   3.145   6.938   4.112
10833SOL    HW133398   3.148   6.864   4.045
10833SOL    HW233399   3.064   6.994   4.098
10834SOL     OW33400   6.818   1.198   6.294
10834SOL    HW133401   6.856   1.215   6.203
10834SOL    HW233402   6.893   1.188   6.360
10835SOL     OW33403   0.790   1.924   0.836
10835SOL    HW133404   0.843   2.009   0.845
10835SOL    HW233405   0.849   1.852   0.799
10836SOL     OW33406   0.772   2.732   1.264
10836SOL    HW133407   0.781   2.727   1.364
10836SOL    HW233408   0.828   2.661   1.222
10837SOL     OW33409   0.608   5.919   0.878
10837SOL    HW133410   0.509   5.917   0.865
10837SOL    HW233411   0.653   5.866   0.806
10838SOL     OW33412   6.167   6.613   0.746
10838SOL    HW133413   6.188   6.638   0.840
10838SOL    HW233414   6.132   6.520   0.743
10839SOL     OW33415   1.924   1.632   6.943
10839SOL    HW133416   1.980   1.651   7.024
10839SOL    HW233417   1.966   1.675   6.863
10840SOL     OW33418   2.473   6.986   2.683
10840SOL    HW133419   2.483   6.910   2.618
10840SOL    HW233420   2.560   0.013   2.688
10841SOL     OW33421   4.525   3.666   0.667
10841SOL    HW133422   4.452   3.701   0.725
10841SOL    HW233423   4.604   3.643   0.724
10842SOL     OW33424   5.793   2.355   1.603
10842SOL    HW133425   5.869   2.292   1.618
10842SOL    HW233426   5.828   2.447   1.591
10843SOL     OW33427   0.602   1.956   1.867
10843SOL    HW133428   0.692   1.988   1.894
10843SOL    HW233429   0.611   1.867   1.821
10844SOL     OW33430   4.998   0.388   3.899
10844SOL    HW133431   5.068   0.317   3.890
10844SOL    HW233432   4.949   0.376   3.986
10845SOL     OW33433   2.254   3.123   1.171
10845SOL    HW133434   2.283   3.205   1.122
10845SOL    HW233435   2.204   3.063   1.110
10846SOL     OW33436   3.386   2.738   1.533
10846SOL    HW133437   3.357   2.669   1.599
10846SOL    HW233438   3.307   2.766   1.477
10847SOL     OW33439   4.670   2.248   5.263
10847SOL    HW133440   4.572   2.267   5.252
10847SOL    HW233441   4.722   2.307   5.202
10848SOL     OW33442   1.509   0.924   0.024
10848SOL    HW133443   1.563   0.866   6.987
10848SOL    HW233444   1.504   0.882   0.115
10849SOL     OW33445   1.629   4.891   4.273
10849SOL    HW133446   1.594   4.896   4.366
10849SOL    HW233447   1.593   4.810   4.228
10850SOL     OW33448   5.346   1.280   2.000
10850SOL    HW133449   5.343   1.192   2.047
10850SOL    HW233450   5.428   1.285   1.943
10851SOL     OW33451   4.302   3.048   6.986
10851SOL    HW133452   4.369   2.992   6.937
10851SOL    HW233453   4.279   3.004   0.049
10852SOL     OW33454   6.508   0.568   6.228
10852SOL    HW133455   6.411   0.547   6.238
10852SOL    HW233456   6.540   0.619   6.307
10853SOL     OW33457   3.535   0.853   4.243
10853SOL    HW133458   3.598   0.817   4.175
10853SOL    HW233459   3.558   0.815   4.333
10854SOL     OW33460   6.148   0.097   0.574
10854SOL    HW133461   6.069   0.088   0.512
10854SOL    HW233462   6.170   0.009   0.614
10855SOL     OW33463   0.406   5.945   1.482
10855SOL    HW133464   0.446   5.869   1.430
10855SOL    HW233465   0.384   6.020   1.419
10856SOL     OW33466   5.377   6.713   6.596
10856SOL    HW133467   5.371   6.769   6.678
10856SOL    HW233468   5.321   6.631   6.607
10857SOL     OW33469   6.357   6.952   4.623
10857SOL    HW133470   6.379   6.863   4.665
10857SOL    HW233471   6.383   6.951   4.527
10858SOL     OW33472   2.002   2.255   6.808
10858SOL    HW133473   1.998   2.269   6.709
10858SOL    HW233474   2.093   2.222   6.833
10859SOL     OW33475   2.061   5.450   2.857
10859SOL    HW133476   2.019   5.385   2.793
10859SOL    HW233477   2.154   5.470   2.826
10860SOL     OW33478   5.871   2.111   1.284
10860SOL    HW133479   5.902   2.118   1.190
10860SOL    HW233480   5.806   2.185   1.304
10861SOL     OW33481   1.781   4.064   1.543
10861SOL    HW133482   1.808   4.130   1.613
10861SOL    HW233483   1.724   3.993   1.585
10862SOL     OW33484   3.512   4.353   5.381
10862SOL    HW133485   3.595   4.380   5.332
10862SOL    HW233486   3.536   4.291   5.456
10863SOL     OW33487   1.980   0.025   3.389
10863SOL    HW133488   1.921   0.103   3.410
10863SOL    HW233489   1.936   6.991   3.320
10864SOL     OW33490   2.948   3.699   1.771
10864SOL    HW133491   3.019   3.741   1.715
10864SOL    HW233492   2.976   3.607   1.798
10865SOL     OW33493   3.082   1.972   2.800
10865SOL    HW133494   3.097   1.927   2.712
10865SOL    HW233495   2.986   2.000   2.807
10866SOL     OW33496   0.914   3.376   4.395
10866SOL    HW133497   0.949   3.285   4.417
10866SOL    HW233498   0.943   3.441   4.465
10867SOL     OW33499   4.353   3.423   0.046
10867SOL    HW133500   4.288   3.407   6.996
10867SOL    HW233501   4.386   3.335   0.081
10868SOL     OW33502   1.272   6.941   5.340
10868SOL    HW133503   1.363   6.905   5.321
10868SOL    HW233504   1.219   6.944   5.255
10869NA      NA33505   0.237   1.142   6.485
10870NA      NA33506   4.614   4.941   5.151
10871NA      NA33507   0.952   4.772   2.857
10872NA      NA33508   5.961   3.448   3.317
10873NA      NA33509   3.920   2.811   5.413
10874NA      NA33510   2.355   4.550   6.820
10875NA      NA33511   1.582   5.581   0.286
10876NA      NA33512   4.157   4.931   1.768
10877NA      NA33513   5.037   3.890   1.204
10878NA      NA33514   3.747   1.640   0.493
10879NA      NA33515   5.330   6.457   1.673
10880NA      NA33516   2.406   6.853   5.207
10881NA      NA33517   4.128   4.948   2.822
10882NA      NA33518   4.197   4.545   6.548
   7.02394   7.02394   7.02394
