Generated by trjconv : CNT in water t=  46.00000
33518
    1C        C    1   2.844   2.769   4.747
    1C        C    2   2.896   2.719   4.868
    1C        C    3   2.841   2.769   4.987
    1C        C    4   2.848   2.769   4.260
    1C        C    5   2.904   2.731   4.383
    1C        C    6   2.842   2.770   4.504
    1C        C    7   3.011   2.638   4.624
    1C        C    8   2.896   2.720   4.625
    1C        C    9   3.077   2.604   4.745
    1C        C   10   3.007   2.631   4.864
    1C        C   11   3.174   2.486   4.973
    1C        C   12   3.052   2.556   4.974
    1C        C   13   2.846   2.765   3.770
    1C        C   14   2.898   2.718   3.893
    1C        C   15   2.845   2.765   4.016
    1C        C   16   3.019   2.643   4.139
    1C        C   17   2.903   2.723   4.138
    1C        C   18   3.081   2.613   4.262
    1C        C   19   3.018   2.647   4.384
    1C        C   20   3.206   2.546   4.505
    1C        C   21   3.076   2.601   4.504
    1C        C   22   3.276   2.529   4.626
    1C        C   23   3.206   2.546   4.748
    1C        C   24   3.411   2.481   4.867
    1C        C   25   3.268   2.496   4.866
    1C        C   26   3.487   2.486   4.984
    1C        C   27   2.848   2.765   3.279
    1C        C   28   2.904   2.720   3.401
    1C        C   29   2.853   2.769   3.523
    1C        C   30   3.013   2.635   3.650
    1C        C   31   2.900   2.721   3.647
    1C        C   32   3.076   2.602   3.772
    1C        C   33   3.013   2.637   3.893
    1C        C   34   3.208   2.553   4.016
    1C        C   35   3.076   2.604   4.016
    1C        C   36   3.273   2.525   4.138
    1C        C   37   3.209   2.553   4.261
    1C        C   38   3.413   2.500   4.380
    1C        C   39   3.273   2.523   4.383
    1C        C   40   3.483   2.491   4.502
    1C        C   41   3.414   2.496   4.625
    1C        C   42   3.627   2.486   4.744
    1C        C   43   3.485   2.477   4.746
    1C        C   44   3.704   2.488   4.862
    1C        C   45   3.626   2.480   4.978
    1C        C   46   2.839   2.755   2.792
    1C        C   47   2.895   2.708   2.913
    1C        C   48   2.842   2.757   3.034
    1C        C   49   3.013   2.632   3.161
    1C        C   50   2.897   2.713   3.157
    1C        C   51   3.075   2.599   3.283
    1C        C   52   3.018   2.637   3.407
    1C        C   53   3.207   2.543   3.524
    1C        C   54   3.079   2.603   3.529
    1C        C   55   3.273   2.525   3.648
    1C        C   56   3.208   2.550   3.771
    1C        C   57   3.413   2.501   3.892
    1C        C   58   3.274   2.528   3.894
    1C        C   59   3.484   2.495   4.014
    1C        C   60   3.412   2.500   4.135
    1C        C   61   3.625   2.496   4.259
    1C        C   62   3.483   2.497   4.258
    1C        C   63   3.696   2.503   4.380
    1C        C   64   3.624   2.497   4.501
    1C        C   65   3.831   2.545   4.621
    1C        C   66   3.697   2.501   4.622
    1C        C   67   3.902   2.567   4.741
    1C        C   68   3.838   2.533   4.862
    1C        C   69   4.051   2.582   4.974
    1C        C   70   3.921   2.528   4.974
    1C        C   71   2.826   2.733   2.308
    1C        C   72   2.889   2.695   2.429
    1C        C   73   2.833   2.743   2.549
    1C        C   74   3.007   2.624   2.672
    1C        C   75   2.889   2.701   2.671
    1C        C   76   3.071   2.589   2.793
    1C        C   77   3.012   2.630   2.915
    1C        C   78   3.205   2.545   3.036
    1C        C   79   3.074   2.599   3.038
    1C        C   80   3.273   2.522   3.158
    1C        C   81   3.205   2.543   3.280
    1C        C   82   3.412   2.495   3.401
    1C        C   83   3.273   2.518   3.402
    1C        C   84   3.481   2.491   3.524
    1C        C   85   3.412   2.502   3.647
    1C        C   86   3.624   2.500   3.767
    1C        C   87   3.482   2.496   3.770
    1C        C   88   3.691   2.511   3.891
    1C        C   89   3.626   2.496   4.015
    1C        C   90   3.832   2.546   4.136
    1C        C   91   3.696   2.507   4.137
    1C        C   92   3.899   2.570   4.258
    1C        C   93   3.830   2.547   4.379
    1C        C   94   4.022   2.643   4.498
    1C        C   95   3.896   2.580   4.500
    1C        C   96   4.086   2.677   4.619
    1C        C   97   4.029   2.632   4.740
    1C        C   98   4.190   2.766   4.864
    1C        C   99   4.096   2.658   4.862
    1C        C  100   4.210   2.846   4.977
    1C        C  101   2.823   2.731   2.068
    1C        C  102   2.988   2.590   2.188
    1C        C  103   2.874   2.677   2.187
    1C        C  104   3.065   2.576   2.307
    1C        C  105   3.007   2.617   2.429
    1C        C  106   3.205   2.540   2.546
    1C        C  107   3.074   2.594   2.551
    1C        C  108   3.271   2.518   2.669
    1C        C  109   3.204   2.542   2.791
    1C        C  110   3.410   2.498   2.912
    1C        C  111   3.270   2.521   2.914
    1C        C  112   3.482   2.493   3.033
    1C        C  113   3.413   2.503   3.156
    1C        C  114   3.624   2.494   3.277
    1C        C  115   3.482   2.490   3.278
    1C        C  116   3.692   2.508   3.400
    1C        C  117   3.622   2.504   3.522
    1C        C  118   3.830   2.544   3.645
    1C        C  119   3.693   2.510   3.644
    1C        C  120   3.892   2.573   3.769
    1C        C  121   3.827   2.546   3.891
    1C        C  122   4.018   2.643   4.012
    1C        C  123   3.894   2.576   4.013
    1C        C  124   4.085   2.672   4.133
    1C        C  125   4.025   2.635   4.255
    1C        C  126   4.196   2.763   4.375
    1C        C  127   4.086   2.676   4.376
    1C        C  128   4.247   2.814   4.497
    1C        C  129   4.195   2.767   4.620
    1C        C  130   4.327   2.933   4.738
    1C        C  131   4.242   2.819   4.742
    1C        C  132   4.361   2.999   4.858
    1C        C  133   4.298   2.954   4.975
    1C        C  134   3.172   2.465   2.079
    1C        C  135   3.040   2.511   2.081
    1C        C  136   3.260   2.474   2.188
    1C        C  137   3.195   2.518   2.305
    1C        C  138   3.407   2.475   2.427
    1C        C  139   3.269   2.508   2.425
    1C        C  140   3.481   2.473   2.547
    1C        C  141   3.410   2.489   2.668
    1C        C  142   3.621   2.502   2.789
    1C        C  143   3.480   2.490   2.790
    1C        C  144   3.691   2.512   2.911
    1C        C  145   3.623   2.494   3.033
    1C        C  146   3.831   2.534   3.156
    1C        C  147   3.694   2.499   3.155
    1C        C  148   3.898   2.558   3.278
    1C        C  149   3.831   2.536   3.400
    1C        C  150   4.021   2.630   3.523
    1C        C  151   3.898   2.560   3.522
    1C        C  152   4.077   2.675   3.645
    1C        C  153   4.017   2.639   3.768
    1C        C  154   4.191   2.763   3.887
    1C        C  155   4.076   2.681   3.889
    1C        C  156   4.247   2.808   4.009
    1C        C  157   4.197   2.758   4.131
    1C        C  158   4.337   2.920   4.251
    1C        C  159   4.249   2.810   4.252
    1C        C  160   4.371   2.985   4.372
    1C        C  161   4.329   2.929   4.495
    1C        C  162   4.439   3.112   4.613
    1C        C  163   4.366   2.992   4.616
    1C        C  164   4.464   3.178   4.736
    1C        C  165   4.434   3.120   4.861
    1C        C  166   4.516   3.318   4.969
    1C        C  167   4.485   3.183   4.975
    1C        C  168   3.474   2.435   2.070
    1C        C  169   3.400   2.452   2.188
    1C        C  170   3.619   2.469   2.302
    1C        C  171   3.477   2.459   2.306
    1C        C  172   3.693   2.487   2.421
    1C        C  173   3.622   2.483   2.544
    1C        C  174   3.827   2.540   2.664
    1C        C  175   3.690   2.504   2.666
    1C        C  176   3.894   2.561   2.787
    1C        C  177   3.830   2.540   2.911
    1C        C  178   4.020   2.630   3.031
    1C        C  179   3.894   2.566   3.034
    1C        C  180   4.084   2.662   3.153
    1C        C  181   4.023   2.624   3.275
    1C        C  182   4.194   2.744   3.398
    1C        C  183   4.081   2.660   3.399
    1C        C  184   4.246   2.801   3.517
    1C        C  185   4.190   2.759   3.640
    1C        C  186   4.336   2.912   3.762
    1C        C  187   4.240   2.808   3.763
    1C        C  188   4.373   2.974   3.883
    1C        C  189   4.333   2.920   4.007
    1C        C  190   4.443   3.103   4.126
    1C        C  191   4.374   2.980   4.129
    1C        C  192   4.467   3.170   4.248
    1C        C  193   4.436   3.110   4.372
    1C        C  194   4.500   3.317   4.491
    1C        C  195   4.463   3.180   4.492
    1C        C  196   4.517   3.386   4.613
    1C        C  197   4.504   3.315   4.734
    1C        C  198   4.550   3.533   4.850
    1C        C  199   4.531   3.391   4.851
    1C        C  200   4.583   3.618   4.961
    1C        C  201   3.614   2.424   2.070
    1C        C  202   3.829   2.512   2.179
    1C        C  203   3.693   2.465   2.181
    1C        C  204   3.901   2.537   2.299
    1C        C  205   3.829   2.526   2.419
    1C        C  206   4.023   2.613   2.539
    1C        C  207   3.894   2.556   2.541
    1C        C  208   4.079   2.657   2.661
    1C        C  209   4.020   2.626   2.786
    1C        C  210   4.195   2.745   2.906
    1C        C  211   4.082   2.662   2.907
    1C        C  212   4.247   2.794   3.028
    1C        C  213   4.199   2.744   3.151
    1C        C  214   4.326   2.907   3.271
    1C        C  215   4.247   2.790   3.275
    1C        C  216   4.367   2.969   3.391
    1C        C  217   4.329   2.915   3.515
    1C        C  218   4.432   3.099   3.635
    1C        C  219   4.370   2.972   3.638
    1C        C  220   4.459   3.164   3.757
    1C        C  221   4.435   3.102   3.882
    1C        C  222   4.499   3.306   4.001
    1C        C  223   4.467   3.168   4.002
    1C        C  224   4.510   3.377   4.122
    1C        C  225   4.504   3.306   4.244
    1C        C  226   4.507   3.520   4.365
    1C        C  227   4.512   3.379   4.365
    1C        C  228   4.510   3.593   4.486
    1C        C  229   4.524   3.527   4.610
    1C        C  230   4.499   3.743   4.727
    1C        C  231   4.529   3.604   4.729
    1C        C  232   4.484   3.813   4.849
    1C        C  233   4.537   3.750   4.962
    1C        C  234   4.016   2.619   2.059
    1C        C  235   3.898   2.545   2.062
    1C        C  236   4.088   2.646   2.176
    1C        C  237   4.027   2.604   2.297
    1C        C  238   4.199   2.733   2.420
    1C        C  239   4.088   2.644   2.417
    1C        C  240   4.251   2.782   2.542
    1C        C  241   4.192   2.742   2.663
    1C        C  242   4.341   2.898   2.782
    1C        C  243   4.250   2.789   2.783
    1C        C  244   4.380   2.957   2.904
    1C        C  245   4.338   2.903   3.028
    1C        C  246   4.437   3.090   3.149
    1C        C  247   4.373   2.965   3.150
    1C        C  248   4.457   3.160   3.270
    1C        C  249   4.433   3.095   3.393
    1C        C  250   4.493   3.302   3.511
    1C        C  251   4.457   3.165   3.513
    1C        C  252   4.510   3.371   3.634
    1C        C  253   4.495   3.301   3.756
    1C        C  254   4.524   3.513   3.877
    1C        C  255   4.512   3.372   3.877
    1C        C  256   4.514   3.588   3.997
    1C        C  257   4.514   3.518   4.119
    1C        C  258   4.484   3.728   4.241
    1C        C  259   4.507   3.589   4.242
    1C        C  260   4.469   3.801   4.361
    1C        C  261   4.481   3.732   4.484
    1C        C  262   4.418   3.937   4.605
    1C        C  263   4.467   3.804   4.604
    1C        C  264   4.396   4.008   4.724
    1C        C  265   4.431   3.944   4.845
    1C        C  266   4.316   4.130   4.959
    1C        C  267   4.390   4.012   4.960
    1C        C  268   4.258   2.778   2.059
    1C        C  269   4.201   2.730   2.178
    1C        C  270   4.348   2.888   2.297
    1C        C  271   4.253   2.782   2.299
    1C        C  272   4.381   2.953   2.418
    1C        C  273   4.340   2.892   2.539
    1C        C  274   4.441   3.082   2.662
    1C        C  275   4.380   2.955   2.659
    1C        C  276   4.464   3.152   2.783
    1C        C  277   4.443   3.083   2.904
    1C        C  278   4.501   3.289   3.024
    1C        C  279   4.468   3.151   3.025
    1C        C  280   4.507   3.363   3.145
    1C        C  281   4.495   3.296   3.269
    1C        C  282   4.511   3.511   3.389
    1C        C  283   4.507   3.370   3.389
    1C        C  284   4.512   3.582   3.512
    1C        C  285   4.513   3.512   3.635
    1C        C  286   4.494   3.724   3.754
    1C        C  287   4.516   3.585   3.756
    1C        C  288   4.470   3.792   3.876
    1C        C  289   4.489   3.727   4.000
    1C        C  290   4.427   3.934   4.116
    1C        C  291   4.471   3.800   4.120
    1C        C  292   4.397   3.998   4.239
    1C        C  293   4.430   3.937   4.362
    1C        C  294   4.326   4.126   4.478
    1C        C  295   4.396   4.003   4.482
    1C        C  296   4.285   4.189   4.598
    1C        C  297   4.325   4.132   4.720
    1C        C  298   4.195   4.308   4.841
    1C        C  299   4.284   4.196   4.840
    1C        C  300   4.167   4.399   4.948
    1C        C  301   4.348   2.885   2.059
    1C        C  302   4.466   3.070   2.175
    1C        C  303   4.394   2.946   2.176
    1C        C  304   4.474   3.144   2.296
    1C        C  305   4.439   3.081   2.418
    1C        C  306   4.504   3.283   2.538
    1C        C  307   4.470   3.146   2.539
    1C        C  308   4.511   3.356   2.659
    1C        C  309   4.492   3.290   2.782
    1C        C  310   4.521   3.501   2.900
    1C        C  311   4.514   3.360   2.903
    1C        C  312   4.517   3.572   3.022
    1C        C  313   4.519   3.503   3.145
    1C        C  314   4.487   3.717   3.265
    1C        C  315   4.509   3.578   3.265
    1C        C  316   4.474   3.787   3.387
    1C        C  317   4.494   3.722   3.511
    1C        C  318   4.424   3.925   3.628
    1C        C  319   4.474   3.793   3.632
    1C        C  320   4.391   3.989   3.750
    1C        C  321   4.419   3.924   3.872
    1C        C  322   4.322   4.115   3.990
    1C        C  323   4.396   3.994   3.992
    1C        C  324   4.277   4.171   4.112
    1C        C  325   4.322   4.117   4.235
    1C        C  326   4.189   4.285   4.353
    1C        C  327   4.283   4.179   4.355
    1C        C  328   4.138   4.338   4.473
    1C        C  329   4.190   4.294   4.597
    1C        C  330   4.028   4.438   4.710
    1C        C  331   4.140   4.350   4.716
    1C        C  332   3.976   4.498   4.827
    1C        C  333   4.055   4.482   4.941
    1C        C  334   4.553   3.270   2.060
    1C        C  335   4.533   3.131   2.064
    1C        C  336   4.542   3.350   2.175
    1C        C  337   4.520   3.278   2.294
    1C        C  338   4.523   3.492   2.410
    1C        C  339   4.520   3.351   2.415
    1C        C  340   4.513   3.566   2.530
    1C        C  341   4.517   3.497   2.653
    1C        C  342   4.491   3.707   2.775
    1C        C  343   4.512   3.567   2.775
    1C        C  344   4.481   3.781   2.895
    1C        C  345   4.495   3.712   3.018
    1C        C  346   4.424   3.912   3.137
    1C        C  347   4.472   3.779   3.140
    1C        C  348   4.397   3.981   3.258
    1C        C  349   4.426   3.920   3.382
    1C        C  350   4.325   4.106   3.500
    1C        C  351   4.400   3.987   3.504
    1C        C  352   4.279   4.165   3.620
    1C        C  353   4.317   4.109   3.744
    1C        C  354   4.181   4.269   3.865
    1C        C  355   4.278   4.167   3.867
    1C        C  356   4.126   4.318   3.986
    1C        C  357   4.175   4.268   4.109
    1C        C  358   4.015   4.407   4.230
    1C        C  359   4.129   4.323   4.230
    1C        C  360   3.955   4.448   4.351
    1C        C  361   4.021   4.418   4.472
    1C        C  362   3.826   4.511   4.593
    1C        C  363   3.959   4.463   4.590
    1C        C  364   3.762   4.548   4.714
    1C        C  365   3.841   4.541   4.830
    1C        C  366   3.633   4.594   4.945
    1C        C  367   3.770   4.570   4.948
    1C        C  368   4.522   3.563   2.052
    1C        C  369   4.521   3.490   2.172
    1C        C  370   4.503   3.707   2.288
    1C        C  371   4.517   3.566   2.290
    1C        C  372   4.481   3.776   2.409
    1C        C  373   4.498   3.706   2.531
    1C        C  374   4.426   3.906   2.649
    1C        C  375   4.479   3.775   2.652
    1C        C  376   4.402   3.975   2.770
    1C        C  377   4.427   3.912   2.893
    1C        C  378   4.327   4.100   3.012
    1C        C  379   4.398   3.978   3.015
    1C        C  380   4.282   4.156   3.134
    1C        C  381   4.321   4.100   3.257
    1C        C  382   4.179   4.260   3.373
    1C        C  383   4.280   4.161   3.378
    1C        C  384   4.121   4.302   3.495
    1C        C  385   4.175   4.261   3.619
    1C        C  386   4.008   4.389   3.742
    1C        C  387   4.125   4.309   3.741
    1C        C  388   3.947   4.429   3.863
    1C        C  389   4.008   4.395   3.986
    1C        C  390   3.816   4.483   4.107
    1C        C  391   3.949   4.434   4.108
    1C        C  392   3.750   4.507   4.229
    1C        C  393   3.824   4.501   4.349
    1C        C  394   3.617   4.547   4.473
    1C        C  395   3.756   4.523   4.471
    1C        C  396   3.546   4.567   4.594
    1C        C  397   3.623   4.571   4.713
    1C        C  398   3.412   4.550   4.838
    1C        C  399   3.550   4.578   4.834
    1C        C  400   3.342   4.513   4.953
    1C        C  401   4.503   3.700   2.050
    1C        C  402   4.456   3.915   2.166
    1C        C  403   4.488   3.777   2.167
    1C        C  404   4.417   3.980   2.285
    1C        C  405   4.443   3.912   2.406
    1C        C  406   4.324   4.090   2.526
    1C        C  407   4.399   3.971   2.526
    1C        C  408   4.283   4.151   2.646
    1C        C  409   4.327   4.095   2.768
    1C        C  410   4.175   4.245   2.887
    1C        C  411   4.282   4.153   2.889
    1C        C  412   4.121   4.294   3.008
    1C        C  413   4.178   4.251   3.131
    1C        C  414   4.003   4.376   3.251
    1C        C  415   4.124   4.303   3.250
    1C        C  416   3.942   4.407   3.374
    1C        C  417   4.000   4.376   3.499
    1C        C  418   3.810   4.468   3.616
    1C        C  419   3.941   4.417   3.621
    1C        C  420   3.745   4.494   3.739
    1C        C  421   3.816   4.481   3.861
    1C        C  422   3.612   4.531   3.985
    1C        C  423   3.750   4.505   3.984
    1C        C  424   3.541   4.538   4.107
    1C        C  425   3.611   4.531   4.229
    1C        C  426   3.403   4.550   4.356
    1C        C  427   3.544   4.547   4.352
    1C        C  428   3.332   4.544   4.478
    1C        C  429   3.405   4.562   4.598
    1C        C  430   3.197   4.511   4.722
    1C        C  431   3.335   4.544   4.719
    1C        C  432   3.127   4.483   4.843
    1C        C  433   3.206   4.483   4.958
    1C        C  434   4.387   4.121   2.052
    1C        C  435   4.454   3.998   2.053
    1C        C  436   4.304   4.161   2.162
    1C        C  437   4.335   4.097   2.285
    1C        C  438   4.181   4.248   2.399
    1C        C  439   4.286   4.152   2.405
    1C        C  440   4.122   4.289   2.520
    1C        C  441   4.176   4.244   2.642
    1C        C  442   4.005   4.371   2.766
    1C        C  443   4.122   4.291   2.764
    1C        C  444   3.942   4.410   2.886
    1C        C  445   4.006   4.375   3.007
    1C        C  446   3.811   4.464   3.129
    1C        C  447   3.941   4.409   3.128
    1C        C  448   3.746   4.489   3.252
    1C        C  449   3.813   4.466   3.375
    1C        C  450   3.604   4.522   3.497
    1C        C  451   3.742   4.490   3.494
    1C        C  452   3.536   4.527   3.621
    1C        C  453   3.607   4.525   3.742
    1C        C  454   3.397   4.538   3.864
    1C        C  455   3.538   4.542   3.864
    1C        C  456   3.330   4.530   3.989
    1C        C  457   3.399   4.539   4.111
    1C        C  458   3.194   4.500   4.236
    1C        C  459   3.332   4.534   4.235
    1C        C  460   3.126   4.485   4.359
    1C        C  461   3.196   4.508   4.479
    1C        C  462   2.998   4.431   4.602
    1C        C  463   3.127   4.488   4.601
    1C        C  464   2.931   4.402   4.723
    1C        C  465   2.989   4.446   4.845
    1C        C  466   2.795   4.340   4.957
    1C        C  467   2.905   4.427   4.960
    1C        C  468   4.124   4.283   2.042
    1C        C  469   4.186   4.242   2.160
    1C        C  470   4.003   4.367   2.279
    1C        C  471   4.123   4.291   2.278
    1C        C  472   3.943   4.404   2.401
    1C        C  473   4.005   4.368   2.522
    1C        C  474   3.815   4.464   2.641
    1C        C  475   3.944   4.407   2.644
    1C        C  476   3.744   4.487   2.761
    1C        C  477   3.813   4.466   2.882
    1C        C  478   3.606   4.510   3.009
    1C        C  479   3.745   4.483   3.005
    1C        C  480   3.536   4.524   3.131
    1C        C  481   3.609   4.521   3.252
    1C        C  482   3.396   4.531   3.376
    1C        C  483   3.537   4.531   3.373
    1C        C  484   3.325   4.524   3.498
    1C        C  485   3.395   4.532   3.621
    1C        C  486   3.186   4.502   3.745
    1C        C  487   3.324   4.533   3.743
    1C        C  488   3.125   4.482   3.871
    1C        C  489   3.192   4.503   3.993
    1C        C  490   3.000   4.410   4.114
    1C        C  491   3.125   4.476   4.115
    1C        C  492   2.938   4.382   4.238
    1C        C  493   2.999   4.423   4.358
    1C        C  494   2.828   4.301   4.481
    1C        C  495   2.936   4.392   4.481
    1C        C  496   2.774   4.255   4.602
    1C        C  497   2.819   4.314   4.723
    1C        C  498   2.663   4.166   4.839
    1C        C  499   2.749   4.277   4.840
    1C        C  500   2.596   4.119   4.953
    1C        C  501   4.003   4.351   2.044
    1C        C  502   3.815   4.467   2.158
    1C        C  503   3.941   4.404   2.158
    1C        C  504   3.744   4.477   2.279
    1C        C  505   3.811   4.456   2.402
    1C        C  506   3.605   4.516   2.517
    1C        C  507   3.742   4.485   2.522
    1C        C  508   3.537   4.518   2.641
    1C        C  509   3.606   4.517   2.765
    1C        C  510   3.395   4.522   2.886
    1C        C  511   3.536   4.527   2.887
    1C        C  512   3.325   4.513   3.008
    1C        C  513   3.395   4.528   3.130
    1C        C  514   3.189   4.490   3.253
    1C        C  515   3.326   4.527   3.254
    1C        C  516   3.121   4.466   3.375
    1C        C  517   3.187   4.494   3.497
    1C        C  518   2.999   4.409   3.622
    1C        C  519   3.122   4.478   3.621
    1C        C  520   2.944   4.367   3.746
    1C        C  521   3.005   4.408   3.867
    1C        C  522   2.834   4.285   3.994
    1C        C  523   2.948   4.368   3.990
    1C        C  524   2.788   4.236   4.118
    1C        C  525   2.828   4.293   4.242
    1C        C  526   2.692   4.130   4.364
    1C        C  527   2.775   4.244   4.363
    1C        C  528   2.652   4.074   4.487
    1C        C  529   2.688   4.143   4.605
    1C        C  530   2.578   3.958   4.730
    1C        C  531   2.638   4.087   4.725
    1C        C  532   2.543   3.899   4.855
    1C        C  533   2.528   3.997   4.958
    1C        C  534   3.617   4.553   2.034
    1C        C  535   3.751   4.512   2.041
    1C        C  536   3.538   4.533   2.151
    1C        C  537   3.606   4.513   2.274
    1C        C  538   3.393   4.517   2.396
    1C        C  539   3.534   4.524   2.395
    1C        C  540   3.324   4.510   2.519
    1C        C  541   3.396   4.514   2.640
    1C        C  542   3.188   4.483   2.763
    1C        C  543   3.326   4.513   2.763
    1C        C  544   3.121   4.463   2.885
    1C        C  545   3.187   4.483   3.008
    1C        C  546   2.995   4.402   3.131
    1C        C  547   3.121   4.467   3.132
    1C        C  548   2.941   4.359   3.254
    1C        C  549   2.996   4.400   3.377
    1C        C  550   2.830   4.277   3.503
    1C        C  551   2.936   4.369   3.502
    1C        C  552   2.778   4.232   3.627
    1C        C  553   2.832   4.282   3.748
    1C        C  554   2.700   4.120   3.875
    1C        C  555   2.783   4.235   3.872
    1C        C  556   2.663   4.062   3.999
    1C        C  557   2.699   4.127   4.119
    1C        C  558   2.584   3.948   4.243
    1C        C  559   2.660   4.068   4.241
    1C        C  560   2.562   3.880   4.365
    1C        C  561   2.594   3.945   4.486
    1C        C  562   2.527   3.749   4.612
    1C        C  563   2.562   3.885   4.611
    1C        C  564   2.512   3.682   4.736
    1C        C  565   2.517   3.759   4.856
    1C        C  566   2.537   3.547   4.974
    1C        C  567   2.522   3.686   4.975
    1C        C  568   3.329   4.479   2.036
    1C        C  569   3.397   4.513   2.154
    1C        C  570   3.184   4.474   2.279
    1C        C  571   3.322   4.509   2.274
    1C        C  572   3.116   4.454   2.401
    1C        C  573   3.185   4.483   2.520
    1C        C  574   2.990   4.400   2.645
    1C        C  575   3.116   4.464   2.642
    1C        C  576   2.933   4.358   2.768
    1C        C  577   2.997   4.394   2.888
    1C        C  578   2.825   4.271   3.012
    1C        C  579   2.936   4.358   3.010
    1C        C  580   2.776   4.222   3.136
    1C        C  581   2.831   4.271   3.256
    1C        C  582   2.697   4.111   3.386
    1C        C  583   2.783   4.223   3.381
    1C        C  584   2.659   4.055   3.510
    1C        C  585   2.697   4.117   3.631
    1C        C  586   2.593   3.935   3.756
    1C        C  587   2.660   4.059   3.754
    1C        C  588   2.565   3.872   3.879
    1C        C  589   2.597   3.937   4.001
    1C        C  590   2.531   3.739   4.128
    1C        C  591   2.564   3.876   4.124
    1C        C  592   2.526   3.670   4.251
    1C        C  593   2.534   3.742   4.372
    1C        C  594   2.511   3.531   4.500
    1C        C  595   2.517   3.672   4.494
    1C        C  596   2.517   3.463   4.623
    1C        C  597   2.513   3.540   4.741
    1C        C  598   2.530   3.325   4.863
    1C        C  599   2.528   3.466   4.860
    1C        C  600   2.527   3.251   4.982
    1C        C  601   3.197   4.438   2.043
    1C        C  602   2.981   4.396   2.157
    1C        C  603   3.118   4.436   2.158
    1C        C  604   2.927   4.355   2.282
    1C        C  605   2.989   4.392   2.403
    1C        C  606   2.822   4.264   2.527
    1C        C  607   2.927   4.359   2.526
    1C        C  608   2.773   4.216   2.650
    1C        C  609   2.821   4.273   2.770
    1C        C  610   2.680   4.113   2.894
    1C        C  611   2.767   4.224   2.892
    1C        C  612   2.648   4.053   3.018
    1C        C  613   2.688   4.111   3.140
    1C        C  614   2.591   3.926   3.267
    1C        C  615   2.653   4.053   3.264
    1C        C  616   2.570   3.862   3.391
    1C        C  617   2.597   3.928   3.512
    1C        C  618   2.532   3.728   3.639
    1C        C  619   2.570   3.864   3.636
    1C        C  620   2.521   3.661   3.763
    1C        C  621   2.535   3.734   3.883
    1C        C  622   2.513   3.525   4.009
    1C        C  623   2.525   3.666   4.007
    1C        C  624   2.517   3.456   4.132
    1C        C  625   2.514   3.529   4.253
    1C        C  626   2.545   3.323   4.378
    1C        C  627   2.516   3.461   4.377
    1C        C  628   2.557   3.253   4.500
    1C        C  629   2.537   3.323   4.622
    1C        C  630   2.599   3.119   4.743
    1C        C  631   2.551   3.252   4.743
    1C        C  632   2.613   3.048   4.866
    1C        C  633   2.554   3.113   4.979
    1C        C  634   2.781   4.300   2.051
    1C        C  635   2.893   4.384   2.045
    1C        C  636   2.745   4.231   2.167
    1C        C  637   2.811   4.273   2.285
    1C        C  638   2.674   4.109   2.408
    1C        C  639   2.766   4.217   2.407
    1C        C  640   2.643   4.047   2.530
    1C        C  641   2.685   4.105   2.652
    1C        C  642   2.583   3.920   2.775
    1C        C  643   2.644   4.048   2.774
    1C        C  644   2.562   3.855   2.898
    1C        C  645   2.593   3.923   3.019
    1C        C  646   2.532   3.725   3.148
    1C        C  647   2.568   3.861   3.143
    1C        C  648   2.516   3.657   3.271
    1C        C  649   2.531   3.726   3.394
    1C        C  650   2.507   3.518   3.519
    1C        C  651   2.515   3.659   3.517
    1C        C  652   2.507   3.450   3.643
    1C        C  653   2.508   3.521   3.765
    1C        C  654   2.534   3.313   3.890
    1C        C  655   2.508   3.451   3.888
    1C        C  656   2.557   3.246   4.012
    1C        C  657   2.541   3.317   4.133
    1C        C  658   2.604   3.118   4.257
    1C        C  659   2.557   3.251   4.257
    1C        C  660   2.639   3.057   4.380
    1C        C  661   2.604   3.120   4.501
    1C        C  662   2.707   2.935   4.626
    1C        C  663   2.627   3.051   4.622
    1C        C  664   2.752   2.877   4.747
    1C        C  665   2.694   2.930   4.866
    1C        C  666   2.739   2.863   4.980
    1C        C  667   2.669   4.026   2.053
    1C        C  668   2.678   4.107   2.167
    1C        C  669   2.580   3.915   2.290
    1C        C  670   2.636   4.046   2.287
    1C        C  671   2.555   3.848   2.412
    1C        C  672   2.589   3.916   2.531
    1C        C  673   2.525   3.715   2.658
    1C        C  674   2.557   3.852   2.653
    1C        C  675   2.514   3.647   2.781
    1C        C  676   2.531   3.718   2.903
    1C        C  677   2.513   3.511   3.033
    1C        C  678   2.524   3.652   3.028
    1C        C  679   2.509   3.442   3.156
    1C        C  680   2.506   3.516   3.276
    1C        C  681   2.537   3.306   3.400
    1C        C  682   2.508   3.445   3.398
    1C        C  683   2.556   3.243   3.525
    1C        C  684   2.532   3.311   3.647
    1C        C  685   2.604   3.111   3.771
    1C        C  686   2.554   3.243   3.768
    1C        C  687   2.638   3.048   3.893
    1C        C  688   2.606   3.114   4.014
    1C        C  689   2.712   2.932   4.139
    1C        C  690   2.636   3.051   4.137
    1C        C  691   2.754   2.875   4.261
    1C        C  692   2.715   2.938   4.382
    1C        C  693   2.755   2.881   4.505
    1C        C  694   2.629   3.892   2.055
    1C        C  695   2.533   3.702   2.171
    1C        C  696   2.580   3.835   2.174
    1C        C  697   2.512   3.638   2.296
    1C        C  698   2.521   3.711   2.416
    1C        C  699   2.495   3.501   2.542
    1C        C  700   2.509   3.641   2.538
    1C        C  701   2.506   3.433   2.666
    1C        C  702   2.510   3.506   2.786
    1C        C  703   2.523   3.299   2.909
    1C        C  704   2.510   3.440   2.911
    1C        C  705   2.544   3.232   3.032
    1C        C  706   2.531   3.302   3.154
    1C        C  707   2.601   3.105   3.282
    1C        C  708   2.551   3.237   3.278
    1C        C  709   2.634   3.043   3.405
    1C        C  710   2.607   3.111   3.526
    1C        C  711   2.712   2.927   3.647
    1C        C  712   2.638   3.048   3.649
    1C        C  713   2.756   2.874   3.770
    1C        C  714   2.717   2.931   3.894
    1C        C  715   2.756   2.874   4.018
    1C        C  716   2.441   3.501   2.064
    1C        C  717   2.493   3.631   2.057
    1C        C  718   2.465   3.421   2.181
    1C        C  719   2.490   3.498   2.298
    1C        C  720   2.512   3.289   2.426
    1C        C  721   2.494   3.429   2.421
    1C        C  722   2.537   3.221   2.547
    1C        C  723   2.526   3.293   2.668
    1C        C  724   2.596   3.094   2.792
    1C        C  725   2.543   3.225   2.791
    1C        C  726   2.629   3.035   2.917
    1C        C  727   2.598   3.102   3.038
    1C        C  728   2.708   2.921   3.158
    1C        C  729   2.633   3.040   3.160
    1C        C  730   2.749   2.865   3.281
    1C        C  731   2.707   2.923   3.403
    1C        C  732   2.753   2.868   3.525
    1C        C  733   2.490   3.196   2.072
    1C        C  734   2.491   3.281   2.184
    1C        C  735   2.575   3.082   2.303
    1C        C  736   2.524   3.215   2.306
    1C        C  737   2.608   3.020   2.425
    1C        C  738   2.591   3.091   2.547
    1C        C  739   2.702   2.911   2.666
    1C        C  740   2.625   3.030   2.670
    1C        C  741   2.738   2.854   2.790
    1C        C  742   2.703   2.915   2.912
    1C        C  743   2.745   2.860   3.035
    1C        C  744   2.546   3.069   2.073
    1C        C  745   2.687   2.895   2.186
    1C        C  746   2.606   3.011   2.185
    1C        C  747   2.734   2.841   2.307
    1C        C  748   2.687   2.903   2.426
    1C        C  749   2.739   2.849   2.545
    1C        C  750   2.734   2.838   2.067
    1C        C  751   3.654   2.316   1.976
    1C        O  752   3.665   2.197   2.013
    1C        O  753   3.696   2.335   1.843
    1C        C  754   4.622   3.065   1.967
    1C        O  755   4.606   3.084   1.843
    1C        O  756   4.733   2.984   1.997
    1C        C  757   4.428   4.211   1.942
    1C        O  758   4.525   4.290   1.954
    1C        O  759   4.356   4.226   1.823
    1C        C  760   3.593   4.670   1.947
    1C        O  761   3.621   4.789   1.977
    1C        O  762   3.579   4.646   1.810
    1C        C  763   2.876   4.492   1.944
    1C        O  764   2.898   4.465   1.823
    1C        O  765   2.837   4.625   1.963
    1C        C  766   2.309   3.493   1.998
    1C        O  767   2.280   3.487   1.875
    1C        O  768   2.190   3.530   2.062
    1C        C  769   4.711   3.599   5.032
    1C        O  770   4.701   3.593   5.158
    1C        O  771   4.822   3.675   4.993
    1C        C  772   4.279   4.467   5.017
    1C        O  773   4.287   4.486   5.141
    1C        O  774   4.357   4.554   4.939
    1C        C  775   4.146   2.525   5.072
    1C        O  776   4.173   2.403   5.088
    1C        O  777   4.152   2.581   5.200
    1C        C  778   2.910   4.511   5.081
    1C        O  779   2.887   4.635   5.086
    1C        O  780   2.920   4.442   5.203
    1C        C  781   2.485   3.040   5.088
    1C        O  782   2.394   2.956   5.062
    1C        O  783   2.523   3.039   5.221
    1C        C  784   2.394   3.994   5.022
    1C        O  785   2.298   4.064   4.981
    1C        O  786   2.394   3.996   5.162
    1C        C  787   2.948   2.428   2.000
    1C        O  788   2.934   2.446   1.876
    1C        O  789   2.912   2.300   2.040
    1C        C  790   3.191   2.390   5.084
    1C        O  791   3.198   2.266   5.062
    1C        O  792   3.144   2.424   5.211
    1C        H  793   4.291   3.021   5.057
    1C        H  794   4.166   2.823   5.072
    1C        H  795   4.530   3.124   5.052
    1C        H  796   4.480   3.368   5.057
    1C        H  797   4.539   3.805   5.054
    1C        H  798   4.404   3.956   5.050
    1C        H  799   4.289   4.178   5.051
    1C        H  800   4.050   4.559   5.016
    1C        H  801   3.804   4.519   5.036
    1C        H  802   3.584   4.608   5.040
    1C        H  803   3.388   4.509   5.050
    1C        H  804   3.164   4.452   5.052
    1C        H  805   3.910   2.444   5.040
    1C        H  806   3.673   2.521   5.065
    1C        H  807   2.977   2.527   5.044
    1C        H  808   3.439   2.481   5.080
    1C        H  809   2.895   2.760   5.079
    1C        H  810   2.676   2.861   5.066
    1C        H  811   2.499   3.293   5.076
    1C        H  812   2.562   3.506   5.069
    1C        H  813   2.461   3.722   5.055
    1C        H  814   2.549   4.194   5.013
    1C        H  815   2.753   4.311   5.051
    1C        H  816   2.707   2.880   1.972
    1C        H  817   2.869   2.711   1.973
    1C        H  818   3.213   2.443   1.983
    1C        H  819   3.429   2.433   1.973
    1C        H  820   3.852   2.529   1.967
    1C        H  821   4.024   2.682   1.973
    1C        H  822   4.261   2.709   1.978
    1C        H  823   4.367   2.932   1.965
    1C        H  824   4.546   3.310   1.961
    1C        H  825   4.516   3.515   1.957
    1C        H  826   4.497   3.753   1.957
    1C        H  827   3.803   4.552   1.956
    1C        H  828   3.931   4.318   1.972
    1C        H  829   4.186   4.289   1.954
    1C        H  830   4.490   3.964   1.959
    1C        H  831   2.669   3.838   1.972
    1C        H  832   2.665   4.081   1.962
    1C        H  833   2.699   4.332   1.990
    1C        H  834   3.391   4.443   1.957
    1C        H  835   3.143   4.439   1.950
    1C        H  836   2.496   2.998   2.010
    1C        H  837   2.478   3.244   1.977
    1C        H  838   2.489   3.672   1.959
    2V3OU   H29  839   2.803   3.540   1.008
    2V3OU   C27  840   2.778   3.502   1.110
    2V3OU   H27  841   2.726   3.572   1.181
    2V3OU   H28  842   2.728   3.402   1.107
    2V3OU   O11  843   2.900   3.483   1.182
    2V3OU   C15  844   2.920   3.402   1.292
    2V3OU   C13  845   3.052   3.377   1.335
    2V3OU   C14  846   3.075   3.269   1.421
    2V3OU   C16  847   2.974   3.187   1.471
    2V3OU    H6  848   2.992   3.108   1.545
    2V3OU   C12  849   3.213   3.230   1.459
    2V3OU    O2  850   3.241   3.124   1.518
    2V3OU   C10  851   3.325   3.310   1.408
    2V3OU    C8  852   3.457   3.272   1.428
    2V3OU   O10  853   3.489   3.149   1.475
    2V3OU   H26  854   3.403   3.120   1.509
    2V3OU    C6  855   3.568   3.348   1.379
    2V3OU    C5  856   3.539   3.466   1.313
    2V3OU    C4  857   3.707   3.292   1.382
    2V3OU    H4  858   3.723   3.225   1.471
    2V3OU    H5  859   3.720   3.227   1.291
    2V3OU    C2  860   3.818   3.397   1.379
    2V3OU    O6  861   3.815   3.480   1.495
    2V3OU   H21  862   3.763   3.557   1.469
    2V3OU    C3  863   3.786   3.494   1.265
    2V3OU    H2  864   3.860   3.577   1.264
    2V3OU    H3  865   3.783   3.441   1.166
    2V3OU   C25  866   3.952   3.326   1.361
    2V3OU    O7  867   4.002   3.297   1.252
    2V3OU   C26  868   4.033   3.286   1.483
    2V3OU   H22  869   4.071   3.380   1.530
    2V3OU   H23  870   4.121   3.224   1.453
    2V3OU    O8  871   3.961   3.210   1.579
    2V3OU   H24  872   3.927   3.267   1.650
    2V3OU    C1  873   3.650   3.561   1.277
    2V3OU    H1  874   3.624   3.615   1.182
    2V3OU    O3  875   3.651   3.652   1.387
    2V3OU   C19  876   3.616   3.790   1.374
    2V3OU    H9  877   3.525   3.802   1.308
    2V3OU    O4  878   3.714   3.842   1.287
    2V3OU   C20  879   3.843   3.870   1.341
    2V3OU   H10  880   3.899   3.774   1.362
    2V3OU   C24  881   3.609   3.854   1.513
    2V3OU   H16  882   3.540   3.790   1.572
    2V3OU   H17  883   3.560   3.953   1.494
    2V3OU   C23  884   3.750   3.874   1.571
    2V3OU   H15  885   3.791   3.771   1.597
    2V3OU    N1  886   3.735   3.953   1.691
    2V3OU   H19  887   3.802   3.919   1.758
    2V3OU   H20  888   3.648   3.926   1.733
    2V3OU   C21  889   3.848   3.946   1.474
    2V3OU   H11  890   3.948   3.923   1.521
    2V3OU    O5  891   3.827   4.086   1.461
    2V3OU   H18  892   3.786   4.109   1.546
    2V3OU   C22  893   3.913   3.949   1.232
    2V3OU   H12  894   3.860   4.047   1.222
    2V3OU   H13  895   3.905   3.892   1.135
    2V3OU   H14  896   4.021   3.961   1.257
    2V3OU   C11  897   3.161   3.469   1.297
    2V3OU    O1  898   3.136   3.587   1.265
    2V3OU    C9  899   3.299   3.426   1.330
    2V3OU    C7  900   3.404   3.503   1.282
    2V3OU    O9  901   3.384   3.615   1.203
    2V3OU   H25  902   3.288   3.628   1.202
    2V3OU   C17  903   2.823   3.313   1.341
    2V3OU    H7  904   2.720   3.343   1.321
    2V3OU   C18  905   2.843   3.207   1.429
    2V3OU    H8  906   2.763   3.149   1.477
    3SOL     OW  907   0.681   3.660   0.865
    3SOL    HW1  908   0.634   3.734   0.818
    3SOL    HW2  909   0.745   3.616   0.802
    4SOL     OW  910   5.476   1.165   2.382
    4SOL    HW1  911   5.502   1.228   2.309
    4SOL    HW2  912   5.544   1.092   2.388
    5SOL     OW  913   3.763   2.988   1.120
    5SOL    HW1  914   3.823   2.969   1.042
    5SOL    HW2  915   3.781   2.922   1.193
    6SOL     OW  916   2.477   2.431   0.795
    6SOL    HW1  917   2.473   2.406   0.699
    6SOL    HW2  918   2.455   2.352   0.851
    7SOL     OW  919   5.908   1.320   1.506
    7SOL    HW1  920   5.852   1.397   1.476
    7SOL    HW2  921   5.923   1.258   1.429
    8SOL     OW  922   3.015   2.215   3.439
    8SOL    HW1  923   3.099   2.161   3.438
    8SOL    HW2  924   3.017   2.282   3.364
    9SOL     OW  925   0.677   4.010   6.081
    9SOL    HW1  926   0.709   4.086   6.137
    9SOL    HW2  927   0.756   3.964   6.040
   10SOL     OW  928   0.544   4.040   0.507
   10SOL    HW1  929   0.458   4.060   0.555
   10SOL    HW2  930   0.577   4.124   0.463
   11SOL     OW  931   4.058   6.375   6.893
   11SOL    HW1  932   4.126   6.316   6.936
   11SOL    HW2  933   4.089   6.398   6.800
   12SOL     OW  934   5.386   6.163   2.705
   12SOL    HW1  935   5.379   6.242   2.644
   12SOL    HW2  936   5.358   6.080   2.656
   13SOL     OW  937   1.467   0.084   3.605
   13SOL    HW1  938   1.483   0.175   3.643
   13SOL    HW2  939   1.402   0.035   3.664
   14SOL     OW  940   2.952   0.152   2.394
   14SOL    HW1  941   2.975   0.054   2.399
   14SOL    HW2  942   2.854   0.164   2.412
   15SOL     OW  943   2.376   6.758   6.201
   15SOL    HW1  944   2.283   6.773   6.232
   15SOL    HW2  945   2.440   6.796   6.268
   16SOL     OW  946   6.745   1.593   6.677
   16SOL    HW1  947   6.683   1.646   6.736
   16SOL    HW2  948   6.837   1.633   6.682
   17SOL     OW  949   4.510   6.231   3.427
   17SOL    HW1  950   4.544   6.213   3.520
   17SOL    HW2  951   4.436   6.297   3.431
   18SOL     OW  952   1.746   1.137   0.187
   18SOL    HW1  953   1.819   1.161   0.251
   18SOL    HW2  954   1.786   1.120   0.097
   19SOL     OW  955   0.679   6.871   1.584
   19SOL    HW1  956   0.636   6.811   1.516
   19SOL    HW2  957   0.720   6.949   1.538
   20SOL     OW  958   3.192   0.857   3.852
   20SOL    HW1  959   3.243   0.838   3.935
   20SOL    HW2  960   3.234   0.935   3.804
   21SOL     OW  961   2.915   2.687   1.505
   21SOL    HW1  962   2.958   2.601   1.478
   21SOL    HW2  963   2.984   2.759   1.509
   22SOL     OW  964   0.926   1.316   5.053
   22SOL    HW1  965   0.863   1.384   5.016
   22SOL    HW2  966   0.987   1.360   5.119
   23SOL     OW  967   3.394   5.748   4.494
   23SOL    HW1  968   3.460   5.696   4.439
   23SOL    HW2  969   3.383   5.840   4.455
   24SOL     OW  970   3.809   1.014   4.629
   24SOL    HW1  971   3.732   1.074   4.651
   24SOL    HW2  972   3.814   0.941   4.697
   25SOL     OW  973   2.796   4.504   1.454
   25SOL    HW1  974   2.778   4.500   1.355
   25SOL    HW2  975   2.872   4.567   1.471
   26SOL     OW  976   6.015   1.077   3.163
   26SOL    HW1  977   6.095   1.132   3.142
   26SOL    HW2  978   5.976   1.042   3.077
   27SOL     OW  979   6.122   6.365   1.902
   27SOL    HW1  980   6.103   6.267   1.896
   27SOL    HW2  981   6.076   6.412   1.826
   28SOL     OW  982   3.355   0.939   0.835
   28SOL    HW1  983   3.323   0.909   0.745
   28SOL    HW2  984   3.447   0.903   0.851
   29SOL     OW  985   4.026   2.678   1.514
   29SOL    HW1  986   4.060   2.590   1.546
   29SOL    HW2  987   3.972   2.721   1.586
   30SOL     OW  988   3.940   1.177   4.835
   30SOL    HW1  989   3.895   1.089   4.821
   30SOL    HW2  990   4.007   1.192   4.763
   31SOL     OW  991   0.677   1.190   5.178
   31SOL    HW1  992   0.643   1.283   5.165
   31SOL    HW2  993   0.751   1.172   5.114
   32SOL     OW  994   0.432   1.730   2.162
   32SOL    HW1  995   0.409   1.649   2.109
   32SOL    HW2  996   0.348   1.781   2.184
   33SOL     OW  997   1.780   2.015   5.142
   33SOL    HW1  998   1.841   2.025   5.221
   33SOL    HW2  999   1.766   1.918   5.123
   34SOL     OW 1000   0.997   0.599   4.650
   34SOL    HW1 1001   0.972   0.627   4.557
   34SOL    HW2 1002   0.916   0.570   4.699
   35SOL     OW 1003   3.982   1.839   6.229
   35SOL    HW1 1004   3.962   1.755   6.279
   35SOL    HW2 1005   4.064   1.882   6.268
   36SOL     OW 1006   1.290   1.813   5.822
   36SOL    HW1 1007   1.226   1.782   5.752
   36SOL    HW2 1008   1.379   1.770   5.807
   37SOL     OW 1009   2.173   6.780   0.622
   37SOL    HW1 1010   2.229   6.711   0.668
   37SOL    HW2 1011   2.076   6.762   0.641
   38SOL     OW 1012   0.039   6.422   2.093
   38SOL    HW1 1013   0.011   6.459   2.182
   38SOL    HW2 1014   0.118   6.473   2.059
   39SOL     OW 1015   6.987   2.812   5.784
   39SOL    HW1 1016   0.017   2.879   5.839
   39SOL    HW2 1017   6.894   2.803   5.821
   40SOL     OW 1018   6.834   0.873   1.427
   40SOL    HW1 1019   6.878   0.799   1.376
   40SOL    HW2 1020   6.764   0.835   1.487
   41SOL     OW 1021   1.645   0.855   5.754
   41SOL    HW1 1022   1.712   0.813   5.816
   41SOL    HW2 1023   1.625   0.791   5.679
   42SOL     OW 1024   4.192   0.317   0.513
   42SOL    HW1 1025   4.262   0.274   0.570
   42SOL    HW2 1026   4.172   0.259   0.434
   43SOL     OW 1027   5.134   5.645   5.050
   43SOL    HW1 1028   5.125   5.707   5.128
   43SOL    HW2 1029   5.158   5.553   5.082
   44SOL     OW 1030   0.502   3.413   6.798
   44SOL    HW1 1031   0.552   3.450   6.721
   44SOL    HW2 1032   0.494   3.314   6.788
   45SOL     OW 1033   2.644   0.559   1.539
   45SOL    HW1 1034   2.694   0.540   1.623
   45SOL    HW2 1035   2.680   0.502   1.465
   46SOL     OW 1036   1.456   4.880   3.923
   46SOL    HW1 1037   1.536   4.822   3.936
   46SOL    HW2 1038   1.392   4.867   3.999
   47SOL     OW 1039   5.501   4.497   3.064
   47SOL    HW1 1040   5.445   4.530   3.140
   47SOL    HW2 1041   5.597   4.519   3.082
   48SOL     OW 1042   0.852   1.371   5.646
   48SOL    HW1 1043   0.831   1.321   5.730
   48SOL    HW2 1044   0.768   1.382   5.593
   49SOL     OW 1045   5.456   2.718   0.627
   49SOL    HW1 1046   5.447   2.815   0.606
   49SOL    HW2 1047   5.413   2.699   0.715
   50SOL     OW 1048   0.153   4.041   4.361
   50SOL    HW1 1049   0.122   4.021   4.268
   50SOL    HW2 1050   0.160   3.955   4.413
   51SOL     OW 1051   3.144   5.498   2.813
   51SOL    HW1 1052   3.142   5.400   2.790
   51SOL    HW2 1053   3.195   5.548   2.743
   52SOL     OW 1054   0.954   2.083   1.558
   52SOL    HW1 1055   0.891   2.095   1.482
   52SOL    HW2 1056   0.951   1.988   1.590
   53SOL     OW 1057   4.777   6.416   4.262
   53SOL    HW1 1058   4.792   6.319   4.279
   53SOL    HW2 1059   4.753   6.430   4.166
   54SOL     OW 1060   4.240   5.815   6.107
   54SOL    HW1 1061   4.155   5.764   6.122
   54SOL    HW2 1062   4.318   5.755   6.122
   55SOL     OW 1063   3.749   2.458   0.483
   55SOL    HW1 1064   3.696   2.529   0.437
   55SOL    HW2 1065   3.759   2.379   0.423
   56SOL     OW 1066   0.763   6.523   1.454
   56SOL    HW1 1067   0.709   6.599   1.417
   56SOL    HW2 1068   0.781   6.539   1.551
   57SOL     OW 1069   5.859   1.346   0.880
   57SOL    HW1 1070   5.933   1.383   0.823
   57SOL    HW2 1071   5.771   1.376   0.844
   58SOL     OW 1072   6.732   6.938   6.487
   58SOL    HW1 1073   6.706   6.850   6.526
   58SOL    HW2 1074   6.818   6.969   6.528
   59SOL     OW 1075   0.985   0.259   4.945
   59SOL    HW1 1076   0.939   0.261   4.856
   59SOL    HW2 1077   0.940   0.323   5.007
   60SOL     OW 1078   4.937   6.614   4.819
   60SOL    HW1 1079   4.932   6.584   4.914
   60SOL    HW2 1080   4.844   6.628   4.784
   61SOL     OW 1081   4.107   0.340   5.034
   61SOL    HW1 1082   4.037   0.403   5.002
   61SOL    HW2 1083   4.066   0.273   5.097
   62SOL     OW 1084   3.070   1.607   5.133
   62SOL    HW1 1085   3.005   1.531   5.139
   62SOL    HW2 1086   3.093   1.625   5.037
   63SOL     OW 1087   0.198   3.257   3.264
   63SOL    HW1 1088   0.246   3.179   3.304
   63SOL    HW2 1089   0.103   3.256   3.294
   64SOL     OW 1090   6.695   2.541   5.674
   64SOL    HW1 1091   6.743   2.629   5.677
   64SOL    HW2 1092   6.638   2.537   5.592
   65SOL     OW 1093   0.196   3.415   5.924
   65SOL    HW1 1094   0.134   3.347   5.885
   65SOL    HW2 1095   0.287   3.375   5.936
   66SOL     OW 1096   2.800   1.040   0.996
   66SOL    HW1 1097   2.786   1.105   0.922
   66SOL    HW2 1098   2.888   0.995   0.985
   67SOL     OW 1099   4.767   5.771   3.957
   67SOL    HW1 1100   4.799   5.795   4.048
   67SOL    HW2 1101   4.821   5.696   3.920
   68SOL     OW 1102   5.441   3.018   6.305
   68SOL    HW1 1103   5.511   3.054   6.368
   68SOL    HW2 1104   5.356   3.070   6.317
   69SOL     OW 1105   2.070   2.778   5.708
   69SOL    HW1 1106   2.130   2.725   5.649
   69SOL    HW2 1107   2.099   2.874   5.708
   70SOL     OW 1108   6.678   5.903   1.911
   70SOL    HW1 1109   6.626   5.948   1.984
   70SOL    HW2 1110   6.615   5.877   1.837
   71SOL     OW 1111   2.184   3.236   3.166
   71SOL    HW1 1112   2.202   3.208   3.260
   71SOL    HW2 1113   2.199   3.334   3.157
   72SOL     OW 1114   3.241   5.660   4.109
   72SOL    HW1 1115   3.176   5.662   4.185
   72SOL    HW2 1116   3.222   5.736   4.047
   73SOL     OW 1117   4.150   2.324   6.346
   73SOL    HW1 1118   4.087   2.269   6.401
   73SOL    HW2 1119   4.178   2.273   6.265
   74SOL     OW 1120   5.370   6.187   6.208
   74SOL    HW1 1121   5.442   6.123   6.236
   74SOL    HW2 1122   5.409   6.278   6.198
   75SOL     OW 1123   3.860   4.980   5.072
   75SOL    HW1 1124   3.882   4.964   4.976
   75SOL    HW2 1125   3.761   4.969   5.086
   76SOL     OW 1126   2.603   3.225   0.925
   76SOL    HW1 1127   2.546   3.253   1.002
   76SOL    HW2 1128   2.579   3.280   0.844
   77SOL     OW 1129   5.244   4.843   6.200
   77SOL    HW1 1130   5.229   4.753   6.159
   77SOL    HW2 1131   5.343   4.859   6.209
   78SOL     OW 1132   6.830   6.568   6.117
   78SOL    HW1 1133   6.783   6.490   6.077
   78SOL    HW2 1134   6.820   6.566   6.217
   79SOL     OW 1135   3.428   6.912   0.070
   79SOL    HW1 1136   3.457   6.838   0.130
   79SOL    HW2 1137   3.435   6.999   0.118
   80SOL     OW 1138   6.958   1.088   4.174
   80SOL    HW1 1139   6.998   1.176   4.146
   80SOL    HW2 1140   7.019   1.014   4.146
   81SOL     OW 1141   1.469   0.027   4.130
   81SOL    HW1 1142   1.375   0.048   4.156
   81SOL    HW2 1143   1.525   0.018   4.213
   82SOL     OW 1144   6.938   4.484   5.656
   82SOL    HW1 1145   6.966   4.527   5.570
   82SOL    HW2 1146   6.851   4.437   5.642
   83SOL     OW 1147   6.740   0.256   6.882
   83SOL    HW1 1148   6.694   0.171   6.855
   83SOL    HW2 1149   6.831   0.259   6.843
   84SOL     OW 1150   6.216   3.483   1.569
   84SOL    HW1 1151   6.252   3.538   1.645
   84SOL    HW2 1152   6.292   3.453   1.511
   85SOL     OW 1153   0.484   1.840   5.540
   85SOL    HW1 1154   0.441   1.821   5.452
   85SOL    HW2 1155   0.582   1.820   5.535
   86SOL     OW 1156   1.828   1.004   4.877
   86SOL    HW1 1157   1.759   0.937   4.850
   86SOL    HW2 1158   1.919   0.968   4.854
   87SOL     OW 1159   4.349   0.583   1.430
   87SOL    HW1 1160   4.310   0.498   1.393
   87SOL    HW2 1161   4.288   0.621   1.499
   88SOL     OW 1162   5.563   0.379   0.574
   88SOL    HW1 1163   5.557   0.454   0.638
   88SOL    HW2 1164   5.573   0.415   0.481
   89SOL     OW 1165   2.143   1.751   5.640
   89SOL    HW1 1166   2.073   1.799   5.587
   89SOL    HW2 1167   2.176   1.811   5.713
   90SOL     OW 1168   6.504   5.921   3.833
   90SOL    HW1 1169   6.573   5.976   3.786
   90SOL    HW2 1170   6.498   5.831   3.789
   91SOL     OW 1171   4.862   4.994   4.847
   91SOL    HW1 1172   4.868   5.079   4.898
   91SOL    HW2 1173   4.947   4.978   4.797
   92SOL     OW 1174   2.971   6.516   1.476
   92SOL    HW1 1175   2.886   6.552   1.438
   92SOL    HW2 1176   2.960   6.502   1.575
   93SOL     OW 1177   3.950   4.912   5.832
   93SOL    HW1 1178   3.973   4.998   5.788
   93SOL    HW2 1179   3.896   4.855   5.769
   94SOL     OW 1180   2.144   6.154   1.302
   94SOL    HW1 1181   2.159   6.251   1.321
   94SOL    HW2 1182   2.064   6.143   1.244
   95SOL     OW 1183   6.336   6.913   4.919
   95SOL    HW1 1184   6.279   6.995   4.927
   95SOL    HW2 1185   6.432   6.940   4.908
   96SOL     OW 1186   1.205   6.908   5.149
   96SOL    HW1 1187   1.264   6.846   5.097
   96SOL    HW2 1188   1.245   6.999   5.150
   97SOL     OW 1189   6.217   2.896   5.053
   97SOL    HW1 1190   6.297   2.840   5.028
   97SOL    HW2 1191   6.243   2.960   5.125
   98SOL     OW 1192   5.888   2.243   5.745
   98SOL    HW1 1193   5.956   2.245   5.818
   98SOL    HW2 1194   5.934   2.249   5.656
   99SOL     OW 1195   4.251   2.342   1.320
   99SOL    HW1 1196   4.177   2.394   1.277
   99SOL    HW2 1197   4.339   2.370   1.280
  100SOL     OW 1198   5.962   4.994   6.583
  100SOL    HW1 1199   5.956   4.932   6.662
  100SOL    HW2 1200   6.006   5.079   6.612
  101SOL     OW 1201   1.056   6.423   4.349
  101SOL    HW1 1202   1.036   6.487   4.275
  101SOL    HW2 1203   1.123   6.355   4.318
  102SOL     OW 1204   4.797   0.507   3.259
  102SOL    HW1 1205   4.763   0.453   3.336
  102SOL    HW2 1206   4.891   0.535   3.277
  103SOL     OW 1207   3.685   1.935   1.548
  103SOL    HW1 1208   3.703   1.923   1.646
  103SOL    HW2 1209   3.770   1.925   1.497
  104SOL     OW 1210   0.156   5.891   1.631
  104SOL    HW1 1211   0.199   5.818   1.684
  104SOL    HW2 1212   0.167   5.978   1.679
  105SOL     OW 1213   5.153   1.538   5.160
  105SOL    HW1 1214   5.076   1.497   5.209
  105SOL    HW2 1215   5.239   1.500   5.193
  106SOL     OW 1216   3.568   6.665   0.734
  106SOL    HW1 1217   3.645   6.698   0.679
  106SOL    HW2 1218   3.520   6.743   0.775
  107SOL     OW 1219   2.447   3.254   1.169
  107SOL    HW1 1220   2.424   3.343   1.209
  107SOL    HW2 1221   2.423   3.182   1.235
  108SOL     OW 1222   4.723   4.384   5.398
  108SOL    HW1 1223   4.659   4.308   5.412
  108SOL    HW2 1224   4.787   4.360   5.325
  109SOL     OW 1225   6.187   0.838   1.283
  109SOL    HW1 1226   6.197   0.810   1.379
  109SOL    HW2 1227   6.111   0.901   1.274
  110SOL     OW 1228   2.948   6.114   5.286
  110SOL    HW1 1229   3.042   6.109   5.251
  110SOL    HW2 1230   2.922   6.026   5.324
  111SOL     OW 1231   3.983   1.130   3.452
  111SOL    HW1 1232   4.045   1.156   3.378
  111SOL    HW2 1233   3.988   1.031   3.466
  112SOL     OW 1234   0.194   1.345   6.491
  112SOL    HW1 1235   0.220   1.359   6.586
  112SOL    HW2 1236   0.111   1.397   6.471
  113SOL     OW 1237   6.898   5.870   3.735
  113SOL    HW1 1238   6.984   5.900   3.694
  113SOL    HW2 1239   6.833   5.946   3.735
  114SOL     OW 1240   0.753   6.875   6.858
  114SOL    HW1 1241   0.777   6.972   6.861
  114SOL    HW2 1242   0.717   6.853   6.768
  115SOL     OW 1243   5.335   0.940   5.183
  115SOL    HW1 1244   5.278   1.018   5.208
  115SOL    HW2 1245   5.278   0.871   5.137
  116SOL     OW 1246   5.920   4.623   2.640
  116SOL    HW1 1247   5.976   4.540   2.636
  116SOL    HW2 1248   5.871   4.625   2.727
  117SOL     OW 1249   1.343   6.665   6.295
  117SOL    HW1 1250   1.364   6.759   6.322
  117SOL    HW2 1251   1.378   6.602   6.365
  118SOL     OW 1252   1.519   0.214   2.433
  118SOL    HW1 1253   1.593   0.264   2.478
  118SOL    HW2 1254   1.431   0.239   2.475
  119SOL     OW 1255   6.760   2.977   6.430
  119SOL    HW1 1256   6.665   2.978   6.399
  119SOL    HW2 1257   6.811   3.047   6.380
  120SOL     OW 1258   5.687   6.545   1.435
  120SOL    HW1 1259   5.705   6.489   1.354
  120SOL    HW2 1260   5.606   6.509   1.483
  121SOL     OW 1261   2.883   3.339   5.889
  121SOL    HW1 1262   2.940   3.409   5.846
  121SOL    HW2 1263   2.927   3.250   5.879
  122SOL     OW 1264   0.426   3.199   4.494
  122SOL    HW1 1265   0.341   3.200   4.546
  122SOL    HW2 1266   0.406   3.215   4.397
  123SOL     OW 1267   0.650   1.987   1.536
  123SOL    HW1 1268   0.550   1.993   1.530
  123SOL    HW2 1269   0.675   1.899   1.576
  124SOL     OW 1270   4.813   3.178   0.866
  124SOL    HW1 1271   4.759   3.142   0.942
  124SOL    HW2 1272   4.813   3.278   0.869
  125SOL     OW 1273   2.030   3.612   1.862
  125SOL    HW1 1274   2.104   3.600   1.928
  125SOL    HW2 1275   1.976   3.528   1.856
  126SOL     OW 1276   3.559   4.585   1.181
  126SOL    HW1 1277   3.576   4.619   1.273
  126SOL    HW2 1278   3.495   4.508   1.185
  127SOL     OW 1279   0.656   5.517   5.951
  127SOL    HW1 1280   0.718   5.468   5.889
  127SOL    HW2 1281   0.562   5.489   5.933
  128SOL     OW 1282   4.338   2.580   1.696
  128SOL    HW1 1283   4.340   2.679   1.688
  128SOL    HW2 1284   4.255   2.544   1.653
  129SOL     OW 1285   2.871   3.653   6.163
  129SOL    HW1 1286   2.952   3.670   6.107
  129SOL    HW2 1287   2.862   3.725   6.232
  130SOL     OW 1288   1.417   2.245   4.608
  130SOL    HW1 1289   1.348   2.228   4.537
  130SOL    HW2 1290   1.447   2.340   4.602
  131SOL     OW 1291   5.627   1.968   2.608
  131SOL    HW1 1292   5.654   2.057   2.573
  131SOL    HW2 1293   5.695   1.936   2.674
  132SOL     OW 1294   0.287   2.501   1.361
  132SOL    HW1 1295   0.242   2.477   1.446
  132SOL    HW2 1296   0.257   2.592   1.332
  133SOL     OW 1297   6.508   5.732   2.152
  133SOL    HW1 1298   6.452   5.736   2.069
  133SOL    HW2 1299   6.537   5.825   2.176
  134SOL     OW 1300   0.552   4.032   2.768
  134SOL    HW1 1301   0.635   4.016   2.715
  134SOL    HW2 1302   0.501   4.109   2.728
  135SOL     OW 1303   4.415   1.545   4.178
  135SOL    HW1 1304   4.408   1.563   4.080
  135SOL    HW2 1305   4.493   1.597   4.215
  136SOL     OW 1306   5.030   4.864   5.385
  136SOL    HW1 1307   5.106   4.799   5.381
  136SOL    HW2 1308   5.049   4.941   5.324
  137SOL     OW 1309   3.348   0.682   5.757
  137SOL    HW1 1310   3.359   0.749   5.683
  137SOL    HW2 1311   3.419   0.611   5.748
  138SOL     OW 1312   6.357   5.198   4.741
  138SOL    HW1 1313   6.390   5.285   4.707
  138SOL    HW2 1314   6.368   5.194   4.840
  139SOL     OW 1315   3.289   5.532   5.400
  139SOL    HW1 1316   3.389   5.522   5.399
  139SOL    HW2 1317   3.264   5.610   5.456
  140SOL     OW 1318   6.459   4.411   4.914
  140SOL    HW1 1319   6.405   4.441   4.992
  140SOL    HW2 1320   6.512   4.488   4.878
  141SOL     OW 1321   1.485   2.239   2.676
  141SOL    HW1 1322   1.404   2.238   2.617
  141SOL    HW2 1323   1.476   2.168   2.746
  142SOL     OW 1324   1.492   5.743   1.209
  142SOL    HW1 1325   1.473   5.664   1.268
  142SOL    HW2 1326   1.420   5.751   1.140
  143SOL     OW 1327   5.107   4.129   1.999
  143SOL    HW1 1328   5.195   4.168   1.973
  143SOL    HW2 1329   5.037   4.159   1.934
  144SOL     OW 1330   2.260   6.419   0.520
  144SOL    HW1 1331   2.284   6.477   0.599
  144SOL    HW2 1332   2.261   6.323   0.548
  145SOL     OW 1333   6.902   5.267   0.507
  145SOL    HW1 1334   6.974   5.230   0.566
  145SOL    HW2 1335   6.828   5.200   0.498
  146SOL     OW 1336   6.261   5.067   0.344
  146SOL    HW1 1337   6.321   5.014   0.283
  146SOL    HW2 1338   6.196   5.005   0.388
  147SOL     OW 1339   5.937   2.346   1.539
  147SOL    HW1 1340   5.864   2.397   1.583
  147SOL    HW2 1341   5.984   2.289   1.607
  148SOL     OW 1342   1.227   5.084   5.774
  148SOL    HW1 1343   1.284   5.146   5.828
  148SOL    HW2 1344   1.240   4.990   5.806
  149SOL     OW 1345   3.039   1.329   5.814
  149SOL    HW1 1346   2.984   1.325   5.897
  149SOL    HW2 1347   2.980   1.342   5.735
  150SOL     OW 1348   0.374   5.890   5.834
  150SOL    HW1 1349   0.319   5.948   5.775
  150SOL    HW2 1350   0.320   5.861   5.913
  151SOL     OW 1351   3.769   0.542   1.581
  151SOL    HW1 1352   3.805   0.567   1.491
  151SOL    HW2 1353   3.729   0.623   1.624
  152SOL     OW 1354   3.317   0.896   4.828
  152SOL    HW1 1355   3.245   0.900   4.897
  152SOL    HW2 1356   3.299   0.821   4.765
  153SOL     OW 1357   1.624   0.557   3.185
  153SOL    HW1 1358   1.705   0.605   3.151
  153SOL    HW2 1359   1.626   0.554   3.285
  154SOL     OW 1360   6.688   1.909   3.079
  154SOL    HW1 1361   6.605   1.904   3.024
  154SOL    HW2 1362   6.766   1.927   3.019
  155SOL     OW 1363   0.272   0.930   2.830
  155SOL    HW1 1364   0.318   1.014   2.860
  155SOL    HW2 1365   0.173   0.942   2.838
  156SOL     OW 1366   0.144   2.401   1.552
  156SOL    HW1 1367   0.144   2.374   1.648
  156SOL    HW2 1368   0.076   2.473   1.538
  157SOL     OW 1369   5.870   3.021   2.671
  157SOL    HW1 1370   5.876   2.942   2.611
  157SOL    HW2 1371   5.776   3.030   2.704
  158SOL     OW 1372   1.336   1.598   3.726
  158SOL    HW1 1373   1.318   1.614   3.823
  158SOL    HW2 1374   1.434   1.608   3.708
  159SOL     OW 1375   4.885   3.396   2.315
  159SOL    HW1 1376   4.792   3.374   2.286
  159SOL    HW2 1377   4.919   3.474   2.261
  160SOL     OW 1378   6.689   4.355   5.729
  160SOL    HW1 1379   6.673   4.453   5.741
  160SOL    HW2 1380   6.756   4.324   5.796
  161SOL     OW 1381   3.711   4.860   5.345
  161SOL    HW1 1382   3.694   4.924   5.270
  161SOL    HW2 1383   3.631   4.801   5.358
  162SOL     OW 1384   4.672   6.144   2.202
  162SOL    HW1 1385   4.612   6.117   2.278
  162SOL    HW2 1386   4.693   6.242   2.211
  163SOL     OW 1387   5.293   0.701   1.889
  163SOL    HW1 1388   5.326   0.628   1.949
  163SOL    HW2 1389   5.350   0.783   1.901
  164SOL     OW 1390   6.284   3.310   1.194
  164SOL    HW1 1391   6.212   3.246   1.220
  164SOL    HW2 1392   6.335   3.274   1.116
  165SOL     OW 1393   5.777   4.183   6.102
  165SOL    HW1 1394   5.780   4.084   6.117
  165SOL    HW2 1395   5.833   4.229   6.172
  166SOL     OW 1396   1.588   0.719   1.661
  166SOL    HW1 1397   1.499   0.716   1.616
  166SOL    HW2 1398   1.593   0.648   1.731
  167SOL     OW 1399   6.539   3.361   0.461
  167SOL    HW1 1400   6.620   3.352   0.519
  167SOL    HW2 1401   6.462   3.393   0.516
  168SOL     OW 1402   2.459   5.831   1.659
  168SOL    HW1 1403   2.393   5.761   1.688
  168SOL    HW2 1404   2.491   5.809   1.567
  169SOL     OW 1405   0.943   0.051   1.495
  169SOL    HW1 1406   0.931   0.150   1.490
  169SOL    HW2 1407   1.006   0.028   1.569
  170SOL     OW 1408   0.451   1.553   2.913
  170SOL    HW1 1409   0.469   1.455   2.911
  170SOL    HW2 1410   0.366   1.571   2.962
  171SOL     OW 1411   3.435   3.664   0.507
  171SOL    HW1 1412   3.481   3.715   0.434
  171SOL    HW2 1413   3.380   3.591   0.467
  172SOL     OW 1414   6.916   2.838   0.927
  172SOL    HW1 1415   6.852   2.790   0.867
  172SOL    HW2 1416   6.957   2.914   0.878
  173SOL     OW 1417   0.445   6.116   6.018
  173SOL    HW1 1418   0.454   6.046   5.947
  173SOL    HW2 1419   0.494   6.198   5.991
  174SOL     OW 1420   2.495   5.689   3.212
  174SOL    HW1 1421   2.519   5.681   3.116
  174SOL    HW2 1422   2.521   5.779   3.246
  175SOL     OW 1423   0.746   5.702   3.113
  175SOL    HW1 1424   0.653   5.664   3.108
  175SOL    HW2 1425   0.769   5.744   3.025
  176SOL     OW 1426   3.033   5.616   0.696
  176SOL    HW1 1427   3.069   5.531   0.736
  176SOL    HW2 1428   2.956   5.594   0.637
  177SOL     OW 1429   4.484   2.345   3.245
  177SOL    HW1 1430   4.505   2.406   3.169
  177SOL    HW2 1431   4.474   2.398   3.329
  178SOL     OW 1432   5.926   4.328   5.888
  178SOL    HW1 1433   5.863   4.307   5.962
  178SOL    HW2 1434   5.986   4.403   5.916
  179SOL     OW 1435   2.957   0.336   1.055
  179SOL    HW1 1436   2.957   0.237   1.062
  179SOL    HW2 1437   2.996   0.364   0.968
  180SOL     OW 1438   1.153   2.256   6.530
  180SOL    HW1 1439   1.093   2.285   6.456
  180SOL    HW2 1440   1.241   2.228   6.492
  181SOL     OW 1441   3.155   3.073   4.795
  181SOL    HW1 1442   3.142   3.011   4.872
  181SOL    HW2 1443   3.241   3.123   4.806
  182SOL     OW 1444   4.890   2.724   5.222
  182SOL    HW1 1445   4.810   2.778   5.246
  182SOL    HW2 1446   4.971   2.764   5.265
  183SOL     OW 1447   5.407   1.817   2.249
  183SOL    HW1 1448   5.386   1.725   2.283
  183SOL    HW2 1449   5.325   1.875   2.257
  184SOL     OW 1450   0.112   4.769   3.348
  184SOL    HW1 1451   0.121   4.672   3.367
  184SOL    HW2 1452   0.168   4.793   3.267
  185SOL     OW 1453   2.853   3.449   6.511
  185SOL    HW1 1454   2.780   3.382   6.519
  185SOL    HW2 1455   2.842   3.501   6.426
  186SOL     OW 1456   6.084   6.496   3.458
  186SOL    HW1 1457   6.154   6.510   3.389
  186SOL    HW2 1458   5.994   6.491   3.415
  187SOL     OW 1459   5.509   0.958   3.982
  187SOL    HW1 1460   5.590   1.016   3.992
  187SOL    HW2 1461   5.427   1.014   3.992
  188SOL     OW 1462   6.347   2.427   4.270
  188SOL    HW1 1463   6.414   2.361   4.238
  188SOL    HW2 1464   6.257   2.406   4.232
  189SOL     OW 1465   1.918   3.936   2.343
  189SOL    HW1 1466   1.926   3.902   2.250
  189SOL    HW2 1467   1.879   4.029   2.341
  190SOL     OW 1468   3.379   1.607   6.702
  190SOL    HW1 1469   3.427   1.523   6.728
  190SOL    HW2 1470   3.302   1.584   6.643
  191SOL     OW 1471   4.074   6.028   5.564
  191SOL    HW1 1472   4.028   6.111   5.597
  191SOL    HW2 1473   4.086   5.964   5.640
  192SOL     OW 1474   0.107   0.248   1.010
  192SOL    HW1 1475   0.146   0.257   0.919
  192SOL    HW2 1476   0.028   0.186   1.007
  193SOL     OW 1477   5.539   4.447   0.033
  193SOL    HW1 1478   5.548   4.406   0.124
  193SOL    HW2 1479   5.496   4.381   6.993
  194SOL     OW 1480   4.231   6.931   4.445
  194SOL    HW1 1481   4.227   6.944   4.544
  194SOL    HW2 1482   4.191   6.842   4.421
  195SOL     OW 1483   6.798   5.281   3.748
  195SOL    HW1 1484   6.788   5.304   3.652
  195SOL    HW2 1485   6.772   5.360   3.804
  196SOL     OW 1486   1.296   1.336   1.130
  196SOL    HW1 1487   1.222   1.403   1.124
  196SOL    HW2 1488   1.289   1.286   1.217
  197SOL     OW 1489   2.083   1.070   0.764
  197SOL    HW1 1490   2.025   1.151   0.753
  197SOL    HW2 1491   2.179   1.095   0.752
  198SOL     OW 1492   2.999   1.180   3.499
  198SOL    HW1 1493   3.054   1.146   3.422
  198SOL    HW2 1494   3.037   1.266   3.531
  199SOL     OW 1495   1.056   1.766   4.313
  199SOL    HW1 1496   0.982   1.833   4.319
  199SOL    HW2 1497   1.041   1.706   4.235
  200SOL     OW 1498   6.572   2.248   0.100
  200SOL    HW1 1499   6.484   2.247   0.147
  200SOL    HW2 1500   6.581   2.166   0.044
  201SOL     OW 1501   0.714   0.773   6.525
  201SOL    HW1 1502   0.686   0.827   6.446
  201SOL    HW2 1503   0.722   0.677   6.498
  202SOL     OW 1504   5.025   6.966   0.661
  202SOL    HW1 1505   5.121   6.938   0.670
  202SOL    HW2 1506   4.985   6.977   0.751
  203SOL     OW 1507   6.105   2.855   6.555
  203SOL    HW1 1508   6.024   2.860   6.496
  203SOL    HW2 1509   6.082   2.805   6.638
  204SOL     OW 1510   6.272   0.668   5.184
  204SOL    HW1 1511   6.295   0.697   5.092
  204SOL    HW2 1512   6.319   0.582   5.205
  205SOL     OW 1513   1.977   3.688   2.962
  205SOL    HW1 1514   1.944   3.756   2.896
  205SOL    HW2 1515   2.022   3.735   3.038
  206SOL     OW 1516   6.932   2.987   0.370
  206SOL    HW1 1517   6.939   3.087   0.365
  206SOL    HW2 1518   6.841   2.959   0.338
  207SOL     OW 1519   5.933   2.863   4.490
  207SOL    HW1 1520   6.009   2.850   4.553
  207SOL    HW2 1521   5.958   2.930   4.420
  208SOL     OW 1522   1.117   3.421   5.167
  208SOL    HW1 1523   1.176   3.427   5.248
  208SOL    HW2 1524   1.171   3.389   5.089
  209SOL     OW 1525   6.866   4.623   2.729
  209SOL    HW1 1526   6.822   4.537   2.703
  209SOL    HW2 1527   6.815   4.666   2.803
  210SOL     OW 1528   4.327   3.054   0.363
  210SOL    HW1 1529   4.362   3.146   0.348
  210SOL    HW2 1530   4.311   3.009   0.275
  211SOL     OW 1531   0.839   1.388   2.519
  211SOL    HW1 1532   0.756   1.343   2.553
  211SOL    HW2 1533   0.839   1.387   2.419
  212SOL     OW 1534   2.161   4.026   2.141
  212SOL    HW1 1535   2.140   4.016   2.043
  212SOL    HW2 1536   2.142   3.939   2.187
  213SOL     OW 1537   1.147   4.969   0.911
  213SOL    HW1 1538   1.100   4.985   0.824
  213SOL    HW2 1539   1.129   4.876   0.942
  214SOL     OW 1540   5.483   6.321   1.883
  214SOL    HW1 1541   5.538   6.304   1.965
  214SOL    HW2 1542   5.498   6.248   1.817
  215SOL     OW 1543   2.226   5.186   3.254
  215SOL    HW1 1544   2.326   5.187   3.244
  215SOL    HW2 1545   2.202   5.226   3.343
  216SOL     OW 1546   1.044   5.942   3.018
  216SOL    HW1 1547   1.071   5.853   2.983
  216SOL    HW2 1548   1.123   6.004   3.016
  217SOL     OW 1549   0.781   4.386   5.793
  217SOL    HW1 1550   0.689   4.347   5.784
  217SOL    HW2 1551   0.811   4.421   5.704
  218SOL     OW 1552   2.079   1.841   5.081
  218SOL    HW1 1553   2.044   1.910   5.018
  218SOL    HW2 1554   2.148   1.786   5.036
  219SOL     OW 1555   4.397   2.184   1.574
  219SOL    HW1 1556   4.305   2.150   1.590
  219SOL    HW2 1557   4.463   2.110   1.585
  220SOL     OW 1558   3.301   6.737   1.255
  220SOL    HW1 1559   3.317   6.641   1.276
  220SOL    HW2 1560   3.377   6.772   1.200
  221SOL     OW 1561   5.212   4.477   2.159
  221SOL    HW1 1562   5.122   4.458   2.121
  221SOL    HW2 1563   5.255   4.550   2.106
  222SOL     OW 1564   2.361   4.653   6.365
  222SOL    HW1 1565   2.351   4.614   6.274
  222SOL    HW2 1566   2.313   4.741   6.369
  223SOL     OW 1567   6.138   2.377   4.964
  223SOL    HW1 1568   6.129   2.382   5.064
  223SOL    HW2 1569   6.125   2.282   4.935
  224SOL     OW 1570   2.893   2.255   5.583
  224SOL    HW1 1571   2.965   2.224   5.521
  224SOL    HW2 1572   2.805   2.217   5.554
  225SOL     OW 1573   3.869   6.370   5.891
  225SOL    HW1 1574   3.915   6.459   5.890
  225SOL    HW2 1575   3.774   6.382   5.922
  226SOL     OW 1576   1.156   2.629   6.330
  226SOL    HW1 1577   1.145   2.708   6.269
  226SOL    HW2 1578   1.243   2.585   6.311
  227SOL     OW 1579   1.761   3.539   1.481
  227SOL    HW1 1580   1.815   3.592   1.547
  227SOL    HW2 1581   1.750   3.592   1.397
  228SOL     OW 1582   1.033   0.133   2.340
  228SOL    HW1 1583   1.012   0.231   2.348
  228SOL    HW2 1584   1.097   0.106   2.412
  229SOL     OW 1585   3.944   6.640   5.871
  229SOL    HW1 1586   4.023   6.701   5.865
  229SOL    HW2 1587   3.861   6.690   5.847
  230SOL     OW 1588   5.787   5.562   5.701
  230SOL    HW1 1589   5.698   5.521   5.722
  230SOL    HW2 1590   5.830   5.511   5.627
  231SOL     OW 1591   5.330   1.897   7.017
  231SOL    HW1 1592   5.368   1.983   6.985
  231SOL    HW2 1593   5.359   1.881   0.091
  232SOL     OW 1594   1.352   1.541   6.013
  232SOL    HW1 1595   1.265   1.495   6.031
  232SOL    HW2 1596   1.337   1.614   5.946
  233SOL     OW 1597   3.448   1.688   3.260
  233SOL    HW1 1598   3.526   1.741   3.227
  233SOL    HW2 1599   3.364   1.729   3.225
  234SOL     OW 1600   4.997   0.609   0.810
  234SOL    HW1 1601   5.090   0.644   0.803
  234SOL    HW2 1602   4.999   0.509   0.810
  235SOL     OW 1603   4.808   3.121   2.672
  235SOL    HW1 1604   4.775   3.188   2.738
  235SOL    HW2 1605   4.783   3.029   2.703
  236SOL     OW 1606   4.279   4.899   6.204
  236SOL    HW1 1607   4.350   4.964   6.231
  236SOL    HW2 1608   4.273   4.826   6.272
  237SOL     OW 1609   6.237   3.636   2.813
  237SOL    HW1 1610   6.335   3.658   2.814
  237SOL    HW2 1611   6.201   3.646   2.721
  238SOL     OW 1612   6.558   2.298   0.840
  238SOL    HW1 1613   6.626   2.245   0.788
  238SOL    HW2 1614   6.542   2.254   0.928
  239SOL     OW 1615   1.206   3.243   0.057
  239SOL    HW1 1616   1.227   3.175   0.127
  239SOL    HW2 1617   1.165   3.324   0.100
  240SOL     OW 1618   4.933   3.660   3.439
  240SOL    HW1 1619   4.932   3.689   3.535
  240SOL    HW2 1620   4.937   3.560   3.435
  241SOL     OW 1621   2.394   2.106   4.015
  241SOL    HW1 1622   2.378   2.008   4.027
  241SOL    HW2 1623   2.412   2.125   3.918
  242SOL     OW 1624   3.563   3.794   2.506
  242SOL    HW1 1625   3.550   3.767   2.601
  242SOL    HW2 1626   3.543   3.891   2.495
  243SOL     OW 1627   3.664   2.760   6.040
  243SOL    HW1 1628   3.734   2.789   5.975
  243SOL    HW2 1629   3.633   2.668   6.017
  244SOL     OW 1630   5.009   3.269   4.987
  244SOL    HW1 1631   5.008   3.368   4.999
  244SOL    HW2 1632   5.103   3.237   4.981
  245SOL     OW 1633   4.076   1.035   3.204
  245SOL    HW1 1634   4.038   0.947   3.176
  245SOL    HW2 1635   4.044   1.107   3.142
  246SOL     OW 1636   6.168   1.103   1.889
  246SOL    HW1 1637   6.242   1.040   1.911
  246SOL    HW2 1638   6.203   1.196   1.886
  247SOL     OW 1639   1.561   1.377   1.456
  247SOL    HW1 1640   1.616   1.293   1.464
  247SOL    HW2 1641   1.576   1.418   1.366
  248SOL     OW 1642   2.191   2.927   1.913
  248SOL    HW1 1643   2.132   2.982   1.972
  248SOL    HW2 1644   2.205   2.975   1.826
  249SOL     OW 1645   4.863   6.262   4.740
  249SOL    HW1 1646   4.902   6.344   4.698
  249SOL    HW2 1647   4.936   6.195   4.755
  250SOL     OW 1648   4.127   2.539   0.469
  250SOL    HW1 1649   4.166   2.586   0.549
  250SOL    HW2 1650   4.200   2.495   0.417
  251SOL     OW 1651   3.882   4.305   5.617
  251SOL    HW1 1652   3.806   4.247   5.647
  251SOL    HW2 1653   3.846   4.390   5.579
  252SOL     OW 1654   0.000   6.728   5.994
  252SOL    HW1 1655   6.944   6.680   6.035
  252SOL    HW2 1656   0.085   6.678   6.011
  253SOL     OW 1657   3.962   6.509   6.142
  253SOL    HW1 1658   3.925   6.423   6.106
  253SOL    HW2 1659   3.958   6.578   6.070
  254SOL     OW 1660   5.728   2.304   5.436
  254SOL    HW1 1661   5.825   2.325   5.450
  254SOL    HW2 1662   5.672   2.355   5.502
  255SOL     OW 1663   1.431   4.047   6.572
  255SOL    HW1 1664   1.502   3.999   6.522
  255SOL    HW2 1665   1.452   4.145   6.574
  256SOL     OW 1666   4.791   2.228   5.207
  256SOL    HW1 1667   4.831   2.234   5.299
  256SOL    HW2 1668   4.857   2.259   5.140
  257SOL     OW 1669   4.997   6.791   2.144
  257SOL    HW1 1670   4.942   6.742   2.212
  257SOL    HW2 1671   4.938   6.818   2.067
  258SOL     OW 1672   1.670   2.991   6.118
  258SOL    HW1 1673   1.736   2.942   6.174
  258SOL    HW2 1674   1.714   3.027   6.036
  259SOL     OW 1675   3.570   6.548   4.061
  259SOL    HW1 1676   3.513   6.629   4.080
  259SOL    HW2 1677   3.639   6.539   4.133
  260SOL     OW 1678   3.751   5.473   3.429
  260SOL    HW1 1679   3.782   5.543   3.493
  260SOL    HW2 1680   3.693   5.407   3.478
  261SOL     OW 1681   4.165   4.840   0.539
  261SOL    HW1 1682   4.097   4.843   0.612
  261SOL    HW2 1683   4.256   4.856   0.578
  262SOL     OW 1684   1.008   4.141   6.535
  262SOL    HW1 1685   1.073   4.093   6.593
  262SOL    HW2 1686   0.983   4.083   6.458
  263SOL     OW 1687   0.706   6.669   4.359
  263SOL    HW1 1688   0.793   6.634   4.325
  263SOL    HW2 1689   0.723   6.745   4.423
  264SOL     OW 1690   6.258   3.299   6.117
  264SOL    HW1 1691   6.159   3.316   6.117
  264SOL    HW2 1692   6.285   3.256   6.203
  265SOL     OW 1693   6.434   0.189   3.719
  265SOL    HW1 1694   6.463   0.202   3.624
  265SOL    HW2 1695   6.335   0.200   3.725
  266SOL     OW 1696   3.627   0.832   5.976
  266SOL    HW1 1697   3.633   0.925   5.939
  266SOL    HW2 1698   3.703   0.777   5.942
  267SOL     OW 1699   1.741   0.682   3.963
  267SOL    HW1 1700   1.643   0.663   3.959
  267SOL    HW2 1701   1.784   0.656   3.876
  268SOL     OW 1702   3.089   2.649   1.195
  268SOL    HW1 1703   3.146   2.722   1.235
  268SOL    HW2 1704   3.094   2.568   1.253
  269SOL     OW 1705   4.103   2.121   0.398
  269SOL    HW1 1706   4.152   2.152   0.317
  269SOL    HW2 1707   4.168   2.091   0.468
  270SOL     OW 1708   5.425   1.091   6.880
  270SOL    HW1 1709   5.388   1.155   6.947
  270SOL    HW2 1710   5.489   1.139   6.820
  271SOL     OW 1711   0.918   3.411   6.646
  271SOL    HW1 1712   0.984   3.361   6.701
  271SOL    HW2 1713   0.831   3.415   6.695
  272SOL     OW 1714   3.194   5.954   3.688
  272SOL    HW1 1715   3.285   5.935   3.725
  272SOL    HW2 1716   3.198   5.956   3.588
  273SOL     OW 1717   2.069   4.727   6.008
  273SOL    HW1 1718   2.045   4.644   6.060
  273SOL    HW2 1719   2.166   4.748   6.022
  274SOL     OW 1720   5.009   2.896   4.008
  274SOL    HW1 1721   4.981   2.957   3.934
  274SOL    HW2 1722   4.995   2.801   3.980
  275SOL     OW 1723   6.405   6.062   1.244
  275SOL    HW1 1724   6.505   6.060   1.237
  275SOL    HW2 1725   6.378   6.137   1.305
  276SOL     OW 1726   0.979   0.605   5.119
  276SOL    HW1 1727   1.036   0.679   5.154
  276SOL    HW2 1728   1.009   0.581   5.026
  277SOL     OW 1729   1.882   4.218   0.906
  277SOL    HW1 1730   1.980   4.241   0.906
  277SOL    HW2 1731   1.834   4.278   0.843
  278SOL     OW 1732   0.410   2.912   2.217
  278SOL    HW1 1733   0.494   2.967   2.211
  278SOL    HW2 1734   0.416   2.837   2.150
  279SOL     OW 1735   6.247   1.451   3.785
  279SOL    HW1 1736   6.284   1.503   3.862
  279SOL    HW2 1737   6.224   1.513   3.711
  280SOL     OW 1738   1.382   4.815   2.409
  280SOL    HW1 1739   1.391   4.726   2.365
  280SOL    HW2 1740   1.286   4.842   2.412
  281SOL     OW 1741   2.318   4.481   1.484
  281SOL    HW1 1742   2.406   4.434   1.476
  281SOL    HW2 1743   2.282   4.500   1.392
  282SOL     OW 1744   2.762   1.820   6.109
  282SOL    HW1 1745   2.858   1.797   6.096
  282SOL    HW2 1746   2.744   1.911   6.073
  283SOL     OW 1747   3.660   2.188   5.339
  283SOL    HW1 1748   3.704   2.123   5.276
  283SOL    HW2 1749   3.573   2.218   5.300
  284SOL     OW 1750   1.499   4.110   4.249
  284SOL    HW1 1751   1.584   4.083   4.203
  284SOL    HW2 1752   1.478   4.043   4.320
  285SOL     OW 1753   5.200   4.623   4.274
  285SOL    HW1 1754   5.179   4.556   4.203
  285SOL    HW2 1755   5.175   4.586   4.363
  286SOL     OW 1756   3.165   3.714   6.906
  286SOL    HW1 1757   3.229   3.789   6.889
  286SOL    HW2 1758   3.104   3.703   6.828
  287SOL     OW 1759   1.547   3.116   0.164
  287SOL    HW1 1760   1.567   3.118   0.066
  287SOL    HW2 1761   1.621   3.069   0.212
  288SOL     OW 1762   4.791   3.448   0.902
  288SOL    HW1 1763   4.700   3.475   0.870
  288SOL    HW2 1764   4.843   3.529   0.927
  289SOL     OW 1765   3.582   5.324   6.456
  289SOL    HW1 1766   3.641   5.251   6.489
  289SOL    HW2 1767   3.492   5.287   6.434
  290SOL     OW 1768   1.495   1.113   4.726
  290SOL    HW1 1769   1.580   1.156   4.694
  290SOL    HW2 1770   1.460   1.165   4.804
  291SOL     OW 1771   6.970   2.126   2.303
  291SOL    HW1 1772   6.943   2.031   2.318
  291SOL    HW2 1773   6.944   2.154   2.211
  292SOL     OW 1774   2.873   0.098   3.958
  292SOL    HW1 1775   2.894   0.058   4.047
  292SOL    HW2 1776   2.815   0.178   3.971
  293SOL     OW 1777   3.297   4.934   3.878
  293SOL    HW1 1778   3.285   4.880   3.962
  293SOL    HW2 1779   3.209   4.946   3.833
  294SOL     OW 1780   4.488   0.526   0.276
  294SOL    HW1 1781   4.539   0.468   0.212
  294SOL    HW2 1782   4.507   0.497   0.369
  295SOL     OW 1783   5.606   6.972   3.290
  295SOL    HW1 1784   5.585   6.891   3.236
  295SOL    HW2 1785   5.639   0.023   3.229
  296SOL     OW 1786   2.527   2.211   3.193
  296SOL    HW1 1787   2.434   2.243   3.207
  296SOL    HW2 1788   2.541   2.190   3.096
  297SOL     OW 1789   1.673   5.111   2.262
  297SOL    HW1 1790   1.688   5.200   2.218
  297SOL    HW2 1791   1.645   5.044   2.193
  298SOL     OW 1792   6.477   5.009   0.658
  298SOL    HW1 1793   6.501   5.061   0.576
  298SOL    HW2 1794   6.475   5.070   0.737
  299SOL     OW 1795   5.766   2.630   4.512
  299SOL    HW1 1796   5.789   2.539   4.477
  299SOL    HW2 1797   5.844   2.691   4.501
  300SOL     OW 1798   6.867   0.031   2.293
  300SOL    HW1 1799   6.835   0.036   2.198
  300SOL    HW2 1800   6.961   7.018   2.295
  301SOL     OW 1801   4.305   2.867   5.779
  301SOL    HW1 1802   4.343   2.945   5.828
  301SOL    HW2 1803   4.345   2.861   5.688
  302SOL     OW 1804   0.633   6.201   4.261
  302SOL    HW1 1805   0.593   6.276   4.313
  302SOL    HW2 1806   0.715   6.233   4.214
  303SOL     OW 1807   5.924   6.631   2.650
  303SOL    HW1 1808   6.001   6.694   2.664
  303SOL    HW2 1809   5.933   6.554   2.713
  304SOL     OW 1810   3.617   6.587   3.770
  304SOL    HW1 1811   3.619   6.576   3.869
  304SOL    HW2 1812   3.694   6.538   3.729
  305SOL     OW 1813   1.614   3.944   1.204
  305SOL    HW1 1814   1.641   3.859   1.248
  305SOL    HW2 1815   1.523   3.933   1.164
  306SOL     OW 1816   2.277   0.601   3.451
  306SOL    HW1 1817   2.272   0.686   3.397
  306SOL    HW2 1818   2.352   0.608   3.517
  307SOL     OW 1819   2.993   0.011   1.943
  307SOL    HW1 1820   2.961   0.106   1.945
  307SOL    HW2 1821   3.092   0.009   1.951
  308SOL     OW 1822   1.213   5.113   4.252
  308SOL    HW1 1823   1.278   5.177   4.295
  308SOL    HW2 1824   1.145   5.165   4.200
  309SOL     OW 1825   3.274   4.824   5.355
  309SOL    HW1 1826   3.281   4.852   5.260
  309SOL    HW2 1827   3.308   4.897   5.414
  310SOL     OW 1828   1.161   5.495   6.324
  310SOL    HW1 1829   1.111   5.505   6.238
  310SOL    HW2 1830   1.146   5.576   6.381
  311SOL     OW 1831   0.175   0.671   1.575
  311SOL    HW1 1832   0.179   0.601   1.646
  311SOL    HW2 1833   0.118   0.638   1.499
  312SOL     OW 1834   3.826   1.519   5.040
  312SOL    HW1 1835   3.776   1.556   5.119
  312SOL    HW2 1836   3.922   1.543   5.048
  313SOL     OW 1837   0.120   4.892   0.546
  313SOL    HW1 1838   0.106   4.945   0.630
  313SOL    HW2 1839   0.130   4.954   0.468
  314SOL     OW 1840   3.330   6.276   1.498
  314SOL    HW1 1841   3.367   6.183   1.498
  314SOL    HW2 1842   3.394   6.337   1.545
  315SOL     OW 1843   0.828   3.202   2.724
  315SOL    HW1 1844   0.785   3.112   2.711
  315SOL    HW2 1845   0.897   3.215   2.652
  316SOL     OW 1846   2.001   3.546   4.755
  316SOL    HW1 1847   2.056   3.477   4.708
  316SOL    HW2 1848   2.024   3.547   4.852
  317SOL     OW 1849   6.323   0.939   0.055
  317SOL    HW1 1850   6.407   0.889   0.038
  317SOL    HW2 1851   6.245   0.877   0.045
  318SOL     OW 1852   2.281   4.583   1.248
  318SOL    HW1 1853   2.351   4.562   1.179
  318SOL    HW2 1854   2.309   4.663   1.300
  319SOL     OW 1855   1.549   0.107   6.909
  319SOL    HW1 1856   1.514   0.132   6.819
  319SOL    HW2 1857   1.577   0.190   6.958
  320SOL     OW 1858   5.464   3.212   0.566
  320SOL    HW1 1859   5.449   3.308   0.546
  320SOL    HW2 1860   5.509   3.203   0.655
  321SOL     OW 1861   2.345   1.254   1.963
  321SOL    HW1 1862   2.376   1.167   1.924
  321SOL    HW2 1863   2.399   1.275   2.045
  322SOL     OW 1864   3.167   2.054   5.578
  322SOL    HW1 1865   3.156   2.111   5.496
  322SOL    HW2 1866   3.250   2.082   5.627
  323SOL     OW 1867   0.237   4.421   1.971
  323SOL    HW1 1868   0.333   4.422   1.946
  323SOL    HW2 1869   0.186   4.366   1.905
  324SOL     OW 1870   0.534   2.989   4.605
  324SOL    HW1 1871   0.502   3.074   4.564
  324SOL    HW2 1872   0.549   3.002   4.703
  325SOL     OW 1873   2.255   2.162   2.745
  325SOL    HW1 1874   2.344   2.202   2.722
  325SOL    HW2 1875   2.239   2.081   2.688
  326SOL     OW 1876   2.009   4.559   5.230
  326SOL    HW1 1877   2.055   4.506   5.301
  326SOL    HW2 1878   2.077   4.602   5.171
  327SOL     OW 1879   5.898   4.927   6.254
  327SOL    HW1 1880   5.952   4.926   6.339
  327SOL    HW2 1881   5.943   4.868   6.186
  328SOL     OW 1882   3.597   5.703   1.571
  328SOL    HW1 1883   3.596   5.784   1.630
  328SOL    HW2 1884   3.670   5.712   1.503
  329SOL     OW 1885   3.205   3.823   2.513
  329SOL    HW1 1886   3.189   3.899   2.577
  329SOL    HW2 1887   3.160   3.741   2.547
  330SOL     OW 1888   2.685   2.028   1.622
  330SOL    HW1 1889   2.611   2.030   1.555
  330SOL    HW2 1890   2.694   2.119   1.664
  331SOL     OW 1891   5.685   4.276   5.590
  331SOL    HW1 1892   5.691   4.190   5.540
  331SOL    HW2 1893   5.608   4.272   5.654
  332SOL     OW 1894   4.190   2.257   3.658
  332SOL    HW1 1895   4.281   2.230   3.630
  332SOL    HW2 1896   4.195   2.303   3.747
  333SOL     OW 1897   4.367   6.306   0.577
  333SOL    HW1 1898   4.430   6.364   0.524
  333SOL    HW2 1899   4.370   6.213   0.541
  334SOL     OW 1900   5.012   6.349   2.434
  334SOL    HW1 1901   5.014   6.249   2.429
  334SOL    HW2 1902   5.047   6.379   2.524
  335SOL     OW 1903   3.704   6.733   2.795
  335SOL    HW1 1904   3.721   6.663   2.865
  335SOL    HW2 1905   3.651   6.807   2.835
  336SOL     OW 1906   3.579   0.244   4.868
  336SOL    HW1 1907   3.507   0.174   4.875
  336SOL    HW2 1908   3.545   0.330   4.906
  337SOL     OW 1909   0.183   4.214   1.758
  337SOL    HW1 1910   0.173   4.117   1.738
  337SOL    HW2 1911   0.204   4.264   1.674
  338SOL     OW 1912   2.519   2.395   1.610
  338SOL    HW1 1913   2.433   2.447   1.610
  338SOL    HW2 1914   2.590   2.449   1.656
  339SOL     OW 1915   4.468   1.100   3.011
  339SOL    HW1 1916   4.392   1.152   2.971
  339SOL    HW2 1917   4.434   1.043   3.086
  340SOL     OW 1918   5.111   4.102   4.669
  340SOL    HW1 1919   5.141   4.009   4.687
  340SOL    HW2 1920   5.115   4.120   4.571
  341SOL     OW 1921   4.898   5.057   5.577
  341SOL    HW1 1922   4.939   5.101   5.498
  341SOL    HW2 1923   4.818   5.004   5.548
  342SOL     OW 1924   5.705   3.831   0.480
  342SOL    HW1 1925   5.610   3.800   0.478
  342SOL    HW2 1926   5.747   3.816   0.391
  343SOL     OW 1927   2.289   0.523   2.505
  343SOL    HW1 1928   2.256   0.484   2.592
  343SOL    HW2 1929   2.268   0.461   2.430
  344SOL     OW 1930   3.772   5.861   0.116
  344SOL    HW1 1931   3.791   5.958   0.124
  344SOL    HW2 1932   3.824   5.823   0.039
  345SOL     OW 1933   1.270   0.971   6.127
  345SOL    HW1 1934   1.346   0.914   6.160
  345SOL    HW2 1935   1.269   1.057   6.178
  346SOL     OW 1936   3.250   0.842   4.119
  346SOL    HW1 1937   3.223   0.748   4.137
  346SOL    HW2 1938   3.295   0.880   4.200
  347SOL     OW 1939   4.431   6.971   5.581
  347SOL    HW1 1940   4.531   6.983   5.583
  347SOL    HW2 1941   4.408   6.879   5.612
  348SOL     OW 1942   2.715   6.247   2.659
  348SOL    HW1 1943   2.704   6.228   2.757
  348SOL    HW2 1944   2.672   6.335   2.637
  349SOL     OW 1945   2.740   5.035   1.859
  349SOL    HW1 1946   2.744   5.134   1.851
  349SOL    HW2 1947   2.727   5.010   1.955
  350SOL     OW 1948   4.424   3.218   1.027
  350SOL    HW1 1949   4.362   3.282   0.982
  350SOL    HW2 1950   4.392   3.125   1.012
  351SOL     OW 1951   2.880   1.812   0.793
  351SOL    HW1 1952   2.800   1.782   0.741
  351SOL    HW2 1953   2.934   1.733   0.819
  352SOL     OW 1954   3.015   1.574   6.001
  352SOL    HW1 1955   3.059   1.603   5.916
  352SOL    HW2 1956   3.037   1.638   6.074
  353SOL     OW 1957   2.113   0.363   1.408
  353SOL    HW1 1958   2.085   0.305   1.331
  353SOL    HW2 1959   2.102   0.312   1.493
  354SOL     OW 1960   5.059   0.962   2.467
  354SOL    HW1 1961   5.047   0.960   2.368
  354SOL    HW2 1962   5.021   0.879   2.507
  355SOL     OW 1963   1.461   1.169   1.760
  355SOL    HW1 1964   1.540   1.108   1.756
  355SOL    HW2 1965   1.481   1.252   1.709
  356SOL     OW 1966   4.078   6.462   2.863
  356SOL    HW1 1967   3.988   6.494   2.892
  356SOL    HW2 1968   4.134   6.444   2.943
  357SOL     OW 1969   1.343   4.859   5.877
  357SOL    HW1 1970   1.405   4.797   5.830
  357SOL    HW2 1971   1.380   4.882   5.967
  358SOL     OW 1972   5.368   1.240   3.539
  358SOL    HW1 1973   5.271   1.252   3.559
  358SOL    HW2 1974   5.383   1.254   3.441
  359SOL     OW 1975   0.815   2.107   0.228
  359SOL    HW1 1976   0.826   2.199   0.192
  359SOL    HW2 1977   0.767   2.111   0.316
  360SOL     OW 1978   5.250   7.003   0.353
  360SOL    HW1 1979   5.282   0.020   0.440
  360SOL    HW2 1980   5.290   0.033   0.277
  361SOL     OW 1981   3.377   1.029   3.091
  361SOL    HW1 1982   3.473   1.019   3.120
  361SOL    HW2 1983   3.371   1.094   3.016
  362SOL     OW 1984   2.744   3.818   1.196
  362SOL    HW1 1985   2.666   3.800   1.136
  362SOL    HW2 1986   2.745   3.752   1.270
  363SOL     OW 1987   4.490   4.762   3.804
  363SOL    HW1 1988   4.568   4.707   3.774
  363SOL    HW2 1989   4.512   4.859   3.792
  364SOL     OW 1990   2.136   6.171   6.478
  364SOL    HW1 1991   2.089   6.221   6.405
  364SOL    HW2 1992   2.211   6.118   6.439
  365SOL     OW 1993   4.913   0.083   2.845
  365SOL    HW1 1994   4.831   0.094   2.789
  365SOL    HW2 1995   4.886   0.061   2.939
  366SOL     OW 1996   5.098   1.006   0.593
  366SOL    HW1 1997   5.084   1.037   0.500
  366SOL    HW2 1998   5.128   1.083   0.650
  367SOL     OW 1999   4.398   1.816   2.133
  367SOL    HW1 2000   4.342   1.886   2.089
  367SOL    HW2 2001   4.410   1.739   2.070
  368SOL     OW 2002   1.820   5.154   5.814
  368SOL    HW1 2003   1.880   5.076   5.831
  368SOL    HW2 2004   1.726   5.121   5.800
  369SOL     OW 2005   0.509   3.588   1.278
  369SOL    HW1 2006   0.521   3.670   1.221
  369SOL    HW2 2007   0.533   3.507   1.224
  370SOL     OW 2008   3.391   1.584   0.041
  370SOL    HW1 2009   3.368   1.666   0.092
  370SOL    HW2 2010   3.343   1.585   6.974
  371SOL     OW 2011   3.219   2.884   6.095
  371SOL    HW1 2012   3.175   2.973   6.087
  371SOL    HW2 2013   3.207   2.849   6.188
  372SOL     OW 2014   2.040   5.008   0.214
  372SOL    HW1 2015   2.047   5.107   0.202
  372SOL    HW2 2016   2.063   4.985   0.308
  373SOL     OW 2017   6.460   6.928   6.649
  373SOL    HW1 2018   6.506   6.839   6.650
  373SOL    HW2 2019   6.362   6.915   6.664
  374SOL     OW 2020   4.475   0.633   1.181
  374SOL    HW1 2021   4.450   0.641   1.278
  374SOL    HW2 2022   4.447   0.543   1.147
  375SOL     OW 2023   6.480   4.271   0.606
  375SOL    HW1 2024   6.456   4.345   0.669
  375SOL    HW2 2025   6.442   4.291   0.515
  376SOL     OW 2026   1.851   3.920   4.690
  376SOL    HW1 2027   1.822   4.015   4.704
  376SOL    HW2 2028   1.824   3.865   4.769
  377SOL     OW 2029   4.541   1.711   4.822
  377SOL    HW1 2030   4.571   1.775   4.751
  377SOL    HW2 2031   4.478   1.758   4.885
  378SOL     OW 2032   5.049   2.281   5.040
  378SOL    HW1 2033   5.063   2.237   4.951
  378SOL    HW2 2034   4.996   2.364   5.028
  379SOL     OW 2035   6.988   2.532   1.841
  379SOL    HW1 2036   0.023   2.613   1.819
  379SOL    HW2 2037   0.011   2.480   1.914
  380SOL     OW 2038   1.421   1.857   7.009
  380SOL    HW1 2039   1.359   1.813   0.052
  380SOL    HW2 2040   1.459   1.940   0.029
  381SOL     OW 2041   3.894   5.096   0.762
  381SOL    HW1 2042   3.990   5.117   0.745
  381SOL    HW2 2043   3.880   4.998   0.754
  382SOL     OW 2044   2.593   5.497   0.494
  382SOL    HW1 2045   2.528   5.519   0.566
  382SOL    HW2 2046   2.550   5.439   0.425
  383SOL     OW 2047   6.241   1.850   0.292
  383SOL    HW1 2048   6.150   1.889   0.274
  383SOL    HW2 2049   6.260   1.856   0.390
  384SOL     OW 2050   1.860   5.200   5.440
  384SOL    HW1 2051   1.777   5.150   5.417
  384SOL    HW2 2052   1.860   5.221   5.538
  385SOL     OW 2053   4.710   5.441   1.776
  385SOL    HW1 2054   4.742   5.352   1.745
  385SOL    HW2 2055   4.691   5.437   1.874
  386SOL     OW 2056   2.684   6.262   4.498
  386SOL    HW1 2057   2.702   6.165   4.515
  386SOL    HW2 2058   2.603   6.271   4.440
  387SOL     OW 2059   6.557   0.366   6.230
  387SOL    HW1 2060   6.561   0.464   6.211
  387SOL    HW2 2061   6.649   0.332   6.249
  388SOL     OW 2062   0.083   2.037   4.317
  388SOL    HW1 2063   0.174   1.995   4.314
  388SOL    HW2 2064   0.041   2.031   4.227
  389SOL     OW 2065   5.139   3.781   2.090
  389SOL    HW1 2066   5.160   3.787   1.992
  389SOL    HW2 2067   5.208   3.833   2.141
  390SOL     OW 2068   4.148   2.594   6.477
  390SOL    HW1 2069   4.055   2.612   6.510
  390SOL    HW2 2070   4.152   2.500   6.441
  391SOL     OW 2071   4.047   3.821   3.549
  391SOL    HW1 2072   3.952   3.850   3.537
  391SOL    HW2 2073   4.062   3.793   3.644
  392SOL     OW 2074   2.034   3.894   1.507
  392SOL    HW1 2075   2.043   3.993   1.513
  392SOL    HW2 2076   2.106   3.851   1.562
  393SOL     OW 2077   1.581   5.697   1.623
  393SOL    HW1 2078   1.624   5.608   1.639
  393SOL    HW2 2079   1.592   5.722   1.527
  394SOL     OW 2080   6.200   1.136   6.218
  394SOL    HW1 2081   6.275   1.175   6.165
  394SOL    HW2 2082   6.230   1.051   6.262
  395SOL     OW 2083   5.845   4.157   6.929
  395SOL    HW1 2084   5.796   4.236   6.893
  395SOL    HW2 2085   5.942   4.165   6.907
  396SOL     OW 2086   1.142   0.786   1.411
  396SOL    HW1 2087   1.060   0.738   1.443
  396SOL    HW2 2088   1.115   0.860   1.349
  397SOL     OW 2089   4.491   2.397   4.544
  397SOL    HW1 2090   4.427   2.326   4.571
  397SOL    HW2 2091   4.562   2.356   4.486
  398SOL     OW 2092   0.202   1.447   3.238
  398SOL    HW1 2093   0.148   1.530   3.253
  398SOL    HW2 2094   0.146   1.381   3.188
  399SOL     OW 2095   5.795   5.968   3.565
  399SOL    HW1 2096   5.739   5.989   3.645
  399SOL    HW2 2097   5.749   6.000   3.482
  400SOL     OW 2098   0.063   6.369   3.291
  400SOL    HW1 2099   6.987   6.393   3.302
  400SOL    HW2 2100   0.088   6.374   3.194
  401SOL     OW 2101   1.086   5.478   4.928
  401SOL    HW1 2102   1.120   5.470   4.835
  401SOL    HW2 2103   1.145   5.426   4.990
  402SOL     OW 2104   5.803   1.521   4.113
  402SOL    HW1 2105   5.877   1.527   4.046
  402SOL    HW2 2106   5.780   1.613   4.144
  403SOL     OW 2107   2.947   1.854   4.587
  403SOL    HW1 2108   3.031   1.908   4.593
  403SOL    HW2 2109   2.878   1.905   4.535
  404SOL     OW 2110   2.984   5.224   3.669
  404SOL    HW1 2111   3.008   5.130   3.695
  404SOL    HW2 2112   2.927   5.265   3.741
  405SOL     OW 2113   2.577   5.072   3.840
  405SOL    HW1 2114   2.546   5.013   3.914
  405SOL    HW2 2115   2.675   5.091   3.851
  406SOL     OW 2116   0.349   6.914   6.458
  406SOL    HW1 2117   0.449   6.913   6.465
  406SOL    HW2 2118   0.322   6.879   6.368
  407SOL     OW 2119   2.154   3.748   3.927
  407SOL    HW1 2120   2.169   3.787   4.018
  407SOL    HW2 2121   2.135   3.650   3.936
  408SOL     OW 2122   2.564   2.522   2.411
  408SOL    HW1 2123   2.591   2.573   2.492
  408SOL    HW2 2124   2.532   2.586   2.341
  409SOL     OW 2125   0.301   2.663   2.493
  409SOL    HW1 2126   0.306   2.572   2.452
  409SOL    HW2 2127   0.276   2.730   2.423
  410SOL     OW 2128   1.867   3.406   1.864
  410SOL    HW1 2129   1.792   3.341   1.876
  410SOL    HW2 2130   1.947   3.359   1.828
  411SOL     OW 2131   0.046   1.840   0.411
  411SOL    HW1 2132   0.085   1.750   0.430
  411SOL    HW2 2133   0.093   1.909   0.465
  412SOL     OW 2134   1.615   4.958   2.664
  412SOL    HW1 2135   1.599   4.860   2.677
  412SOL    HW2 2136   1.553   4.993   2.595
  413SOL     OW 2137   6.037   4.540   1.943
  413SOL    HW1 2138   5.991   4.476   1.882
  413SOL    HW2 2139   6.135   4.542   1.922
  414SOL     OW 2140   2.234   6.494   3.316
  414SOL    HW1 2141   2.319   6.511   3.366
  414SOL    HW2 2142   2.157   6.503   3.378
  415SOL     OW 2143   5.692   2.005   0.068
  415SOL    HW1 2144   5.745   2.044   0.143
  415SOL    HW2 2145   5.595   2.028   0.080
  416SOL     OW 2146   5.634   2.885   6.138
  416SOL    HW1 2147   5.566   2.912   6.206
  416SOL    HW2 2148   5.641   2.956   6.067
  417SOL     OW 2149   2.288   2.681   5.562
  417SOL    HW1 2150   2.291   2.591   5.519
  417SOL    HW2 2151   2.379   2.721   5.563
  418SOL     OW 2152   3.557   6.068   6.099
  418SOL    HW1 2153   3.486   6.106   6.040
  418SOL    HW2 2154   3.563   6.123   6.183
  419SOL     OW 2155   5.718   0.933   6.873
  419SOL    HW1 2156   5.643   0.885   6.827
  419SOL    HW2 2157   5.725   0.902   6.967
  420SOL     OW 2158   3.487   6.805   1.077
  420SOL    HW1 2159   3.463   6.872   1.007
  420SOL    HW2 2160   3.534   6.728   1.035
  421SOL     OW 2161   4.797   4.108   2.614
  421SOL    HW1 2162   4.867   4.138   2.550
  421SOL    HW2 2163   4.738   4.185   2.638
  422SOL     OW 2164   3.945   1.785   1.870
  422SOL    HW1 2165   3.891   1.868   1.886
  422SOL    HW2 2166   4.015   1.777   1.941
  423SOL     OW 2167   3.057   1.030   6.414
  423SOL    HW1 2168   3.132   1.069   6.360
  423SOL    HW2 2169   3.095   0.978   6.491
  424SOL     OW 2170   1.752   3.830   4.416
  424SOL    HW1 2171   1.787   3.882   4.494
  424SOL    HW2 2172   1.819   3.759   4.391
  425SOL     OW 2173   3.197   1.439   0.201
  425SOL    HW1 2174   3.261   1.496   0.149
  425SOL    HW2 2175   3.182   1.480   0.291
  426SOL     OW 2176   2.158   1.943   3.829
  426SOL    HW1 2177   2.175   1.927   3.926
  426SOL    HW2 2178   2.231   2.000   3.791
  427SOL     OW 2179   4.631   1.297   3.746
  427SOL    HW1 2180   4.670   1.372   3.693
  427SOL    HW2 2181   4.563   1.333   3.810
  428SOL     OW 2182   2.210   2.142   6.562
  428SOL    HW1 2183   2.143   2.186   6.623
  428SOL    HW2 2184   2.161   2.087   6.494
  429SOL     OW 2185   0.157   6.423   3.549
  429SOL    HW1 2186   0.142   6.379   3.461
  429SOL    HW2 2187   0.246   6.394   3.585
  430SOL     OW 2188   2.169   1.075   3.545
  430SOL    HW1 2189   2.122   1.110   3.464
  430SOL    HW2 2190   2.247   1.019   3.517
  431SOL     OW 2191   2.767   1.110   1.602
  431SOL    HW1 2192   2.738   1.136   1.510
  431SOL    HW2 2193   2.866   1.120   1.609
  432SOL     OW 2194   4.906   1.965   1.304
  432SOL    HW1 2195   4.873   2.033   1.370
  432SOL    HW2 2196   5.004   1.951   1.318
  433SOL     OW 2197   2.002   4.444   0.380
  433SOL    HW1 2198   2.049   4.391   0.309
  433SOL    HW2 2199   1.963   4.526   0.339
  434SOL     OW 2200   4.303   5.577   2.817
  434SOL    HW1 2201   4.282   5.531   2.731
  434SOL    HW2 2202   4.223   5.629   2.848
  435SOL     OW 2203   3.462   2.487   6.010
  435SOL    HW1 2204   3.516   2.446   5.937
  435SOL    HW2 2205   3.405   2.417   6.053
  436SOL     OW 2206   5.652   6.304   2.166
  436SOL    HW1 2207   5.740   6.340   2.134
  436SOL    HW2 2208   5.594   6.380   2.196
  437SOL     OW 2209   6.986   0.837   5.231
  437SOL    HW1 2210   0.006   0.750   5.202
  437SOL    HW2 2211   6.889   0.823   5.250
  438SOL     OW 2212   1.106   4.313   2.418
  438SOL    HW1 2213   1.128   4.219   2.392
  438SOL    HW2 2214   1.113   4.372   2.338
  439SOL     OW 2215   0.245   0.678   6.125
  439SOL    HW1 2216   0.281   0.739   6.054
  439SOL    HW2 2217   0.321   0.630   6.169
  440SOL     OW 2218   4.066   2.182   0.898
  440SOL    HW1 2219   3.968   2.187   0.919
  440SOL    HW2 2220   4.115   2.252   0.950
  441SOL     OW 2221   0.255   4.799   2.361
  441SOL    HW1 2222   0.293   4.773   2.449
  441SOL    HW2 2223   0.295   4.742   2.289
  442SOL     OW 2224   3.387   3.201   4.828
  442SOL    HW1 2225   3.405   3.228   4.734
  442SOL    HW2 2226   3.421   3.272   4.890
  443SOL     OW 2227   4.673   2.690   3.215
  443SOL    HW1 2228   4.588   2.644   3.191
  443SOL    HW2 2229   4.737   2.624   3.253
  444SOL     OW 2230   4.531   2.417   1.616
  444SOL    HW1 2231   4.470   2.488   1.650
  444SOL    HW2 2232   4.478   2.338   1.585
  445SOL     OW 2233   2.396   5.482   2.889
  445SOL    HW1 2234   2.369   5.386   2.886
  445SOL    HW2 2235   2.324   5.535   2.933
  446SOL     OW 2236   6.361   6.989   0.964
  446SOL    HW1 2237   6.285   7.012   0.904
  446SOL    HW2 2238   6.404   0.052   0.997
  447SOL     OW 2239   5.934   3.843   0.026
  447SOL    HW1 2240   6.033   3.856   0.023
  447SOL    HW2 2241   5.896   3.856   6.955
  448SOL     OW 2242   3.619   6.119   3.799
  448SOL    HW1 2243   3.565   6.073   3.870
  448SOL    HW2 2244   3.576   6.207   3.777
  449SOL     OW 2245   0.781   4.146   4.525
  449SOL    HW1 2246   0.722   4.076   4.484
  449SOL    HW2 2247   0.784   4.134   4.624
  450SOL     OW 2248   0.049   4.297   2.956
  450SOL    HW1 2249   0.118   4.281   2.885
  450SOL    HW2 2250   0.031   4.396   2.962
  451SOL     OW 2251   1.982   2.136   7.015
  451SOL    HW1 2252   1.923   2.183   0.060
  451SOL    HW2 2253   2.078   2.152   0.017
  452SOL     OW 2254   4.381   5.485   1.832
  452SOL    HW1 2255   4.430   5.522   1.753
  452SOL    HW2 2256   4.284   5.505   1.823
  453SOL     OW 2257   4.800   0.611   0.383
  453SOL    HW1 2258   4.882   0.562   0.414
  453SOL    HW2 2259   4.789   0.598   0.285
  454SOL     OW 2260   6.784   3.206   4.216
  454SOL    HW1 2261   6.876   3.179   4.190
  454SOL    HW2 2262   6.717   3.145   4.174
  455SOL     OW 2263   5.480   5.358   6.891
  455SOL    HW1 2264   5.454   5.278   6.838
  455SOL    HW2 2265   5.416   5.370   6.967
  456SOL     OW 2266   1.804   0.798   3.057
  456SOL    HW1 2267   1.777   0.864   2.987
  456SOL    HW2 2268   1.862   0.728   3.016
  457SOL     OW 2269   2.869   5.849   0.285
  457SOL    HW1 2270   2.908   5.797   0.360
  457SOL    HW2 2271   2.934   5.919   0.255
  458SOL     OW 2272   3.688   1.143   3.428
  458SOL    HW1 2273   3.662   1.210   3.358
  458SOL    HW2 2274   3.782   1.159   3.457
  459SOL     OW 2275   2.894   1.004   3.190
  459SOL    HW1 2276   2.851   0.936   3.250
  459SOL    HW2 2277   2.832   1.082   3.179
  460SOL     OW 2278   0.854   1.306   6.936
  460SOL    HW1 2279   0.932   1.300   6.875
  460SOL    HW2 2280   0.782   1.360   6.893
  461SOL     OW 2281   1.159   6.858   5.417
  461SOL    HW1 2282   1.175   6.854   5.318
  461SOL    HW2 2283   1.247   6.860   5.465
  462SOL     OW 2284   3.723   4.179   5.064
  462SOL    HW1 2285   3.787   4.207   5.136
  462SOL    HW2 2286   3.706   4.081   5.071
  463SOL     OW 2287   5.201   6.224   2.958
  463SOL    HW1 2288   5.112   6.271   2.959
  463SOL    HW2 2289   5.244   6.236   2.869
  464SOL     OW 2290   4.075   6.063   5.181
  464SOL    HW1 2291   4.078   6.108   5.091
  464SOL    HW2 2292   4.148   6.098   5.239
  465SOL     OW 2293   0.091   4.638   0.036
  465SOL    HW1 2294   0.078   4.701   0.112
  465SOL    HW2 2295   0.161   4.675   6.995
  466SOL     OW 2296   4.007   4.859   4.260
  466SOL    HW1 2297   3.935   4.867   4.329
  466SOL    HW2 2298   4.088   4.912   4.289
  467SOL     OW 2299   6.776   0.003   1.635
  467SOL    HW1 2300   6.863   0.002   1.684
  467SOL    HW2 2301   6.730   6.936   1.648
  468SOL     OW 2302   2.226   5.738   6.284
  468SOL    HW1 2303   2.206   5.689   6.199
  468SOL    HW2 2304   2.226   5.673   6.360
  469SOL     OW 2305   3.319   4.392   5.356
  469SOL    HW1 2306   3.255   4.336   5.303
  469SOL    HW2 2307   3.268   4.460   5.409
  470SOL     OW 2308   2.170   5.101   2.501
  470SOL    HW1 2309   2.194   5.172   2.566
  470SOL    HW2 2310   2.075   5.113   2.472
  471SOL     OW 2311   1.443   2.058   4.203
  471SOL    HW1 2312   1.352   2.016   4.194
  471SOL    HW2 2313   1.510   1.987   4.223
  472SOL     OW 2314   5.455   4.027   6.337
  472SOL    HW1 2315   5.450   4.018   6.238
  472SOL    HW2 2316   5.521   4.097   6.362
  473SOL     OW 2317   5.256   2.895   2.513
  473SOL    HW1 2318   5.254   2.796   2.497
  473SOL    HW2 2319   5.287   2.914   2.606
  474SOL     OW 2320   4.977   5.587   3.124
  474SOL    HW1 2321   4.940   5.597   3.216
  474SOL    HW2 2322   4.956   5.496   3.089
  475SOL     OW 2323   5.003   1.334   0.301
  475SOL    HW1 2324   5.046   1.257   0.347
  475SOL    HW2 2325   4.945   1.384   0.366
  476SOL     OW 2326   1.089   3.464   0.160
  476SOL    HW1 2327   1.149   3.500   0.232
  476SOL    HW2 2328   1.026   3.536   0.131
  477SOL     OW 2329   6.580   5.131   3.342
  477SOL    HW1 2330   6.484   5.114   3.320
  477SOL    HW2 2331   6.607   5.072   3.418
  478SOL     OW 2332   6.392   5.371   2.533
  478SOL    HW1 2333   6.429   5.391   2.442
  478SOL    HW2 2334   6.442   5.296   2.574
  479SOL     OW 2335   2.977   3.659   2.962
  479SOL    HW1 2336   3.035   3.603   2.902
  479SOL    HW2 2337   3.021   3.748   2.978
  480SOL     OW 2338   0.556   0.737   1.828
  480SOL    HW1 2339   0.574   0.819   1.773
  480SOL    HW2 2340   0.541   0.764   1.923
  481SOL     OW 2341   5.731   6.012   0.964
  481SOL    HW1 2342   5.721   5.913   0.963
  481SOL    HW2 2343   5.827   6.037   0.951
  482SOL     OW 2344   3.940   5.207   2.777
  482SOL    HW1 2345   4.025   5.247   2.742
  482SOL    HW2 2346   3.926   5.117   2.736
  483SOL     OW 2347   6.325   0.511   3.935
  483SOL    HW1 2348   6.292   0.588   3.990
  483SOL    HW2 2349   6.336   0.540   3.840
  484SOL     OW 2350   2.051   4.777   3.135
  484SOL    HW1 2351   2.087   4.685   3.151
  484SOL    HW2 2352   1.978   4.773   3.067
  485SOL     OW 2353   4.853   2.531   0.684
  485SOL    HW1 2354   4.886   2.573   0.599
  485SOL    HW2 2355   4.919   2.549   0.758
  486SOL     OW 2356   6.174   6.255   5.617
  486SOL    HW1 2357   6.200   6.338   5.666
  486SOL    HW2 2358   6.244   6.185   5.631
  487SOL     OW 2359   0.022   0.847   6.627
  487SOL    HW1 2360   0.047   0.854   6.723
  487SOL    HW2 2361   6.955   0.801   6.618
  488SOL     OW 2362   1.920   5.749   2.954
  488SOL    HW1 2363   1.854   5.818   2.984
  488SOL    HW2 2364   2.012   5.777   2.981
  489SOL     OW 2365   2.922   4.550   5.429
  489SOL    HW1 2366   2.933   4.649   5.427
  489SOL    HW2 2367   2.918   4.515   5.336
  490SOL     OW 2368   1.603   3.344   4.831
  490SOL    HW1 2369   1.594   3.418   4.763
  490SOL    HW2 2370   1.678   3.284   4.805
  491SOL     OW 2371   5.939   3.412   1.108
  491SOL    HW1 2372   5.960   3.454   1.196
  491SOL    HW2 2373   5.938   3.482   1.037
  492SOL     OW 2374   1.474   2.350   5.809
  492SOL    HW1 2375   1.447   2.254   5.800
  492SOL    HW2 2376   1.420   2.405   5.744
  493SOL     OW 2377   1.822   5.629   3.823
  493SOL    HW1 2378   1.824   5.530   3.839
  493SOL    HW2 2379   1.856   5.648   3.731
  494SOL     OW 2380   2.695   0.368   4.061
  494SOL    HW1 2381   2.708   0.425   3.980
  494SOL    HW2 2382   2.617   0.308   4.046
  495SOL     OW 2383   3.521   4.615   6.848
  495SOL    HW1 2384   3.594   4.605   6.915
  495SOL    HW2 2385   3.526   4.705   6.806
  496SOL     OW 2386   5.190   1.092   2.990
  496SOL    HW1 2387   5.165   1.187   3.009
  496SOL    HW2 2388   5.208   1.082   2.892
  497SOL     OW 2389   4.698   2.823   1.003
  497SOL    HW1 2390   4.644   2.778   0.932
  497SOL    HW2 2391   4.754   2.895   0.961
  498SOL     OW 2392   0.581   0.125   0.791
  498SOL    HW1 2393   0.515   0.198   0.813
  498SOL    HW2 2394   0.668   0.166   0.763
  499SOL     OW 2395   2.894   6.766   0.418
  499SOL    HW1 2396   2.912   6.687   0.476
  499SOL    HW2 2397   2.980   6.808   0.390
  500SOL     OW 2398   5.853   1.745   6.355
  500SOL    HW1 2399   5.880   1.750   6.259
  500SOL    HW2 2400   5.754   1.746   6.363
  501SOL     OW 2401   1.643   1.887   4.335
  501SOL    HW1 2402   1.674   1.792   4.331
  501SOL    HW2 2403   1.565   1.894   4.398
  502SOL     OW 2404   2.395   3.558   6.824
  502SOL    HW1 2405   2.424   3.493   6.895
  502SOL    HW2 2406   2.396   3.513   6.735
  503SOL     OW 2407   3.493   4.761   0.977
  503SOL    HW1 2408   3.512   4.858   0.992
  503SOL    HW2 2409   3.487   4.714   1.065
  504SOL     OW 2410   6.710   6.970   0.152
  504SOL    HW1 2411   6.678   0.038   0.120
  504SOL    HW2 2412   6.636   6.903   0.145
  505SOL     OW 2413   6.461   3.975   5.806
  505SOL    HW1 2414   6.495   4.049   5.749
  505SOL    HW2 2415   6.477   3.996   5.903
  506SOL     OW 2416   2.870   5.528   2.750
  506SOL    HW1 2417   2.968   5.527   2.771
  506SOL    HW2 2418   2.846   5.445   2.699
  507SOL     OW 2419   3.059   0.121   3.124
  507SOL    HW1 2420   3.005   0.040   3.102
  507SOL    HW2 2421   3.011   0.176   3.192
  508SOL     OW 2422   0.564   5.441   3.785
  508SOL    HW1 2423   0.485   5.472   3.733
  508SOL    HW2 2424   0.543   5.354   3.830
  509SOL     OW 2425   4.355   0.217   5.961
  509SOL    HW1 2426   4.358   0.256   6.052
  509SOL    HW2 2427   4.439   0.241   5.911
  510SOL     OW 2428   6.624   4.602   6.879
  510SOL    HW1 2429   6.581   4.669   6.818
  510SOL    HW2 2430   6.715   4.635   6.906
  511SOL     OW 2431   1.047   0.987   0.156
  511SOL    HW1 2432   1.096   1.055   0.211
  511SOL    HW2 2433   1.033   1.023   0.064
  512SOL     OW 2434   0.800   1.884   4.276
  512SOL    HW1 2435   0.715   1.844   4.243
  512SOL    HW2 2436   0.783   1.979   4.303
  513SOL     OW 2437   5.698   6.267   2.701
  513SOL    HW1 2438   5.672   6.235   2.610
  513SOL    HW2 2439   5.621   6.256   2.764
  514SOL     OW 2440   4.614   1.694   4.297
  514SOL    HW1 2441   4.687   1.645   4.344
  514SOL    HW2 2442   4.654   1.766   4.239
  515SOL     OW 2443   3.503   1.105   0.143
  515SOL    HW1 2444   3.597   1.097   0.110
  515SOL    HW2 2445   3.471   1.017   0.177
  516SOL     OW 2446   1.115   6.022   1.938
  516SOL    HW1 2447   1.214   6.008   1.940
  516SOL    HW2 2448   1.094   6.112   1.976
  517SOL     OW 2449   3.403   4.627   1.409
  517SOL    HW1 2450   3.309   4.644   1.381
  517SOL    HW2 2451   3.424   4.680   1.491
  518SOL     OW 2452   2.663   6.359   3.856
  518SOL    HW1 2453   2.668   6.259   3.859
  518SOL    HW2 2454   2.736   6.398   3.911
  519SOL     OW 2455   6.525   0.295   2.571
  519SOL    HW1 2456   6.574   0.210   2.590
  519SOL    HW2 2457   6.587   0.372   2.584
  520SOL     OW 2458   2.355   5.738   0.731
  520SOL    HW1 2459   2.443   5.784   0.742
  520SOL    HW2 2460   2.333   5.686   0.813
  521SOL     OW 2461   6.454   6.157   5.671
  521SOL    HW1 2462   6.466   6.223   5.745
  521SOL    HW2 2463   6.508   6.186   5.591
  522SOL     OW 2464   3.847   4.646   6.712
  522SOL    HW1 2465   3.799   4.694   6.639
  522SOL    HW2 2466   3.832   4.694   6.799
  523SOL     OW 2467   2.011   6.879   5.928
  523SOL    HW1 2468   2.057   6.814   5.867
  523SOL    HW2 2469   1.934   6.920   5.881
  524SOL     OW 2470   6.891   0.924   0.756
  524SOL    HW1 2471   6.956   0.991   0.792
  524SOL    HW2 2472   6.864   0.861   0.830
  525SOL     OW 2473   0.901   3.709   3.481
  525SOL    HW1 2474   0.908   3.614   3.452
  525SOL    HW2 2475   0.991   3.742   3.511
  526SOL     OW 2476   3.528   6.895   4.787
  526SOL    HW1 2477   3.457   6.965   4.797
  526SOL    HW2 2478   3.486   6.810   4.756
  527SOL     OW 2479   0.073   1.037   0.931
  527SOL    HW1 2480   0.057   0.986   1.016
  527SOL    HW2 2481   0.105   0.975   0.860
  528SOL     OW 2482   7.016   1.662   4.538
  528SOL    HW1 2483   0.010   1.756   4.566
  528SOL    HW2 2484   6.952   1.617   4.600
  529SOL     OW 2485   1.457   1.222   5.849
  529SOL    HW1 2486   1.443   1.126   5.874
  529SOL    HW2 2487   1.508   1.268   5.922
  530SOL     OW 2488   3.288   4.399   1.697
  530SOL    HW1 2489   3.378   4.419   1.736
  530SOL    HW2 2490   3.272   4.300   1.699
  531SOL     OW 2491   0.662   0.956   6.320
  531SOL    HW1 2492   0.622   0.945   6.229
  531SOL    HW2 2493   0.750   1.003   6.312
  532SOL     OW 2494   3.144   0.851   6.610
  532SOL    HW1 2495   3.056   0.863   6.656
  532SOL    HW2 2496   3.187   0.767   6.644
  533SOL     OW 2497   4.458   6.892   4.766
  533SOL    HW1 2498   4.507   6.973   4.734
  533SOL    HW2 2499   4.363   6.916   4.786
  534SOL     OW 2500   1.915   4.376   1.834
  534SOL    HW1 2501   1.925   4.476   1.832
  534SOL    HW2 2502   1.972   4.339   1.908
  535SOL     OW 2503   4.650   4.282   4.485
  535SOL    HW1 2504   4.607   4.337   4.414
  535SOL    HW2 2505   4.674   4.192   4.449
  536SOL     OW 2506   6.687   6.581   1.187
  536SOL    HW1 2507   6.679   6.513   1.114
  536SOL    HW2 2508   6.748   6.546   1.258
  537SOL     OW 2509   2.731   1.846   2.364
  537SOL    HW1 2510   2.775   1.904   2.295
  537SOL    HW2 2511   2.647   1.808   2.326
  538SOL     OW 2512   4.058   4.458   5.335
  538SOL    HW1 2513   3.994   4.533   5.351
  538SOL    HW2 2514   4.100   4.468   5.245
  539SOL     OW 2515   2.478   0.279   6.508
  539SOL    HW1 2516   2.430   0.196   6.481
  539SOL    HW2 2517   2.541   0.258   6.582
  540SOL     OW 2518   2.062   1.370   4.996
  540SOL    HW1 2519   2.069   1.430   5.076
  540SOL    HW2 2520   1.967   1.341   4.984
  541SOL     OW 2521   5.015   6.305   3.349
  541SOL    HW1 2522   4.991   6.288   3.444
  541SOL    HW2 2523   4.933   6.293   3.292
  542SOL     OW 2524   3.509   6.079   5.701
  542SOL    HW1 2525   3.414   6.091   5.728
  542SOL    HW2 2526   3.543   5.992   5.738
  543SOL     OW 2527   6.456   2.323   4.549
  543SOL    HW1 2528   6.368   2.364   4.574
  543SOL    HW2 2529   6.516   2.394   4.512
  544SOL     OW 2530   0.711   2.944   0.963
  544SOL    HW1 2531   0.755   2.874   1.019
  544SOL    HW2 2532   0.781   3.001   0.920
  545SOL     OW 2533   6.787   4.990   0.466
  545SOL    HW1 2534   6.706   4.951   0.422
  545SOL    HW2 2535   6.786   4.966   0.563
  546SOL     OW 2536   6.930   4.751   1.999
  546SOL    HW1 2537   6.853   4.806   2.033
  546SOL    HW2 2538   7.015   4.785   2.039
  547SOL     OW 2539   4.028   0.067   6.749
  547SOL    HW1 2540   4.004   7.007   6.696
  547SOL    HW2 2541   4.001   0.149   6.699
  548SOL     OW 2542   3.975   2.440   0.164
  548SOL    HW1 2543   4.071   2.461   0.184
  548SOL    HW2 2544   3.936   2.514   0.110
  549SOL     OW 2545   5.461   2.498   3.852
  549SOL    HW1 2546   5.379   2.529   3.901
  549SOL    HW2 2547   5.446   2.406   3.817
  550SOL     OW 2548   6.647   5.665   3.455
  550SOL    HW1 2549   6.651   5.585   3.395
  550SOL    HW2 2550   6.575   5.652   3.524
  551SOL     OW 2551   5.173   0.476   0.261
  551SOL    HW1 2552   5.231   0.439   0.188
  551SOL    HW2 2553   5.152   0.572   0.243
  552SOL     OW 2554   0.335   0.243   4.775
  552SOL    HW1 2555   0.361   0.236   4.871
  552SOL    HW2 2556   0.295   0.333   4.758
  553SOL     OW 2557   3.346   2.258   5.595
  553SOL    HW1 2558   3.297   2.336   5.633
  553SOL    HW2 2559   3.428   2.240   5.650
  554SOL     OW 2560   6.524   5.431   0.424
  554SOL    HW1 2561   6.588   5.486   0.370
  554SOL    HW2 2562   6.525   5.462   0.519
  555SOL     OW 2563   2.650   4.515   6.201
  555SOL    HW1 2564   2.681   4.420   6.200
  555SOL    HW2 2565   2.634   4.544   6.296
  556SOL     OW 2566   6.278   6.430   2.125
  556SOL    HW1 2567   6.223   6.407   2.206
  556SOL    HW2 2568   6.223   6.416   2.043
  557SOL     OW 2569   5.487   3.452   6.075
  557SOL    HW1 2570   5.494   3.540   6.123
  557SOL    HW2 2571   5.522   3.463   5.981
  558SOL     OW 2572   3.364   3.838   2.140
  558SOL    HW1 2573   3.391   3.750   2.180
  558SOL    HW2 2574   3.364   3.908   2.211
  559SOL     OW 2575   6.215   1.192   6.533
  559SOL    HW1 2576   6.176   1.281   6.557
  559SOL    HW2 2577   6.208   1.178   6.434
  560SOL     OW 2578   0.388   2.304   3.609
  560SOL    HW1 2579   0.392   2.210   3.578
  560SOL    HW2 2580   0.366   2.364   3.532
  561SOL     OW 2581   0.283   3.799   0.023
  561SOL    HW1 2582   0.226   3.870   7.001
  561SOL    HW2 2583   0.379   3.825   0.015
  562SOL     OW 2584   4.347   6.687   3.619
  562SOL    HW1 2585   4.381   6.632   3.696
  562SOL    HW2 2586   4.248   6.697   3.626
  563SOL     OW 2587   0.971   1.151   3.891
  563SOL    HW1 2588   0.883   1.121   3.929
  563SOL    HW2 2589   1.019   1.207   3.959
  564SOL     OW 2590   5.803   1.904   5.418
  564SOL    HW1 2591   5.880   1.952   5.461
  564SOL    HW2 2592   5.776   1.827   5.475
  565SOL     OW 2593   2.912   3.500   3.957
  565SOL    HW1 2594   2.867   3.520   4.044
  565SOL    HW2 2595   2.917   3.584   3.903
  566SOL     OW 2596   2.092   2.410   3.637
  566SOL    HW1 2597   2.113   2.325   3.588
  566SOL    HW2 2598   2.150   2.418   3.718
  567SOL     OW 2599   1.867   3.423   5.415
  567SOL    HW1 2600   1.875   3.341   5.357
  567SOL    HW2 2601   1.957   3.465   5.423
  568SOL     OW 2602   1.290   0.062   0.019
  568SOL    HW1 2603   1.301   0.110   0.106
  568SOL    HW2 2604   1.380   0.051   6.997
  569SOL     OW 2605   5.100   3.446   5.879
  569SOL    HW1 2606   5.010   3.456   5.923
  569SOL    HW2 2607   5.152   3.531   5.891
  570SOL     OW 2608   3.807   0.765   6.260
  570SOL    HW1 2609   3.808   0.704   6.181
  570SOL    HW2 2610   3.715   0.802   6.274
  571SOL     OW 2611   2.463   4.367   1.805
  571SOL    HW1 2612   2.533   4.420   1.758
  571SOL    HW2 2613   2.469   4.384   1.903
  572SOL     OW 2614   3.200   1.120   4.316
  572SOL    HW1 2615   3.110   1.135   4.276
  572SOL    HW2 2616   3.201   1.151   4.411
  573SOL     OW 2617   0.455   0.827   5.353
  573SOL    HW1 2618   0.447   0.880   5.269
  573SOL    HW2 2619   0.548   0.791   5.361
  574SOL     OW 2620   2.018   1.124   6.186
  574SOL    HW1 2621   1.933   1.173   6.168
  574SOL    HW2 2622   2.083   1.141   6.113
  575SOL     OW 2623   3.833   3.623   0.438
  575SOL    HW1 2624   3.807   3.616   0.342
  575SOL    HW2 2625   3.924   3.664   0.444
  576SOL     OW 2626   0.829   0.920   3.047
  576SOL    HW1 2627   0.740   0.901   3.087
  576SOL    HW2 2628   0.817   0.971   2.962
  577SOL     OW 2629   0.217   0.220   1.881
  577SOL    HW1 2630   0.214   0.151   1.954
  577SOL    HW2 2631   0.243   0.308   1.920
  578SOL     OW 2632   4.235   6.827   0.107
  578SOL    HW1 2633   4.273   6.836   0.199
  578SOL    HW2 2634   4.185   6.909   0.083
  579SOL     OW 2635   0.942   4.150   1.973
  579SOL    HW1 2636   0.870   4.107   1.919
  579SOL    HW2 2637   0.973   4.233   1.928
  580SOL     OW 2638   4.631   5.443   4.486
  580SOL    HW1 2639   4.697   5.452   4.560
  580SOL    HW2 2640   4.580   5.357   4.496
  581SOL     OW 2641   1.749   2.391   4.268
  581SOL    HW1 2642   1.733   2.409   4.171
  581SOL    HW2 2643   1.727   2.473   4.321
  582SOL     OW 2644   5.580   4.327   5.244
  582SOL    HW1 2645   5.558   4.320   5.146
  582SOL    HW2 2646   5.495   4.338   5.296
  583SOL     OW 2647   3.224   6.095   5.694
  583SOL    HW1 2648   3.140   6.150   5.700
  583SOL    HW2 2649   3.229   6.053   5.604
  584SOL     OW 2650   3.907   0.872   4.846
  584SOL    HW1 2651   3.866   0.798   4.899
  584SOL    HW2 2652   4.000   0.890   4.879
  585SOL     OW 2653   3.569   6.883   1.568
  585SOL    HW1 2654   3.580   6.983   1.574
  585SOL    HW2 2655   3.636   6.847   1.503
  586SOL     OW 2656   3.634   0.118   0.457
  586SOL    HW1 2657   3.558   0.181   0.440
  586SOL    HW2 2658   3.714   0.171   0.485
  587SOL     OW 2659   4.976   1.780   2.659
  587SOL    HW1 2660   4.941   1.698   2.703
  587SOL    HW2 2661   5.000   1.760   2.564
  588SOL     OW 2662   2.454   4.426   2.927
  588SOL    HW1 2663   2.405   4.417   2.840
  588SOL    HW2 2664   2.533   4.364   2.927
  589SOL     OW 2665   3.440   5.130   0.148
  589SOL    HW1 2666   3.390   5.158   0.230
  589SOL    HW2 2667   3.423   5.196   0.075
  590SOL     OW 2668   2.710   2.049   6.308
  590SOL    HW1 2669   2.644   2.121   6.332
  590SOL    HW2 2670   2.739   2.061   6.213
  591SOL     OW 2671   2.377   6.836   3.573
  591SOL    HW1 2672   2.440   6.824   3.496
  591SOL    HW2 2673   2.382   6.930   3.606
  592SOL     OW 2674   4.884   2.500   5.022
  592SOL    HW1 2675   4.860   2.583   5.072
  592SOL    HW2 2676   4.830   2.494   4.939
  593SOL     OW 2677   2.171   0.802   6.534
  593SOL    HW1 2678   2.097   0.835   6.476
  593SOL    HW2 2679   2.186   0.865   6.610
  594SOL     OW 2680   3.633   1.056   4.344
  594SOL    HW1 2681   3.568   1.118   4.301
  594SOL    HW2 2682   3.706   1.108   4.388
  595SOL     OW 2683   6.360   3.855   2.131
  595SOL    HW1 2684   6.379   3.953   2.143
  595SOL    HW2 2685   6.425   3.817   2.064
  596SOL     OW 2686   5.843   4.658   4.324
  596SOL    HW1 2687   5.879   4.747   4.353
  596SOL    HW2 2688   5.888   4.629   4.240
  597SOL     OW 2689   3.135   1.873   6.893
  597SOL    HW1 2690   3.072   1.812   6.845
  597SOL    HW2 2691   3.205   1.904   6.829
  598SOL     OW 2692   3.088   3.372   3.324
  598SOL    HW1 2693   3.000   3.413   3.302
  598SOL    HW2 2694   3.078   3.273   3.331
  599SOL     OW 2695   2.076   4.942   1.174
  599SOL    HW1 2696   2.038   4.873   1.112
  599SOL    HW2 2697   2.119   5.015   1.121
  600SOL     OW 2698   0.370   3.753   4.833
  600SOL    HW1 2699   0.375   3.852   4.845
  600SOL    HW2 2700   0.462   3.716   4.827
  601SOL     OW 2701   0.201   6.568   6.040
  601SOL    HW1 2702   0.184   6.473   6.066
  601SOL    HW2 2703   0.271   6.570   5.968
  602SOL     OW 2704   1.378   1.292   3.540
  602SOL    HW1 2705   1.422   1.319   3.626
  602SOL    HW2 2706   1.302   1.230   3.560
  603SOL     OW 2707   1.595   1.566   3.972
  603SOL    HW1 2708   1.637   1.653   3.946
  603SOL    HW2 2709   1.666   1.501   3.997
  604SOL     OW 2710   5.359   2.633   0.848
  604SOL    HW1 2711   5.281   2.637   0.911
  604SOL    HW2 2712   5.439   2.676   0.890
  605SOL     OW 2713   5.701   6.333   1.245
  605SOL    HW1 2714   5.760   6.262   1.284
  605SOL    HW2 2715   5.621   6.290   1.203
  606SOL     OW 2716   3.205   6.539   5.150
  606SOL    HW1 2717   3.301   6.567   5.154
  606SOL    HW2 2718   3.147   6.618   5.166
  607SOL     OW 2719   1.562   2.731   5.950
  607SOL    HW1 2720   1.656   2.742   5.919
  607SOL    HW2 2721   1.506   2.805   5.912
  608SOL     OW 2722   3.445   1.350   6.813
  608SOL    HW1 2723   3.379   1.299   6.868
  608SOL    HW2 2724   3.511   1.286   6.773
  609SOL     OW 2725   3.616   3.188   2.171
  609SOL    HW1 2726   3.679   3.110   2.178
  609SOL    HW2 2727   3.523   3.157   2.187
  610SOL     OW 2728   4.940   3.364   1.774
  610SOL    HW1 2729   4.848   3.348   1.736
  610SOL    HW2 2730   4.932   3.415   1.859
  611SOL     OW 2731   3.794   1.261   2.360
  611SOL    HW1 2732   3.723   1.238   2.427
  611SOL    HW2 2733   3.801   1.189   2.292
  612SOL     OW 2734   4.767   4.619   4.287
  612SOL    HW1 2735   4.815   4.592   4.203
  612SOL    HW2 2736   4.831   4.618   4.364
  613SOL     OW 2737   3.968   5.308   6.321
  613SOL    HW1 2738   3.993   5.211   6.316
  613SOL    HW2 2739   3.995   5.353   6.236
  614SOL     OW 2740   3.099   6.377   6.372
  614SOL    HW1 2741   3.146   6.445   6.428
  614SOL    HW2 2742   3.149   6.362   6.287
  615SOL     OW 2743   6.920   5.022   3.178
  615SOL    HW1 2744   6.983   5.099   3.176
  615SOL    HW2 2745   6.900   4.998   3.273
  616SOL     OW 2746   6.396   2.912   4.078
  616SOL    HW1 2747   6.323   2.944   4.017
  616SOL    HW2 2748   6.362   2.837   4.135
  617SOL     OW 2749   2.440   0.432   6.021
  617SOL    HW1 2750   2.425   0.531   6.020
  617SOL    HW2 2751   2.456   0.402   6.115
  618SOL     OW 2752   1.821   0.641   3.716
  618SOL    HW1 2753   1.837   0.739   3.704
  618SOL    HW2 2754   1.883   0.590   3.656
  619SOL     OW 2755   1.091   2.341   0.071
  619SOL    HW1 2756   1.021   2.327   0.140
  619SOL    HW2 2757   1.094   2.263   0.009
  620SOL     OW 2758   4.793   3.858   0.596
  620SOL    HW1 2759   4.755   3.901   0.678
  620SOL    HW2 2760   4.870   3.912   0.562
  621SOL     OW 2761   6.991   5.419   0.859
  621SOL    HW1 2762   6.954   5.467   0.779
  621SOL    HW2 2763   6.925   5.425   0.934
  622SOL     OW 2764   0.387   0.865   0.102
  622SOL    HW1 2765   0.465   0.898   0.049
  622SOL    HW2 2766   0.415   0.853   0.197
  623SOL     OW 2767   0.450   4.904   5.313
  623SOL    HW1 2768   0.481   4.982   5.367
  623SOL    HW2 2769   0.425   4.935   5.221
  624SOL     OW 2770   0.526   1.476   1.244
  624SOL    HW1 2771   0.561   1.552   1.299
  624SOL    HW2 2772   0.465   1.420   1.300
  625SOL     OW 2773   1.507   1.227   2.502
  625SOL    HW1 2774   1.504   1.135   2.461
  625SOL    HW2 2775   1.537   1.220   2.597
  626SOL     OW 2776   3.197   5.796   5.022
  626SOL    HW1 2777   3.120   5.775   4.962
  626SOL    HW2 2778   3.276   5.741   4.997
  627SOL     OW 2779   5.007   6.282   6.860
  627SOL    HW1 2780   5.073   6.329   6.802
  627SOL    HW2 2781   4.950   6.349   6.908
  628SOL     OW 2782   6.052   4.299   2.920
  628SOL    HW1 2783   6.006   4.216   2.952
  628SOL    HW2 2784   6.138   4.274   2.875
  629SOL     OW 2785   1.530   0.335   0.996
  629SOL    HW1 2786   1.496   0.273   0.926
  629SOL    HW2 2787   1.558   0.421   0.954
  630SOL     OW 2788   2.664   1.211   1.357
  630SOL    HW1 2789   2.732   1.232   1.287
  630SOL    HW2 2790   2.648   1.293   1.413
  631SOL     OW 2791   2.926   0.735   4.434
  631SOL    HW1 2792   2.941   0.652   4.379
  631SOL    HW2 2793   2.829   0.760   4.429
  632SOL     OW 2794   2.975   0.675   0.738
  632SOL    HW1 2795   2.991   0.599   0.675
  632SOL    HW2 2796   3.037   0.666   0.816
  633SOL     OW 2797   2.342   0.241   5.356
  633SOL    HW1 2798   2.318   0.237   5.453
  633SOL    HW2 2799   2.310   0.157   5.311
  634SOL     OW 2800   2.578   6.010   1.828
  634SOL    HW1 2801   2.677   6.024   1.826
  634SOL    HW2 2802   2.552   5.945   1.757
  635SOL     OW 2803   3.173   6.832   3.131
  635SOL    HW1 2804   3.081   6.859   3.158
  635SOL    HW2 2805   3.233   6.912   3.132
  636SOL     OW 2806   4.774   5.274   6.232
  636SOL    HW1 2807   4.851   5.256   6.171
  636SOL    HW2 2808   4.743   5.188   6.273
  637SOL     OW 2809   5.757   5.329   6.283
  637SOL    HW1 2810   5.723   5.276   6.205
  637SOL    HW2 2811   5.710   5.417   6.287
  638SOL     OW 2812   5.436   2.032   3.469
  638SOL    HW1 2813   5.491   1.964   3.517
  638SOL    HW2 2814   5.418   2.001   3.376
  639SOL     OW 2815   4.719   3.738   1.574
  639SOL    HW1 2816   4.658   3.667   1.609
  639SOL    HW2 2817   4.668   3.822   1.559
  640SOL     OW 2818   2.437   3.247   5.350
  640SOL    HW1 2819   2.496   3.303   5.408
  640SOL    HW2 2820   2.492   3.181   5.299
  641SOL     OW 2821   7.000   5.937   5.014
  641SOL    HW1 2822   6.944   5.998   4.957
  641SOL    HW2 2823   6.947   5.910   5.094
  642SOL     OW 2824   1.274   4.483   6.456
  642SOL    HW1 2825   1.307   4.524   6.371
  642SOL    HW2 2826   1.176   4.461   6.447
  643SOL     OW 2827   5.908   6.046   4.803
  643SOL    HW1 2828   5.961   5.963   4.789
  643SOL    HW2 2829   5.939   6.117   4.739
  644SOL     OW 2830   2.325   6.630   1.418
  644SOL    HW1 2831   2.411   6.579   1.415
  644SOL    HW2 2832   2.327   6.697   1.492
  645SOL     OW 2833   0.274   2.747   3.365
  645SOL    HW1 2834   0.210   2.700   3.304
  645SOL    HW2 2835   0.296   2.837   3.329
  646SOL     OW 2836   1.390   3.308   4.512
  646SOL    HW1 2837   1.318   3.373   4.488
  646SOL    HW2 2838   1.475   3.358   4.528
  647SOL     OW 2839   5.471   3.527   0.505
  647SOL    HW1 2840   5.429   3.512   0.416
  647SOL    HW2 2841   5.499   3.623   0.513
  648SOL     OW 2842   4.550   2.508   4.291
  648SOL    HW1 2843   4.614   2.431   4.290
  648SOL    HW2 2844   4.477   2.489   4.357
  649SOL     OW 2845   4.577   4.418   1.726
  649SOL    HW1 2846   4.512   4.404   1.651
  649SOL    HW2 2847   4.543   4.371   1.808
  650SOL     OW 2848   5.365   4.821   0.821
  650SOL    HW1 2849   5.360   4.908   0.871
  650SOL    HW2 2850   5.444   4.768   0.855
  651SOL     OW 2851   1.437   5.843   6.428
  651SOL    HW1 2852   1.530   5.837   6.464
  651SOL    HW2 2853   1.424   5.772   6.358
  652SOL     OW 2854   4.930   1.930   2.220
  652SOL    HW1 2855   4.887   1.843   2.247
  652SOL    HW2 2856   5.021   1.936   2.261
  653SOL     OW 2857   3.804   4.863   3.009
  653SOL    HW1 2858   3.877   4.834   3.071
  653SOL    HW2 2859   3.844   4.884   2.919
  654SOL     OW 2860   6.566   5.246   6.412
  654SOL    HW1 2861   6.602   5.269   6.502
  654SOL    HW2 2862   6.517   5.325   6.374
  655SOL     OW 2863   0.971   2.073   6.923
  655SOL    HW1 2864   1.033   2.128   6.867
  655SOL    HW2 2865   1.004   2.071   7.017
  656SOL     OW 2866   1.930   6.229   1.176
  656SOL    HW1 2867   1.954   6.276   1.091
  656SOL    HW2 2868   1.847   6.269   1.214
  657SOL     OW 2869   4.277   0.602   6.931
  657SOL    HW1 2870   4.370   0.595   6.894
  657SOL    HW2 2871   4.226   0.671   6.879
  658SOL     OW 2872   3.690   5.443   6.882
  658SOL    HW1 2873   3.666   5.447   6.979
  658SOL    HW2 2874   3.607   5.430   6.827
  659SOL     OW 2875   3.726   0.524   6.103
  659SOL    HW1 2876   3.769   0.442   6.066
  659SOL    HW2 2877   3.764   0.605   6.059
  660SOL     OW 2878   3.612   6.088   3.201
  660SOL    HW1 2879   3.664   6.173   3.194
  660SOL    HW2 2880   3.537   6.101   3.266
  661SOL     OW 2881   5.911   4.975   2.880
  661SOL    HW1 2882   5.821   4.941   2.851
  661SOL    HW2 2883   5.942   4.923   2.959
  662SOL     OW 2884   4.125   1.548   0.156
  662SOL    HW1 2885   4.119   1.639   0.196
  662SOL    HW2 2886   4.221   1.522   0.145
  663SOL     OW 2887   1.432   4.265   4.585
  663SOL    HW1 2888   1.332   4.260   4.588
  663SOL    HW2 2889   1.460   4.359   4.562
  664SOL     OW 2890   5.946   0.025   6.283
  664SOL    HW1 2891   6.046   0.025   6.274
  664SOL    HW2 2892   5.906   7.011   6.198
  665SOL     OW 2893   0.667   4.528   1.446
  665SOL    HW1 2894   0.713   4.463   1.507
  665SOL    HW2 2895   0.731   4.557   1.375
  666SOL     OW 2896   4.554   1.296   2.083
  666SOL    HW1 2897   4.504   1.293   1.996
  666SOL    HW2 2898   4.505   1.242   2.151
  667SOL     OW 2899   0.776   0.042   2.244
  667SOL    HW1 2900   0.865   0.041   2.287
  667SOL    HW2 2901   0.759   0.133   2.205
  668SOL     OW 2902   5.935   3.439   0.079
  668SOL    HW1 2903   5.841   3.472   0.090
  668SOL    HW2 2904   5.939   3.342   0.102
  669SOL     OW 2905   5.405   1.899   3.227
  669SOL    HW1 2906   5.353   1.972   3.184
  669SOL    HW2 2907   5.407   1.819   3.167
  670SOL     OW 2908   3.731   2.094   2.405
  670SOL    HW1 2909   3.692   2.003   2.419
  670SOL    HW2 2910   3.686   2.138   2.327
  671SOL     OW 2911   2.071   6.192   2.284
  671SOL    HW1 2912   2.142   6.254   2.316
  671SOL    HW2 2913   2.018   6.236   2.212
  672SOL     OW 2914   0.454   6.905   1.760
  672SOL    HW1 2915   0.444   6.858   1.848
  672SOL    HW2 2916   0.543   6.882   1.721
  673SOL     OW 2917   6.043   6.715   6.490
  673SOL    HW1 2918   6.132   6.729   6.533
  673SOL    HW2 2919   5.973   6.705   6.560
  674SOL     OW 2920   5.267   0.200   4.060
  674SOL    HW1 2921   5.216   0.199   3.974
  674SOL    HW2 2922   5.207   0.228   4.134
  675SOL     OW 2923   0.375   3.935   2.227
  675SOL    HW1 2924   0.324   3.869   2.281
  675SOL    HW2 2925   0.452   3.969   2.281
  676SOL     OW 2926   2.735   6.086   6.770
  676SOL    HW1 2927   2.646   6.085   6.815
  676SOL    HW2 2928   2.734   6.154   6.696
  677SOL     OW 2929   5.923   1.404   1.150
  677SOL    HW1 2930   5.890   1.392   1.057
  677SOL    HW2 2931   5.944   1.315   1.190
  678SOL     OW 2932   1.049   5.260   4.081
  678SOL    HW1 2933   1.049   5.309   3.993
  678SOL    HW2 2934   0.955   5.250   4.113
  679SOL     OW 2935   4.896   1.941   5.298
  679SOL    HW1 2936   4.885   1.878   5.221
  679SOL    HW2 2937   4.992   1.966   5.308
  680SOL     OW 2938   6.189   6.639   3.793
  680SOL    HW1 2939   6.171   6.599   3.883
  680SOL    HW2 2940   6.103   6.669   3.753
  681SOL     OW 2941   4.472   4.890   2.779
  681SOL    HW1 2942   4.458   4.929   2.870
  681SOL    HW2 2943   4.568   4.899   2.753
  682SOL     OW 2944   0.037   1.776   3.046
  682SOL    HW1 2945   0.041   1.822   2.957
  682SOL    HW2 2946   0.122   1.726   3.062
  683SOL     OW 2947   3.292   4.239   0.720
  683SOL    HW1 2948   3.251   4.158   0.679
  683SOL    HW2 2949   3.274   4.238   0.819
  684SOL     OW 2950   6.437   1.461   5.623
  684SOL    HW1 2951   6.508   1.391   5.629
  684SOL    HW2 2952   6.349   1.417   5.602
  685SOL     OW 2953   2.923   6.684   3.006
  685SOL    HW1 2954   3.009   6.670   3.054
  685SOL    HW2 2955   2.884   6.772   3.032
  686SOL     OW 2956   4.150   0.473   5.317
  686SOL    HW1 2957   4.118   0.406   5.251
  686SOL    HW2 2958   4.190   0.426   5.396
  687SOL     OW 2959   0.092   1.151   4.393
  687SOL    HW1 2960   0.040   1.117   4.315
  687SOL    HW2 2961   0.028   1.183   4.464
  688SOL     OW 2962   5.772   2.123   0.350
  688SOL    HW1 2963   5.690   2.099   0.402
  688SOL    HW2 2964   5.790   2.221   0.358
  689SOL     OW 2965   1.926   5.735   0.109
  689SOL    HW1 2966   1.951   5.815   0.163
  689SOL    HW2 2967   1.989   5.725   0.032
  690SOL     OW 2968   5.621   3.741   3.580
  690SOL    HW1 2969   5.685   3.811   3.546
  690SOL    HW2 2970   5.650   3.710   3.670
  691SOL     OW 2971   5.640   1.340   1.790
  691SOL    HW1 2972   5.711   1.391   1.742
  691SOL    HW2 2973   5.681   1.289   1.866
  692SOL     OW 2974   1.578   1.366   3.730
  692SOL    HW1 2975   1.539   1.363   3.822
  692SOL    HW2 2976   1.612   1.458   3.711
  693SOL     OW 2977   5.864   4.901   3.332
  693SOL    HW1 2978   5.901   4.990   3.357
  693SOL    HW2 2979   5.882   4.835   3.405
  694SOL     OW 2980   3.907   5.562   4.210
  694SOL    HW1 2981   3.823   5.608   4.180
  694SOL    HW2 2982   3.931   5.490   4.145
  695SOL     OW 2983   4.826   6.647   3.850
  695SOL    HW1 2984   4.914   6.677   3.813
  695SOL    HW2 2985   4.801   6.705   3.927
  696SOL     OW 2986   5.994   3.981   1.954
  696SOL    HW1 2987   5.899   3.974   1.985
  696SOL    HW2 2988   6.040   3.893   1.967
  697SOL     OW 2989   0.564   6.426   2.734
  697SOL    HW1 2990   0.585   6.329   2.729
  697SOL    HW2 2991   0.555   6.454   2.830
  698SOL     OW 2992   5.518   6.415   6.176
  698SOL    HW1 2993   5.441   6.449   6.121
  698SOL    HW2 2994   5.597   6.400   6.117
  699SOL     OW 2995   4.166   4.270   0.664
  699SOL    HW1 2996   4.228   4.317   0.601
  699SOL    HW2 2997   4.141   4.332   0.738
  700SOL     OW 2998   3.496   6.620   5.263
  700SOL    HW1 2999   3.529   6.570   5.343
  700SOL    HW2 3000   3.574   6.646   5.206
  701SOL     OW 3001   4.802   4.982   1.964
  701SOL    HW1 3002   4.740   5.048   2.006
  701SOL    HW2 3003   4.788   4.981   1.865
  702SOL     OW 3004   4.445   0.285   4.805
  702SOL    HW1 3005   4.457   0.381   4.831
  702SOL    HW2 3006   4.356   0.253   4.838
  703SOL     OW 3007   3.226   3.150   0.029
  703SOL    HW1 3008   3.305   3.211   0.019
  703SOL    HW2 3009   3.161   3.191   0.092
  704SOL     OW 3010   3.510   1.072   6.179
  704SOL    HW1 3011   3.542   1.157   6.136
  704SOL    HW2 3012   3.416   1.053   6.149
  705SOL     OW 3013   0.241   6.312   6.082
  705SOL    HW1 3014   0.163   6.311   6.018
  705SOL    HW2 3015   0.295   6.229   6.069
  706SOL     OW 3016   3.553   0.740   4.832
  706SOL    HW1 3017   3.575   0.745   4.735
  706SOL    HW2 3018   3.484   0.808   4.854
  707SOL     OW 3019   3.274   5.413   4.516
  707SOL    HW1 3020   3.315   5.496   4.478
  707SOL    HW2 3021   3.240   5.356   4.441
  708SOL     OW 3022   3.441   5.852   3.757
  708SOL    HW1 3023   3.540   5.855   3.740
  708SOL    HW2 3024   3.424   5.878   3.852
  709SOL     OW 3025   2.473   0.160   1.958
  709SOL    HW1 3026   2.530   0.098   1.904
  709SOL    HW2 3027   2.377   0.139   1.944
  710SOL     OW 3028   4.900   3.680   2.645
  710SOL    HW1 3029   4.862   3.754   2.699
  710SOL    HW2 3030   4.913   3.711   2.551
  711SOL     OW 3031   0.697   1.774   0.534
  711SOL    HW1 3032   0.642   1.726   0.602
  711SOL    HW2 3033   0.721   1.865   0.568
  712SOL     OW 3034   5.525   3.740   6.823
  712SOL    HW1 3035   5.429   3.731   6.797
  712SOL    HW2 3036   5.578   3.771   6.744
  713SOL     OW 3037   4.076   3.395   6.077
  713SOL    HW1 3038   4.087   3.310   6.128
  713SOL    HW2 3039   3.984   3.430   6.090
  714SOL     OW 3040   4.749   6.496   3.034
  714SOL    HW1 3041   4.659   6.458   3.014
  714SOL    HW2 3042   4.739   6.588   3.072
  715SOL     OW 3043   5.800   4.958   4.806
  715SOL    HW1 3044   5.875   4.894   4.818
  715SOL    HW2 3045   5.804   5.027   4.879
  716SOL     OW 3046   3.288   2.143   3.745
  716SOL    HW1 3047   3.264   2.239   3.733
  716SOL    HW2 3048   3.262   2.091   3.664
  717SOL     OW 3049   5.091   5.382   3.734
  717SOL    HW1 3050   5.115   5.351   3.642
  717SOL    HW2 3051   5.010   5.333   3.766
  718SOL     OW 3052   6.077   2.041   5.207
  718SOL    HW1 3053   6.103   2.062   5.113
  718SOL    HW2 3054   5.977   2.041   5.215
  719SOL     OW 3055   4.556   6.072   2.929
  719SOL    HW1 3056   4.505   6.033   2.853
  719SOL    HW2 3057   4.500   6.069   3.012
  720SOL     OW 3058   3.171   1.376   1.527
  720SOL    HW1 3059   3.109   1.322   1.584
  720SOL    HW2 3060   3.133   1.468   1.516
  721SOL     OW 3061   6.676   3.035   1.888
  721SOL    HW1 3062   6.622   3.061   1.808
  721SOL    HW2 3063   6.669   2.937   1.903
  722SOL     OW 3064   5.295   6.328   1.462
  722SOL    HW1 3065   5.301   6.350   1.365
  722SOL    HW2 3066   5.292   6.228   1.473
  723SOL     OW 3067   2.267   1.032   4.233
  723SOL    HW1 3068   2.318   0.988   4.159
  723SOL    HW2 3069   2.287   1.130   4.232
  724SOL     OW 3070   1.177   2.681   4.305
  724SOL    HW1 3071   1.125   2.596   4.313
  724SOL    HW2 3072   1.129   2.744   4.244
  725SOL     OW 3073   1.686   4.487   2.840
  725SOL    HW1 3074   1.663   4.546   2.917
  725SOL    HW2 3075   1.609   4.484   2.776
  726SOL     OW 3076   1.996   4.036   0.361
  726SOL    HW1 3077   2.036   3.946   0.380
  726SOL    HW2 3078   1.910   4.025   0.311
  727SOL     OW 3079   3.508   5.274   4.842
  727SOL    HW1 3080   3.502   5.362   4.795
  727SOL    HW2 3081   3.598   5.264   4.885
  728SOL     OW 3082   6.768   3.095   3.801
  728SOL    HW1 3083   6.864   3.110   3.825
  728SOL    HW2 3084   6.721   3.051   3.878
  729SOL     OW 3085   0.712   4.540   0.535
  729SOL    HW1 3086   0.637   4.490   0.580
  729SOL    HW2 3087   0.674   4.599   0.464
  730SOL     OW 3088   4.621   1.655   3.272
  730SOL    HW1 3089   4.601   1.661   3.370
  730SOL    HW2 3090   4.539   1.677   3.220
  731SOL     OW 3091   4.639   4.952   4.550
  731SOL    HW1 3092   4.576   5.026   4.573
  731SOL    HW2 3093   4.711   4.947   4.618
  732SOL     OW 3094   4.062   0.595   4.287
  732SOL    HW1 3095   4.125   0.660   4.329
  732SOL    HW2 3096   4.072   0.506   4.330
  733SOL     OW 3097   6.618   5.081   3.881
  733SOL    HW1 3098   6.556   5.021   3.830
  733SOL    HW2 3099   6.657   5.149   3.820
  734SOL     OW 3100   6.240   6.676   2.882
  734SOL    HW1 3101   6.282   6.586   2.871
  734SOL    HW2 3102   6.186   6.698   2.801
  735SOL     OW 3103   4.001   0.362   2.355
  735SOL    HW1 3104   4.066   0.289   2.334
  735SOL    HW2 3105   3.983   0.415   2.272
  736SOL     OW 3106   1.843   1.779   3.403
  736SOL    HW1 3107   1.790   1.855   3.365
  736SOL    HW2 3108   1.882   1.806   3.491
  737SOL     OW 3109   3.280   0.980   6.104
  737SOL    HW1 3110   3.329   0.893   6.098
  737SOL    HW2 3111   3.188   0.968   6.069
  738SOL     OW 3112   1.783   4.901   0.176
  738SOL    HW1 3113   1.869   4.946   0.200
  738SOL    HW2 3114   1.754   4.931   0.085
  739SOL     OW 3115   1.448   0.367   3.609
  739SOL    HW1 3116   1.366   0.375   3.553
  739SOL    HW2 3117   1.452   0.442   3.675
  740SOL     OW 3118   5.316   3.208   3.179
  740SOL    HW1 3119   5.275   3.297   3.158
  740SOL    HW2 3120   5.415   3.213   3.164
  741SOL     OW 3121   3.074   1.043   2.977
  741SOL    HW1 3122   3.067   1.140   2.954
  741SOL    HW2 3123   3.010   1.021   3.051
  742SOL     OW 3124   1.533   6.829   2.159
  742SOL    HW1 3125   1.487   6.746   2.190
  742SOL    HW2 3126   1.535   6.896   2.234
  743SOL     OW 3127   0.318   6.158   3.088
  743SOL    HW1 3128   0.311   6.168   2.989
  743SOL    HW2 3129   0.296   6.246   3.132
  744SOL     OW 3130   4.727   1.482   0.975
  744SOL    HW1 3131   4.739   1.395   1.022
  744SOL    HW2 3132   4.817   1.521   0.953
  745SOL     OW 3133   1.998   6.728   5.132
  745SOL    HW1 3134   2.015   6.755   5.038
  745SOL    HW2 3135   2.068   6.663   5.161
  746SOL     OW 3136   6.940   5.104   4.845
  746SOL    HW1 3137   6.841   5.100   4.858
  746SOL    HW2 3138   6.964   5.061   4.759
  747SOL     OW 3139   4.441   5.266   2.906
  747SOL    HW1 3140   4.392   5.353   2.903
  747SOL    HW2 3141   4.526   5.273   2.854
  748SOL     OW 3142   6.017   4.504   1.384
  748SOL    HW1 3143   5.986   4.419   1.426
  748SOL    HW2 3144   5.938   4.558   1.354
  749SOL     OW 3145   4.687   4.643   5.349
  749SOL    HW1 3146   4.588   4.633   5.356
  749SOL    HW2 3147   4.731   4.556   5.369
  750SOL     OW 3148   2.367   1.811   3.220
  750SOL    HW1 3149   2.413   1.859   3.145
  750SOL    HW2 3150   2.424   1.814   3.302
  751SOL     OW 3151   3.827   0.786   0.591
  751SOL    HW1 3152   3.926   0.770   0.597
  751SOL    HW2 3153   3.797   0.769   0.497
  752SOL     OW 3154   3.446   2.938   4.906
  752SOL    HW1 3155   3.463   2.937   5.005
  752SOL    HW2 3156   3.423   3.031   4.877
  753SOL     OW 3157   3.648   4.057   3.679
  753SOL    HW1 3158   3.690   4.148   3.671
  753SOL    HW2 3159   3.698   3.992   3.621
  754SOL     OW 3160   5.024   0.045   6.920
  754SOL    HW1 3161   5.013   0.002   7.009
  754SOL    HW2 3162   5.122   0.050   6.898
  755SOL     OW 3163   4.546   4.660   5.072
  755SOL    HW1 3164   4.513   4.633   5.163
  755SOL    HW2 3165   4.479   4.632   5.003
  756SOL     OW 3166   3.183   5.446   6.028
  756SOL    HW1 3167   3.106   5.401   5.982
  756SOL    HW2 3168   3.196   5.537   5.989
  757SOL     OW 3169   1.338   6.992   1.959
  757SOL    HW1 3170   1.274   6.915   1.949
  757SOL    HW2 3171   1.421   6.960   2.004
  758SOL     OW 3172   4.275   1.280   4.110
  758SOL    HW1 3173   4.211   1.238   4.176
  758SOL    HW2 3174   4.284   1.377   4.129
  759SOL     OW 3175   6.991   3.469   4.176
  759SOL    HW1 3176   6.932   3.412   4.233
  759SOL    HW2 3177   6.996   3.430   4.084
  760SOL     OW 3178   6.435   5.697   3.640
  760SOL    HW1 3179   6.344   5.664   3.664
  760SOL    HW2 3180   6.427   5.770   3.572
  761SOL     OW 3181   4.704   4.849   5.916
  761SOL    HW1 3182   4.662   4.938   5.934
  761SOL    HW2 3183   4.740   4.811   6.002
  762SOL     OW 3184   3.562   5.321   4.014
  762SOL    HW1 3185   3.490   5.263   3.977
  762SOL    HW2 3186   3.590   5.286   4.104
  763SOL     OW 3187   5.472   0.663   0.567
  763SOL    HW1 3188   5.432   0.656   0.476
  763SOL    HW2 3189   5.490   0.759   0.588
  764SOL     OW 3190   5.133   6.566   5.367
  764SOL    HW1 3191   5.154   6.500   5.440
  764SOL    HW2 3192   5.207   6.565   5.299
  765SOL     OW 3193   5.580   5.984   0.706
  765SOL    HW1 3194   5.652   5.977   0.636
  765SOL    HW2 3195   5.621   6.009   0.793
  766SOL     OW 3196   2.559   1.940   4.260
  766SOL    HW1 3197   2.491   1.944   4.333
  766SOL    HW2 3198   2.513   1.946   4.171
  767SOL     OW 3199   6.686   6.054   3.672
  767SOL    HW1 3200   6.690   6.022   3.577
  767SOL    HW2 3201   6.687   6.154   3.673
  768SOL     OW 3202   2.156   5.769   2.126
  768SOL    HW1 3203   2.169   5.675   2.094
  768SOL    HW2 3204   2.231   5.826   2.091
  769SOL     OW 3205   3.300   1.868   5.068
  769SOL    HW1 3206   3.358   1.833   4.995
  769SOL    HW2 3207   3.221   1.808   5.079
  770SOL     OW 3208   1.313   5.112   5.520
  770SOL    HW1 3209   1.285   5.097   5.615
  770SOL    HW2 3210   1.237   5.091   5.459
  771SOL     OW 3211   1.297   5.117   2.048
  771SOL    HW1 3212   1.353   5.043   2.085
  771SOL    HW2 3213   1.302   5.196   2.109
  772SOL     OW 3214   5.825   5.080   0.474
  772SOL    HW1 3215   5.873   5.163   0.503
  772SOL    HW2 3216   5.730   5.102   0.452
  773SOL     OW 3217   2.423   4.530   3.784
  773SOL    HW1 3218   2.353   4.506   3.852
  773SOL    HW2 3219   2.420   4.628   3.767
  774SOL     OW 3220   1.942   1.924   3.626
  774SOL    HW1 3221   2.013   1.922   3.697
  774SOL    HW2 3222   1.865   1.979   3.658
  775SOL     OW 3223   1.184   4.074   2.325
  775SOL    HW1 3224   1.167   4.050   2.229
  775SOL    HW2 3225   1.276   4.112   2.334
  776SOL     OW 3226   2.944   4.984   6.265
  776SOL    HW1 3227   3.006   5.002   6.342
  776SOL    HW2 3228   2.994   4.936   6.193
  777SOL     OW 3229   2.073   3.870   6.654
  777SOL    HW1 3230   2.065   3.818   6.569
  777SOL    HW2 3231   1.987   3.863   6.705
  778SOL     OW 3232   3.400   5.674   6.676
  778SOL    HW1 3233   3.367   5.689   6.770
  778SOL    HW2 3234   3.488   5.720   6.664
  779SOL     OW 3235   6.187   1.750   3.088
  779SOL    HW1 3236   6.225   1.725   3.177
  779SOL    HW2 3237   6.196   1.674   3.024
  780SOL     OW 3238   6.675   1.452   4.391
  780SOL    HW1 3239   6.655   1.365   4.345
  780SOL    HW2 3240   6.600   1.516   4.373
  781SOL     OW 3241   0.591   4.506   6.436
  781SOL    HW1 3242   0.662   4.538   6.372
  781SOL    HW2 3243   0.510   4.478   6.385
  782SOL     OW 3244   2.587   4.093   5.313
  782SOL    HW1 3245   2.587   4.033   5.394
  782SOL    HW2 3246   2.515   4.063   5.250
  783SOL     OW 3247   6.725   5.040   6.352
  783SOL    HW1 3248   6.642   5.091   6.374
  783SOL    HW2 3249   6.781   5.093   6.289
  784SOL     OW 3250   2.001   5.539   0.357
  784SOL    HW1 3251   2.074   5.546   0.425
  784SOL    HW2 3252   2.020   5.601   0.281
  785SOL     OW 3253   0.548   0.586   4.630
  785SOL    HW1 3254   0.474   0.609   4.566
  785SOL    HW2 3255   0.509   0.576   4.721
  786SOL     OW 3256   5.879   0.544   4.462
  786SOL    HW1 3257   5.823   0.473   4.504
  786SOL    HW2 3258   5.822   0.601   4.403
  787SOL     OW 3259   1.874   6.499   1.416
  787SOL    HW1 3260   1.893   6.483   1.513
  787SOL    HW2 3261   1.801   6.438   1.386
  788SOL     OW 3262   1.999   2.989   2.270
  788SOL    HW1 3263   1.994   3.042   2.186
  788SOL    HW2 3264   1.906   2.970   2.303
  789SOL     OW 3265   4.195   5.500   2.547
  789SOL    HW1 3266   4.132   5.521   2.472
  789SOL    HW2 3267   4.251   5.421   2.521
  790SOL     OW 3268   0.281   3.242   2.303
  790SOL    HW1 3269   0.347   3.204   2.239
  790SOL    HW2 3270   0.304   3.211   2.396
  791SOL     OW 3271   3.212   0.487   3.620
  791SOL    HW1 3272   3.312   0.480   3.623
  791SOL    HW2 3273   3.175   0.474   3.712
  792SOL     OW 3274   2.574   0.709   1.180
  792SOL    HW1 3275   2.486   0.684   1.221
  792SOL    HW2 3276   2.611   0.630   1.131
  793SOL     OW 3277   2.016   5.740   4.895
  793SOL    HW1 3278   2.093   5.682   4.919
  793SOL    HW2 3279   1.936   5.715   4.950
  794SOL     OW 3280   3.164   3.541   2.783
  794SOL    HW1 3281   3.242   3.485   2.811
  794SOL    HW2 3282   3.137   3.516   2.690
  795SOL     OW 3283   4.792   0.368   5.305
  795SOL    HW1 3284   4.891   0.384   5.312
  795SOL    HW2 3285   4.744   0.456   5.312
  796SOL     OW 3286   1.102   2.066   0.149
  796SOL    HW1 3287   1.187   2.019   0.172
  796SOL    HW2 3288   1.041   2.066   0.228
  797SOL     OW 3289   3.734   6.833   1.337
  797SOL    HW1 3290   3.796   6.794   1.269
  797SOL    HW2 3291   3.641   6.834   1.301
  798SOL     OW 3292   4.967   4.291   1.492
  798SOL    HW1 3293   4.969   4.223   1.566
  798SOL    HW2 3294   4.872   4.307   1.465
  799SOL     OW 3295   2.779   2.375   6.195
  799SOL    HW1 3296   2.817   2.467   6.190
  799SOL    HW2 3297   2.850   2.308   6.172
  800SOL     OW 3298   5.304   2.889   3.053
  800SOL    HW1 3299   5.300   2.843   3.142
  800SOL    HW2 3300   5.219   2.939   3.038
  801SOL     OW 3301   1.881   5.687   6.616
  801SOL    HW1 3302   1.885   5.640   6.704
  801SOL    HW2 3303   1.950   5.759   6.614
  802SOL     OW 3304   4.286   2.539   6.194
  802SOL    HW1 3305   4.212   2.556   6.129
  802SOL    HW2 3306   4.247   2.504   6.280
  803SOL     OW 3307   2.295   2.423   3.825
  803SOL    HW1 3308   2.392   2.402   3.818
  803SOL    HW2 3309   2.265   2.412   3.919
  804SOL     OW 3310   4.940   0.398   2.866
  804SOL    HW1 3311   4.849   0.428   2.837
  804SOL    HW2 3312   4.939   0.299   2.882
  805SOL     OW 3313   3.632   1.179   4.008
  805SOL    HW1 3314   3.559   1.171   4.077
  805SOL    HW2 3315   3.600   1.237   3.933
  806SOL     OW 3316   3.322   6.140   5.969
  806SOL    HW1 3317   3.328   6.239   5.960
  806SOL    HW2 3318   3.278   6.102   5.888
  807SOL     OW 3319   1.146   6.173   6.244
  807SOL    HW1 3320   1.146   6.229   6.327
  807SOL    HW2 3321   1.103   6.223   6.170
  808SOL     OW 3322   5.359   2.706   5.914
  808SOL    HW1 3323   5.361   2.607   5.898
  808SOL    HW2 3324   5.285   2.727   5.978
  809SOL     OW 3325   3.138   6.439   6.720
  809SOL    HW1 3326   3.116   6.519   6.664
  809SOL    HW2 3327   3.219   6.457   6.775
  810SOL     OW 3328   3.626   3.924   0.134
  810SOL    HW1 3329   3.624   3.900   0.231
  810SOL    HW2 3330   3.536   3.960   0.107
  811SOL     OW 3331   5.372   5.519   4.035
  811SOL    HW1 3332   5.432   5.596   4.058
  811SOL    HW2 3333   5.313   5.499   4.112
  812SOL     OW 3334   0.818   3.783   1.542
  812SOL    HW1 3335   0.803   3.790   1.444
  812SOL    HW2 3336   0.742   3.733   1.584
  813SOL     OW 3337   2.819   1.742   4.804
  813SOL    HW1 3338   2.882   1.752   4.728
  813SOL    HW2 3339   2.787   1.647   4.809
  814SOL     OW 3340   0.119   4.831   1.513
  814SOL    HW1 3341   0.076   4.855   1.600
  814SOL    HW2 3342   0.126   4.732   1.505
  815SOL     OW 3343   4.834   2.146   3.975
  815SOL    HW1 3344   4.754   2.129   4.033
  815SOL    HW2 3345   4.847   2.069   3.913
  816SOL     OW 3346   5.196   3.771   6.266
  816SOL    HW1 3347   5.111   3.822   6.280
  816SOL    HW2 3348   5.200   3.696   6.333
  817SOL     OW 3349   0.074   4.888   6.375
  817SOL    HW1 3350   0.015   4.807   6.368
  817SOL    HW2 3351   0.073   4.923   6.469
  818SOL     OW 3352   6.962   1.408   5.025
  818SOL    HW1 3353   0.036   1.380   5.037
  818SOL    HW2 3354   6.955   1.508   5.035
  819SOL     OW 3355   5.645   3.246   1.356
  819SOL    HW1 3356   5.604   3.166   1.311
  819SOL    HW2 3357   5.609   3.254   1.449
  820SOL     OW 3358   2.624   1.905   5.059
  820SOL    HW1 3359   2.705   1.849   5.078
  820SOL    HW2 3360   2.608   1.908   4.960
  821SOL     OW 3361   4.690   3.863   6.908
  821SOL    HW1 3362   4.590   3.864   6.917
  821SOL    HW2 3363   4.719   3.782   6.857
  822SOL     OW 3364   0.238   5.029   3.770
  822SOL    HW1 3365   0.236   4.946   3.826
  822SOL    HW2 3366   0.208   5.007   3.677
  823SOL     OW 3367   1.959   2.774   4.361
  823SOL    HW1 3368   2.031   2.777   4.431
  823SOL    HW2 3369   1.897   2.851   4.374
  824SOL     OW 3370   5.082   0.538   6.737
  824SOL    HW1 3371   5.077   0.597   6.818
  824SOL    HW2 3372   4.993   0.537   6.691
  825SOL     OW 3373   6.213   5.774   0.610
  825SOL    HW1 3374   6.268   5.701   0.650
  825SOL    HW2 3375   6.256   5.804   0.525
  826SOL     OW 3376   3.935   1.907   0.378
  826SOL    HW1 3377   3.879   1.931   0.298
  826SOL    HW2 3378   3.975   1.990   0.417
  827SOL     OW 3379   3.631   3.731   4.819
  827SOL    HW1 3380   3.629   3.696   4.725
  827SOL    HW2 3381   3.723   3.765   4.839
  828SOL     OW 3382   0.733   6.395   6.608
  828SOL    HW1 3383   0.714   6.491   6.588
  828SOL    HW2 3384   0.812   6.389   6.670
  829SOL     OW 3385   3.834   3.378   1.740
  829SOL    HW1 3386   3.744   3.382   1.784
  829SOL    HW2 3387   3.832   3.433   1.656
  830SOL     OW 3388   6.609   4.391   6.039
  830SOL    HW1 3389   6.637   4.481   6.072
  830SOL    HW2 3390   6.686   4.348   5.992
  831SOL     OW 3391   5.790   1.284   3.218
  831SOL    HW1 3392   5.881   1.245   3.201
  831SOL    HW2 3393   5.787   1.378   3.183
  832SOL     OW 3394   3.338   1.860   4.399
  832SOL    HW1 3395   3.334   1.959   4.414
  832SOL    HW2 3396   3.427   1.835   4.361
  833SOL     OW 3397   3.975   3.033   0.294
  833SOL    HW1 3398   3.958   2.944   0.338
  833SOL    HW2 3399   3.931   3.105   0.347
  834SOL     OW 3400   5.300   2.868   0.153
  834SOL    HW1 3401   5.264   2.793   0.098
  834SOL    HW2 3402   5.226   2.909   0.206
  835SOL     OW 3403   6.913   0.079   4.760
  835SOL    HW1 3404   6.862   0.039   4.684
  835SOL    HW2 3405   6.850   0.097   4.836
  836SOL     OW 3406   5.514   0.179   3.932
  836SOL    HW1 3407   5.492   0.106   3.867
  836SOL    HW2 3408   5.430   0.209   3.978
  837SOL     OW 3409   1.717   0.322   6.889
  837SOL    HW1 3410   1.814   0.308   6.869
  837SOL    HW2 3411   1.697   0.420   6.889
  838SOL     OW 3412   2.255   5.403   3.718
  838SOL    HW1 3413   2.263   5.332   3.788
  838SOL    HW2 3414   2.231   5.490   3.761
  839SOL     OW 3415   1.495   2.331   0.225
  839SOL    HW1 3416   1.512   2.421   0.185
  839SOL    HW2 3417   1.428   2.340   0.299
  840SOL     OW 3418   3.858   5.341   0.642
  840SOL    HW1 3419   3.843   5.248   0.674
  840SOL    HW2 3420   3.781   5.399   0.671
  841SOL     OW 3421   2.668   5.541   6.663
  841SOL    HW1 3422   2.571   5.558   6.646
  841SOL    HW2 3423   2.702   5.474   6.597
  842SOL     OW 3424   4.584   6.517   0.666
  842SOL    HW1 3425   4.606   6.422   0.691
  842SOL    HW2 3426   4.648   6.549   0.596
  843SOL     OW 3427   1.497   0.603   1.930
  843SOL    HW1 3428   1.414   0.559   1.895
  843SOL    HW2 3429   1.503   0.587   2.029
  844SOL     OW 3430   7.009   7.014   1.308
  844SOL    HW1 3431   6.917   6.997   1.271
  844SOL    HW2 3432   0.032   6.927   1.330
  845SOL     OW 3433   3.814   1.569   2.142
  845SOL    HW1 3434   3.797   1.484   2.093
  845SOL    HW2 3435   3.775   1.646   2.090
  846SOL     OW 3436   1.908   1.913   0.838
  846SOL    HW1 3437   2.005   1.909   0.864
  846SOL    HW2 3438   1.853   1.926   0.921
  847SOL     OW 3439   2.519   3.366   1.487
  847SOL    HW1 3440   2.518   3.419   1.572
  847SOL    HW2 3441   2.453   3.406   1.423
  848SOL     OW 3442   6.595   6.033   0.216
  848SOL    HW1 3443   6.521   6.070   0.159
  848SOL    HW2 3444   6.619   6.099   0.287
  849SOL     OW 3445   5.693   2.900   6.649
  849SOL    HW1 3446   5.676   2.810   6.690
  849SOL    HW2 3447   5.628   2.966   6.686
  850SOL     OW 3448   1.682   1.015   4.456
  850SOL    HW1 3449   1.777   1.034   4.482
  850SOL    HW2 3450   1.634   0.973   4.533
  851SOL     OW 3451   5.086   2.495   6.264
  851SOL    HW1 3452   5.005   2.509   6.207
  851SOL    HW2 3453   5.113   2.399   6.261
  852SOL     OW 3454   6.518   4.979   1.913
  852SOL    HW1 3455   6.504   4.883   1.938
  852SOL    HW2 3456   6.611   4.991   1.879
  853SOL     OW 3457   2.929   3.227   0.412
  853SOL    HW1 3458   2.887   3.315   0.387
  853SOL    HW2 3459   3.009   3.244   0.469
  854SOL     OW 3460   6.777   7.013   5.249
  854SOL    HW1 3461   6.840   0.065   5.273
  854SOL    HW2 3462   6.805   6.928   5.295
  855SOL     OW 3463   4.677   2.334   0.454
  855SOL    HW1 3464   4.743   2.297   0.519
  855SOL    HW2 3465   4.680   2.434   0.457
  856SOL     OW 3466   1.925   5.436   1.856
  856SOL    HW1 3467   1.910   5.387   1.770
  856SOL    HW2 3468   1.857   5.508   1.865
  857SOL     OW 3469   6.537   5.676   4.725
  857SOL    HW1 3470   6.567   5.659   4.631
  857SOL    HW2 3471   6.573   5.764   4.756
  858SOL     OW 3472   4.219   4.104   0.011
  858SOL    HW1 3473   4.168   4.069   6.953
  858SOL    HW2 3474   4.308   4.138   7.002
  859SOL     OW 3475   5.170   5.364   5.183
  859SOL    HW1 3476   5.111   5.406   5.252
  859SOL    HW2 3477   5.256   5.335   5.226
  860SOL     OW 3478   4.515   3.043   5.602
  860SOL    HW1 3479   4.543   2.996   5.685
  860SOL    HW2 3480   4.530   3.142   5.613
  861SOL     OW 3481   1.255   5.484   2.696
  861SOL    HW1 3482   1.294   5.401   2.735
  861SOL    HW2 3483   1.301   5.505   2.610
  862SOL     OW 3484   1.071   4.307   3.704
  862SOL    HW1 3485   0.981   4.326   3.742
  862SOL    HW2 3486   1.109   4.391   3.665
  863SOL     OW 3487   6.180   0.565   1.508
  863SOL    HW1 3488   6.083   0.557   1.483
  863SOL    HW2 3489   6.189   0.629   1.584
  864SOL     OW 3490   5.966   6.136   2.696
  864SOL    HW1 3491   5.866   6.138   2.687
  864SOL    HW2 3492   5.992   6.067   2.763
  865SOL     OW 3493   1.458   5.359   4.715
  865SOL    HW1 3494   1.365   5.394   4.699
  865SOL    HW2 3495   1.453   5.283   4.779
  866SOL     OW 3496   3.372   0.283   1.698
  866SOL    HW1 3497   3.405   0.329   1.615
  866SOL    HW2 3498   3.285   0.238   1.679
  867SOL     OW 3499   6.100   3.508   5.647
  867SOL    HW1 3500   6.019   3.510   5.706
  867SOL    HW2 3501   6.074   3.533   5.554
  868SOL     OW 3502   0.621   1.983   2.001
  868SOL    HW1 3503   0.566   2.006   2.081
  868SOL    HW2 3504   0.651   2.067   1.957
  869SOL     OW 3505   6.952   3.580   2.951
  869SOL    HW1 3506   0.012   3.548   3.000
  869SOL    HW2 3507   6.913   3.504   2.898
  870SOL     OW 3508   3.677   5.105   2.178
  870SOL    HW1 3509   3.613   5.034   2.207
  870SOL    HW2 3510   3.702   5.091   2.082
  871SOL     OW 3511   5.136   1.915   4.066
  871SOL    HW1 3512   5.200   1.867   4.126
  871SOL    HW2 3513   5.119   2.007   4.102
  872SOL     OW 3514   1.391   1.916   4.950
  872SOL    HW1 3515   1.452   1.860   4.894
  872SOL    HW2 3516   1.443   1.963   5.021
  873SOL     OW 3517   4.028   0.276   6.594
  873SOL    HW1 3518   4.025   0.374   6.575
  873SOL    HW2 3519   4.123   0.245   6.593
  874SOL     OW 3520   5.860   3.855   1.708
  874SOL    HW1 3521   5.875   3.929   1.773
  874SOL    HW2 3522   5.919   3.777   1.731
  875SOL     OW 3523   5.076   5.804   2.066
  875SOL    HW1 3524   5.014   5.880   2.084
  875SOL    HW2 3525   5.170   5.835   2.071
  876SOL     OW 3526   5.449   0.494   6.740
  876SOL    HW1 3527   5.405   0.522   6.655
  876SOL    HW2 3528   5.434   0.396   6.755
  877SOL     OW 3529   1.100   3.331   6.854
  877SOL    HW1 3530   1.057   3.415   6.885
  877SOL    HW2 3531   1.148   3.287   6.931
  878SOL     OW 3532   3.769   6.520   4.257
  878SOL    HW1 3533   3.780   6.593   4.325
  878SOL    HW2 3534   3.708   6.450   4.293
  879SOL     OW 3535   5.704   6.820   6.726
  879SOL    HW1 3536   5.736   6.725   6.715
  879SOL    HW2 3537   5.767   6.882   6.680
  880SOL     OW 3538   2.861   3.459   3.140
  880SOL    HW1 3539   2.914   3.527   3.090
  880SOL    HW2 3540   2.764   3.486   3.141
  881SOL     OW 3541   4.297   2.048   0.620
  881SOL    HW1 3542   4.386   2.085   0.594
  881SOL    HW2 3543   4.299   2.024   0.717
  882SOL     OW 3544   1.879   3.117   3.199
  882SOL    HW1 3545   1.909   3.027   3.171
  882SOL    HW2 3546   1.799   3.144   3.145
  883SOL     OW 3547   2.319   6.969   3.184
  883SOL    HW1 3548   2.305   0.017   3.113
  883SOL    HW2 3549   2.327   6.879   3.142
  884SOL     OW 3550   2.688   3.641   5.946
  884SOL    HW1 3551   2.691   3.568   5.878
  884SOL    HW2 3552   2.750   3.619   6.022
  885SOL     OW 3553   4.535   2.634   6.293
  885SOL    HW1 3554   4.602   2.574   6.250
  885SOL    HW2 3555   4.443   2.596   6.280
  886SOL     OW 3556   3.776   1.437   6.601
  886SOL    HW1 3557   3.766   1.536   6.600
  886SOL    HW2 3558   3.710   1.396   6.539
  887SOL     OW 3559   5.213   1.163   5.223
  887SOL    HW1 3560   5.133   1.219   5.201
  887SOL    HW2 3561   5.288   1.222   5.251
  888SOL     OW 3562   6.900   6.309   1.896
  888SOL    HW1 3563   6.942   6.220   1.878
  888SOL    HW2 3564   6.949   6.356   1.970
  889SOL     OW 3565   0.247   3.059   0.064
  889SOL    HW1 3566   0.237   3.158   0.065
  889SOL    HW2 3567   0.159   3.017   0.086
  890SOL     OW 3568   2.463   6.286   4.320
  890SOL    HW1 3569   2.445   6.383   4.335
  890SOL    HW2 3570   2.379   6.234   4.337
  891SOL     OW 3571   5.340   4.870   2.428
  891SOL    HW1 3572   5.405   4.946   2.418
  891SOL    HW2 3573   5.388   4.791   2.466
  892SOL     OW 3574   2.385   4.949   0.764
  892SOL    HW1 3575   2.352   4.856   0.777
  892SOL    HW2 3576   2.364   4.980   0.672
  893SOL     OW 3577   1.064   5.099   2.708
  893SOL    HW1 3578   1.025   5.180   2.751
  893SOL    HW2 3579   1.119   5.049   2.774
  894SOL     OW 3580   1.192   4.389   0.711
  894SOL    HW1 3581   1.282   4.405   0.750
  894SOL    HW2 3582   1.131   4.352   0.782
  895SOL     OW 3583   6.803   5.523   4.289
  895SOL    HW1 3584   6.846   5.575   4.216
  895SOL    HW2 3585   6.800   5.426   4.265
  896SOL     OW 3586   0.993   0.803   6.475
  896SOL    HW1 3587   1.035   0.870   6.536
  896SOL    HW2 3588   0.894   0.805   6.486
  897SOL     OW 3589   4.626   1.157   0.488
  897SOL    HW1 3590   4.645   1.131   0.582
  897SOL    HW2 3591   4.585   1.079   0.440
  898SOL     OW 3592   4.041   0.826   2.965
  898SOL    HW1 3593   4.028   0.744   3.021
  898SOL    HW2 3594   4.124   0.815   2.909
  899SOL     OW 3595   6.707   5.791   0.124
  899SOL    HW1 3596   6.804   5.801   0.149
  899SOL    HW2 3597   6.658   5.874   0.151
  900SOL     OW 3598   5.340   5.157   0.944
  900SOL    HW1 3599   5.393   5.193   0.867
  900SOL    HW2 3600   5.245   5.188   0.937
  901SOL     OW 3601   1.422   0.144   2.872
  901SOL    HW1 3602   1.386   0.234   2.895
  901SOL    HW2 3603   1.399   0.080   2.946
  902SOL     OW 3604   6.520   2.799   1.667
  902SOL    HW1 3605   6.521   2.829   1.571
  902SOL    HW2 3606   6.609   2.761   1.691
  903SOL     OW 3607   0.130   1.423   0.835
  903SOL    HW1 3608   0.139   1.519   0.860
  903SOL    HW2 3609   0.042   1.389   0.865
  904SOL     OW 3610   2.372   0.895   2.880
  904SOL    HW1 3611   2.384   0.995   2.881
  904SOL    HW2 3612   2.455   0.853   2.843
  905SOL     OW 3613   5.830   2.002   6.651
  905SOL    HW1 3614   5.874   2.071   6.594
  905SOL    HW2 3615   5.749   1.966   6.605
  906SOL     OW 3616   5.167   2.750   6.953
  906SOL    HW1 3617   5.236   2.708   6.895
  906SOL    HW2 3618   5.083   2.694   6.951
  907SOL     OW 3619   5.381   4.490   6.686
  907SOL    HW1 3620   5.474   4.521   6.670
  907SOL    HW2 3621   5.326   4.504   6.603
  908SOL     OW 3622   1.309   4.337   2.762
  908SOL    HW1 3623   1.274   4.385   2.842
  908SOL    HW2 3624   1.300   4.239   2.775
  909SOL     OW 3625   5.106   5.656   6.061
  909SOL    HW1 3626   5.178   5.667   5.992
  909SOL    HW2 3627   5.147   5.655   6.152
  910SOL     OW 3628   2.744   4.680   0.443
  910SOL    HW1 3629   2.694   4.642   0.521
  910SOL    HW2 3630   2.790   4.606   0.394
  911SOL     OW 3631   1.173   4.614   5.829
  911SOL    HW1 3632   1.138   4.590   5.919
  911SOL    HW2 3633   1.200   4.710   5.828
  912SOL     OW 3634   4.854   1.677   4.712
  912SOL    HW1 3635   4.803   1.593   4.734
  912SOL    HW2 3636   4.934   1.683   4.771
  913SOL     OW 3637   5.123   6.391   2.692
  913SOL    HW1 3638   5.181   6.466   2.723
  913SOL    HW2 3639   5.060   6.365   2.765
  914SOL     OW 3640   3.455   6.568   6.352
  914SOL    HW1 3641   3.486   6.627   6.427
  914SOL    HW2 3642   3.468   6.615   6.265
  915SOL     OW 3643   4.944   5.926   1.455
  915SOL    HW1 3644   4.961   5.941   1.552
  915SOL    HW2 3645   5.027   5.891   1.412
  916SOL     OW 3646   1.527   3.164   2.660
  916SOL    HW1 3647   1.490   3.071   2.652
  916SOL    HW2 3648   1.461   3.230   2.626
  917SOL     OW 3649   0.418   6.843   6.750
  917SOL    HW1 3650   0.320   6.832   6.769
  917SOL    HW2 3651   0.470   6.816   6.830
  918SOL     OW 3652   3.259   6.449   0.110
  918SOL    HW1 3653   3.255   6.536   0.059
  918SOL    HW2 3654   3.260   6.468   0.208
  919SOL     OW 3655   4.864   1.259   5.780
  919SOL    HW1 3656   4.804   1.192   5.736
  919SOL    HW2 3657   4.849   1.349   5.740
  920SOL     OW 3658   3.003   5.207   1.958
  920SOL    HW1 3659   2.954   5.134   1.910
  920SOL    HW2 3660   3.101   5.187   1.958
  921SOL     OW 3661   5.121   5.328   4.907
  921SOL    HW1 3662   5.040   5.270   4.899
  921SOL    HW2 3663   5.136   5.351   5.003
  922SOL     OW 3664   3.188   3.035   3.767
  922SOL    HW1 3665   3.184   3.011   3.864
  922SOL    HW2 3666   3.271   2.996   3.727
  923SOL     OW 3667   2.335   3.468   5.627
  923SOL    HW1 3668   2.393   3.497   5.551
  923SOL    HW2 3669   2.365   3.515   5.711
  924SOL     OW 3670   0.140   3.185   1.553
  924SOL    HW1 3671   0.081   3.256   1.516
  924SOL    HW2 3672   0.230   3.223   1.572
  925SOL     OW 3673   0.748   1.698   0.288
  925SOL    HW1 3674   0.764   1.599   0.292
  925SOL    HW2 3675   0.721   1.731   0.378
  926SOL     OW 3676   2.017   1.756   1.738
  926SOL    HW1 3677   2.116   1.769   1.741
  926SOL    HW2 3678   1.993   1.702   1.657
  927SOL     OW 3679   0.033   3.962   4.134
  927SOL    HW1 3680   7.020   4.041   4.085
  927SOL    HW2 3681   0.033   3.882   4.075
  928SOL     OW 3682   3.329   4.742   6.063
  928SOL    HW1 3683   3.322   4.736   5.964
  928SOL    HW2 3684   3.323   4.650   6.102
  929SOL     OW 3685   0.567   1.767   4.124
  929SOL    HW1 3686   0.479   1.722   4.135
  929SOL    HW2 3687   0.554   1.860   4.091
  930SOL     OW 3688   5.483   5.456   4.393
  930SOL    HW1 3689   5.544   5.450   4.314
  930SOL    HW2 3690   5.415   5.528   4.377
  931SOL     OW 3691   6.220   0.796   3.399
  931SOL    HW1 3692   6.177   0.709   3.426
  931SOL    HW2 3693   6.318   0.792   3.419
  932SOL     OW 3694   3.707   0.575   3.821
  932SOL    HW1 3695   3.674   0.504   3.758
  932SOL    HW2 3696   3.642   0.650   3.824
  933SOL     OW 3697   1.482   5.695   1.899
  933SOL    HW1 3698   1.428   5.612   1.883
  933SOL    HW2 3699   1.537   5.715   1.818
  934SOL     OW 3700   1.791   3.404   0.733
  934SOL    HW1 3701   1.746   3.411   0.823
  934SOL    HW2 3702   1.881   3.364   0.745
  935SOL     OW 3703   5.828   2.826   5.434
  935SOL    HW1 3704   5.780   2.913   5.424
  935SOL    HW2 3705   5.905   2.823   5.370
  936SOL     OW 3706   2.020   0.706   6.111
  936SOL    HW1 3707   2.079   0.641   6.064
  936SOL    HW2 3708   2.075   0.781   6.149
  937SOL     OW 3709   3.426   2.048   5.948
  937SOL    HW1 3710   3.409   1.979   5.877
  937SOL    HW2 3711   3.519   2.082   5.939
  938SOL     OW 3712   5.209   6.056   4.490
  938SOL    HW1 3713   5.173   6.144   4.523
  938SOL    HW2 3714   5.302   6.070   4.454
  939SOL     OW 3715   1.347   0.193   5.642
  939SOL    HW1 3716   1.408   0.243   5.704
  939SOL    HW2 3717   1.329   0.102   5.679
  940SOL     OW 3718   1.549   5.133   0.796
  940SOL    HW1 3719   1.607   5.206   0.760
  940SOL    HW2 3720   1.573   5.117   0.892
  941SOL     OW 3721   3.698   7.011   0.975
  941SOL    HW1 3722   3.709   0.041   0.890
  941SOL    HW2 3723   3.783   7.012   1.027
  942SOL     OW 3724   6.434   4.530   0.034
  942SOL    HW1 3725   6.488   4.563   6.977
  942SOL    HW2 3726   6.357   4.476   7.021
  943SOL     OW 3727   3.901   5.781   1.108
  943SOL    HW1 3728   3.914   5.705   1.044
  943SOL    HW2 3729   3.816   5.768   1.159
  944SOL     OW 3730   6.723   6.166   3.280
  944SOL    HW1 3731   6.636   6.213   3.269
  944SOL    HW2 3732   6.709   6.084   3.336
  945SOL     OW 3733   0.415   5.457   6.243
  945SOL    HW1 3734   0.432   5.388   6.173
  945SOL    HW2 3735   0.464   5.541   6.219
  946SOL     OW 3736   6.061   2.451   4.124
  946SOL    HW1 3737   6.020   2.533   4.164
  946SOL    HW2 3738   6.064   2.460   4.024
  947SOL     OW 3739   3.897   4.022   3.294
  947SOL    HW1 3740   3.995   4.009   3.310
  947SOL    HW2 3741   3.877   4.010   3.196
  948SOL     OW 3742   3.314   1.096   3.716
  948SOL    HW1 3743   3.225   1.136   3.737
  948SOL    HW2 3744   3.377   1.167   3.685
  949SOL     OW 3745   2.909   0.291   5.785
  949SOL    HW1 3746   2.984   0.301   5.850
  949SOL    HW2 3747   2.905   0.372   5.726
  950SOL     OW 3748   0.048   0.272   2.151
  950SOL    HW1 3749   0.015   0.208   2.082
  950SOL    HW2 3750   0.127   0.233   2.199
  951SOL     OW 3751   1.384   0.156   3.350
  951SOL    HW1 3752   1.443   0.114   3.419
  951SOL    HW2 3753   1.302   0.192   3.395
  952SOL     OW 3754   3.860   1.745   3.524
  952SOL    HW1 3755   3.955   1.770   3.506
  952SOL    HW2 3756   3.831   1.785   3.611
  953SOL     OW 3757   0.547   5.106   5.807
  953SOL    HW1 3758   0.583   5.023   5.763
  953SOL    HW2 3759   0.604   5.184   5.782
  954SOL     OW 3760   4.832   6.931   2.415
  954SOL    HW1 3761   4.750   6.938   2.472
  954SOL    HW2 3762   4.851   6.834   2.397
  955SOL     OW 3763   2.342   5.496   1.184
  955SOL    HW1 3764   2.267   5.563   1.181
  955SOL    HW2 3765   2.428   5.542   1.163
  956SOL     OW 3766   4.095   0.593   1.183
  956SOL    HW1 3767   4.189   0.602   1.217
  956SOL    HW2 3768   4.076   0.497   1.163
  957SOL     OW 3769   5.811   6.812   3.015
  957SOL    HW1 3770   5.830   6.906   3.043
  957SOL    HW2 3771   5.740   6.813   2.944
  958SOL     OW 3772   5.079   6.326   1.640
  958SOL    HW1 3773   5.140   6.335   1.561
  958SOL    HW2 3774   5.130   6.289   1.717
  959SOL     OW 3775   5.191   0.270   3.307
  959SOL    HW1 3776   5.274   0.245   3.357
  959SOL    HW2 3777   5.132   0.326   3.365
  960SOL     OW 3778   1.773   6.483   6.152
  960SOL    HW1 3779   1.863   6.524   6.170
  960SOL    HW2 3780   1.762   6.401   6.208
  961SOL     OW 3781   3.861   1.294   3.167
  961SOL    HW1 3782   3.958   1.314   3.170
  961SOL    HW2 3783   3.831   1.258   3.255
  962SOL     OW 3784   7.001   0.354   4.895
  962SOL    HW1 3785   0.002   0.398   4.983
  962SOL    HW2 3786   6.903   0.337   4.890
  963SOL     OW 3787   5.852   2.884   1.186
  963SOL    HW1 3788   5.828   2.843   1.274
  963SOL    HW2 3789   5.835   2.983   1.189
  964SOL     OW 3790   3.652   6.440   4.971
  964SOL    HW1 3791   3.699   6.352   4.983
  964SOL    HW2 3792   3.702   6.511   5.019
  965SOL     OW 3793   5.251   2.546   4.010
  965SOL    HW1 3794   5.200   2.525   4.094
  965SOL    HW2 3795   5.190   2.588   3.943
  966SOL     OW 3796   5.288   1.341   4.363
  966SOL    HW1 3797   5.227   1.402   4.413
  966SOL    HW2 3798   5.263   1.246   4.381
  967SOL     OW 3799   4.182   5.394   6.506
  967SOL    HW1 3800   4.216   5.367   6.416
  967SOL    HW2 3801   4.259   5.421   6.564
  968SOL     OW 3802   3.726   0.475   1.160
  968SOL    HW1 3803   3.671   0.395   1.139
  968SOL    HW2 3804   3.784   0.497   1.082
  969SOL     OW 3805   2.812   3.753   6.433
  969SOL    HW1 3806   2.853   3.844   6.440
  969SOL    HW2 3807   2.768   3.729   6.519
  970SOL     OW 3808   5.216   6.835   5.404
  970SOL    HW1 3809   5.212   6.862   5.308
  970SOL    HW2 3810   5.209   6.736   5.410
  971SOL     OW 3811   5.142   3.550   3.628
  971SOL    HW1 3812   5.215   3.609   3.594
  971SOL    HW2 3813   5.059   3.604   3.645
  972SOL     OW 3814   0.345   2.359   0.668
  972SOL    HW1 3815   0.274   2.428   0.659
  972SOL    HW2 3816   0.435   2.402   0.664
  973SOL     OW 3817   0.184   2.593   4.875
  973SOL    HW1 3818   0.216   2.512   4.923
  973SOL    HW2 3819   0.233   2.603   4.788
  974SOL     OW 3820   0.891   3.999   2.186
  974SOL    HW1 3821   0.939   3.911   2.191
  974SOL    HW2 3822   0.921   4.049   2.105
  975SOL     OW 3823   2.977   0.320   2.634
  975SOL    HW1 3824   2.953   0.288   2.542
  975SOL    HW2 3825   3.073   0.347   2.636
  976SOL     OW 3826   0.284   3.133   3.832
  976SOL    HW1 3827   0.261   3.037   3.850
  976SOL    HW2 3828   0.378   3.151   3.860
  977SOL     OW 3829   6.294   1.454   2.153
  977SOL    HW1 3830   6.246   1.375   2.191
  977SOL    HW2 3831   6.336   1.429   2.066
  978SOL     OW 3832   4.883   2.968   0.474
  978SOL    HW1 3833   4.930   3.055   0.487
  978SOL    HW2 3834   4.879   2.919   0.561
  979SOL     OW 3835   0.356   4.655   6.545
  979SOL    HW1 3836   0.441   4.611   6.517
  979SOL    HW2 3837   0.362   4.753   6.526
  980SOL     OW 3838   4.436   1.219   4.483
  980SOL    HW1 3839   4.361   1.284   4.468
  980SOL    HW2 3840   4.523   1.263   4.462
  981SOL     OW 3841   0.925   6.355   5.372
  981SOL    HW1 3842   0.991   6.374   5.444
  981SOL    HW2 3843   0.860   6.430   5.364
  982SOL     OW 3844   0.145   1.097   6.695
  982SOL    HW1 3845   0.131   1.027   6.766
  982SOL    HW2 3846   0.153   1.187   6.738
  983SOL     OW 3847   0.531   3.869   3.064
  983SOL    HW1 3848   0.449   3.884   3.119
  983SOL    HW2 3849   0.506   3.823   2.979
  984SOL     OW 3850   0.589   3.703   3.943
  984SOL    HW1 3851   0.512   3.712   3.880
  984SOL    HW2 3852   0.672   3.685   3.891
  985SOL     OW 3853   5.971   5.930   5.152
  985SOL    HW1 3854   5.921   6.015   5.138
  985SOL    HW2 3855   5.952   5.867   5.076
  986SOL     OW 3856   4.328   5.165   1.138
  986SOL    HW1 3857   4.268   5.096   1.181
  986SOL    HW2 3858   4.413   5.121   1.109
  987SOL     OW 3859   4.785   4.664   4.929
  987SOL    HW1 3860   4.715   4.611   4.976
  987SOL    HW2 3861   4.789   4.635   4.833
  988SOL     OW 3862   2.987   4.763   2.114
  988SOL    HW1 3863   3.072   4.710   2.125
  988SOL    HW2 3864   2.930   4.720   2.045
  989SOL     OW 3865   0.317   3.000   1.064
  989SOL    HW1 3866   0.370   2.918   1.084
  989SOL    HW2 3867   0.377   3.070   1.025
  990SOL     OW 3868   3.789   0.217   5.028
  990SOL    HW1 3869   3.725   0.214   4.951
  990SOL    HW2 3870   3.822   0.124   5.048
  991SOL     OW 3871   1.102   5.770   4.309
  991SOL    HW1 3872   1.101   5.742   4.405
  991SOL    HW2 3873   1.148   5.701   4.254
  992SOL     OW 3874   6.728   2.461   0.195
  992SOL    HW1 3875   6.709   2.527   0.122
  992SOL    HW2 3876   6.684   2.374   0.174
  993SOL     OW 3877   1.781   4.296   0.139
  993SOL    HW1 3878   1.879   4.291   0.159
  993SOL    HW2 3879   1.767   4.301   0.040
  994SOL     OW 3880   2.926   0.112   1.365
  994SOL    HW1 3881   2.883   0.092   1.277
  994SOL    HW2 3882   2.924   0.210   1.382
  995SOL     OW 3883   6.181   3.855   5.390
  995SOL    HW1 3884   6.226   3.850   5.479
  995SOL    HW2 3885   6.200   3.771   5.338
  996SOL     OW 3886   4.257   6.381   4.986
  996SOL    HW1 3887   4.347   6.423   5.004
  996SOL    HW2 3888   4.194   6.407   5.059
  997SOL     OW 3889   1.684   5.960   3.338
  997SOL    HW1 3890   1.767   6.001   3.374
  997SOL    HW2 3891   1.604   6.009   3.374
  998SOL     OW 3892   4.459   0.372   6.800
  998SOL    HW1 3893   4.374   0.352   6.848
  998SOL    HW2 3894   4.438   0.396   6.705
  999SOL     OW 3895   5.385   2.823   2.774
  999SOL    HW1 3896   5.357   2.873   2.856
  999SOL    HW2 3897   5.484   2.816   2.771
 1000SOL     OW 3898   5.119   1.496   2.089
 1000SOL    HW1 3899   5.057   1.419   2.104
 1000SOL    HW2 3900   5.080   1.558   2.021
 1001SOL     OW 3901   2.668   6.559   2.986
 1001SOL    HW1 3902   2.606   6.629   2.950
 1001SOL    HW2 3903   2.757   6.599   3.005
 1002SOL     OW 3904   4.157   2.687   1.012
 1002SOL    HW1 3905   4.223   2.625   1.057
 1002SOL    HW2 3906   4.095   2.633   0.956
 1003SOL     OW 3907   0.932   0.409   2.993
 1003SOL    HW1 3908   0.867   0.335   2.976
 1003SOL    HW2 3909   0.901   0.492   2.946
 1004SOL     OW 3910   5.149   1.501   4.557
 1004SOL    HW1 3911   5.247   1.518   4.569
 1004SOL    HW2 3912   5.117   1.439   4.628
 1005SOL     OW 3913   0.675   5.037   1.791
 1005SOL    HW1 3914   0.604   4.968   1.773
 1005SOL    HW2 3915   0.765   4.997   1.770
 1006SOL     OW 3916   2.038   4.272   2.051
 1006SOL    HW1 3917   2.074   4.340   2.115
 1006SOL    HW2 3918   2.079   4.183   2.070
 1007SOL     OW 3919   4.570   0.887   6.336
 1007SOL    HW1 3920   4.471   0.879   6.330
 1007SOL    HW2 3921   4.594   0.953   6.407
 1008SOL     OW 3922   0.588   5.172   5.099
 1008SOL    HW1 3923   0.578   5.272   5.095
 1008SOL    HW2 3924   0.498   5.129   5.094
 1009SOL     OW 3925   6.762   5.871   6.125
 1009SOL    HW1 3926   6.797   5.931   6.197
 1009SOL    HW2 3927   6.665   5.851   6.142
 1010SOL     OW 3928   3.080   3.560   0.326
 1010SOL    HW1 3929   3.138   3.489   0.364
 1010SOL    HW2 3930   2.984   3.537   0.342
 1011SOL     OW 3931   6.813   4.898   2.226
 1011SOL    HW1 3932   6.804   4.825   2.293
 1011SOL    HW2 3933   6.763   4.979   2.257
 1012SOL     OW 3934   5.890   6.427   2.838
 1012SOL    HW1 3935   5.852   6.343   2.800
 1012SOL    HW2 3936   5.818   6.477   2.887
 1013SOL     OW 3937   0.215   0.308   5.954
 1013SOL    HW1 3938   0.151   0.380   5.982
 1013SOL    HW2 3939   0.308   0.337   5.974
 1014SOL     OW 3940   1.076   4.999   4.455
 1014SOL    HW1 3941   1.122   5.015   4.367
 1014SOL    HW2 3942   0.985   4.961   4.439
 1015SOL     OW 3943   1.948   6.660   0.146
 1015SOL    HW1 3944   1.982   6.609   0.068
 1015SOL    HW2 3945   2.025   6.687   0.204
 1016SOL     OW 3946   0.104   4.284   0.740
 1016SOL    HW1 3947   0.025   4.263   0.799
 1016SOL    HW2 3948   0.071   4.319   0.653
 1017SOL     OW 3949   2.486   1.078   2.654
 1017SOL    HW1 3950   2.485   1.111   2.748
 1017SOL    HW2 3951   2.393   1.067   2.620
 1018SOL     OW 3952   6.091   6.145   4.117
 1018SOL    HW1 3953   6.025   6.086   4.071
 1018SOL    HW2 3954   6.075   6.142   4.216
 1019SOL     OW 3955   5.945   4.208   1.216
 1019SOL    HW1 3956   6.028   4.175   1.170
 1019SOL    HW2 3957   5.923   4.300   1.182
 1020SOL     OW 3958   4.830   1.470   1.743
 1020SOL    HW1 3959   4.734   1.472   1.714
 1020SOL    HW2 3960   4.845   1.390   1.800
 1021SOL     OW 3961   1.004   6.847   0.996
 1021SOL    HW1 3962   0.916   6.852   0.949
 1021SOL    HW2 3963   1.012   6.924   1.060
 1022SOL     OW 3964   2.252   5.231   6.447
 1022SOL    HW1 3965   2.168   5.253   6.397
 1022SOL    HW2 3966   2.324   5.293   6.418
 1023SOL     OW 3967   0.953   1.767   2.177
 1023SOL    HW1 3968   0.858   1.735   2.170
 1023SOL    HW2 3969   0.988   1.747   2.269
 1024SOL     OW 3970   1.706   2.141   4.444
 1024SOL    HW1 3971   1.708   2.192   4.358
 1024SOL    HW2 3972   1.676   2.047   4.426
 1025SOL     OW 3973   4.741   4.462   1.030
 1025SOL    HW1 3974   4.802   4.504   0.963
 1025SOL    HW2 3975   4.712   4.530   1.097
 1026SOL     OW 3976   3.041   2.998   1.810
 1026SOL    HW1 3977   2.942   3.007   1.799
 1026SOL    HW2 3978   3.086   3.083   1.782
 1027SOL     OW 3979   6.530   6.477   0.074
 1027SOL    HW1 3980   6.459   6.412   0.099
 1027SOL    HW2 3981   6.616   6.428   0.059
 1028SOL     OW 3982   0.754   4.876   2.973
 1028SOL    HW1 3983   0.739   4.836   2.883
 1028SOL    HW2 3984   0.816   4.954   2.965
 1029SOL     OW 3985   1.162   0.867   5.145
 1029SOL    HW1 3986   1.239   0.836   5.202
 1029SOL    HW2 3987   1.092   0.909   5.203
 1030SOL     OW 3988   3.947   3.271   0.777
 1030SOL    HW1 3989   3.891   3.340   0.824
 1030SOL    HW2 3990   3.933   3.279   0.678
 1031SOL     OW 3991   4.702   3.618   0.467
 1031SOL    HW1 3992   4.735   3.696   0.520
 1031SOL    HW2 3993   4.615   3.641   0.423
 1032SOL     OW 3994   1.910   1.569   0.992
 1032SOL    HW1 3995   1.980   1.636   0.969
 1032SOL    HW2 3996   1.908   1.497   0.922
 1033SOL     OW 3997   0.049   0.912   1.882
 1033SOL    HW1 3998   0.067   0.816   1.863
 1033SOL    HW2 3999   0.117   0.946   1.948
 1034SOL     OW 4000   3.268   0.732   5.101
 1034SOL    HW1 4001   3.362   0.708   5.078
 1034SOL    HW2 4002   3.253   0.829   5.082
 1035SOL     OW 4003   1.583   0.359   0.406
 1035SOL    HW1 4004   1.507   0.386   0.346
 1035SOL    HW2 4005   1.590   0.423   0.482
 1036SOL     OW 4006   4.717   1.591   2.083
 1036SOL    HW1 4007   4.627   1.592   2.039
 1036SOL    HW2 4008   4.761   1.502   2.066
 1037SOL     OW 4009   1.480   3.812   2.731
 1037SOL    HW1 4010   1.512   3.846   2.642
 1037SOL    HW2 4011   1.505   3.878   2.802
 1038SOL     OW 4012   1.979   5.936   0.298
 1038SOL    HW1 4013   2.032   5.983   0.369
 1038SOL    HW2 4014   1.885   5.924   0.330
 1039SOL     OW 4015   3.276   3.573   3.237
 1039SOL    HW1 4016   3.211   3.497   3.233
 1039SOL    HW2 4017   3.233   3.652   3.281
 1040SOL     OW 4018   3.677   1.797   3.160
 1040SOL    HW1 4019   3.741   1.848   3.218
 1040SOL    HW2 4020   3.615   1.861   3.114
 1041SOL     OW 4021   6.781   6.550   6.439
 1041SOL    HW1 4022   6.798   6.635   6.490
 1041SOL    HW2 4023   6.717   6.493   6.491
 1042SOL     OW 4024   5.443   3.869   3.902
 1042SOL    HW1 4025   5.372   3.900   3.839
 1042SOL    HW2 4026   5.529   3.857   3.852
 1043SOL     OW 4027   2.632   1.793   3.831
 1043SOL    HW1 4028   2.717   1.745   3.853
 1043SOL    HW2 4029   2.554   1.731   3.842
 1044SOL     OW 4030   5.604   4.619   2.255
 1044SOL    HW1 4031   5.547   4.597   2.334
 1044SOL    HW2 4032   5.644   4.710   2.267
 1045SOL     OW 4033   1.962   0.369   2.635
 1045SOL    HW1 4034   1.976   0.465   2.612
 1045SOL    HW2 4035   2.049   0.329   2.666
 1046SOL     OW 4036   2.675   2.210   1.164
 1046SOL    HW1 4037   2.591   2.246   1.122
 1046SOL    HW2 4038   2.697   2.265   1.245
 1047SOL     OW 4039   4.191   0.623   3.403
 1047SOL    HW1 4040   4.238   0.582   3.482
 1047SOL    HW2 4041   4.258   0.666   3.343
 1048SOL     OW 4042   0.936   6.996   2.020
 1048SOL    HW1 4043   0.913   6.940   1.940
 1048SOL    HW2 4044   0.856   7.004   2.080
 1049SOL     OW 4045   3.998   6.677   0.160
 1049SOL    HW1 4046   4.081   6.732   0.166
 1049SOL    HW2 4047   3.982   6.650   0.065
 1050SOL     OW 4048   2.814   0.801   4.154
 1050SOL    HW1 4049   2.721   0.825   4.182
 1050SOL    HW2 4050   2.869   0.884   4.147
 1051SOL     OW 4051   1.815   1.513   5.419
 1051SOL    HW1 4052   1.761   1.549   5.495
 1051SOL    HW2 4053   1.856   1.588   5.368
 1052SOL     OW 4054   3.960   1.489   6.942
 1052SOL    HW1 4055   4.006   1.524   0.003
 1052SOL    HW2 4056   3.864   1.518   6.943
 1053SOL     OW 4057   5.101   2.678   4.889
 1053SOL    HW1 4058   5.064   2.760   4.845
 1053SOL    HW2 4059   5.026   2.619   4.917
 1054SOL     OW 4060   4.400   5.491   6.673
 1054SOL    HW1 4061   4.369   5.554   6.744
 1054SOL    HW2 4062   4.467   5.538   6.614
 1055SOL     OW 4063   4.702   5.811   6.708
 1055SOL    HW1 4064   4.676   5.907   6.725
 1055SOL    HW2 4065   4.638   5.771   6.642
 1056SOL     OW 4066   3.643   3.841   0.435
 1056SOL    HW1 4067   3.699   3.921   0.457
 1056SOL    HW2 4068   3.671   3.763   0.491
 1057SOL     OW 4069   3.120   2.993   6.439
 1057SOL    HW1 4070   3.055   3.065   6.415
 1057SOL    HW2 4071   3.211   3.033   6.450
 1058SOL     OW 4072   3.053   2.144   1.908
 1058SOL    HW1 4073   3.000   2.208   1.964
 1058SOL    HW2 4074   3.095   2.194   1.832
 1059SOL     OW 4075   2.537   6.338   2.329
 1059SOL    HW1 4076   2.615   6.385   2.369
 1059SOL    HW2 4077   2.557   6.240   2.321
 1060SOL     OW 4078   6.368   0.415   5.267
 1060SOL    HW1 4079   6.460   0.386   5.295
 1060SOL    HW2 4080   6.312   0.430   5.349
 1061SOL     OW 4081   0.193   3.305   6.299
 1061SOL    HW1 4082   0.240   3.293   6.386
 1061SOL    HW2 4083   0.187   3.218   6.252
 1062SOL     OW 4084   3.321   5.361   5.172
 1062SOL    HW1 4085   3.245   5.412   5.212
 1062SOL    HW2 4086   3.388   5.339   5.243
 1063SOL     OW 4087   2.904   6.384   3.985
 1063SOL    HW1 4088   2.923   6.482   3.998
 1063SOL    HW2 4089   2.945   6.353   3.899
 1064SOL     OW 4090   0.715   3.414   0.254
 1064SOL    HW1 4091   0.682   3.450   0.167
 1064SOL    HW2 4092   0.641   3.415   0.321
 1065SOL     OW 4093   5.921   0.813   4.841
 1065SOL    HW1 4094   5.939   0.730   4.788
 1065SOL    HW2 4095   5.875   0.880   4.782
 1066SOL     OW 4096   4.954   6.150   1.165
 1066SOL    HW1 4097   4.865   6.109   1.146
 1066SOL    HW2 4098   4.995   6.106   1.245
 1067SOL     OW 4099   2.632   1.756   0.160
 1067SOL    HW1 4100   2.705   1.696   0.193
 1067SOL    HW2 4101   2.636   1.761   0.060
 1068SOL     OW 4102   6.262   2.867   1.297
 1068SOL    HW1 4103   6.244   2.952   1.247
 1068SOL    HW2 4104   6.191   2.800   1.275
 1069SOL     OW 4105   6.514   2.584   2.569
 1069SOL    HW1 4106   6.459   2.529   2.505
 1069SOL    HW2 4107   6.594   2.620   2.522
 1070SOL     OW 4108   0.961   0.409   2.350
 1070SOL    HW1 4109   0.971   0.481   2.419
 1070SOL    HW2 4110   0.869   0.369   2.357
 1071SOL     OW 4111   0.757   2.982   5.933
 1071SOL    HW1 4112   0.745   3.035   5.849
 1071SOL    HW2 4113   0.680   2.918   5.943
 1072SOL     OW 4114   1.921   1.642   1.986
 1072SOL    HW1 4115   1.945   1.667   1.892
 1072SOL    HW2 4116   1.988   1.577   2.021
 1073SOL     OW 4117   5.434   2.606   3.005
 1073SOL    HW1 4118   5.411   2.593   3.102
 1073SOL    HW2 4119   5.363   2.661   2.961
 1074SOL     OW 4120   3.072   5.457   1.421
 1074SOL    HW1 4121   3.107   5.433   1.511
 1074SOL    HW2 4122   3.017   5.382   1.385
 1075SOL     OW 4123   6.726   4.014   5.176
 1075SOL    HW1 4124   6.705   4.093   5.120
 1075SOL    HW2 4125   6.793   4.039   5.246
 1076SOL     OW 4126   2.338   4.248   5.222
 1076SOL    HW1 4127   2.407   4.248   5.295
 1076SOL    HW2 4128   2.324   4.155   5.189
 1077SOL     OW 4129   0.020   6.169   0.287
 1077SOL    HW1 4130   7.013   6.218   0.369
 1077SOL    HW2 4131   0.024   6.232   0.210
 1078SOL     OW 4132   6.031   6.171   4.389
 1078SOL    HW1 4133   6.058   6.264   4.416
 1078SOL    HW2 4134   5.938   6.153   4.421
 1079SOL     OW 4135   0.748   6.610   1.151
 1079SOL    HW1 4136   0.824   6.551   1.177
 1079SOL    HW2 4137   0.732   6.603   1.052
 1080SOL     OW 4138   3.821   6.455   0.503
 1080SOL    HW1 4139   3.903   6.498   0.539
 1080SOL    HW2 4140   3.787   6.387   0.569
 1081SOL     OW 4141   6.794   6.711   3.686
 1081SOL    HW1 4142   6.705   6.730   3.645
 1081SOL    HW2 4143   6.859   6.686   3.614
 1082SOL     OW 4144   4.437   6.885   0.569
 1082SOL    HW1 4145   4.520   6.926   0.605
 1082SOL    HW2 4146   4.392   6.831   0.640
 1083SOL     OW 4147   6.113   3.740   2.038
 1083SOL    HW1 4148   6.145   3.817   2.093
 1083SOL    HW2 4149   6.079   3.668   2.098
 1084SOL     OW 4150   5.643   0.668   5.600
 1084SOL    HW1 4151   5.644   0.662   5.700
 1084SOL    HW2 4152   5.702   0.597   5.562
 1085SOL     OW 4153   2.063   3.513   5.024
 1085SOL    HW1 4154   2.104   3.441   5.080
 1085SOL    HW2 4155   1.973   3.537   5.063
 1086SOL     OW 4156   5.841   4.919   1.894
 1086SOL    HW1 4157   5.907   4.872   1.953
 1086SOL    HW2 4158   5.845   4.881   1.802
 1087SOL     OW 4159   4.007   0.283   5.908
 1087SOL    HW1 4160   4.101   0.297   5.938
 1087SOL    HW2 4161   3.972   0.367   5.868
 1088SOL     OW 4162   6.513   5.267   4.072
 1088SOL    HW1 4163   6.535   5.345   4.013
 1088SOL    HW2 4164   6.550   5.183   4.033
 1089SOL     OW 4165   5.489   5.270   3.958
 1089SOL    HW1 4166   5.530   5.343   3.903
 1089SOL    HW2 4167   5.416   5.308   4.015
 1090SOL     OW 4168   5.568   2.719   5.186
 1090SOL    HW1 4169   5.591   2.706   5.283
 1090SOL    HW2 4170   5.614   2.650   5.131
 1091SOL     OW 4171   2.166   3.500   3.115
 1091SOL    HW1 4172   2.125   3.543   3.195
 1091SOL    HW2 4173   2.111   3.521   3.034
 1092SOL     OW 4174   0.675   6.275   0.562
 1092SOL    HW1 4175   0.764   6.235   0.586
 1092SOL    HW2 4176   0.623   6.293   0.645
 1093SOL     OW 4177   1.286   0.806   3.462
 1093SOL    HW1 4178   1.219   0.752   3.513
 1093SOL    HW2 4179   1.244   0.843   3.380
 1094SOL     OW 4180   0.579   0.149   2.838
 1094SOL    HW1 4181   0.504   0.159   2.774
 1094SOL    HW2 4182   0.666   0.144   2.788
 1095SOL     OW 4183   5.923   4.001   0.560
 1095SOL    HW1 4184   5.840   3.946   0.549
 1095SOL    HW2 4185   5.997   3.942   0.593
 1096SOL     OW 4186   1.946   5.859   1.955
 1096SOL    HW1 4187   2.013   5.839   2.027
 1096SOL    HW2 4188   1.993   5.871   1.868
 1097SOL     OW 4189   3.288   6.384   4.658
 1097SOL    HW1 4190   3.280   6.295   4.701
 1097SOL    HW2 4191   3.259   6.377   4.562
 1098SOL     OW 4192   6.973   3.736   0.494
 1098SOL    HW1 4193   6.974   3.725   0.394
 1098SOL    HW2 4194   6.880   3.754   0.524
 1099SOL     OW 4195   5.204   0.323   6.607
 1099SOL    HW1 4196   5.154   0.388   6.664
 1099SOL    HW2 4197   5.271   0.372   6.552
 1100SOL     OW 4198   4.486   1.941   4.559
 1100SOL    HW1 4199   4.428   1.992   4.622
 1100SOL    HW2 4200   4.576   1.927   4.600
 1101SOL     OW 4201   5.037   2.731   6.415
 1101SOL    HW1 4202   4.941   2.725   6.443
 1101SOL    HW2 4203   5.057   2.657   6.351
 1102SOL     OW 4204   2.738   0.538   3.451
 1102SOL    HW1 4205   2.684   0.529   3.535
 1102SOL    HW2 4206   2.826   0.581   3.473
 1103SOL     OW 4207   3.423   5.971   1.050
 1103SOL    HW1 4208   3.348   5.916   1.084
 1103SOL    HW2 4209   3.480   6.002   1.127
 1104SOL     OW 4210   6.808   2.456   3.995
 1104SOL    HW1 4211   6.839   2.486   3.904
 1104SOL    HW2 4212   6.821   2.530   4.060
 1105SOL     OW 4213   4.988   0.983   6.869
 1105SOL    HW1 4214   4.994   1.045   6.791
 1105SOL    HW2 4215   4.929   0.905   6.846
 1106SOL     OW 4216   6.404   1.558   0.981
 1106SOL    HW1 4217   6.441   1.466   0.995
 1106SOL    HW2 4218   6.408   1.609   1.067
 1107SOL     OW 4219   1.022   1.355   0.140
 1107SOL    HW1 4220   0.976   1.317   0.060
 1107SOL    HW2 4221   1.012   1.454   0.141
 1108SOL     OW 4222   2.406   1.128   3.352
 1108SOL    HW1 4223   2.459   1.097   3.431
 1108SOL    HW2 4224   2.388   1.226   3.360
 1109SOL     OW 4225   4.658   1.960   5.099
 1109SOL    HW1 4226   4.677   2.035   5.162
 1109SOL    HW2 4227   4.744   1.915   5.073
 1110SOL     OW 4228   1.492   0.978   2.376
 1110SOL    HW1 4229   1.534   0.887   2.376
 1110SOL    HW2 4230   1.393   0.968   2.385
 1111SOL     OW 4231   5.799   3.466   6.406
 1111SOL    HW1 4232   5.777   3.558   6.374
 1111SOL    HW2 4233   5.778   3.400   6.333
 1112SOL     OW 4234   5.804   0.538   2.394
 1112SOL    HW1 4235   5.820   0.442   2.416
 1112SOL    HW2 4236   5.828   0.595   2.473
 1113SOL     OW 4237   6.633   2.966   2.858
 1113SOL    HW1 4238   6.567   3.034   2.889
 1113SOL    HW2 4239   6.598   2.923   2.775
 1114SOL     OW 4240   3.876   3.545   4.817
 1114SOL    HW1 4241   3.841   3.489   4.743
 1114SOL    HW2 4242   3.826   3.524   4.901
 1115SOL     OW 4243   1.916   4.626   5.772
 1115SOL    HW1 4244   1.897   4.668   5.861
 1115SOL    HW2 4245   1.996   4.567   5.780
 1116SOL     OW 4246   4.703   6.971   0.647
 1116SOL    HW1 4247   4.732   7.017   0.563
 1116SOL    HW2 4248   4.690   0.018   0.719
 1117SOL     OW 4249   1.923   2.396   1.782
 1117SOL    HW1 4250   2.019   2.393   1.753
 1117SOL    HW2 4251   1.905   2.484   1.825
 1118SOL     OW 4252   4.678   6.135   6.768
 1118SOL    HW1 4253   4.585   6.132   6.803
 1118SOL    HW2 4254   4.742   6.145   6.844
 1119SOL     OW 4255   3.571   4.937   3.867
 1119SOL    HW1 4256   3.612   4.916   3.956
 1119SOL    HW2 4257   3.475   4.907   3.866
 1120SOL     OW 4258   6.802   3.188   1.517
 1120SOL    HW1 4259   6.848   3.099   1.525
 1120SOL    HW2 4260   6.716   3.186   1.568
 1121SOL     OW 4261   6.499   4.336   5.360
 1121SOL    HW1 4262   6.532   4.424   5.396
 1121SOL    HW2 4263   6.463   4.281   5.436
 1122SOL     OW 4264   6.108   1.231   2.218
 1122SOL    HW1 4265   6.061   1.312   2.255
 1122SOL    HW2 4266   6.040   1.169   2.178
 1123SOL     OW 4267   3.843   1.729   4.652
 1123SOL    HW1 4268   3.787   1.722   4.569
 1123SOL    HW2 4269   3.869   1.637   4.681
 1124SOL     OW 4270   2.176   3.033   3.814
 1124SOL    HW1 4271   2.203   3.099   3.744
 1124SOL    HW2 4272   2.208   2.942   3.787
 1125SOL     OW 4273   1.199   3.150   3.413
 1125SOL    HW1 4274   1.193   3.149   3.314
 1125SOL    HW2 4275   1.153   3.069   3.450
 1126SOL     OW 4276   4.374   4.611   4.305
 1126SOL    HW1 4277   4.442   4.538   4.311
 1126SOL    HW2 4278   4.354   4.631   4.209
 1127SOL     OW 4279   6.604   6.764   1.672
 1127SOL    HW1 4280   6.576   6.803   1.760
 1127SOL    HW2 4281   6.523   6.733   1.622
 1128SOL     OW 4282   4.395   1.702   4.471
 1128SOL    HW1 4283   4.423   1.793   4.499
 1128SOL    HW2 4284   4.467   1.662   4.413
 1129SOL     OW 4285   1.404   0.401   0.047
 1129SOL    HW1 4286   1.311   0.431   0.068
 1129SOL    HW2 4287   1.464   0.481   0.039
 1130SOL     OW 4288   2.284   4.929   2.108
 1130SOL    HW1 4289   2.327   4.912   2.019
 1130SOL    HW2 4290   2.185   4.926   2.098
 1131SOL     OW 4291   2.170   5.619   3.874
 1131SOL    HW1 4292   2.138   5.584   3.962
 1131SOL    HW2 4293   2.125   5.706   3.853
 1132SOL     OW 4294   1.166   1.452   2.356
 1132SOL    HW1 4295   1.252   1.436   2.404
 1132SOL    HW2 4296   1.122   1.534   2.392
 1133SOL     OW 4297   1.389   6.418   6.438
 1133SOL    HW1 4298   1.410   6.419   6.340
 1133SOL    HW2 4299   1.375   6.323   6.467
 1134SOL     OW 4300   3.781   5.988   0.852
 1134SOL    HW1 4301   3.819   5.960   0.763
 1134SOL    HW2 4302   3.712   5.921   0.881
 1135SOL     OW 4303   1.425   6.850   2.960
 1135SOL    HW1 4304   1.521   6.842   2.988
 1135SOL    HW2 4305   1.379   6.919   3.015
 1136SOL     OW 4306   1.453   4.864   2.089
 1136SOL    HW1 4307   1.379   4.807   2.051
 1136SOL    HW2 4308   1.515   4.806   2.142
 1137SOL     OW 4309   1.513   5.925   4.611
 1137SOL    HW1 4310   1.510   5.850   4.546
 1137SOL    HW2 4311   1.450   5.907   4.686
 1138SOL     OW 4312   1.509   3.894   5.114
 1138SOL    HW1 4313   1.471   3.812   5.072
 1138SOL    HW2 4314   1.567   3.941   5.048
 1139SOL     OW 4315   2.591   5.437   4.871
 1139SOL    HW1 4316   2.652   5.358   4.870
 1139SOL    HW2 4317   2.618   5.498   4.946
 1140SOL     OW 4318   1.885   2.183   1.939
 1140SOL    HW1 4319   1.926   2.242   1.870
 1140SOL    HW2 4320   1.918   2.210   2.030
 1141SOL     OW 4321   6.758   4.840   5.688
 1141SOL    HW1 4322   6.850   4.843   5.651
 1141SOL    HW2 4323   6.747   4.910   5.758
 1142SOL     OW 4324   1.426   5.852   2.380
 1142SOL    HW1 4325   1.503   5.880   2.436
 1142SOL    HW2 4326   1.340   5.876   2.425
 1143SOL     OW 4327   0.051   3.876   1.428
 1143SOL    HW1 4328   0.110   3.807   1.387
 1143SOL    HW2 4329   0.102   3.961   1.440
 1144SOL     OW 4330   5.282   4.633   0.493
 1144SOL    HW1 4331   5.243   4.628   0.402
 1144SOL    HW2 4332   5.298   4.541   0.528
 1145SOL     OW 4333   5.917   6.930   0.208
 1145SOL    HW1 4334   5.851   6.940   0.134
 1145SOL    HW2 4335   5.949   7.020   0.237
 1146SOL     OW 4336   0.929   1.098   1.249
 1146SOL    HW1 4337   0.899   1.093   1.345
 1146SOL    HW2 4338   0.856   1.139   1.194
 1147SOL     OW 4339   2.002   6.215   0.899
 1147SOL    HW1 4340   2.099   6.211   0.874
 1147SOL    HW2 4341   1.946   6.190   0.820
 1148SOL     OW 4342   4.095   5.743   2.898
 1148SOL    HW1 4343   4.049   5.699   2.821
 1148SOL    HW2 4344   4.027   5.779   2.962
 1149SOL     OW 4345   4.888   3.067   1.733
 1149SOL    HW1 4346   4.821   3.133   1.697
 1149SOL    HW2 4347   4.849   3.021   1.813
 1150SOL     OW 4348   0.880   3.337   0.469
 1150SOL    HW1 4349   0.973   3.308   0.445
 1150SOL    HW2 4350   0.837   3.379   0.389
 1151SOL     OW 4351   5.694   5.386   4.196
 1151SOL    HW1 4352   5.682   5.304   4.252
 1151SOL    HW2 4353   5.663   5.368   4.102
 1152SOL     OW 4354   3.773   6.883   6.258
 1152SOL    HW1 4355   3.766   6.955   6.328
 1152SOL    HW2 4356   3.686   6.835   6.251
 1153SOL     OW 4357   6.034   6.841   1.369
 1153SOL    HW1 4358   6.008   6.746   1.381
 1153SOL    HW2 4359   6.101   6.867   1.439
 1154SOL     OW 4360   2.192   3.408   0.960
 1154SOL    HW1 4361   2.138   3.347   0.902
 1154SOL    HW2 4362   2.133   3.446   1.032
 1155SOL     OW 4363   3.513   5.566   3.932
 1155SOL    HW1 4364   3.414   5.555   3.941
 1155SOL    HW2 4365   3.558   5.477   3.943
 1156SOL     OW 4366   2.822   1.275   2.365
 1156SOL    HW1 4367   2.767   1.197   2.393
 1156SOL    HW2 4368   2.772   1.360   2.384
 1157SOL     OW 4369   3.026   1.366   0.554
 1157SOL    HW1 4370   3.045   1.272   0.526
 1157SOL    HW2 4371   3.024   1.425   0.473
 1158SOL     OW 4372   5.537   4.297   3.302
 1158SOL    HW1 4373   5.574   4.285   3.210
 1158SOL    HW2 4374   5.596   4.251   3.368
 1159SOL     OW 4375   5.927   4.757   0.126
 1159SOL    HW1 4376   5.919   4.857   0.121
 1159SOL    HW2 4377   6.020   4.733   0.155
 1160SOL     OW 4378   4.395   2.446   0.377
 1160SOL    HW1 4379   4.419   2.537   0.344
 1160SOL    HW2 4380   4.458   2.419   0.450
 1161SOL     OW 4381   6.445   5.509   1.233
 1161SOL    HW1 4382   6.352   5.522   1.198
 1161SOL    HW2 4383   6.470   5.413   1.228
 1162SOL     OW 4384   3.353   2.057   4.148
 1162SOL    HW1 4385   3.330   2.122   4.077
 1162SOL    HW2 4386   3.299   1.973   4.136
 1163SOL     OW 4387   6.096   2.201   1.706
 1163SOL    HW1 4388   6.135   2.273   1.763
 1163SOL    HW2 4389   6.168   2.159   1.651
 1164SOL     OW 4390   4.303   2.583   5.852
 1164SOL    HW1 4391   4.297   2.683   5.855
 1164SOL    HW2 4392   4.256   2.545   5.931
 1165SOL     OW 4393   4.852   6.977   3.636
 1165SOL    HW1 4394   4.831   0.026   3.568
 1165SOL    HW2 4395   4.874   6.891   3.590
 1166SOL     OW 4396   3.349   4.642   6.503
 1166SOL    HW1 4397   3.263   4.674   6.542
 1166SOL    HW2 4398   3.412   4.720   6.495
 1167SOL     OW 4399   4.667   4.205   2.964
 1167SOL    HW1 4400   4.612   4.216   2.881
 1167SOL    HW2 4401   4.709   4.293   2.988
 1168SOL     OW 4402   0.493   0.095   2.072
 1168SOL    HW1 4403   0.551   0.164   2.116
 1168SOL    HW2 4404   0.520   0.085   1.977
 1169SOL     OW 4405   4.619   1.155   5.658
 1169SOL    HW1 4406   4.571   1.214   5.593
 1169SOL    HW2 4407   4.569   1.155   5.745
 1170SOL     OW 4408   4.939   5.124   2.636
 1170SOL    HW1 4409   4.959   5.221   2.623
 1170SOL    HW2 4410   5.001   5.069   2.581
 1171SOL     OW 4411   0.221   5.881   0.792
 1171SOL    HW1 4412   0.202   5.846   0.884
 1171SOL    HW2 4413   0.140   5.867   0.734
 1172SOL     OW 4414   6.365   3.113   5.921
 1172SOL    HW1 4415   6.330   3.188   5.977
 1172SOL    HW2 4416   6.298   3.039   5.920
 1173SOL     OW 4417   3.461   2.585   0.567
 1173SOL    HW1 4418   3.375   2.630   0.590
 1173SOL    HW2 4419   3.511   2.562   0.650
 1174SOL     OW 4420   2.182   4.764   0.320
 1174SOL    HW1 4421   2.093   4.777   0.276
 1174SOL    HW2 4422   2.212   4.669   0.308
 1175SOL     OW 4423   3.224   3.033   4.284
 1175SOL    HW1 4424   3.131   3.062   4.263
 1175SOL    HW2 4425   3.226   2.990   4.374
 1176SOL     OW 4426   5.369   2.939   6.658
 1176SOL    HW1 4427   5.272   2.945   6.634
 1176SOL    HW2 4428   5.400   2.845   6.647
 1177SOL     OW 4429   1.103   1.475   4.419
 1177SOL    HW1 4430   1.199   1.450   4.433
 1177SOL    HW2 4431   1.098   1.561   4.369
 1178SOL     OW 4432   4.348   6.421   6.887
 1178SOL    HW1 4433   4.292   6.500   6.861
 1178SOL    HW2 4434   4.425   6.451   6.943
 1179SOL     OW 4435   0.641   5.813   0.129
 1179SOL    HW1 4436   0.709   5.878   0.096
 1179SOL    HW2 4437   0.561   5.863   0.163
 1180SOL     OW 4438   3.505   6.017   0.475
 1180SOL    HW1 4439   3.486   6.054   0.384
 1180SOL    HW2 4440   3.424   5.970   0.509
 1181SOL     OW 4441   6.351   6.721   6.441
 1181SOL    HW1 4442   6.396   6.701   6.528
 1181SOL    HW2 4443   6.396   6.798   6.396
 1182SOL     OW 4444   4.642   4.327   2.635
 1182SOL    HW1 4445   4.645   4.356   2.540
 1182SOL    HW2 4446   4.618   4.405   2.694
 1183SOL     OW 4447   1.810   3.985   6.469
 1183SOL    HW1 4448   1.901   4.025   6.472
 1183SOL    HW2 4449   1.749   4.044   6.415
 1184SOL     OW 4450   0.148   0.606   5.225
 1184SOL    HW1 4451   0.211   0.666   5.176
 1184SOL    HW2 4452   0.199   0.537   5.276
 1185SOL     OW 4453   6.295   1.203   6.937
 1185SOL    HW1 4454   6.309   1.128   7.002
 1185SOL    HW2 4455   6.207   1.193   6.892
 1186SOL     OW 4456   5.378   6.701   4.844
 1186SOL    HW1 4457   5.423   6.625   4.889
 1186SOL    HW2 4458   5.443   6.777   4.834
 1187SOL     OW 4459   6.356   1.076   5.663
 1187SOL    HW1 4460   6.383   0.980   5.667
 1187SOL    HW2 4461   6.303   1.099   5.745
 1188SOL     OW 4462   2.914   0.848   6.716
 1188SOL    HW1 4463   2.909   0.883   6.810
 1188SOL    HW2 4464   2.828   0.869   6.669
 1189SOL     OW 4465   5.374   3.452   3.825
 1189SOL    HW1 4466   5.309   3.467   3.899
 1189SOL    HW2 4467   5.325   3.454   3.737
 1190SOL     OW 4468   2.360   0.021   3.985
 1190SOL    HW1 4469   2.364   0.120   3.987
 1190SOL    HW2 4470   2.290   7.013   3.919
 1191SOL     OW 4471   4.139   6.618   2.643
 1191SOL    HW1 4472   4.133   6.567   2.728
 1191SOL    HW2 4473   4.129   6.716   2.662
 1192SOL     OW 4474   6.115   6.067   3.246
 1192SOL    HW1 4475   6.171   6.104   3.172
 1192SOL    HW2 4476   6.169   6.062   3.329
 1193SOL     OW 4477   6.875   5.743   4.650
 1193SOL    HW1 4478   6.928   5.820   4.617
 1193SOL    HW2 4479   6.927   5.659   4.638
 1194SOL     OW 4480   3.942   6.964   1.484
 1194SOL    HW1 4481   3.932   0.039   1.459
 1194SOL    HW2 4482   3.866   6.911   1.446
 1195SOL     OW 4483   5.143   2.671   3.696
 1195SOL    HW1 4484   5.121   2.761   3.659
 1195SOL    HW2 4485   5.168   2.609   3.621
 1196SOL     OW 4486   0.136   6.532   4.768
 1196SOL    HW1 4487   0.045   6.556   4.801
 1196SOL    HW2 4488   0.134   6.440   4.728
 1197SOL     OW 4489   1.982   6.262   0.485
 1197SOL    HW1 4490   1.911   6.305   0.429
 1197SOL    HW2 4491   2.056   6.230   0.426
 1198SOL     OW 4492   1.447   2.515   6.690
 1198SOL    HW1 4493   1.364   2.567   6.708
 1198SOL    HW2 4494   1.470   2.521   6.593
 1199SOL     OW 4495   6.736   3.651   1.646
 1199SOL    HW1 4496   6.684   3.576   1.686
 1199SOL    HW2 4497   6.686   3.737   1.657
 1200SOL     OW 4498   2.974   3.796   2.703
 1200SOL    HW1 4499   2.940   3.733   2.633
 1200SOL    HW2 4500   2.952   3.760   2.793
 1201SOL     OW 4501   1.444   1.696   4.764
 1201SOL    HW1 4502   1.347   1.707   4.743
 1201SOL    HW2 4503   1.455   1.623   4.832
 1202SOL     OW 4504   1.399   5.763   5.776
 1202SOL    HW1 4505   1.359   5.798   5.691
 1202SOL    HW2 4506   1.347   5.683   5.807
 1203SOL     OW 4507   3.112   5.628   5.710
 1203SOL    HW1 4508   3.180   5.678   5.656
 1203SOL    HW2 4509   3.100   5.537   5.671
 1204SOL     OW 4510   1.838   6.996   3.055
 1204SOL    HW1 4511   1.854   0.032   3.136
 1204SOL    HW2 4512   1.767   6.929   3.076
 1205SOL     OW 4513   5.722   3.956   2.023
 1205SOL    HW1 4514   5.717   3.857   2.014
 1205SOL    HW2 4515   5.634   3.997   2.000
 1206SOL     OW 4516   3.272   3.591   4.684
 1206SOL    HW1 4517   3.324   3.626   4.762
 1206SOL    HW2 4518   3.203   3.658   4.656
 1207SOL     OW 4519   1.062   5.721   2.857
 1207SOL    HW1 4520   0.976   5.733   2.808
 1207SOL    HW2 4521   1.116   5.650   2.813
 1208SOL     OW 4522   3.440   3.689   6.234
 1208SOL    HW1 4523   3.405   3.595   6.231
 1208SOL    HW2 4524   3.506   3.703   6.160
 1209SOL     OW 4525   3.587   6.328   5.667
 1209SOL    HW1 4526   3.519   6.394   5.635
 1209SOL    HW2 4527   3.559   6.236   5.643
 1210SOL     OW 4528   3.330   1.062   2.786
 1210SOL    HW1 4529   3.341   1.159   2.806
 1210SOL    HW2 4530   3.362   1.043   2.693
 1211SOL     OW 4531   0.992   2.711   0.347
 1211SOL    HW1 4532   0.927   2.698   0.272
 1211SOL    HW2 4533   1.021   2.621   0.381
 1212SOL     OW 4534   1.622   0.087   0.189
 1212SOL    HW1 4535   1.623   0.003   0.244
 1212SOL    HW2 4536   1.715   0.113   0.167
 1213SOL     OW 4537   5.519   2.876   1.269
 1213SOL    HW1 4538   5.542   2.797   1.325
 1213SOL    HW2 4539   5.435   2.918   1.305
 1214SOL     OW 4540   6.713   2.600   1.741
 1214SOL    HW1 4541   6.802   2.567   1.773
 1214SOL    HW2 4542   6.674   2.534   1.677
 1215SOL     OW 4543   1.574   5.700   3.311
 1215SOL    HW1 4544   1.610   5.790   3.332
 1215SOL    HW2 4545   1.588   5.680   3.214
 1216SOL     OW 4546   3.284   6.922   1.705
 1216SOL    HW1 4547   3.220   6.947   1.633
 1216SOL    HW2 4548   3.376   6.913   1.667
 1217SOL     OW 4549   2.801   4.697   6.965
 1217SOL    HW1 4550   2.894   4.701   7.002
 1217SOL    HW2 4551   2.754   4.783   6.982
 1218SOL     OW 4552   2.557   5.456   3.346
 1218SOL    HW1 4553   2.566   5.526   3.275
 1218SOL    HW2 4554   2.611   5.482   3.426
 1219SOL     OW 4555   3.689   6.520   2.275
 1219SOL    HW1 4556   3.713   6.606   2.321
 1219SOL    HW2 4557   3.734   6.517   2.186
 1220SOL     OW 4558   0.934   4.703   2.423
 1220SOL    HW1 4559   0.927   4.730   2.327
 1220SOL    HW2 4560   0.991   4.770   2.472
 1221SOL     OW 4561   4.706   4.965   6.667
 1221SOL    HW1 4562   4.631   4.912   6.627
 1221SOL    HW2 4563   4.793   4.921   6.646
 1222SOL     OW 4564   6.797   0.734   6.026
 1222SOL    HW1 4565   6.851   0.687   5.956
 1222SOL    HW2 4566   6.717   0.775   5.985
 1223SOL     OW 4567   3.616   6.571   0.999
 1223SOL    HW1 4568   3.590   6.481   1.034
 1223SOL    HW2 4569   3.603   6.573   0.900
 1224SOL     OW 4570   2.935   0.611   2.413
 1224SOL    HW1 4571   2.892   0.604   2.503
 1224SOL    HW2 4572   2.865   0.615   2.342
 1225SOL     OW 4573   2.862   4.048   5.586
 1225SOL    HW1 4574   2.897   4.124   5.531
 1225SOL    HW2 4575   2.834   4.082   5.676
 1226SOL     OW 4576   2.105   4.723   0.624
 1226SOL    HW1 4577   2.154   4.671   0.695
 1226SOL    HW2 4578   2.090   4.664   0.545
 1227SOL     OW 4579   0.930   3.360   5.918
 1227SOL    HW1 4580   1.005   3.335   5.857
 1227SOL    HW2 4581   0.965   3.405   5.999
 1228SOL     OW 4582   3.808   1.736   6.595
 1228SOL    HW1 4583   3.771   1.809   6.538
 1228SOL    HW2 4584   3.903   1.757   6.619
 1229SOL     OW 4585   3.013   4.387   6.586
 1229SOL    HW1 4586   2.994   4.479   6.621
 1229SOL    HW2 4587   3.062   4.334   6.655
 1230SOL     OW 4588   4.475   0.468   3.764
 1230SOL    HW1 4589   4.416   0.440   3.839
 1230SOL    HW2 4590   4.485   0.568   3.765
 1231SOL     OW 4591   1.159   4.237   4.636
 1231SOL    HW1 4592   1.177   4.312   4.699
 1231SOL    HW2 4593   1.129   4.157   4.686
 1232SOL     OW 4594   2.259   2.595   2.864
 1232SOL    HW1 4595   2.168   2.571   2.898
 1232SOL    HW2 4596   2.254   2.680   2.812
 1233SOL     OW 4597   0.823   2.917   4.548
 1233SOL    HW1 4598   0.810   3.001   4.495
 1233SOL    HW2 4599   0.740   2.862   4.544
 1234SOL     OW 4600   6.656   4.316   3.837
 1234SOL    HW1 4601   6.664   4.261   3.921
 1234SOL    HW2 4602   6.624   4.408   3.861
 1235SOL     OW 4603   6.371   5.860   4.079
 1235SOL    HW1 4604   6.388   5.882   3.983
 1235SOL    HW2 4605   6.405   5.935   4.136
 1236SOL     OW 4606   5.426   0.902   5.946
 1236SOL    HW1 4607   5.487   0.931   6.020
 1236SOL    HW2 4608   5.419   0.975   5.878
 1237SOL     OW 4609   2.637   4.994   6.517
 1237SOL    HW1 4610   2.665   5.039   6.432
 1237SOL    HW2 4611   2.697   4.915   6.534
 1238SOL     OW 4612   1.469   1.715   0.432
 1238SOL    HW1 4613   1.398   1.684   0.496
 1238SOL    HW2 4614   1.557   1.675   0.458
 1239SOL     OW 4615   0.705   0.095   5.667
 1239SOL    HW1 4616   0.750   0.157   5.731
 1239SOL    HW2 4617   0.771   0.061   5.601
 1240SOL     OW 4618   4.309   6.012   1.939
 1240SOL    HW1 4619   4.248   6.025   2.017
 1240SOL    HW2 4620   4.260   5.966   1.865
 1241SOL     OW 4621   0.440   2.293   4.282
 1241SOL    HW1 4622   0.340   2.305   4.276
 1241SOL    HW2 4623   0.485   2.360   4.224
 1242SOL     OW 4624   2.293   2.931   6.429
 1242SOL    HW1 4625   2.218   2.996   6.420
 1242SOL    HW2 4626   2.352   2.937   6.348
 1243SOL     OW 4627   2.370   5.234   5.081
 1243SOL    HW1 4628   2.272   5.237   5.063
 1243SOL    HW2 4629   2.387   5.256   5.177
 1244SOL     OW 4630   0.163   1.274   3.019
 1244SOL    HW1 4631   0.224   1.227   3.083
 1244SOL    HW2 4632   0.201   1.270   2.927
 1245SOL     OW 4633   3.002   3.140   5.732
 1245SOL    HW1 4634   3.081   3.165   5.676
 1245SOL    HW2 4635   2.921   3.132   5.674
 1246SOL     OW 4636   0.721   0.143   1.275
 1246SOL    HW1 4637   0.670   0.207   1.332
 1246SOL    HW2 4638   0.689   0.050   1.292
 1247SOL     OW 4639   1.458   6.792   6.686
 1247SOL    HW1 4640   1.519   6.789   6.607
 1247SOL    HW2 4641   1.373   6.839   6.662
 1248SOL     OW 4642   2.096   6.398   3.904
 1248SOL    HW1 4643   2.196   6.397   3.913
 1248SOL    HW2 4644   2.068   6.480   3.855
 1249SOL     OW 4645   5.777   2.728   3.267
 1249SOL    HW1 4646   5.791   2.725   3.169
 1249SOL    HW2 4647   5.825   2.808   3.305
 1250SOL     OW 4648   0.070   4.303   4.322
 1250SOL    HW1 4649   0.111   4.215   4.346
 1250SOL    HW2 4650   0.094   4.371   4.392
 1251SOL     OW 4651   3.272   0.131   6.352
 1251SOL    HW1 4652   3.319   0.046   6.378
 1251SOL    HW2 4653   3.299   0.205   6.413
 1252SOL     OW 4654   3.078   3.776   0.144
 1252SOL    HW1 4655   3.091   3.736   0.053
 1252SOL    HW2 4656   3.079   3.702   0.212
 1253SOL     OW 4657   4.001   0.419   2.612
 1253SOL    HW1 4658   3.943   0.357   2.666
 1253SOL    HW2 4659   4.000   0.390   2.517
 1254SOL     OW 4660   5.840   1.522   3.081
 1254SOL    HW1 4661   5.877   1.579   3.008
 1254SOL    HW2 4662   5.889   1.541   3.166
 1255SOL     OW 4663   6.127   0.441   0.415
 1255SOL    HW1 4664   6.174   0.391   0.488
 1255SOL    HW2 4665   6.183   0.518   0.385
 1256SOL     OW 4666   4.948   2.637   3.891
 1256SOL    HW1 4667   4.943   2.541   3.919
 1256SOL    HW2 4668   5.000   2.643   3.805
 1257SOL     OW 4669   6.151   1.202   3.836
 1257SOL    HW1 4670   6.053   1.205   3.815
 1257SOL    HW2 4671   6.192   1.292   3.820
 1258SOL     OW 4672   0.288   5.488   3.682
 1258SOL    HW1 4673   0.201   5.469   3.729
 1258SOL    HW2 4674   0.300   5.587   3.675
 1259SOL     OW 4675   4.571   2.393   4.849
 1259SOL    HW1 4676   4.532   2.453   4.918
 1259SOL    HW2 4677   4.509   2.389   4.770
 1260SOL     OW 4678   0.457   1.538   4.773
 1260SOL    HW1 4679   0.507   1.582   4.848
 1260SOL    HW2 4680   0.503   1.453   4.748
 1261SOL     OW 4681   6.485   3.945   0.848
 1261SOL    HW1 4682   6.569   3.917   0.895
 1261SOL    HW2 4683   6.429   3.865   0.829
 1262SOL     OW 4684   5.033   6.082   2.476
 1262SOL    HW1 4685   4.966   6.021   2.433
 1262SOL    HW2 4686   5.000   6.109   2.566
 1263SOL     OW 4687   0.041   2.368   3.592
 1263SOL    HW1 4688   0.013   2.272   3.594
 1263SOL    HW2 4689   0.100   2.384   3.514
 1264SOL     OW 4690   1.206   2.662   5.094
 1264SOL    HW1 4691   1.264   2.580   5.094
 1264SOL    HW2 4692   1.156   2.667   5.181
 1265SOL     OW 4693   5.520   0.315   5.443
 1265SOL    HW1 4694   5.572   0.263   5.511
 1265SOL    HW2 4695   5.449   0.368   5.489
 1266SOL     OW 4696   2.501   1.310   5.212
 1266SOL    HW1 4697   2.409   1.275   5.192
 1266SOL    HW2 4698   2.506   1.407   5.186
 1267SOL     OW 4699   3.224   0.424   2.590
 1267SOL    HW1 4700   3.290   0.435   2.516
 1267SOL    HW2 4701   3.209   0.512   2.636
 1268SOL     OW 4702   3.850   2.412   5.372
 1268SOL    HW1 4703   3.801   2.491   5.408
 1268SOL    HW2 4704   3.784   2.341   5.347
 1269SOL     OW 4705   6.146   1.900   3.715
 1269SOL    HW1 4706   6.055   1.892   3.673
 1269SOL    HW2 4707   6.140   1.871   3.811
 1270SOL     OW 4708   6.387   5.242   2.971
 1270SOL    HW1 4709   6.448   5.172   3.009
 1270SOL    HW2 4710   6.435   5.292   2.899
 1271SOL     OW 4711   2.419   1.356   1.193
 1271SOL    HW1 4712   2.463   1.379   1.280
 1271SOL    HW2 4713   2.362   1.275   1.205
 1272SOL     OW 4714   5.737   2.040   0.721
 1272SOL    HW1 4715   5.722   1.998   0.632
 1272SOL    HW2 4716   5.725   2.139   0.714
 1273SOL     OW 4717   2.167   4.379   5.913
 1273SOL    HW1 4718   2.261   4.347   5.927
 1273SOL    HW2 4719   2.149   4.387   5.815
 1274SOL     OW 4720   6.930   4.333   4.083
 1274SOL    HW1 4721   6.974   4.327   4.172
 1274SOL    HW2 4722   6.853   4.269   4.079
 1275SOL     OW 4723   2.239   1.609   2.707
 1275SOL    HW1 4724   2.318   1.670   2.699
 1275SOL    HW2 4725   2.166   1.655   2.757
 1276SOL     OW 4726   5.482   4.162   3.747
 1276SOL    HW1 4727   5.547   4.131   3.817
 1276SOL    HW2 4728   5.423   4.086   3.719
 1277SOL     OW 4729   0.876   5.999   6.771
 1277SOL    HW1 4730   0.848   6.006   6.867
 1277SOL    HW2 4731   0.963   6.046   6.759
 1278SOL     OW 4732   0.495   5.824   2.510
 1278SOL    HW1 4733   0.453   5.747   2.461
 1278SOL    HW2 4734   0.434   5.856   2.582
 1279SOL     OW 4735   2.582   3.402   0.712
 1279SOL    HW1 4736   2.614   3.483   0.662
 1279SOL    HW2 4737   2.605   3.320   0.660
 1280SOL     OW 4738   2.490   2.247   4.222
 1280SOL    HW1 4739   2.589   2.254   4.214
 1280SOL    HW2 4740   2.456   2.181   4.155
 1281SOL     OW 4741   5.674   6.278   4.699
 1281SOL    HW1 4742   5.641   6.196   4.746
 1281SOL    HW2 4743   5.682   6.353   4.765
 1282SOL     OW 4744   0.632   2.620   1.735
 1282SOL    HW1 4745   0.637   2.527   1.770
 1282SOL    HW2 4746   0.707   2.636   1.671
 1283SOL     OW 4747   0.067   1.339   4.122
 1283SOL    HW1 4748   0.124   1.371   4.047
 1283SOL    HW2 4749   0.059   1.411   4.191
 1284SOL     OW 4750   3.788   2.057   1.824
 1284SOL    HW1 4751   3.873   2.109   1.810
 1284SOL    HW2 4752   3.730   2.105   1.889
 1285SOL     OW 4753   4.679   1.333   4.389
 1285SOL    HW1 4754   4.631   1.343   4.302
 1285SOL    HW2 4755   4.751   1.402   4.396
 1286SOL     OW 4756   4.977   1.589   1.302
 1286SOL    HW1 4757   4.944   1.606   1.395
 1286SOL    HW2 4758   4.990   1.676   1.254
 1287SOL     OW 4759   5.036   5.195   5.345
 1287SOL    HW1 4760   5.023   5.244   5.259
 1287SOL    HW2 4761   5.125   5.218   5.384
 1288SOL     OW 4762   4.309   4.580   6.740
 1288SOL    HW1 4763   4.214   4.551   6.749
 1288SOL    HW2 4764   4.369   4.506   6.767
 1289SOL     OW 4765   6.599   6.810   0.495
 1289SOL    HW1 4766   6.681   6.756   0.472
 1289SOL    HW2 4767   6.594   6.822   0.594
 1290SOL     OW 4768   1.576   6.469   5.680
 1290SOL    HW1 4769   1.582   6.383   5.731
 1290SOL    HW2 4770   1.594   6.545   5.743
 1291SOL     OW 4771   6.028   5.396   3.767
 1291SOL    HW1 4772   5.967   5.471   3.742
 1291SOL    HW2 4773   5.974   5.317   3.797
 1292SOL     OW 4774   0.327   6.774   2.670
 1292SOL    HW1 4775   0.336   6.675   2.662
 1292SOL    HW2 4776   0.369   6.805   2.755
 1293SOL     OW 4777   4.796   0.853   1.019
 1293SOL    HW1 4778   4.860   0.898   0.956
 1293SOL    HW2 4779   4.819   0.756   1.025
 1294SOL     OW 4780   2.289   4.608   5.178
 1294SOL    HW1 4781   2.304   4.546   5.101
 1294SOL    HW2 4782   2.378   4.642   5.211
 1295SOL     OW 4783   6.741   4.329   0.227
 1295SOL    HW1 4784   6.717   4.423   0.203
 1295SOL    HW2 4785   6.730   4.316   0.326
 1296SOL     OW 4786   5.169   0.080   5.883
 1296SOL    HW1 4787   5.150   0.006   5.947
 1296SOL    HW2 4788   5.195   0.042   5.794
 1297SOL     OW 4789   6.566   6.734   0.164
 1297SOL    HW1 4790   6.550   6.643   0.127
 1297SOL    HW2 4791   6.615   6.726   0.251
 1298SOL     OW 4792   5.330   0.909   3.242
 1298SOL    HW1 4793   5.364   0.848   3.171
 1298SOL    HW2 4794   5.234   0.930   3.224
 1299SOL     OW 4795   1.197   3.491   4.821
 1299SOL    HW1 4796   1.238   3.574   4.858
 1299SOL    HW2 4797   1.257   3.413   4.840
 1300SOL     OW 4798   1.028   5.820   0.700
 1300SOL    HW1 4799   1.096   5.828   0.627
 1300SOL    HW2 4800   1.014   5.724   0.723
 1301SOL     OW 4801   6.811   0.452   0.235
 1301SOL    HW1 4802   6.816   0.549   0.212
 1301SOL    HW2 4803   6.734   0.410   0.187
 1302SOL     OW 4804   6.476   6.615   5.364
 1302SOL    HW1 4805   6.468   6.677   5.286
 1302SOL    HW2 4806   6.524   6.661   5.439
 1303SOL     OW 4807   2.915   6.563   1.889
 1303SOL    HW1 4808   3.007   6.568   1.851
 1303SOL    HW2 4809   2.881   6.655   1.908
 1304SOL     OW 4810   0.291   0.641   0.965
 1304SOL    HW1 4811   0.194   0.655   0.986
 1304SOL    HW2 4812   0.307   0.656   0.868
 1305SOL     OW 4813   4.103   4.392   6.279
 1305SOL    HW1 4814   4.183   4.392   6.219
 1305SOL    HW2 4815   4.088   4.300   6.314
 1306SOL     OW 4816   2.755   6.540   3.696
 1306SOL    HW1 4817   2.691   6.607   3.660
 1306SOL    HW2 4818   2.706   6.472   3.750
 1307SOL     OW 4819   1.781   2.979   4.341
 1307SOL    HW1 4820   1.754   2.951   4.249
 1307SOL    HW2 4821   1.705   2.964   4.404
 1308SOL     OW 4822   6.640   3.295   6.379
 1308SOL    HW1 4823   6.566   3.325   6.319
 1308SOL    HW2 4824   6.718   3.357   6.368
 1309SOL     OW 4825   5.669   3.762   6.370
 1309SOL    HW1 4826   5.586   3.711   6.349
 1309SOL    HW2 4827   5.672   3.783   6.468
 1310SOL     OW 4828   2.142   3.832   3.139
 1310SOL    HW1 4829   2.129   3.914   3.196
 1310SOL    HW2 4830   2.211   3.773   3.182
 1311SOL     OW 4831   5.634   5.336   0.386
 1311SOL    HW1 4832   5.618   5.238   0.374
 1311SOL    HW2 4833   5.608   5.384   0.303
 1312SOL     OW 4834   2.671   1.202   6.361
 1312SOL    HW1 4835   2.598   1.269   6.351
 1312SOL    HW2 4836   2.668   1.163   6.454
 1313SOL     OW 4837   5.821   5.271   1.347
 1313SOL    HW1 4838   5.902   5.324   1.372
 1313SOL    HW2 4839   5.747   5.292   1.410
 1314SOL     OW 4840   1.897   1.362   3.914
 1314SOL    HW1 4841   1.932   1.455   3.916
 1314SOL    HW2 4842   1.884   1.329   4.008
 1315SOL     OW 4843   6.124   1.026   2.817
 1315SOL    HW1 4844   6.088   1.119   2.816
 1315SOL    HW2 4845   6.216   1.026   2.856
 1316SOL     OW 4846   5.246   0.282   6.280
 1316SOL    HW1 4847   5.327   0.246   6.326
 1316SOL    HW2 4848   5.164   0.238   6.316
 1317SOL     OW 4849   3.084   2.914   5.354
 1317SOL    HW1 4850   3.008   2.857   5.385
 1317SOL    HW2 4851   3.049   3.003   5.326
 1318SOL     OW 4852   1.754   1.962   5.840
 1318SOL    HW1 4853   1.695   2.002   5.910
 1318SOL    HW2 4854   1.844   2.005   5.842
 1319SOL     OW 4855   0.142   0.864   6.895
 1319SOL    HW1 4856   0.129   0.765   6.894
 1319SOL    HW2 4857   0.201   0.888   6.972
 1320SOL     OW 4858   2.991   3.226   6.357
 1320SOL    HW1 4859   2.970   3.270   6.270
 1320SOL    HW2 4860   2.944   3.275   6.431
 1321SOL     OW 4861   6.897   2.648   1.137
 1321SOL    HW1 4862   6.886   2.569   1.077
 1321SOL    HW2 4863   6.947   2.720   1.090
 1322SOL     OW 4864   3.377   2.728   0.144
 1322SOL    HW1 4865   3.307   2.716   0.074
 1322SOL    HW2 4866   3.355   2.809   0.200
 1323SOL     OW 4867   4.145   0.307   1.494
 1323SOL    HW1 4868   4.096   0.368   1.556
 1323SOL    HW2 4869   4.080   0.244   1.452
 1324SOL     OW 4870   2.419   4.283   5.918
 1324SOL    HW1 4871   2.474   4.365   5.936
 1324SOL    HW2 4872   2.430   4.256   5.822
 1325SOL     OW 4873   3.491   5.905   5.093
 1325SOL    HW1 4874   3.529   5.878   5.182
 1325SOL    HW2 4875   3.461   5.824   5.043
 1326SOL     OW 4876   5.069   1.580   4.881
 1326SOL    HW1 4877   5.098   1.549   4.972
 1326SOL    HW2 4878   5.108   1.520   4.811
 1327SOL     OW 4879   4.719   5.447   2.430
 1327SOL    HW1 4880   4.782   5.376   2.399
 1327SOL    HW2 4881   4.739   5.532   2.382
 1328SOL     OW 4882   2.424   2.074   5.862
 1328SOL    HW1 4883   2.424   1.974   5.863
 1328SOL    HW2 4884   2.334   2.107   5.832
 1329SOL     OW 4885   1.279   3.273   3.900
 1329SOL    HW1 4886   1.372   3.300   3.873
 1329SOL    HW2 4887   1.230   3.239   3.820
 1330SOL     OW 4888   5.924   2.894   3.068
 1330SOL    HW1 4889   5.981   2.878   3.149
 1330SOL    HW2 4890   5.981   2.890   2.986
 1331SOL     OW 4891   4.673   2.381   3.799
 1331SOL    HW1 4892   4.771   2.380   3.820
 1331SOL    HW2 4893   4.622   2.410   3.880
 1332SOL     OW 4894   2.203   5.542   0.568
 1332SOL    HW1 4895   2.265   5.465   0.587
 1332SOL    HW2 4896   2.225   5.618   0.629
 1333SOL     OW 4897   3.355   3.768   2.874
 1333SOL    HW1 4898   3.311   3.851   2.908
 1333SOL    HW2 4899   3.286   3.705   2.840
 1334SOL     OW 4900   0.158   3.628   1.291
 1334SOL    HW1 4901   0.203   3.622   1.203
 1334SOL    HW2 4902   0.170   3.542   1.341
 1335SOL     OW 4903   0.116   3.612   3.490
 1335SOL    HW1 4904   0.051   3.682   3.521
 1335SOL    HW2 4905   0.121   3.540   3.559
 1336SOL     OW 4906   1.822   0.175   5.559
 1336SOL    HW1 4907   1.839   0.230   5.477
 1336SOL    HW2 4908   1.760   0.100   5.535
 1337SOL     OW 4909   0.471   6.862   2.181
 1337SOL    HW1 4910   0.469   6.878   2.280
 1337SOL    HW2 4911   0.459   6.949   2.133
 1338SOL     OW 4912   6.599   4.183   4.953
 1338SOL    HW1 4913   6.571   4.279   4.950
 1338SOL    HW2 4914   6.639   4.158   4.865
 1339SOL     OW 4915   5.667   1.174   6.757
 1339SOL    HW1 4916   5.753   1.215   6.727
 1339SOL    HW2 4917   5.686   1.093   6.812
 1340SOL     OW 4918   3.651   2.929   1.542
 1340SOL    HW1 4919   3.646   2.920   1.442
 1340SOL    HW2 4920   3.604   3.012   1.570
 1341SOL     OW 4921   4.929   5.461   6.564
 1341SOL    HW1 4922   4.918   5.437   6.661
 1341SOL    HW2 4923   5.021   5.435   6.534
 1342SOL     OW 4924   1.466   6.156   1.487
 1342SOL    HW1 4925   1.476   6.076   1.546
 1342SOL    HW2 4926   1.426   6.231   1.539
 1343SOL     OW 4927   4.821   6.118   2.996
 1343SOL    HW1 4928   4.821   6.101   3.095
 1343SOL    HW2 4929   4.728   6.117   2.962
 1344SOL     OW 4930   1.101   1.073   4.616
 1344SOL    HW1 4931   1.040   1.133   4.564
 1344SOL    HW2 4932   1.107   1.105   4.710
 1345SOL     OW 4933   1.580   6.856   6.465
 1345SOL    HW1 4934   1.536   6.945   6.472
 1345SOL    HW2 4935   1.679   6.867   6.471
 1346SOL     OW 4936   3.065   5.044   4.756
 1346SOL    HW1 4937   3.022   5.060   4.845
 1346SOL    HW2 4938   3.153   5.091   4.752
 1347SOL     OW 4939   1.823   0.658   6.482
 1347SOL    HW1 4940   1.861   0.668   6.390
 1347SOL    HW2 4941   1.814   0.748   6.525
 1348SOL     OW 4942   1.305   6.499   5.288
 1348SOL    HW1 4943   1.278   6.458   5.375
 1348SOL    HW2 4944   1.241   6.471   5.217
 1349SOL     OW 4945   5.497   4.073   4.082
 1349SOL    HW1 4946   5.597   4.086   4.079
 1349SOL    HW2 4947   5.476   3.977   4.067
 1350SOL     OW 4948   4.506   5.203   6.647
 1350SOL    HW1 4949   4.584   5.141   6.649
 1350SOL    HW2 4950   4.535   5.293   6.614
 1351SOL     OW 4951   0.078   2.418   5.933
 1351SOL    HW1 4952   7.012   2.382   5.965
 1351SOL    HW2 4953   0.066   2.463   5.844
 1352SOL     OW 4954   0.434   0.762   2.643
 1352SOL    HW1 4955   0.381   0.687   2.605
 1352SOL    HW2 4956   0.375   0.821   2.698
 1353SOL     OW 4957   6.840   1.343   6.708
 1353SOL    HW1 4958   6.877   1.350   6.800
 1353SOL    HW2 4959   6.815   1.434   6.675
 1354SOL     OW 4960   5.425   5.033   2.792
 1354SOL    HW1 4961   5.491   5.000   2.860
 1354SOL    HW2 4962   5.462   5.115   2.748
 1355SOL     OW 4963   4.530   3.707   5.351
 1355SOL    HW1 4964   4.594   3.695   5.276
 1355SOL    HW2 4965   4.473   3.625   5.360
 1356SOL     OW 4966   2.529   3.051   6.857
 1356SOL    HW1 4967   2.547   3.062   6.759
 1356SOL    HW2 4968   2.514   3.141   6.899
 1357SOL     OW 4969   1.544   2.654   5.504
 1357SOL    HW1 4970   1.570   2.559   5.483
 1357SOL    HW2 4971   1.469   2.654   5.570
 1358SOL     OW 4972   2.380   6.727   6.855
 1358SOL    HW1 4973   2.317   6.733   6.932
 1358SOL    HW2 4974   2.437   6.645   6.865
 1359SOL     OW 4975   6.080   4.152   0.828
 1359SOL    HW1 4976   6.135   4.222   0.783
 1359SOL    HW2 4977   6.093   4.064   0.782
 1360SOL     OW 4978   2.340   2.233   0.145
 1360SOL    HW1 4979   2.384   2.321   0.129
 1360SOL    HW2 4980   2.360   2.201   0.237
 1361SOL     OW 4981   6.663   4.796   5.065
 1361SOL    HW1 4982   6.565   4.798   5.087
 1361SOL    HW2 4983   6.711   4.864   5.122
 1362SOL     OW 4984   3.251   4.073   3.763
 1362SOL    HW1 4985   3.290   4.100   3.851
 1362SOL    HW2 4986   3.271   4.143   3.695
 1363SOL     OW 4987   0.875   6.370   4.012
 1363SOL    HW1 4988   0.788   6.392   3.968
 1363SOL    HW2 4989   0.918   6.455   4.045
 1364SOL     OW 4990   4.552   4.262   0.375
 1364SOL    HW1 4991   4.642   4.299   0.353
 1364SOL    HW2 4992   4.541   4.172   0.334
 1365SOL     OW 4993   5.955   2.549   6.722
 1365SOL    HW1 4994   6.032   2.487   6.738
 1365SOL    HW2 4995   5.974   2.638   6.764
 1366SOL     OW 4996   1.811   0.015   5.812
 1366SOL    HW1 4997   1.722   0.046   5.844
 1366SOL    HW2 4998   1.835   0.062   5.727
 1367SOL     OW 4999   2.992   1.570   2.213
 1367SOL    HW1 5000   2.905   1.550   2.168
 1367SOL    HW2 5001   3.043   1.637   2.160
 1368SOL     OW 5002   6.669   0.409   3.009
 1368SOL    HW1 5003   6.736   0.350   3.055
 1368SOL    HW2 5004   6.597   0.353   2.968
 1369SOL     OW 5005   0.719   0.292   2.412
 1369SOL    HW1 5006   0.662   0.372   2.431
 1369SOL    HW2 5007   0.767   0.265   2.495
 1370SOL     OW 5008   2.337   0.793   2.460
 1370SOL    HW1 5009   2.337   0.694   2.471
 1370SOL    HW2 5010   2.300   0.835   2.543
 1371SOL     OW 5011   3.397   0.658   6.330
 1371SOL    HW1 5012   3.440   0.733   6.379
 1371SOL    HW2 5013   3.359   0.691   6.244
 1372SOL     OW 5014   2.780   2.252   1.744
 1372SOL    HW1 5015   2.862   2.224   1.694
 1372SOL    HW2 5016   2.805   2.315   1.817
 1373SOL     OW 5017   1.482   6.120   6.890
 1373SOL    HW1 5018   1.399   6.175   6.894
 1373SOL    HW2 5019   1.560   6.179   6.867
 1374SOL     OW 5020   5.170   4.483   6.450
 1374SOL    HW1 5021   5.231   4.432   6.390
 1374SOL    HW2 5022   5.150   4.429   6.532
 1375SOL     OW 5023   0.888   4.373   4.579
 1375SOL    HW1 5024   0.861   4.286   4.537
 1375SOL    HW2 5025   0.983   4.393   4.555
 1376SOL     OW 5026   5.187   0.717   2.667
 1376SOL    HW1 5027   5.167   0.810   2.634
 1376SOL    HW2 5028   5.141   0.702   2.754
 1377SOL     OW 5029   0.714   4.731   4.612
 1377SOL    HW1 5030   0.622   4.735   4.574
 1377SOL    HW2 5031   0.708   4.726   4.712
 1378SOL     OW 5032   1.749   2.567   0.316
 1378SOL    HW1 5033   1.730   2.543   0.220
 1378SOL    HW2 5034   1.729   2.488   0.374
 1379SOL     OW 5035   3.788   6.151   1.062
 1379SOL    HW1 5036   3.815   6.103   1.145
 1379SOL    HW2 5037   3.797   6.090   0.983
 1380SOL     OW 5038   5.946   4.797   3.081
 1380SOL    HW1 5039   5.968   4.700   3.066
 1380SOL    HW2 5040   5.904   4.808   3.171
 1381SOL     OW 5041   5.393   6.928   2.445
 1381SOL    HW1 5042   5.480   6.978   2.440
 1381SOL    HW2 5043   5.341   6.944   2.362
 1382SOL     OW 5044   0.233   3.969   6.691
 1382SOL    HW1 5045   0.241   4.059   6.649
 1382SOL    HW2 5046   0.317   3.918   6.677
 1383SOL     OW 5047   2.436   0.054   0.937
 1383SOL    HW1 5048   2.428   0.045   0.837
 1383SOL    HW2 5049   2.367   0.118   0.970
 1384SOL     OW 5050   1.208   1.452   1.892
 1384SOL    HW1 5051   1.223   1.356   1.916
 1384SOL    HW2 5052   1.240   1.511   1.967
 1385SOL     OW 5053   5.249   3.455   4.201
 1385SOL    HW1 5054   5.285   3.478   4.291
 1385SOL    HW2 5055   5.291   3.514   4.132
 1386SOL     OW 5056   2.614   2.436   3.869
 1386SOL    HW1 5057   2.625   2.525   3.826
 1386SOL    HW2 5058   2.681   2.372   3.831
 1387SOL     OW 5059   3.171   0.537   4.127
 1387SOL    HW1 5060   3.079   0.536   4.166
 1387SOL    HW2 5061   3.224   0.460   4.162
 1388SOL     OW 5062   5.320   1.696   3.887
 1388SOL    HW1 5063   5.381   1.621   3.912
 1388SOL    HW2 5064   5.264   1.669   3.809
 1389SOL     OW 5065   6.825   0.438   3.437
 1389SOL    HW1 5066   6.857   0.389   3.518
 1389SOL    HW2 5067   6.898   0.497   3.402
 1390SOL     OW 5068   4.775   2.426   2.893
 1390SOL    HW1 5069   4.839   2.377   2.951
 1390SOL    HW2 5070   4.713   2.361   2.849
 1391SOL     OW 5071   5.723   0.795   5.030
 1391SOL    HW1 5072   5.790   0.793   4.955
 1391SOL    HW2 5073   5.700   0.890   5.050
 1392SOL     OW 5074   3.901   6.531   5.377
 1392SOL    HW1 5075   3.847   6.612   5.399
 1392SOL    HW2 5076   3.883   6.460   5.445
 1393SOL     OW 5077   4.862   0.301   7.002
 1393SOL    HW1 5078   4.902   0.238   6.936
 1393SOL    HW2 5079   4.890   0.275   0.073
 1394SOL     OW 5080   4.264   0.159   4.307
 1394SOL    HW1 5081   4.255   0.230   4.376
 1394SOL    HW2 5082   4.248   0.069   4.350
 1395SOL     OW 5083   0.314   5.265   2.294
 1395SOL    HW1 5084   0.383   5.331   2.263
 1395SOL    HW2 5085   0.248   5.248   2.221
 1396SOL     OW 5086   1.431   1.919   3.520
 1396SOL    HW1 5087   1.392   1.953   3.606
 1396SOL    HW2 5088   1.380   1.839   3.489
 1397SOL     OW 5089   1.876   5.117   4.953
 1397SOL    HW1 5090   1.820   5.034   4.951
 1397SOL    HW2 5091   1.969   5.092   4.983
 1398SOL     OW 5092   3.025   0.020   6.918
 1398SOL    HW1 5093   2.929   0.008   6.896
 1398SOL    HW2 5094   3.041   7.010   7.012
 1399SOL     OW 5095   3.686   0.100   0.147
 1399SOL    HW1 5096   3.724   0.192   0.154
 1399SOL    HW2 5097   3.753   0.034   0.180
 1400SOL     OW 5098   0.294   0.919   5.865
 1400SOL    HW1 5099   0.289   1.005   5.916
 1400SOL    HW2 5100   0.390   0.898   5.846
 1401SOL     OW 5101   5.109   0.144   2.235
 1401SOL    HW1 5102   5.100   0.185   2.144
 1401SOL    HW2 5103   5.035   0.177   2.294
 1402SOL     OW 5104   5.677   4.885   2.298
 1402SOL    HW1 5105   5.773   4.875   2.272
 1402SOL    HW2 5106   5.672   4.931   2.387
 1403SOL     OW 5107   2.944   3.493   6.775
 1403SOL    HW1 5108   2.895   3.475   6.689
 1403SOL    HW2 5109   2.956   3.407   6.824
 1404SOL     OW 5110   3.928   6.177   0.421
 1404SOL    HW1 5111   3.868   6.255   0.437
 1404SOL    HW2 5112   3.985   6.194   0.340
 1405SOL     OW 5113   0.957   3.555   6.921
 1405SOL    HW1 5114   0.878   3.504   6.887
 1405SOL    HW2 5115   0.927   3.620   6.991
 1406SOL     OW 5116   2.265   2.354   6.876
 1406SOL    HW1 5117   2.191   2.350   6.809
 1406SOL    HW2 5118   2.236   2.407   6.955
 1407SOL     OW 5119   0.143   2.705   1.654
 1407SOL    HW1 5120   0.242   2.713   1.647
 1407SOL    HW2 5121   0.105   2.683   1.564
 1408SOL     OW 5122   5.800   6.208   0.575
 1408SOL    HW1 5123   5.831   6.271   0.646
 1408SOL    HW2 5124   5.836   6.117   0.593
 1409SOL     OW 5125   6.202   1.914   5.948
 1409SOL    HW1 5126   6.297   1.945   5.943
 1409SOL    HW2 5127   6.190   1.834   5.888
 1410SOL     OW 5128   3.100   0.808   0.143
 1410SOL    HW1 5129   3.005   0.796   0.116
 1410SOL    HW2 5130   3.104   0.852   0.232
 1411SOL     OW 5131   3.619   6.165   6.790
 1411SOL    HW1 5132   3.586   6.256   6.766
 1411SOL    HW2 5133   3.544   6.110   6.826
 1412SOL     OW 5134   2.782   1.808   0.397
 1412SOL    HW1 5135   2.731   1.881   0.351
 1412SOL    HW2 5136   2.747   1.796   0.490
 1413SOL     OW 5137   2.224   1.670   4.946
 1413SOL    HW1 5138   2.320   1.674   4.918
 1413SOL    HW2 5139   2.213   1.606   5.021
 1414SOL     OW 5140   0.509   5.383   2.142
 1414SOL    HW1 5141   0.481   5.349   2.052
 1414SOL    HW2 5142   0.608   5.395   2.143
 1415SOL     OW 5143   3.839   2.003   5.195
 1415SOL    HW1 5144   3.801   1.995   5.103
 1415SOL    HW2 5145   3.817   1.922   5.248
 1416SOL     OW 5146   4.859   0.185   5.138
 1416SOL    HW1 5147   4.832   0.254   5.205
 1416SOL    HW2 5148   4.910   0.228   5.063
 1417SOL     OW 5149   3.802   3.483   4.462
 1417SOL    HW1 5150   3.735   3.493   4.389
 1417SOL    HW2 5151   3.891   3.456   4.423
 1418SOL     OW 5152   2.808   3.764   5.338
 1418SOL    HW1 5153   2.836   3.674   5.306
 1418SOL    HW2 5154   2.871   3.795   5.410
 1419SOL     OW 5155   0.726   5.748   1.947
 1419SOL    HW1 5156   0.742   5.800   1.863
 1419SOL    HW2 5157   0.801   5.764   2.011
 1420SOL     OW 5158   2.948   6.169   3.452
 1420SOL    HW1 5159   3.013   6.208   3.517
 1420SOL    HW2 5160   2.914   6.241   3.390
 1421SOL     OW 5161   1.767   5.611   0.821
 1421SOL    HW1 5162   1.818   5.685   0.863
 1421SOL    HW2 5163   1.732   5.550   0.892
 1422SOL     OW 5164   1.764   3.610   6.541
 1422SOL    HW1 5165   1.792   3.698   6.578
 1422SOL    HW2 5166   1.688   3.574   6.595
 1423SOL     OW 5167   5.050   0.964   4.882
 1423SOL    HW1 5168   5.063   0.877   4.930
 1423SOL    HW2 5169   4.996   1.026   4.939
 1424SOL     OW 5170   6.616   2.467   1.510
 1424SOL    HW1 5171   6.693   2.403   1.517
 1424SOL    HW2 5172   6.629   2.527   1.432
 1425SOL     OW 5173   5.645   6.537   3.141
 1425SOL    HW1 5174   5.718   6.586   3.094
 1425SOL    HW2 5175   5.671   6.441   3.151
 1426SOL     OW 5176   3.767   1.052   0.661
 1426SOL    HW1 5177   3.788   1.045   0.758
 1426SOL    HW2 5178   3.770   0.961   0.620
 1427SOL     OW 5179   0.769   0.386   4.125
 1427SOL    HW1 5180   0.786   0.353   4.217
 1427SOL    HW2 5181   0.701   0.459   4.127
 1428SOL     OW 5182   2.130   4.306   3.739
 1428SOL    HW1 5183   2.215   4.321   3.688
 1428SOL    HW2 5184   2.143   4.229   3.802
 1429SOL     OW 5185   6.358   0.167   1.760
 1429SOL    HW1 5186   6.319   0.119   1.681
 1429SOL    HW2 5187   6.456   0.150   1.764
 1430SOL     OW 5188   2.169   3.968   4.442
 1430SOL    HW1 5189   2.152   3.872   4.467
 1430SOL    HW2 5190   2.169   4.024   4.524
 1431SOL     OW 5191   3.465   1.985   0.554
 1431SOL    HW1 5192   3.485   2.016   0.461
 1431SOL    HW2 5193   3.402   2.048   0.598
 1432SOL     OW 5194   4.255   0.317   3.080
 1432SOL    HW1 5195   4.197   0.337   3.001
 1432SOL    HW2 5196   4.198   0.286   3.156
 1433SOL     OW 5197   3.006   2.157   4.178
 1433SOL    HW1 5198   2.980   2.062   4.198
 1433SOL    HW2 5199   3.081   2.158   4.113
 1434SOL     OW 5200   5.163   3.576   0.562
 1434SOL    HW1 5201   5.107   3.554   0.482
 1434SOL    HW2 5202   5.231   3.645   0.536
 1435SOL     OW 5203   0.249   6.381   3.945
 1435SOL    HW1 5204   0.209   6.471   3.961
 1435SOL    HW2 5205   0.190   6.311   3.984
 1436SOL     OW 5206   5.341   1.058   0.270
 1436SOL    HW1 5207   5.404   1.089   0.341
 1436SOL    HW2 5208   5.389   0.996   0.207
 1437SOL     OW 5209   4.375   1.628   0.742
 1437SOL    HW1 5210   4.305   1.559   0.724
 1437SOL    HW2 5211   4.362   1.706   0.681
 1438SOL     OW 5212   2.215   0.120   2.982
 1438SOL    HW1 5213   2.284   0.193   2.990
 1438SOL    HW2 5214   2.127   0.160   2.959
 1439SOL     OW 5215   0.461   5.607   5.188
 1439SOL    HW1 5216   0.556   5.612   5.159
 1439SOL    HW2 5217   0.406   5.563   5.116
 1440SOL     OW 5218   3.400   3.454   2.058
 1440SOL    HW1 5219   3.321   3.507   2.026
 1440SOL    HW2 5220   3.368   3.373   2.107
 1441SOL     OW 5221   0.124   2.046   5.825
 1441SOL    HW1 5222   0.205   2.029   5.770
 1441SOL    HW2 5223   0.043   2.047   5.767
 1442SOL     OW 5224   5.387   5.752   0.365
 1442SOL    HW1 5225   5.341   5.676   0.411
 1442SOL    HW2 5226   5.384   5.833   0.424
 1443SOL     OW 5227   1.429   2.960   3.675
 1443SOL    HW1 5228   1.403   2.944   3.580
 1443SOL    HW2 5229   1.504   3.026   3.678
 1444SOL     OW 5230   5.182   6.694   4.444
 1444SOL    HW1 5231   5.272   6.737   4.450
 1444SOL    HW2 5232   5.155   6.661   4.535
 1445SOL     OW 5233   6.902   2.207   0.125
 1445SOL    HW1 5234   6.856   2.226   0.039
 1445SOL    HW2 5235   6.901   2.109   0.143
 1446SOL     OW 5236   3.618   5.878   2.421
 1446SOL    HW1 5237   3.626   5.834   2.510
 1446SOL    HW2 5238   3.529   5.856   2.381
 1447SOL     OW 5239   6.676   0.450   4.624
 1447SOL    HW1 5240   6.627   0.519   4.571
 1447SOL    HW2 5241   6.701   0.487   4.713
 1448SOL     OW 5242   5.021   0.521   0.507
 1448SOL    HW1 5243   5.042   0.474   0.593
 1448SOL    HW2 5244   5.079   0.483   0.434
 1449SOL     OW 5245   4.302   5.547   0.140
 1449SOL    HW1 5246   4.299   5.505   0.049
 1449SOL    HW2 5247   4.283   5.477   0.209
 1450SOL     OW 5248   5.801   1.506   3.775
 1450SOL    HW1 5249   5.863   1.526   3.851
 1450SOL    HW2 5250   5.725   1.449   3.807
 1451SOL     OW 5251   1.133   7.001   1.722
 1451SOL    HW1 5252   1.210   6.939   1.708
 1451SOL    HW2 5253   1.084   6.974   1.806
 1452SOL     OW 5254   2.720   0.251   6.217
 1452SOL    HW1 5255   2.719   0.225   6.120
 1452SOL    HW2 5256   2.814   0.262   6.247
 1453SOL     OW 5257   5.389   4.182   4.520
 1453SOL    HW1 5258   5.439   4.116   4.576
 1453SOL    HW2 5259   5.455   4.235   4.466
 1454SOL     OW 5260   5.551   3.879   1.020
 1454SOL    HW1 5261   5.608   3.846   1.094
 1454SOL    HW2 5262   5.458   3.896   1.054
 1455SOL     OW 5263   1.580   1.850   1.569
 1455SOL    HW1 5264   1.530   1.873   1.653
 1455SOL    HW2 5265   1.619   1.759   1.577
 1456SOL     OW 5266   5.904   5.406   5.462
 1456SOL    HW1 5267   5.932   5.327   5.408
 1456SOL    HW2 5268   5.864   5.475   5.403
 1457SOL     OW 5269   1.973   0.783   4.470
 1457SOL    HW1 5270   1.879   0.753   4.487
 1457SOL    HW2 5271   1.977   0.883   4.473
 1458SOL     OW 5272   0.210   5.343   6.568
 1458SOL    HW1 5273   0.138   5.306   6.510
 1458SOL    HW2 5274   0.298   5.338   6.520
 1459SOL     OW 5275   2.389   6.750   1.735
 1459SOL    HW1 5276   2.422   6.789   1.650
 1459SOL    HW2 5277   2.466   6.718   1.790
 1460SOL     OW 5278   0.353   0.166   6.879
 1460SOL    HW1 5279   0.415   0.182   6.956
 1460SOL    HW2 5280   0.405   0.137   6.799
 1461SOL     OW 5281   5.122   4.964   2.543
 1461SOL    HW1 5282   5.058   4.887   2.538
 1461SOL    HW2 5283   5.209   4.938   2.501
 1462SOL     OW 5284   5.333   0.168   5.229
 1462SOL    HW1 5285   5.415   0.182   5.284
 1462SOL    HW2 5286   5.276   0.249   5.233
 1463SOL     OW 5287   0.879   2.559   5.511
 1463SOL    HW1 5288   0.900   2.494   5.584
 1463SOL    HW2 5289   0.821   2.514   5.443
 1464SOL     OW 5290   0.618   0.907   1.198
 1464SOL    HW1 5291   0.612   1.000   1.162
 1464SOL    HW2 5292   0.681   0.906   1.276
 1465SOL     OW 5293   1.662   0.589   3.436
 1465SOL    HW1 5294   1.615   0.627   3.515
 1465SOL    HW2 5295   1.733   0.653   3.405
 1466SOL     OW 5296   5.579   5.740   4.095
 1466SOL    HW1 5297   5.662   5.795   4.096
 1466SOL    HW2 5298   5.569   5.692   4.183
 1467SOL     OW 5299   6.824   3.794   4.242
 1467SOL    HW1 5300   6.829   3.699   4.272
 1467SOL    HW2 5301   6.909   3.821   4.198
 1468SOL     OW 5302   4.729   0.465   2.626
 1468SOL    HW1 5303   4.706   0.514   2.710
 1468SOL    HW2 5304   4.761   0.529   2.557
 1469SOL     OW 5305   0.528   0.598   2.184
 1469SOL    HW1 5306   0.603   0.658   2.158
 1469SOL    HW2 5307   0.440   0.641   2.162
 1470SOL     OW 5308   0.240   0.002   3.030
 1470SOL    HW1 5309   0.309   6.959   2.996
 1470SOL    HW2 5310   0.149   6.983   3.018
 1471SOL     OW 5311   6.313   0.853   1.045
 1471SOL    HW1 5312   6.245   0.821   0.979
 1471SOL    HW2 5313   6.285   0.827   1.137
 1472SOL     OW 5314   4.693   5.411   4.800
 1472SOL    HW1 5315   4.637   5.336   4.765
 1472SOL    HW2 5316   4.634   5.484   4.834
 1473SOL     OW 5317   6.721   3.624   3.765
 1473SOL    HW1 5318   6.734   3.638   3.863
 1473SOL    HW2 5319   6.627   3.646   3.740
 1474SOL     OW 5320   4.304   5.935   2.785
 1474SOL    HW1 5321   4.233   5.870   2.811
 1474SOL    HW2 5322   4.287   6.022   2.831
 1475SOL     OW 5323   6.364   6.908   3.015
 1475SOL    HW1 5324   6.389   6.975   2.944
 1475SOL    HW2 5325   6.309   6.835   2.974
 1476SOL     OW 5326   0.750   2.181   1.804
 1476SOL    HW1 5327   0.835   2.217   1.843
 1476SOL    HW2 5328   0.772   2.108   1.738
 1477SOL     OW 5329   2.680   6.569   4.657
 1477SOL    HW1 5330   2.658   6.645   4.595
 1477SOL    HW2 5331   2.602   6.507   4.662
 1478SOL     OW 5332   6.915   3.293   1.145
 1478SOL    HW1 5333   6.860   3.273   1.227
 1478SOL    HW2 5334   7.000   3.242   1.149
 1479SOL     OW 5335   1.284   5.660   0.071
 1479SOL    HW1 5336   1.343   5.596   0.022
 1479SOL    HW2 5337   1.195   5.617   0.088
 1480SOL     OW 5338   2.882   0.952   6.963
 1480SOL    HW1 5339   2.833   0.878   7.009
 1480SOL    HW2 5340   2.932   1.005   0.010
 1481SOL     OW 5341   0.219   3.330   0.021
 1481SOL    HW1 5342   0.143   3.342   0.085
 1481SOL    HW2 5343   0.220   3.407   6.978
 1482SOL     OW 5344   5.880   0.257   6.383
 1482SOL    HW1 5345   5.832   0.250   6.470
 1482SOL    HW2 5346   5.884   0.167   6.339
 1483SOL     OW 5347   6.473   2.105   6.614
 1483SOL    HW1 5348   6.439   2.019   6.652
 1483SOL    HW2 5349   6.398   2.154   6.570
 1484SOL     OW 5350   5.839   0.040   3.131
 1484SOL    HW1 5351   5.795   0.128   3.115
 1484SOL    HW2 5352   5.931   0.055   3.168
 1485SOL     OW 5353   5.595   3.249   3.872
 1485SOL    HW1 5354   5.524   3.288   3.813
 1485SOL    HW2 5355   5.685   3.273   3.836
 1486SOL     OW 5356   5.404   2.669   1.999
 1486SOL    HW1 5357   5.334   2.732   1.966
 1486SOL    HW2 5358   5.469   2.649   1.926
 1487SOL     OW 5359   0.248   0.112   5.462
 1487SOL    HW1 5360   0.196   0.133   5.379
 1487SOL    HW2 5361   0.323   0.050   5.438
 1488SOL     OW 5362   5.108   2.023   4.788
 1488SOL    HW1 5363   5.182   2.079   4.825
 1488SOL    HW2 5364   5.028   2.081   4.771
 1489SOL     OW 5365   3.428   4.958   4.904
 1489SOL    HW1 5366   3.419   5.048   4.861
 1489SOL    HW2 5367   3.488   4.901   4.847
 1490SOL     OW 5368   2.452   2.413   1.168
 1490SOL    HW1 5369   2.521   2.483   1.151
 1490SOL    HW2 5370   2.413   2.382   1.081
 1491SOL     OW 5371   0.446   2.155   4.820
 1491SOL    HW1 5372   0.380   2.220   4.784
 1491SOL    HW2 5373   0.437   2.150   4.920
 1492SOL     OW 5374   0.098   2.260   1.782
 1492SOL    HW1 5375   0.112   2.163   1.764
 1492SOL    HW2 5376   0.087   2.275   1.880
 1493SOL     OW 5377   6.013   2.580   5.150
 1493SOL    HW1 5378   5.928   2.557   5.103
 1493SOL    HW2 5379   5.996   2.654   5.215
 1494SOL     OW 5380   5.531   1.743   4.286
 1494SOL    HW1 5381   5.614   1.786   4.249
 1494SOL    HW2 5382   5.511   1.781   4.376
 1495SOL     OW 5383   1.398   3.824   1.936
 1495SOL    HW1 5384   1.492   3.834   1.968
 1495SOL    HW2 5385   1.364   3.733   1.959
 1496SOL     OW 5386   1.472   0.270   2.166
 1496SOL    HW1 5387   1.479   0.229   2.257
 1496SOL    HW2 5388   1.393   0.232   2.118
 1497SOL     OW 5389   5.887   5.164   5.587
 1497SOL    HW1 5390   5.798   5.189   5.625
 1497SOL    HW2 5391   5.945   5.246   5.585
 1498SOL     OW 5392   2.852   5.512   0.516
 1498SOL    HW1 5393   2.762   5.539   0.482
 1498SOL    HW2 5394   2.920   5.523   0.443
 1499SOL     OW 5395   0.849   4.232   4.284
 1499SOL    HW1 5396   0.769   4.266   4.233
 1499SOL    HW2 5397   0.818   4.180   4.363
 1500SOL     OW 5398   3.835   6.936   5.981
 1500SOL    HW1 5399   3.804   6.885   6.061
 1500SOL    HW2 5400   3.781   7.020   5.972
 1501SOL     OW 5401   3.383   0.232   0.889
 1501SOL    HW1 5402   3.459   0.277   0.935
 1501SOL    HW2 5403   3.342   0.164   0.950
 1502SOL     OW 5404   0.724   0.270   5.979
 1502SOL    HW1 5405   0.736   0.318   5.892
 1502SOL    HW2 5406   0.809   0.272   6.031
 1503SOL     OW 5407   3.416   3.834   4.986
 1503SOL    HW1 5408   3.379   3.925   4.973
 1503SOL    HW2 5409   3.465   3.806   4.903
 1504SOL     OW 5410   2.536   6.718   3.813
 1504SOL    HW1 5411   2.449   6.748   3.776
 1504SOL    HW2 5412   2.611   6.759   3.760
 1505SOL     OW 5413   5.075   6.750   2.932
 1505SOL    HW1 5414   5.091   6.724   3.027
 1505SOL    HW2 5415   5.108   6.843   2.916
 1506SOL     OW 5416   1.051   6.175   4.087
 1506SOL    HW1 5417   1.059   6.141   3.993
 1506SOL    HW2 5418   1.006   6.265   4.086
 1507SOL     OW 5419   2.079   1.698   0.038
 1507SOL    HW1 5420   2.069   1.606   0.001
 1507SOL    HW2 5421   2.035   1.764   6.998
 1508SOL     OW 5422   4.591   6.756   1.355
 1508SOL    HW1 5423   4.609   6.754   1.257
 1508SOL    HW2 5424   4.664   6.707   1.404
 1509SOL     OW 5425   5.659   1.539   6.569
 1509SOL    HW1 5426   5.611   1.514   6.654
 1509SOL    HW2 5427   5.757   1.531   6.583
 1510SOL     OW 5428   6.589   1.566   2.597
 1510SOL    HW1 5429   6.544   1.524   2.518
 1510SOL    HW2 5430   6.680   1.597   2.572
 1511SOL     OW 5431   0.904   2.691   0.095
 1511SOL    HW1 5432   0.987   2.710   0.042
 1511SOL    HW2 5433   0.841   2.636   0.040
 1512SOL     OW 5434   7.001   1.135   1.708
 1512SOL    HW1 5435   0.060   1.154   1.651
 1512SOL    HW2 5436   0.001   1.061   1.772
 1513SOL     OW 5437   2.602   0.781   2.801
 1513SOL    HW1 5438   2.590   0.693   2.755
 1513SOL    HW2 5439   2.682   0.828   2.763
 1514SOL     OW 5440   4.274   0.975   5.739
 1514SOL    HW1 5441   4.274   1.075   5.732
 1514SOL    HW2 5442   4.288   0.949   5.835
 1515SOL     OW 5443   5.324   5.293   5.381
 1515SOL    HW1 5444   5.329   5.243   5.467
 1515SOL    HW2 5445   5.413   5.336   5.362
 1516SOL     OW 5446   0.031   1.681   0.791
 1516SOL    HW1 5447   6.974   1.628   0.760
 1516SOL    HW2 5448   7.021   1.769   0.826
 1517SOL     OW 5449   3.201   5.299   2.375
 1517SOL    HW1 5450   3.270   5.269   2.441
 1517SOL    HW2 5451   3.240   5.372   2.319
 1518SOL     OW 5452   0.529   4.820   0.707
 1518SOL    HW1 5453   0.596   4.752   0.739
 1518SOL    HW2 5454   0.562   4.861   0.622
 1519SOL     OW 5455   0.334   4.180   1.034
 1519SOL    HW1 5456   0.272   4.126   0.976
 1519SOL    HW2 5457   0.347   4.270   0.993
 1520SOL     OW 5458   1.144   3.305   2.758
 1520SOL    HW1 5459   1.098   3.342   2.839
 1520SOL    HW2 5460   1.076   3.291   2.686
 1521SOL     OW 5461   2.571   4.677   5.325
 1521SOL    HW1 5462   2.641   4.727   5.274
 1521SOL    HW2 5463   2.588   4.579   5.318
 1522SOL     OW 5464   1.431   1.627   6.293
 1522SOL    HW1 5465   1.384   1.715   6.302
 1522SOL    HW2 5466   1.395   1.578   6.214
 1523SOL     OW 5467   5.682   1.537   1.109
 1523SOL    HW1 5468   5.625   1.533   1.191
 1523SOL    HW2 5469   5.769   1.491   1.126
 1524SOL     OW 5470   0.435   1.386   0.785
 1524SOL    HW1 5471   0.467   1.477   0.761
 1524SOL    HW2 5472   0.335   1.386   0.788
 1525SOL     OW 5473   5.126   1.742   5.840
 1525SOL    HW1 5474   5.169   1.784   5.919
 1525SOL    HW2 5475   5.087   1.813   5.781
 1526SOL     OW 5476   5.641   1.724   0.490
 1526SOL    HW1 5477   5.707   1.715   0.415
 1526SOL    HW2 5478   5.687   1.705   0.577
 1527SOL     OW 5479   3.054   0.886   5.962
 1527SOL    HW1 5480   2.991   0.922   5.893
 1527SOL    HW2 5481   3.010   0.810   6.010
 1528SOL     OW 5482   5.021   5.750   3.550
 1528SOL    HW1 5483   4.970   5.670   3.520
 1528SOL    HW2 5484   5.090   5.774   3.482
 1529SOL     OW 5485   1.878   6.772   5.396
 1529SOL    HW1 5486   1.864   6.675   5.417
 1529SOL    HW2 5487   1.927   6.780   5.309
 1530SOL     OW 5488   2.733   6.556   1.329
 1530SOL    HW1 5489   2.732   6.504   1.244
 1530SOL    HW2 5490   2.743   6.653   1.309
 1531SOL     OW 5491   5.449   0.796   6.433
 1531SOL    HW1 5492   5.387   0.866   6.396
 1531SOL    HW2 5493   5.535   0.839   6.459
 1532SOL     OW 5494   2.846   1.998   5.312
 1532SOL    HW1 5495   2.756   2.039   5.327
 1532SOL    HW2 5496   2.896   2.051   5.244
 1533SOL     OW 5497   4.619   3.186   0.135
 1533SOL    HW1 5498   4.552   3.246   0.178
 1533SOL    HW2 5499   4.672   3.138   0.205
 1534SOL     OW 5500   6.640   0.400   0.760
 1534SOL    HW1 5501   6.541   0.386   0.764
 1534SOL    HW2 5502   6.676   0.359   0.676
 1535SOL     OW 5503   5.031   4.434   4.732
 1535SOL    HW1 5504   4.933   4.420   4.741
 1535SOL    HW2 5505   5.080   4.357   4.774
 1536SOL     OW 5506   3.535   6.422   3.269
 1536SOL    HW1 5507   3.485   6.393   3.188
 1536SOL    HW2 5508   3.491   6.385   3.351
 1537SOL     OW 5509   2.832   5.897   4.763
 1537SOL    HW1 5510   2.852   5.802   4.739
 1537SOL    HW2 5511   2.812   5.903   4.861
 1538SOL     OW 5512   3.484   6.124   0.168
 1538SOL    HW1 5513   3.571   6.172   0.184
 1538SOL    HW2 5514   3.442   6.159   0.084
 1539SOL     OW 5515   2.521   6.411   2.077
 1539SOL    HW1 5516   2.458   6.356   2.022
 1539SOL    HW2 5517   2.518   6.379   2.172
 1540SOL     OW 5518   6.081   6.803   5.225
 1540SOL    HW1 5519   6.027   6.878   5.185
 1540SOL    HW2 5520   6.141   6.840   5.296
 1541SOL     OW 5521   5.414   1.453   1.881
 1541SOL    HW1 5522   5.335   1.436   1.821
 1541SOL    HW2 5523   5.498   1.424   1.834
 1542SOL     OW 5524   6.959   6.196   1.002
 1542SOL    HW1 5525   6.993   6.123   1.060
 1542SOL    HW2 5526   7.012   6.200   0.917
 1543SOL     OW 5527   3.345   3.315   3.116
 1543SOL    HW1 5528   3.413   3.312   3.042
 1543SOL    HW2 5529   3.339   3.409   3.150
 1544SOL     OW 5530   3.519   3.596   1.860
 1544SOL    HW1 5531   3.508   3.695   1.858
 1544SOL    HW2 5532   3.489   3.560   1.948
 1545SOL     OW 5533   0.339   6.580   4.920
 1545SOL    HW1 5534   0.273   6.548   4.852
 1545SOL    HW2 5535   0.332   6.525   5.003
 1546SOL     OW 5536   6.937   6.318   6.482
 1546SOL    HW1 5537   6.873   6.357   6.416
 1546SOL    HW2 5538   0.004   6.299   6.438
 1547SOL     OW 5539   3.501   5.844   0.176
 1547SOL    HW1 5540   3.473   5.939   0.193
 1547SOL    HW2 5541   3.600   5.838   0.174
 1548SOL     OW 5542   6.920   4.171   3.134
 1548SOL    HW1 5543   6.892   4.082   3.098
 1548SOL    HW2 5544   6.971   4.221   3.063
 1549SOL     OW 5545   6.475   2.180   1.088
 1549SOL    HW1 5546   6.382   2.212   1.108
 1549SOL    HW2 5547   6.540   2.252   1.111
 1550SOL     OW 5548   2.716   4.987   2.117
 1550SOL    HW1 5549   2.699   5.049   2.193
 1550SOL    HW2 5550   2.748   4.899   2.153
 1551SOL     OW 5551   0.563   2.381   1.815
 1551SOL    HW1 5552   0.633   2.309   1.816
 1551SOL    HW2 5553   0.507   2.371   1.732
 1552SOL     OW 5554   1.385   6.477   2.275
 1552SOL    HW1 5555   1.423   6.393   2.312
 1552SOL    HW2 5556   1.327   6.521   2.344
 1553SOL     OW 5557   5.814   1.373   5.754
 1553SOL    HW1 5558   5.720   1.364   5.722
 1553SOL    HW2 5559   5.849   1.284   5.782
 1554SOL     OW 5560   2.635   2.832   0.706
 1554SOL    HW1 5561   2.636   2.733   0.694
 1554SOL    HW2 5562   2.703   2.874   0.646
 1555SOL     OW 5563   4.129   1.497   0.691
 1555SOL    HW1 5564   4.062   1.427   0.665
 1555SOL    HW2 5565   4.089   1.587   0.677
 1556SOL     OW 5566   3.115   2.464   0.216
 1556SOL    HW1 5567   3.200   2.459   0.269
 1556SOL    HW2 5568   3.078   2.557   0.222
 1557SOL     OW 5569   1.048   2.818   0.752
 1557SOL    HW1 5570   1.113   2.804   0.677
 1557SOL    HW2 5571   1.064   2.750   0.824
 1558SOL     OW 5572   5.324   2.645   6.587
 1558SOL    HW1 5573   5.299   2.622   6.681
 1558SOL    HW2 5574   5.249   2.619   6.525
 1559SOL     OW 5575   2.653   6.220   3.453
 1559SOL    HW1 5576   2.738   6.259   3.490
 1559SOL    HW2 5577   2.622   6.146   3.512
 1560SOL     OW 5578   4.770   3.042   1.424
 1560SOL    HW1 5579   4.727   2.969   1.370
 1560SOL    HW2 5580   4.865   3.054   1.393
 1561SOL     OW 5581   5.651   6.274   0.358
 1561SOL    HW1 5582   5.698   6.230   0.434
 1561SOL    HW2 5583   5.696   6.250   0.272
 1562SOL     OW 5584   2.853   6.881   2.570
 1562SOL    HW1 5585   2.786   6.884   2.495
 1562SOL    HW2 5586   2.806   6.886   2.657
 1563SOL     OW 5587   2.209   3.932   3.736
 1563SOL    HW1 5588   2.249   3.994   3.803
 1563SOL    HW2 5589   2.164   3.856   3.782
 1564SOL     OW 5590   1.041   1.689   2.466
 1564SOL    HW1 5591   1.084   1.779   2.471
 1564SOL    HW2 5592   1.016   1.659   2.558
 1565SOL     OW 5593   4.945   1.773   5.073
 1565SOL    HW1 5594   5.001   1.748   4.994
 1565SOL    HW2 5595   4.852   1.737   5.060
 1566SOL     OW 5596   0.671   3.507   3.554
 1566SOL    HW1 5597   0.699   3.463   3.640
 1566SOL    HW2 5598   0.735   3.481   3.482
 1567SOL     OW 5599   5.439   0.561   4.767
 1567SOL    HW1 5600   5.391   0.647   4.786
 1567SOL    HW2 5601   5.374   0.494   4.730
 1568SOL     OW 5602   2.364   4.706   0.865
 1568SOL    HW1 5603   2.279   4.664   0.898
 1568SOL    HW2 5604   2.421   4.733   0.942
 1569SOL     OW 5605   2.253   0.842   2.203
 1569SOL    HW1 5606   2.164   0.875   2.233
 1569SOL    HW2 5607   2.302   0.802   2.280
 1570SOL     OW 5608   3.004   6.115   6.361
 1570SOL    HW1 5609   3.010   6.028   6.411
 1570SOL    HW2 5610   3.020   6.191   6.425
 1571SOL     OW 5611   0.157   1.700   4.059
 1571SOL    HW1 5612   0.192   1.787   4.091
 1571SOL    HW2 5613   0.101   1.714   3.977
 1572SOL     OW 5614   1.889   6.108   3.464
 1572SOL    HW1 5615   1.947   6.111   3.383
 1572SOL    HW2 5616   1.888   6.198   3.507
 1573SOL     OW 5617   5.823   5.895   0.618
 1573SOL    HW1 5618   5.912   5.929   0.648
 1573SOL    HW2 5619   5.836   5.821   0.552
 1574SOL     OW 5620   0.259   4.244   3.173
 1574SOL    HW1 5621   0.203   4.280   3.098
 1574SOL    HW2 5622   0.345   4.295   3.179
 1575SOL     OW 5623   0.029   2.040   0.737
 1575SOL    HW1 5624   0.034   2.133   0.774
 1575SOL    HW2 5625   0.107   2.025   0.675
 1576SOL     OW 5626   1.587   6.054   2.502
 1576SOL    HW1 5627   1.566   6.098   2.589
 1576SOL    HW2 5628   1.683   6.069   2.479
 1577SOL     OW 5629   4.333   5.785   4.173
 1577SOL    HW1 5630   4.276   5.792   4.255
 1577SOL    HW2 5631   4.407   5.719   4.190
 1578SOL     OW 5632   5.742   1.943   1.697
 1578SOL    HW1 5633   5.702   1.865   1.648
 1578SOL    HW2 5634   5.838   1.924   1.717
 1579SOL     OW 5635   1.643   3.208   1.887
 1579SOL    HW1 5636   1.554   3.251   1.896
 1579SOL    HW2 5637   1.666   3.158   1.971
 1580SOL     OW 5638   3.165   3.969   3.433
 1580SOL    HW1 5639   3.257   3.991   3.464
 1580SOL    HW2 5640   3.103   3.966   3.512
 1581SOL     OW 5641   4.878   4.937   5.167
 1581SOL    HW1 5642   4.971   4.957   5.135
 1581SOL    HW2 5643   4.880   4.916   5.265
 1582SOL     OW 5644   4.238   6.140   4.646
 1582SOL    HW1 5645   4.285   6.226   4.630
 1582SOL    HW2 5646   4.303   6.064   4.635
 1583SOL     OW 5647   1.167   5.028   5.324
 1583SOL    HW1 5648   1.236   4.980   5.269
 1583SOL    HW2 5649   1.120   5.095   5.267
 1584SOL     OW 5650   0.173   3.657   0.222
 1584SOL    HW1 5651   0.223   3.681   0.139
 1584SOL    HW2 5652   0.095   3.718   0.233
 1585SOL     OW 5653   5.138   6.316   4.585
 1585SOL    HW1 5654   5.101   6.339   4.495
 1585SOL    HW2 5655   5.154   6.400   4.637
 1586SOL     OW 5656   2.425   5.782   3.550
 1586SOL    HW1 5657   2.327   5.763   3.556
 1586SOL    HW2 5658   2.442   5.842   3.471
 1587SOL     OW 5659   3.740   6.529   0.230
 1587SOL    HW1 5660   3.763   6.508   0.325
 1587SOL    HW2 5661   3.814   6.584   0.190
 1588SOL     OW 5662   6.330   2.057   3.590
 1588SOL    HW1 5663   6.263   2.008   3.646
 1588SOL    HW2 5664   6.298   2.060   3.495
 1589SOL     OW 5665   6.880   1.919   4.456
 1589SOL    HW1 5666   6.974   1.953   4.447
 1589SOL    HW2 5667   6.866   1.843   4.393
 1590SOL     OW 5668   5.075   0.607   4.117
 1590SOL    HW1 5669   5.159   0.654   4.142
 1590SOL    HW2 5670   5.081   0.576   4.022
 1591SOL     OW 5671   0.362   5.780   0.387
 1591SOL    HW1 5672   0.402   5.688   0.383
 1591SOL    HW2 5673   0.435   5.847   0.398
 1592SOL     OW 5674   6.962   3.928   4.770
 1592SOL    HW1 5675   7.021   4.003   4.738
 1592SOL    HW2 5676   7.017   3.845   4.780
 1593SOL     OW 5677   3.896   6.008   1.290
 1593SOL    HW1 5678   3.971   6.014   1.356
 1593SOL    HW2 5679   3.911   5.929   1.231
 1594SOL     OW 5680   4.951   0.865   2.897
 1594SOL    HW1 5681   4.881   0.898   2.833
 1594SOL    HW2 5682   4.987   0.942   2.949
 1595SOL     OW 5683   0.291   3.574   6.881
 1595SOL    HW1 5684   0.374   3.520   6.868
 1595SOL    HW2 5685   0.311   3.653   6.939
 1596SOL     OW 5686   5.143   4.103   4.412
 1596SOL    HW1 5687   5.125   4.074   4.318
 1596SOL    HW2 5688   5.241   4.120   4.423
 1597SOL     OW 5689   4.226   6.390   0.818
 1597SOL    HW1 5690   4.238   6.353   0.726
 1597SOL    HW2 5691   4.157   6.337   0.867
 1598SOL     OW 5692   1.050   4.545   6.186
 1598SOL    HW1 5693   1.033   4.488   6.105
 1598SOL    HW2 5694   0.986   4.519   6.258
 1599SOL     OW 5695   4.555   5.721   3.780
 1599SOL    HW1 5696   4.483   5.699   3.846
 1599SOL    HW2 5697   4.627   5.772   3.827
 1600SOL     OW 5698   4.743   0.629   1.534
 1600SOL    HW1 5699   4.718   0.694   1.462
 1600SOL    HW2 5700   4.776   0.678   1.614
 1601SOL     OW 5701   6.405   0.829   4.976
 1601SOL    HW1 5702   6.392   0.761   4.903
 1601SOL    HW2 5703   6.323   0.885   4.984
 1602SOL     OW 5704   4.024   5.346   3.492
 1602SOL    HW1 5705   3.939   5.377   3.448
 1602SOL    HW2 5706   4.091   5.323   3.422
 1603SOL     OW 5707   3.238   5.046   1.954
 1603SOL    HW1 5708   3.258   5.060   2.051
 1603SOL    HW2 5709   3.272   4.956   1.926
 1604SOL     OW 5710   4.521   5.339   2.273
 1604SOL    HW1 5711   4.423   5.362   2.273
 1604SOL    HW2 5712   4.569   5.397   2.338
 1605SOL     OW 5713   4.754   5.105   0.489
 1605SOL    HW1 5714   4.822   5.070   0.424
 1605SOL    HW2 5715   4.676   5.043   0.492
 1606SOL     OW 5716   3.274   5.745   5.554
 1606SOL    HW1 5717   3.258   5.834   5.513
 1606SOL    HW2 5718   3.354   5.748   5.613
 1607SOL     OW 5719   4.953   3.718   3.975
 1607SOL    HW1 5720   4.922   3.778   4.049
 1607SOL    HW2 5721   4.955   3.624   4.007
 1608SOL     OW 5722   5.889   2.948   3.397
 1608SOL    HW1 5723   5.888   2.922   3.494
 1608SOL    HW2 5724   5.883   3.047   3.389
 1609SOL     OW 5725   1.818   6.939   0.894
 1609SOL    HW1 5726   1.907   6.944   0.939
 1609SOL    HW2 5727   1.755   6.887   0.950
 1610SOL     OW 5728   5.474   6.204   1.136
 1610SOL    HW1 5729   5.457   6.126   1.197
 1610SOL    HW2 5730   5.446   6.182   1.043
 1611SOL     OW 5731   0.516   3.962   0.003
 1611SOL    HW1 5732   0.514   4.053   6.985
 1611SOL    HW2 5733   0.594   3.953   0.064
 1612SOL     OW 5734   4.743   1.027   1.764
 1612SOL    HW1 5735   4.790   0.943   1.733
 1612SOL    HW2 5736   4.683   1.060   1.691
 1613SOL     OW 5737   0.341   6.211   2.561
 1613SOL    HW1 5738   0.271   6.197   2.491
 1613SOL    HW2 5739   0.431   6.217   2.518
 1614SOL     OW 5740   6.321   2.003   5.300
 1614SOL    HW1 5741   6.231   2.029   5.264
 1614SOL    HW2 5742   6.318   1.907   5.330
 1615SOL     OW 5743   0.022   3.327   4.881
 1615SOL    HW1 5744   7.009   3.390   4.950
 1615SOL    HW2 5745   0.009   3.367   4.790
 1616SOL     OW 5746   0.866   1.298   3.328
 1616SOL    HW1 5747   0.833   1.253   3.411
 1616SOL    HW2 5748   0.955   1.261   3.303
 1617SOL     OW 5749   6.445   5.583   4.058
 1617SOL    HW1 5750   6.384   5.515   4.097
 1617SOL    HW2 5751   6.419   5.674   4.090
 1618SOL     OW 5752   3.335   5.485   3.016
 1618SOL    HW1 5753   3.252   5.473   2.961
 1618SOL    HW2 5754   3.316   5.461   3.111
 1619SOL     OW 5755   0.831   3.621   6.450
 1619SOL    HW1 5756   0.909   3.561   6.434
 1619SOL    HW2 5757   0.862   3.702   6.501
 1620SOL     OW 5758   2.957   6.731   4.583
 1620SOL    HW1 5759   3.052   6.711   4.606
 1620SOL    HW2 5760   2.951   6.763   4.489
 1621SOL     OW 5761   5.436   4.646   1.039
 1621SOL    HW1 5762   5.445   4.703   1.120
 1621SOL    HW2 5763   5.349   4.597   1.042
 1622SOL     OW 5764   6.433   4.211   3.025
 1622SOL    HW1 5765   6.514   4.210   3.084
 1622SOL    HW2 5766   6.375   4.289   3.050
 1623SOL     OW 5767   0.811   2.504   3.753
 1623SOL    HW1 5768   0.795   2.503   3.851
 1623SOL    HW2 5769   0.862   2.422   3.727
 1624SOL     OW 5770   4.014   2.983   0.650
 1624SOL    HW1 5771   4.049   2.891   0.633
 1624SOL    HW2 5772   4.002   3.031   0.563
 1625SOL     OW 5773   0.742   6.653   0.413
 1625SOL    HW1 5774   0.644   6.639   0.428
 1625SOL    HW2 5775   0.791   6.641   0.499
 1626SOL     OW 5776   2.577   1.864   2.072
 1626SOL    HW1 5777   2.561   1.840   1.977
 1626SOL    HW2 5778   2.667   1.907   2.081
 1627SOL     OW 5779   4.269   1.509   5.901
 1627SOL    HW1 5780   4.219   1.563   5.969
 1627SOL    HW2 5781   4.350   1.469   5.944
 1628SOL     OW 5782   5.396   5.991   1.255
 1628SOL    HW1 5783   5.324   5.990   1.186
 1628SOL    HW2 5784   5.356   6.002   1.345
 1629SOL     OW 5785   1.585   6.776   3.394
 1629SOL    HW1 5786   1.666   6.831   3.415
 1629SOL    HW2 5787   1.542   6.746   3.479
 1630SOL     OW 5788   0.649   4.408   6.091
 1630SOL    HW1 5789   0.706   4.341   6.139
 1630SOL    HW2 5790   0.629   4.374   5.999
 1631SOL     OW 5791   5.221   3.580   0.111
 1631SOL    HW1 5792   5.210   3.679   0.108
 1631SOL    HW2 5793   5.137   3.536   0.081
 1632SOL     OW 5794   6.066   6.353   2.272
 1632SOL    HW1 5795   6.022   6.354   2.362
 1632SOL    HW2 5796   6.016   6.414   2.210
 1633SOL     OW 5797   5.691   3.759   4.742
 1633SOL    HW1 5798   5.655   3.690   4.679
 1633SOL    HW2 5799   5.761   3.718   4.800
 1634SOL     OW 5800   1.301   3.683   5.938
 1634SOL    HW1 5801   1.271   3.775   5.916
 1634SOL    HW2 5802   1.401   3.682   5.948
 1635SOL     OW 5803   2.089   0.414   3.570
 1635SOL    HW1 5804   2.138   0.487   3.522
 1635SOL    HW2 5805   2.108   0.326   3.526
 1636SOL     OW 5806   0.224   6.122   1.730
 1636SOL    HW1 5807   0.289   6.149   1.801
 1636SOL    HW2 5808   0.219   6.194   1.660
 1637SOL     OW 5809   1.402   1.482   2.490
 1637SOL    HW1 5810   1.444   1.392   2.503
 1637SOL    HW2 5811   1.404   1.532   2.577
 1638SOL     OW 5812   5.539   2.351   3.428
 1638SOL    HW1 5813   5.534   2.443   3.389
 1638SOL    HW2 5814   5.516   2.284   3.358
 1639SOL     OW 5815   4.742   2.273   1.765
 1639SOL    HW1 5816   4.677   2.344   1.740
 1639SOL    HW2 5817   4.768   2.283   1.861
 1640SOL     OW 5818   6.209   0.698   6.661
 1640SOL    HW1 5819   6.231   0.788   6.698
 1640SOL    HW2 5820   6.152   0.709   6.579
 1641SOL     OW 5821   5.709   1.105   3.389
 1641SOL    HW1 5822   5.733   1.192   3.347
 1641SOL    HW2 5823   5.787   1.042   3.382
 1642SOL     OW 5824   7.007   3.434   5.719
 1642SOL    HW1 5825   6.962   3.448   5.807
 1642SOL    HW2 5826   6.940   3.442   5.645
 1643SOL     OW 5827   2.286   5.131   3.853
 1643SOL    HW1 5828   2.382   5.121   3.826
 1643SOL    HW2 5829   2.281   5.145   3.952
 1644SOL     OW 5830   6.121   1.420   1.868
 1644SOL    HW1 5831   6.111   1.520   1.863
 1644SOL    HW2 5832   6.215   1.395   1.843
 1645SOL     OW 5833   2.778   0.579   4.641
 1645SOL    HW1 5834   2.790   0.495   4.589
 1645SOL    HW2 5835   2.681   0.595   4.658
 1646SOL     OW 5836   0.010   5.185   1.530
 1646SOL    HW1 5837   7.002   5.136   1.612
 1646SOL    HW2 5838   0.037   5.278   1.554
 1647SOL     OW 5839   6.558   3.378   4.982
 1647SOL    HW1 5840   6.616   3.443   4.932
 1647SOL    HW2 5841   6.463   3.392   4.955
 1648SOL     OW 5842   5.493   6.460   1.622
 1648SOL    HW1 5843   5.439   6.413   1.553
 1648SOL    HW2 5844   5.522   6.394   1.692
 1649SOL     OW 5845   3.450   1.308   2.816
 1649SOL    HW1 5846   3.448   1.319   2.716
 1649SOL    HW2 5847   3.461   1.398   2.859
 1650SOL     OW 5848   2.365   2.519   5.037
 1650SOL    HW1 5849   2.352   2.547   5.132
 1650SOL    HW2 5850   2.389   2.599   4.982
 1651SOL     OW 5851   1.012   2.235   4.067
 1651SOL    HW1 5852   0.953   2.166   4.025
 1651SOL    HW2 5853   1.026   2.311   4.004
 1652SOL     OW 5854   0.227   3.956   1.721
 1652SOL    HW1 5855   0.196   3.973   1.628
 1652SOL    HW2 5856   0.157   3.903   1.770
 1653SOL     OW 5857   6.642   4.508   1.832
 1653SOL    HW1 5858   6.734   4.497   1.796
 1653SOL    HW2 5859   6.582   4.542   1.760
 1654SOL     OW 5860   0.501   4.297   1.411
 1654SOL    HW1 5861   0.508   4.253   1.500
 1654SOL    HW2 5862   0.579   4.359   1.398
 1655SOL     OW 5863   0.044   0.568   5.970
 1655SOL    HW1 5864   0.093   0.616   6.043
 1655SOL    HW2 5865   0.107   0.553   5.893
 1656SOL     OW 5866   2.007   4.084   3.241
 1656SOL    HW1 5867   1.979   4.153   3.174
 1656SOL    HW2 5868   1.993   4.119   3.333
 1657SOL     OW 5869   1.123   0.497   6.157
 1657SOL    HW1 5870   1.092   0.592   6.157
 1657SOL    HW2 5871   1.062   0.442   6.215
 1658SOL     OW 5872   5.504   6.565   5.928
 1658SOL    HW1 5873   5.551   6.653   5.924
 1658SOL    HW2 5874   5.559   6.496   5.881
 1659SOL     OW 5875   3.686   0.170   5.988
 1659SOL    HW1 5876   3.601   0.223   5.990
 1659SOL    HW2 5877   3.732   0.185   5.900
 1660SOL     OW 5878   2.443   0.639   1.836
 1660SOL    HW1 5879   2.471   0.689   1.754
 1660SOL    HW2 5880   2.354   0.674   1.866
 1661SOL     OW 5881   5.316   3.892   3.302
 1661SOL    HW1 5882   5.367   3.906   3.217
 1661SOL    HW2 5883   5.218   3.893   3.282
 1662SOL     OW 5884   0.333   1.582   3.527
 1662SOL    HW1 5885   0.262   1.552   3.463
 1662SOL    HW2 5886   0.377   1.665   3.493
 1663SOL     OW 5887   5.338   3.901   1.209
 1663SOL    HW1 5888   5.264   3.963   1.234
 1663SOL    HW2 5889   5.385   3.869   1.291
 1664SOL     OW 5890   1.259   1.239   6.212
 1664SOL    HW1 5891   1.251   1.297   6.293
 1664SOL    HW2 5892   1.198   1.273   6.140
 1665SOL     OW 5893   2.360   3.880   6.548
 1665SOL    HW1 5894   2.295   3.934   6.495
 1665SOL    HW2 5895   2.311   3.822   6.613
 1666SOL     OW 5896   5.836   6.299   5.998
 1666SOL    HW1 5897   5.839   6.379   6.058
 1666SOL    HW2 5898   5.848   6.329   5.903
 1667SOL     OW 5899   0.029   5.233   1.118
 1667SOL    HW1 5900   0.008   5.199   1.026
 1667SOL    HW2 5901   7.011   5.172   1.186
 1668SOL     OW 5902   6.018   3.102   2.271
 1668SOL    HW1 5903   6.036   3.028   2.336
 1668SOL    HW2 5904   6.048   3.074   2.180
 1669SOL     OW 5905   6.391   2.870   5.521
 1669SOL    HW1 5906   6.388   2.955   5.574
 1669SOL    HW2 5907   6.482   2.861   5.479
 1670SOL     OW 5908   3.329   4.351   5.664
 1670SOL    HW1 5909   3.413   4.401   5.685
 1670SOL    HW2 5910   3.290   4.386   5.579
 1671SOL     OW 5911   5.323   1.907   0.817
 1671SOL    HW1 5912   5.254   1.972   0.783
 1671SOL    HW2 5913   5.330   1.915   0.916
 1672SOL     OW 5914   0.361   1.988   1.564
 1672SOL    HW1 5915   0.352   1.958   1.469
 1672SOL    HW2 5916   0.370   2.088   1.567
 1673SOL     OW 5917   1.834   0.204   5.021
 1673SOL    HW1 5918   1.748   0.161   4.995
 1673SOL    HW2 5919   1.819   0.301   5.040
 1674SOL     OW 5920   4.988   2.362   3.931
 1674SOL    HW1 5921   4.919   2.295   3.958
 1674SOL    HW2 5922   5.064   2.315   3.888
 1675SOL     OW 5923   5.582   0.283   1.989
 1675SOL    HW1 5924   5.503   0.336   2.017
 1675SOL    HW2 5925   5.576   0.191   2.029
 1676SOL     OW 5926   1.087   2.408   3.529
 1676SOL    HW1 5927   1.135   2.485   3.572
 1676SOL    HW2 5928   1.132   2.322   3.554
 1677SOL     OW 5929   3.075   3.328   2.999
 1677SOL    HW1 5930   2.993   3.363   3.044
 1677SOL    HW2 5931   3.155   3.350   3.054
 1678SOL     OW 5932   0.241   6.399   6.795
 1678SOL    HW1 5933   0.320   6.368   6.744
 1678SOL    HW2 5934   0.270   6.463   6.867
 1679SOL     OW 5935   6.021   1.815   0.565
 1679SOL    HW1 5936   5.988   1.869   0.488
 1679SOL    HW2 5937   6.112   1.778   0.543
 1680SOL     OW 5938   6.242   2.754   2.815
 1680SOL    HW1 5939   6.257   2.697   2.896
 1680SOL    HW2 5940   6.203   2.842   2.842
 1681SOL     OW 5941   3.465   6.096   4.893
 1681SOL    HW1 5942   3.467   6.188   4.934
 1681SOL    HW2 5943   3.445   6.029   4.964
 1682SOL     OW 5944   4.560   1.009   4.645
 1682SOL    HW1 5945   4.520   0.926   4.609
 1682SOL    HW2 5946   4.546   1.084   4.580
 1683SOL     OW 5947   0.931   2.588   3.097
 1683SOL    HW1 5948   0.954   2.494   3.122
 1683SOL    HW2 5949   0.843   2.612   3.137
 1684SOL     OW 5950   2.624   5.505   1.441
 1684SOL    HW1 5951   2.574   5.495   1.527
 1684SOL    HW2 5952   2.608   5.425   1.384
 1685SOL     OW 5953   0.175   1.084   5.602
 1685SOL    HW1 5954   0.162   1.063   5.506
 1685SOL    HW2 5955   0.264   1.050   5.632
 1686SOL     OW 5956   3.901   5.359   1.887
 1686SOL    HW1 5957   3.810   5.368   1.847
 1686SOL    HW2 5958   3.949   5.283   1.843
 1687SOL     OW 5959   5.069   3.882   0.746
 1687SOL    HW1 5960   5.055   3.875   0.647
 1687SOL    HW2 5961   5.117   3.968   0.766
 1688SOL     OW 5962   2.780   0.144   2.899
 1688SOL    HW1 5963   2.856   0.176   2.843
 1688SOL    HW2 5964   2.754   0.215   2.964
 1689SOL     OW 5965   3.895   0.598   2.114
 1689SOL    HW1 5966   3.871   0.695   2.109
 1689SOL    HW2 5967   3.817   0.542   2.085
 1690SOL     OW 5968   6.556   4.959   4.331
 1690SOL    HW1 5969   6.518   4.910   4.252
 1690SOL    HW2 5970   6.485   5.015   4.373
 1691SOL     OW 5971   4.053   2.716   5.404
 1691SOL    HW1 5972   3.993   2.788   5.368
 1691SOL    HW2 5973   4.090   2.662   5.328
 1692SOL     OW 5974   6.342   5.447   1.977
 1692SOL    HW1 5975   6.248   5.440   2.009
 1692SOL    HW2 5976   6.345   5.443   1.877
 1693SOL     OW 5977   5.428   6.860   5.801
 1693SOL    HW1 5978   5.514   6.853   5.851
 1693SOL    HW2 5979   5.404   6.771   5.763
 1694SOL     OW 5980   4.618   1.303   6.342
 1694SOL    HW1 5981   4.687   1.319   6.413
 1694SOL    HW2 5982   4.663   1.293   6.253
 1695SOL     OW 5983   4.224   0.170   4.874
 1695SOL    HW1 5984   4.277   0.123   4.944
 1695SOL    HW2 5985   4.160   0.234   4.918
 1696SOL     OW 5986   5.209   6.852   0.904
 1696SOL    HW1 5987   5.229   6.807   0.991
 1696SOL    HW2 5988   5.114   6.884   0.905
 1697SOL     OW 5989   4.677   2.785   1.739
 1697SOL    HW1 5990   4.638   2.877   1.747
 1697SOL    HW2 5991   4.745   2.772   1.812
 1698SOL     OW 5992   4.220   1.540   1.719
 1698SOL    HW1 5993   4.197   1.609   1.650
 1698SOL    HW2 5994   4.137   1.500   1.755
 1699SOL     OW 5995   1.697   0.720   1.159
 1699SOL    HW1 5996   1.796   0.717   1.175
 1699SOL    HW2 5997   1.678   0.694   1.064
 1700SOL     OW 5998   5.474   3.271   2.832
 1700SOL    HW1 5999   5.519   3.184   2.854
 1700SOL    HW2 6000   5.375   3.258   2.828
 1701SOL     OW 6001   1.061   5.726   5.046
 1701SOL    HW1 6002   0.964   5.743   5.061
 1701SOL    HW2 6003   1.075   5.630   5.020
 1702SOL     OW 6004   1.761   2.554   6.347
 1702SOL    HW1 6005   1.800   2.463   6.355
 1702SOL    HW2 6006   1.786   2.594   6.259
 1703SOL     OW 6007   1.309   1.843   1.998
 1703SOL    HW1 6008   1.400   1.846   1.957
 1703SOL    HW2 6009   1.296   1.756   2.045
 1704SOL     OW 6010   2.775   2.911   6.828
 1704SOL    HW1 6011   2.696   2.962   6.862
 1704SOL    HW2 6012   2.783   2.825   6.879
 1705SOL     OW 6013   5.293   3.088   0.419
 1705SOL    HW1 6014   5.352   3.130   0.489
 1705SOL    HW2 6015   5.296   3.144   0.336
 1706SOL     OW 6016   5.386   1.225   6.250
 1706SOL    HW1 6017   5.446   1.303   6.270
 1706SOL    HW2 6018   5.330   1.246   6.170
 1707SOL     OW 6019   3.774   1.062   1.737
 1707SOL    HW1 6020   3.870   1.068   1.711
 1707SOL    HW2 6021   3.738   1.155   1.751
 1708SOL     OW 6022   2.607   4.700   2.041
 1708SOL    HW1 6023   2.675   4.667   1.976
 1708SOL    HW2 6024   2.554   4.774   2.000
 1709SOL     OW 6025   5.120   4.498   1.530
 1709SOL    HW1 6026   5.071   4.549   1.460
 1709SOL    HW2 6027   5.088   4.403   1.531
 1710SOL     OW 6028   4.798   2.827   2.216
 1710SOL    HW1 6029   4.773   2.907   2.163
 1710SOL    HW2 6030   4.735   2.752   2.196
 1711SOL     OW 6031   3.985   5.579   0.074
 1711SOL    HW1 6032   3.973   5.633   7.012
 1711SOL    HW2 6033   3.950   5.630   0.152
 1712SOL     OW 6034   0.393   1.504   2.018
 1712SOL    HW1 6035   0.354   1.414   2.035
 1712SOL    HW2 6036   0.462   1.497   1.946
 1713SOL     OW 6037   3.068   1.309   2.218
 1713SOL    HW1 6038   2.980   1.289   2.261
 1713SOL    HW2 6039   3.092   1.405   2.235
 1714SOL     OW 6040   2.506   4.725   1.089
 1714SOL    HW1 6041   2.484   4.816   1.124
 1714SOL    HW2 6042   2.583   4.687   1.141
 1715SOL     OW 6043   0.924   5.914   1.238
 1715SOL    HW1 6044   0.909   5.950   1.145
 1715SOL    HW2 6045   1.017   5.879   1.245
 1716SOL     OW 6046   5.242   1.896   2.912
 1716SOL    HW1 6047   5.167   1.847   2.869
 1716SOL    HW2 6048   5.252   1.986   2.869
 1717SOL     OW 6049   3.838   6.428   3.658
 1717SOL    HW1 6050   3.842   6.358   3.730
 1717SOL    HW2 6051   3.864   6.388   3.571
 1718SOL     OW 6052   1.682   3.676   1.904
 1718SOL    HW1 6053   1.679   3.755   1.844
 1718SOL    HW2 6054   1.746   3.608   1.867
 1719SOL     OW 6055   1.113   5.064   3.139
 1719SOL    HW1 6056   1.137   5.126   3.213
 1719SOL    HW2 6057   1.024   5.090   3.100
 1720SOL     OW 6058   1.191   2.876   5.426
 1720SOL    HW1 6059   1.113   2.938   5.432
 1720SOL    HW2 6060   1.275   2.924   5.452
 1721SOL     OW 6061   2.082   2.555   0.345
 1721SOL    HW1 6062   2.100   2.512   0.434
 1721SOL    HW2 6063   1.984   2.567   0.333
 1722SOL     OW 6064   2.682   2.275   3.524
 1722SOL    HW1 6065   2.735   2.280   3.609
 1722SOL    HW2 6066   2.739   2.307   3.448
 1723SOL     OW 6067   6.379   4.622   1.272
 1723SOL    HW1 6068   6.325   4.539   1.288
 1723SOL    HW2 6069   6.456   4.601   1.212
 1724SOL     OW 6070   5.598   3.215   0.849
 1724SOL    HW1 6071   5.695   3.191   0.856
 1724SOL    HW2 6072   5.543   3.132   0.858
 1725SOL     OW 6073   2.172   6.320   5.845
 1725SOL    HW1 6074   2.234   6.325   5.767
 1725SOL    HW2 6075   2.135   6.410   5.864
 1726SOL     OW 6076   4.694   4.691   3.466
 1726SOL    HW1 6077   4.750   4.612   3.441
 1726SOL    HW2 6078   4.682   4.692   3.565
 1727SOL     OW 6079   3.458   2.930   3.108
 1727SOL    HW1 6080   3.533   2.871   3.077
 1727SOL    HW2 6081   3.454   2.928   3.208
 1728SOL     OW 6082   5.636   2.026   4.428
 1728SOL    HW1 6083   5.614   1.955   4.495
 1728SOL    HW2 6084   5.566   2.097   4.431
 1729SOL     OW 6085   1.081   2.973   2.900
 1729SOL    HW1 6086   1.153   2.905   2.917
 1729SOL    HW2 6087   1.123   3.059   2.873
 1730SOL     OW 6088   2.363   0.281   4.708
 1730SOL    HW1 6089   2.336   0.333   4.789
 1730SOL    HW2 6090   2.462   0.272   4.706
 1731SOL     OW 6091   5.135   4.529   3.692
 1731SOL    HW1 6092   5.202   4.471   3.739
 1731SOL    HW2 6093   5.181   4.578   3.618
 1732SOL     OW 6094   4.088   3.369   5.193
 1732SOL    HW1 6095   3.994   3.369   5.225
 1732SOL    HW2 6096   4.090   3.353   5.095
 1733SOL     OW 6097   1.523   1.984   6.446
 1733SOL    HW1 6098   1.493   2.059   6.506
 1733SOL    HW2 6099   1.455   1.969   6.375
 1734SOL     OW 6100   0.660   4.310   1.028
 1734SOL    HW1 6101   0.737   4.328   0.967
 1734SOL    HW2 6102   0.579   4.359   0.996
 1735SOL     OW 6103   2.757   5.141   5.868
 1735SOL    HW1 6104   2.851   5.140   5.833
 1735SOL    HW2 6105   2.751   5.205   5.944
 1736SOL     OW 6106   5.202   1.880   6.214
 1736SOL    HW1 6107   5.280   1.941   6.201
 1736SOL    HW2 6108   5.121   1.920   6.173
 1737SOL     OW 6109   2.683   1.046   6.153
 1737SOL    HW1 6110   2.760   0.982   6.157
 1737SOL    HW2 6111   2.682   1.101   6.236
 1738SOL     OW 6112   1.321   4.290   2.027
 1738SOL    HW1 6113   1.289   4.195   2.022
 1738SOL    HW2 6114   1.420   4.292   2.013
 1739SOL     OW 6115   4.697   5.238   2.789
 1739SOL    HW1 6116   4.743   5.326   2.774
 1739SOL    HW2 6117   4.766   5.167   2.804
 1740SOL     OW 6118   6.930   2.285   5.058
 1740SOL    HW1 6119   6.909   2.374   5.017
 1740SOL    HW2 6120   6.913   2.288   5.156
 1741SOL     OW 6121   1.199   3.078   4.713
 1741SOL    HW1 6122   1.159   3.026   4.788
 1741SOL    HW2 6123   1.270   3.024   4.669
 1742SOL     OW 6124   6.039   0.021   6.805
 1742SOL    HW1 6125   6.030   0.119   6.789
 1742SOL    HW2 6126   6.049   0.003   6.903
 1743SOL     OW 6127   1.382   2.258   1.624
 1743SOL    HW1 6128   1.393   2.351   1.592
 1743SOL    HW2 6129   1.437   2.244   1.707
 1744SOL     OW 6130   3.069   2.216   5.371
 1744SOL    HW1 6131   3.077   2.166   5.285
 1744SOL    HW2 6132   3.099   2.310   5.357
 1745SOL     OW 6133   6.689   6.447   0.527
 1745SOL    HW1 6134   6.704   6.529   0.471
 1745SOL    HW2 6135   6.601   6.455   0.574
 1746SOL     OW 6136   2.601   5.115   2.640
 1746SOL    HW1 6137   2.524   5.060   2.608
 1746SOL    HW2 6138   2.599   5.119   2.740
 1747SOL     OW 6139   3.019   0.323   2.195
 1747SOL    HW1 6140   2.938   0.325   2.137
 1747SOL    HW2 6141   3.003   0.265   2.275
 1748SOL     OW 6142   7.011   1.767   3.855
 1748SOL    HW1 6143   6.949   1.827   3.907
 1748SOL    HW2 6144   6.958   1.694   3.812
 1749SOL     OW 6145   6.114   5.822   2.496
 1749SOL    HW1 6146   6.102   5.724   2.483
 1749SOL    HW2 6147   6.038   5.871   2.453
 1750SOL     OW 6148   3.238   1.847   0.873
 1750SOL    HW1 6149   3.203   1.845   0.780
 1750SOL    HW2 6150   3.228   1.756   0.914
 1751SOL     OW 6151   6.118   4.323   4.642
 1751SOL    HW1 6152   6.077   4.369   4.563
 1751SOL    HW2 6153   6.217   4.320   4.632
 1752SOL     OW 6154   5.886   0.660   2.620
 1752SOL    HW1 6155   5.945   0.659   2.701
 1752SOL    HW2 6156   5.798   0.700   2.643
 1753SOL     OW 6157   6.573   1.440   1.622
 1753SOL    HW1 6158   6.637   1.368   1.597
 1753SOL    HW2 6159   6.602   1.526   1.580
 1754SOL     OW 6160   2.630   5.624   3.619
 1754SOL    HW1 6161   2.539   5.663   3.600
 1754SOL    HW2 6162   2.700   5.688   3.588
 1755SOL     OW 6163   6.270   6.654   4.831
 1755SOL    HW1 6164   6.239   6.746   4.856
 1755SOL    HW2 6165   6.325   6.617   4.906
 1756SOL     OW 6166   4.408   6.112   1.405
 1756SOL    HW1 6167   4.480   6.088   1.471
 1756SOL    HW2 6168   4.407   6.211   1.391
 1757SOL     OW 6169   2.944   5.094   4.995
 1757SOL    HW1 6170   2.986   5.004   5.008
 1757SOL    HW2 6171   2.897   5.121   5.079
 1758SOL     OW 6172   1.083   6.076   3.827
 1758SOL    HW1 6173   1.173   6.035   3.816
 1758SOL    HW2 6174   1.066   6.140   3.752
 1759SOL     OW 6175   1.658   4.991   6.338
 1759SOL    HW1 6176   1.674   5.030   6.247
 1759SOL    HW2 6177   1.611   4.904   6.329
 1760SOL     OW 6178   6.163   1.769   3.953
 1760SOL    HW1 6179   6.150   1.800   4.047
 1760SOL    HW2 6180   6.253   1.725   3.945
 1761SOL     OW 6181   5.200   2.225   3.860
 1761SOL    HW1 6182   5.224   2.130   3.880
 1761SOL    HW2 6183   5.244   2.253   3.774
 1762SOL     OW 6184   0.792   1.221   5.864
 1762SOL    HW1 6185   0.816   1.280   5.942
 1762SOL    HW2 6186   0.692   1.210   5.860
 1763SOL     OW 6187   1.815   5.015   3.877
 1763SOL    HW1 6188   1.784   4.973   3.791
 1763SOL    HW2 6189   1.859   4.945   3.933
 1764SOL     OW 6190   1.330   6.042   3.270
 1764SOL    HW1 6191   1.333   5.961   3.211
 1764SOL    HW2 6192   1.287   6.018   3.357
 1765SOL     OW 6193   5.307   3.545   2.180
 1765SOL    HW1 6194   5.269   3.452   2.182
 1765SOL    HW2 6195   5.235   3.610   2.156
 1766SOL     OW 6196   4.744   4.852   3.940
 1766SOL    HW1 6197   4.814   4.782   3.953
 1766SOL    HW2 6198   4.672   4.840   4.008
 1767SOL     OW 6199   1.092   4.159   1.609
 1767SOL    HW1 6200   1.144   4.087   1.656
 1767SOL    HW2 6201   1.015   4.118   1.560
 1768SOL     OW 6202   3.881   4.930   2.748
 1768SOL    HW1 6203   3.969   4.889   2.770
 1768SOL    HW2 6204   3.857   4.908   2.654
 1769SOL     OW 6205   5.262   0.693   0.793
 1769SOL    HW1 6206   5.303   0.694   0.701
 1769SOL    HW2 6207   5.279   0.781   0.837
 1770SOL     OW 6208   2.195   5.127   0.931
 1770SOL    HW1 6209   2.095   5.120   0.935
 1770SOL    HW2 6210   2.227   5.089   0.844
 1771SOL     OW 6211   1.110   2.826   6.097
 1771SOL    HW1 6212   1.145   2.820   6.003
 1771SOL    HW2 6213   1.093   2.921   6.120
 1772SOL     OW 6214   2.083   4.257   2.908
 1772SOL    HW1 6215   2.100   4.304   2.821
 1772SOL    HW2 6216   2.112   4.162   2.900
 1773SOL     OW 6217   2.179   6.516   5.167
 1773SOL    HW1 6218   2.256   6.523   5.104
 1773SOL    HW2 6219   2.147   6.421   5.170
 1774SOL     OW 6220   5.399   5.855   2.011
 1774SOL    HW1 6221   5.417   5.902   2.097
 1774SOL    HW2 6222   5.436   5.762   2.015
 1775SOL     OW 6223   1.047   6.279   1.068
 1775SOL    HW1 6224   1.074   6.345   0.998
 1775SOL    HW2 6225   1.016   6.327   1.149
 1776SOL     OW 6226   4.428   3.340   6.079
 1776SOL    HW1 6227   4.401   3.403   6.007
 1776SOL    HW2 6228   4.527   3.326   6.078
 1777SOL     OW 6229   4.528   5.905   0.263
 1777SOL    HW1 6230   4.447   5.944   0.305
 1777SOL    HW2 6231   4.590   5.978   0.236
 1778SOL     OW 6232   6.867   0.109   3.014
 1778SOL    HW1 6233   6.789   0.094   3.074
 1778SOL    HW2 6234   6.924   0.027   3.010
 1779SOL     OW 6235   6.212   0.129   4.807
 1779SOL    HW1 6236   6.247   0.118   4.714
 1779SOL    HW2 6237   6.121   0.089   4.813
 1780SOL     OW 6238   3.408   6.306   5.055
 1780SOL    HW1 6239   3.470   6.382   5.036
 1780SOL    HW2 6240   3.416   6.279   5.151
 1781SOL     OW 6241   4.477   1.412   6.037
 1781SOL    HW1 6242   4.440   1.347   6.104
 1781SOL    HW2 6243   4.530   1.482   6.084
 1782SOL     OW 6244   5.320   0.465   2.680
 1782SOL    HW1 6245   5.290   0.560   2.676
 1782SOL    HW2 6246   5.350   0.443   2.773
 1783SOL     OW 6247   1.438   3.321   6.922
 1783SOL    HW1 6248   1.367   3.301   6.989
 1783SOL    HW2 6249   1.431   3.257   6.846
 1784SOL     OW 6250   2.143   6.413   1.382
 1784SOL    HW1 6251   2.048   6.441   1.364
 1784SOL    HW2 6252   2.196   6.492   1.411
 1785SOL     OW 6253   1.783   5.954   4.421
 1785SOL    HW1 6254   1.727   5.917   4.347
 1785SOL    HW2 6255   1.849   5.884   4.450
 1786SOL     OW 6256   0.427   5.911   1.744
 1786SOL    HW1 6257   0.517   5.943   1.774
 1786SOL    HW2 6258   0.364   5.989   1.741
 1787SOL     OW 6259   1.847   2.384   5.840
 1787SOL    HW1 6260   1.779   2.420   5.904
 1787SOL    HW2 6261   1.803   2.359   5.754
 1788SOL     OW 6262   3.505   4.043   0.880
 1788SOL    HW1 6263   3.545   3.966   0.830
 1788SOL    HW2 6264   3.448   4.097   0.818
 1789SOL     OW 6265   5.922   3.087   1.876
 1789SOL    HW1 6266   5.858   3.147   1.924
 1789SOL    HW2 6267   5.986   3.048   1.942
 1790SOL     OW 6268   2.374   1.507   4.333
 1790SOL    HW1 6269   2.432   1.583   4.303
 1790SOL    HW2 6270   2.370   1.505   4.433
 1791SOL     OW 6271   6.335   0.644   3.698
 1791SOL    HW1 6272   6.343   0.612   3.604
 1791SOL    HW2 6273   6.241   0.675   3.716
 1792SOL     OW 6274   0.171   2.540   6.414
 1792SOL    HW1 6275   0.246   2.503   6.470
 1792SOL    HW2 6276   0.084   2.525   6.462
 1793SOL     OW 6277   0.315   1.257   4.656
 1793SOL    HW1 6278   0.412   1.278   4.656
 1793SOL    HW2 6279   0.272   1.293   4.573
 1794SOL     OW 6280   6.973   1.747   6.663
 1794SOL    HW1 6281   6.935   1.837   6.641
 1794SOL    HW2 6282   6.998   1.744   6.760
 1795SOL     OW 6283   5.567   5.076   0.369
 1795SOL    HW1 6284   5.505   5.020   0.423
 1795SOL    HW2 6285   5.587   5.029   0.283
 1796SOL     OW 6286   6.046   6.525   6.984
 1796SOL    HW1 6287   6.041   6.426   6.969
 1796SOL    HW2 6288   6.001   6.548   0.049
 1797SOL     OW 6289   2.679   6.112   5.246
 1797SOL    HW1 6290   2.674   6.054   5.165
 1797SOL    HW2 6291   2.775   6.133   5.266
 1798SOL     OW 6292   2.479   3.927   5.883
 1798SOL    HW1 6293   2.530   3.947   5.799
 1798SOL    HW2 6294   2.505   3.993   5.954
 1799SOL     OW 6295   3.463   1.487   2.086
 1799SOL    HW1 6296   3.469   1.575   2.134
 1799SOL    HW2 6297   3.403   1.497   2.007
 1800SOL     OW 6298   6.311   2.516   5.806
 1800SOL    HW1 6299   6.214   2.527   5.826
 1800SOL    HW2 6300   6.349   2.605   5.778
 1801SOL     OW 6301   0.052   1.139   2.518
 1801SOL    HW1 6302   0.075   1.047   2.549
 1801SOL    HW2 6303   0.029   1.138   2.421
 1802SOL     OW 6304   6.377   4.628   4.106
 1802SOL    HW1 6305   6.390   4.727   4.100
 1802SOL    HW2 6306   6.358   4.603   4.201
 1803SOL     OW 6307   0.090   6.553   3.806
 1803SOL    HW1 6308   0.155   6.628   3.817
 1803SOL    HW2 6309   0.077   6.534   3.709
 1804SOL     OW 6310   0.948   3.033   6.426
 1804SOL    HW1 6311   0.883   3.022   6.350
 1804SOL    HW2 6312   0.924   2.970   6.500
 1805SOL     OW 6313   6.143   4.846   6.443
 1805SOL    HW1 6314   6.130   4.747   6.457
 1805SOL    HW2 6315   6.081   4.896   6.503
 1806SOL     OW 6316   0.709   1.654   1.396
 1806SOL    HW1 6317   0.755   1.667   1.484
 1806SOL    HW2 6318   0.745   1.720   1.329
 1807SOL     OW 6319   6.252   2.750   2.150
 1807SOL    HW1 6320   6.316   2.822   2.178
 1807SOL    HW2 6321   6.291   2.660   2.173
 1808SOL     OW 6322   5.954   0.702   6.504
 1808SOL    HW1 6323   5.963   0.791   6.457
 1808SOL    HW2 6324   5.953   0.717   6.602
 1809SOL     OW 6325   5.222   0.442   5.138
 1809SOL    HW1 6326   5.278   0.524   5.125
 1809SOL    HW2 6327   5.182   0.445   5.230
 1810SOL     OW 6328   1.157   1.303   4.143
 1810SOL    HW1 6329   1.101   1.316   4.225
 1810SOL    HW2 6330   1.244   1.261   4.169
 1811SOL     OW 6331   3.162   5.638   2.016
 1811SOL    HW1 6332   3.143   5.736   2.022
 1811SOL    HW2 6333   3.094   5.594   1.957
 1812SOL     OW 6334   4.161   0.602   6.550
 1812SOL    HW1 6335   4.078   0.616   6.603
 1812SOL    HW2 6336   4.144   0.627   6.455
 1813SOL     OW 6337   5.369   3.076   2.224
 1813SOL    HW1 6338   5.422   2.993   2.243
 1813SOL    HW2 6339   5.281   3.070   2.270
 1814SOL     OW 6340   6.247   5.541   0.766
 1814SOL    HW1 6341   6.330   5.553   0.821
 1814SOL    HW2 6342   6.253   5.455   0.716
 1815SOL     OW 6343   6.107   5.040   1.094
 1815SOL    HW1 6344   6.037   5.111   1.086
 1815SOL    HW2 6345   6.157   5.051   1.180
 1816SOL     OW 6346   3.646   4.957   4.724
 1816SOL    HW1 6347   3.607   4.917   4.642
 1816SOL    HW2 6348   3.683   5.047   4.703
 1817SOL     OW 6349   6.811   3.013   3.538
 1817SOL    HW1 6350   6.889   2.952   3.527
 1817SOL    HW2 6351   6.789   3.021   3.635
 1818SOL     OW 6352   2.192   1.508   1.305
 1818SOL    HW1 6353   2.196   1.452   1.223
 1818SOL    HW2 6354   2.250   1.588   1.294
 1819SOL     OW 6355   1.090   4.084   1.026
 1819SOL    HW1 6356   1.176   4.111   0.984
 1819SOL    HW2 6357   1.097   3.990   1.059
 1820SOL     OW 6358   3.908   7.003   5.118
 1820SOL    HW1 6359   3.966   6.938   5.167
 1820SOL    HW2 6360   3.855   6.954   5.049
 1821SOL     OW 6361   3.992   1.876   2.767
 1821SOL    HW1 6362   3.950   1.900   2.855
 1821SOL    HW2 6363   3.955   1.789   2.735
 1822SOL     OW 6364   1.780   4.003   4.198
 1822SOL    HW1 6365   1.845   4.062   4.244
 1822SOL    HW2 6366   1.766   3.919   4.251
 1823SOL     OW 6367   3.602   6.822   3.588
 1823SOL    HW1 6368   3.578   6.754   3.657
 1823SOL    HW2 6369   3.570   6.912   3.617
 1824SOL     OW 6370   4.870   2.765   1.923
 1824SOL    HW1 6371   4.820   2.849   1.946
 1824SOL    HW2 6372   4.956   2.763   1.974
 1825SOL     OW 6373   1.234   3.600   0.342
 1825SOL    HW1 6374   1.308   3.620   0.277
 1825SOL    HW2 6375   1.201   3.686   0.381
 1826SOL     OW 6376   3.540   2.986   0.709
 1826SOL    HW1 6377   3.538   3.056   0.780
 1826SOL    HW2 6378   3.631   2.944   0.705
 1827SOL     OW 6379   5.182   4.588   0.761
 1827SOL    HW1 6380   5.250   4.661   0.763
 1827SOL    HW2 6381   5.194   4.534   0.678
 1828SOL     OW 6382   2.839   4.853   4.714
 1828SOL    HW1 6383   2.771   4.922   4.739
 1828SOL    HW2 6384   2.928   4.897   4.699
 1829SOL     OW 6385   1.929   6.213   2.059
 1829SOL    HW1 6386   1.887   6.297   2.025
 1829SOL    HW2 6387   1.858   6.150   2.088
 1830SOL     OW 6388   4.278   1.447   6.521
 1830SOL    HW1 6389   4.282   1.363   6.576
 1830SOL    HW2 6390   4.336   1.517   6.562
 1831SOL     OW 6391   3.734   4.822   0.714
 1831SOL    HW1 6392   3.784   4.736   0.708
 1831SOL    HW2 6393   3.711   4.855   0.623
 1832SOL     OW 6394   1.908   3.492   5.734
 1832SOL    HW1 6395   1.932   3.398   5.754
 1832SOL    HW2 6396   1.912   3.508   5.635
 1833SOL     OW 6397   5.966   1.062   0.081
 1833SOL    HW1 6398   6.018   1.001   0.142
 1833SOL    HW2 6399   6.014   1.070   7.015
 1834SOL     OW 6400   1.996   3.721   6.099
 1834SOL    HW1 6401   1.990   3.761   6.008
 1834SOL    HW2 6402   1.905   3.721   6.141
 1835SOL     OW 6403   6.274   6.687   0.493
 1835SOL    HW1 6404   6.334   6.681   0.573
 1835SOL    HW2 6405   6.316   6.748   0.425
 1836SOL     OW 6406   6.476   1.901   4.165
 1836SOL    HW1 6407   6.511   1.993   4.148
 1836SOL    HW2 6408   6.381   1.907   4.196
 1837SOL     OW 6409   1.297   1.936   0.325
 1837SOL    HW1 6410   1.383   1.946   0.375
 1837SOL    HW2 6411   1.229   1.893   0.384
 1838SOL     OW 6412   5.127   0.561   1.144
 1838SOL    HW1 6413   5.205   0.529   1.090
 1838SOL    HW2 6414   5.091   0.485   1.198
 1839SOL     OW 6415   6.574   1.377   6.290
 1839SOL    HW1 6416   6.560   1.344   6.383
 1839SOL    HW2 6417   6.579   1.477   6.290
 1840SOL     OW 6418   3.429   0.092   5.289
 1840SOL    HW1 6419   3.515   0.047   5.313
 1840SOL    HW2 6420   3.392   0.138   5.370
 1841SOL     OW 6421   2.088   0.332   1.735
 1841SOL    HW1 6422   2.065   0.235   1.747
 1841SOL    HW2 6423   2.187   0.344   1.742
 1842SOL     OW 6424   6.758   4.774   1.085
 1842SOL    HW1 6425   6.740   4.698   1.022
 1842SOL    HW2 6426   6.843   4.820   1.058
 1843SOL     OW 6427   3.078   1.426   6.901
 1843SOL    HW1 6428   3.004   1.379   6.852
 1843SOL    HW2 6429   3.113   1.367   6.974
 1844SOL     OW 6430   5.022   3.409   0.730
 1844SOL    HW1 6431   4.964   3.451   0.800
 1844SOL    HW2 6432   5.059   3.480   0.670
 1845SOL     OW 6433   1.281   2.856   4.510
 1845SOL    HW1 6434   1.272   2.785   4.441
 1845SOL    HW2 6435   1.316   2.939   4.468
 1846SOL     OW 6436   3.527   1.694   2.282
 1846SOL    HW1 6437   3.432   1.707   2.310
 1846SOL    HW2 6438   3.548   1.756   2.206
 1847SOL     OW 6439   2.511   5.758   0.102
 1847SOL    HW1 6440   2.463   5.765   0.189
 1847SOL    HW2 6441   2.581   5.829   0.097
 1848SOL     OW 6442   3.370   6.013   4.430
 1848SOL    HW1 6443   3.276   6.019   4.395
 1848SOL    HW2 6444   3.380   6.070   4.510
 1849SOL     OW 6445   4.731   2.820   2.999
 1849SOL    HW1 6446   4.781   2.907   3.008
 1849SOL    HW2 6447   4.721   2.778   3.089
 1850SOL     OW 6448   4.432   1.914   1.026
 1850SOL    HW1 6449   4.470   1.824   1.048
 1850SOL    HW2 6450   4.441   1.975   1.104
 1851SOL     OW 6451   0.810   4.942   4.441
 1851SOL    HW1 6452   0.779   5.026   4.486
 1851SOL    HW2 6453   0.791   4.864   4.500
 1852SOL     OW 6454   0.472   6.958   3.600
 1852SOL    HW1 6455   0.525   0.009   3.555
 1852SOL    HW2 6456   0.522   6.925   3.680
 1853SOL     OW 6457   0.734   1.722   5.604
 1853SOL    HW1 6458   0.793   1.803   5.599
 1853SOL    HW2 6459   0.669   1.733   5.679
 1854SOL     OW 6460   0.137   6.897   4.421
 1854SOL    HW1 6461   0.114   6.991   4.446
 1854SOL    HW2 6462   0.180   6.851   4.498
 1855SOL     OW 6463   6.525   1.064   4.769
 1855SOL    HW1 6464   6.534   1.160   4.796
 1855SOL    HW2 6465   6.444   1.024   4.813
 1856SOL     OW 6466   5.234   4.059   6.495
 1856SOL    HW1 6467   5.288   4.035   6.414
 1856SOL    HW2 6468   5.183   3.979   6.526
 1857SOL     OW 6469   4.096   0.950   6.537
 1857SOL    HW1 6470   4.127   0.917   6.448
 1857SOL    HW2 6471   4.003   0.986   6.528
 1858SOL     OW 6472   5.554   1.942   5.074
 1858SOL    HW1 6473   5.565   1.843   5.070
 1858SOL    HW2 6474   5.507   1.967   5.158
 1859SOL     OW 6475   6.834   6.803   2.447
 1859SOL    HW1 6476   6.808   6.896   2.423
 1859SOL    HW2 6477   6.799   6.781   2.538
 1860SOL     OW 6478   2.724   1.176   6.666
 1860SOL    HW1 6479   2.636   1.213   6.695
 1860SOL    HW2 6480   2.712   1.083   6.631
 1861SOL     OW 6481   6.731   6.513   5.345
 1861SOL    HW1 6482   6.703   6.423   5.380
 1861SOL    HW2 6483   6.653   6.557   5.301
 1862SOL     OW 6484   3.757   5.944   5.952
 1862SOL    HW1 6485   3.841   5.944   6.007
 1862SOL    HW2 6486   3.681   5.979   6.007
 1863SOL     OW 6487   6.876   1.231   1.201
 1863SOL    HW1 6488   6.913   1.232   1.108
 1863SOL    HW2 6489   6.906   1.314   1.249
 1864SOL     OW 6490   2.257   6.459   2.803
 1864SOL    HW1 6491   2.198   6.390   2.842
 1864SOL    HW2 6492   2.352   6.443   2.833
 1865SOL     OW 6493   6.657   2.080   6.301
 1865SOL    HW1 6494   6.663   2.110   6.396
 1865SOL    HW2 6495   6.748   2.055   6.267
 1866SOL     OW 6496   6.874   4.467   4.627
 1866SOL    HW1 6497   6.815   4.527   4.573
 1866SOL    HW2 6498   6.850   4.476   4.723
 1867SOL     OW 6499   1.217   1.150   1.393
 1867SOL    HW1 6500   1.158   1.230   1.379
 1867SOL    HW2 6501   1.214   1.124   1.489
 1868SOL     OW 6502   4.962   3.713   6.013
 1868SOL    HW1 6503   4.914   3.801   6.011
 1868SOL    HW2 6504   5.033   3.716   6.084
 1869SOL     OW 6505   4.949   0.805   5.269
 1869SOL    HW1 6506   4.883   0.772   5.201
 1869SOL    HW2 6507   4.899   0.843   5.347
 1870SOL     OW 6508   6.042   0.093   6.004
 1870SOL    HW1 6509   5.966   0.158   6.000
 1870SOL    HW2 6510   6.121   0.131   5.956
 1871SOL     OW 6511   2.080   5.270   0.045
 1871SOL    HW1 6512   2.059   5.183   0.000
 1871SOL    HW2 6513   2.069   5.345   7.001
 1872SOL     OW 6514   2.415   3.611   0.864
 1872SOL    HW1 6515   2.348   3.540   0.884
 1872SOL    HW2 6516   2.495   3.569   0.820
 1873SOL     OW 6517   5.875   1.678   2.486
 1873SOL    HW1 6518   5.801   1.643   2.543
 1873SOL    HW2 6519   5.838   1.739   2.416
 1874SOL     OW 6520   1.698   5.575   6.445
 1874SOL    HW1 6521   1.764   5.604   6.514
 1874SOL    HW2 6522   1.708   5.632   6.363
 1875SOL     OW 6523   0.969   6.506   2.417
 1875SOL    HW1 6524   0.902   6.486   2.489
 1875SOL    HW2 6525   1.061   6.505   2.457
 1876SOL     OW 6526   1.057   4.798   0.102
 1876SOL    HW1 6527   1.112   4.871   0.061
 1876SOL    HW2 6528   1.073   4.796   0.200
 1877SOL     OW 6529   1.018   1.082   3.138
 1877SOL    HW1 6530   1.031   1.160   3.077
 1877SOL    HW2 6531   0.959   1.014   3.094
 1878SOL     OW 6532   5.825   3.955   4.314
 1878SOL    HW1 6533   5.850   3.954   4.411
 1878SOL    HW2 6534   5.732   3.921   4.303
 1879SOL     OW 6535   4.082   6.392   5.219
 1879SOL    HW1 6536   4.028   6.462   5.266
 1879SOL    HW2 6537   4.137   6.342   5.285
 1880SOL     OW 6538   1.333   3.072   4.380
 1880SOL    HW1 6539   1.354   3.160   4.423
 1880SOL    HW2 6540   1.343   3.080   4.281
 1881SOL     OW 6541   1.886   1.514   3.392
 1881SOL    HW1 6542   1.922   1.497   3.484
 1881SOL    HW2 6543   1.859   1.610   3.384
 1882SOL     OW 6544   3.765   5.743   0.691
 1882SOL    HW1 6545   3.678   5.789   0.710
 1882SOL    HW2 6546   3.803   5.778   0.605
 1883SOL     OW 6547   2.160   3.186   2.397
 1883SOL    HW1 6548   2.168   3.265   2.337
 1883SOL    HW2 6549   2.127   3.107   2.345
 1884SOL     OW 6550   5.096   0.770   0.207
 1884SOL    HW1 6551   5.044   0.852   0.182
 1884SOL    HW2 6552   5.128   0.778   0.301
 1885SOL     OW 6553   0.132   1.309   0.545
 1885SOL    HW1 6554   0.136   1.393   0.491
 1885SOL    HW2 6555   0.113   1.331   0.640
 1886SOL     OW 6556   3.177   3.194   5.520
 1886SOL    HW1 6557   3.215   3.285   5.536
 1886SOL    HW2 6558   3.103   3.200   5.453
 1887SOL     OW 6559   0.803   6.047   4.726
 1887SOL    HW1 6560   0.811   6.046   4.826
 1887SOL    HW2 6561   0.882   6.001   4.686
 1888SOL     OW 6562   2.074   1.502   6.258
 1888SOL    HW1 6563   2.067   1.585   6.314
 1888SOL    HW2 6564   2.153   1.509   6.198
 1889SOL     OW 6565   3.430   3.314   0.046
 1889SOL    HW1 6566   3.358   3.380   0.026
 1889SOL    HW2 6567   3.510   3.332   7.009
 1890SOL     OW 6568   6.027   5.890   6.378
 1890SOL    HW1 6569   6.051   5.851   6.466
 1890SOL    HW2 6570   5.990   5.819   6.319
 1891SOL     OW 6571   5.099   3.504   6.346
 1891SOL    HW1 6572   5.132   3.457   6.264
 1891SOL    HW2 6573   4.999   3.510   6.344
 1892SOL     OW 6574   4.680   0.304   3.130
 1892SOL    HW1 6575   4.730   0.389   3.145
 1892SOL    HW2 6576   4.585   0.315   3.159
 1893SOL     OW 6577   2.938   1.332   6.639
 1893SOL    HW1 6578   2.897   1.423   6.639
 1893SOL    HW2 6579   2.865   1.263   6.642
 1894SOL     OW 6580   5.016   3.214   0.507
 1894SOL    HW1 6581   4.989   3.293   0.561
 1894SOL    HW2 6582   5.114   3.198   0.518
 1895SOL     OW 6583   4.590   5.635   3.322
 1895SOL    HW1 6584   4.562   5.674   3.234
 1895SOL    HW2 6585   4.572   5.701   3.395
 1896SOL     OW 6586   6.210   1.663   4.837
 1896SOL    HW1 6587   6.162   1.613   4.765
 1896SOL    HW2 6588   6.262   1.598   4.893
 1897SOL     OW 6589   4.937   5.349   2.996
 1897SOL    HW1 6590   4.909   5.255   3.016
 1897SOL    HW2 6591   4.880   5.386   2.922
 1898SOL     OW 6592   5.478   6.289   0.032
 1898SOL    HW1 6593   5.401   6.321   0.087
 1898SOL    HW2 6594   5.454   6.295   6.956
 1899SOL     OW 6595   2.343   2.539   3.407
 1899SOL    HW1 6596   2.247   2.526   3.382
 1899SOL    HW2 6597   2.353   2.537   3.507
 1900SOL     OW 6598   2.846   5.759   2.100
 1900SOL    HW1 6599   2.873   5.669   2.132
 1900SOL    HW2 6600   2.855   5.763   2.000
 1901SOL     OW 6601   1.261   0.888   5.588
 1901SOL    HW1 6602   1.273   0.898   5.687
 1901SOL    HW2 6603   1.184   0.944   5.558
 1902SOL     OW 6604   0.966   2.773   4.160
 1902SOL    HW1 6605   1.001   2.847   4.218
 1902SOL    HW2 6606   0.889   2.728   4.206
 1903SOL     OW 6607   6.473   4.896   4.076
 1903SOL    HW1 6608   6.543   4.891   4.005
 1903SOL    HW2 6609   6.406   4.966   4.052
 1904SOL     OW 6610   0.892   0.921   4.159
 1904SOL    HW1 6611   0.879   1.020   4.152
 1904SOL    HW2 6612   0.956   0.891   4.088
 1905SOL     OW 6613   6.109   3.290   5.389
 1905SOL    HW1 6614   6.060   3.377   5.388
 1905SOL    HW2 6615   6.178   3.291   5.461
 1906SOL     OW 6616   2.267   6.937   5.557
 1906SOL    HW1 6617   2.195   6.975   5.499
 1906SOL    HW2 6618   2.263   6.978   5.648
 1907SOL     OW 6619   4.326   0.005   3.043
 1907SOL    HW1 6620   4.269   6.982   2.973
 1907SOL    HW2 6621   4.292   0.097   3.061
 1908SOL     OW 6622   4.760   5.352   0.689
 1908SOL    HW1 6623   4.759   5.381   0.593
 1908SOL    HW2 6624   4.815   5.268   0.697
 1909SOL     OW 6625   5.514   5.432   3.544
 1909SOL    HW1 6626   5.470   5.351   3.506
 1909SOL    HW2 6627   5.451   5.477   3.607
 1910SOL     OW 6628   4.861   3.823   4.450
 1910SOL    HW1 6629   4.856   3.811   4.549
 1910SOL    HW2 6630   4.930   3.761   4.413
 1911SOL     OW 6631   0.942   2.444   5.766
 1911SOL    HW1 6632   0.869   2.486   5.819
 1911SOL    HW2 6633   1.027   2.445   5.819
 1912SOL     OW 6634   3.407   6.356   3.044
 1912SOL    HW1 6635   3.330   6.391   2.990
 1912SOL    HW2 6636   3.480   6.326   2.983
 1913SOL     OW 6637   2.917   4.011   6.387
 1913SOL    HW1 6638   3.014   4.034   6.375
 1913SOL    HW2 6639   2.865   4.095   6.405
 1914SOL     OW 6640   4.713   1.599   5.003
 1914SOL    HW1 6641   4.665   1.625   4.919
 1914SOL    HW2 6642   4.653   1.539   5.057
 1915SOL     OW 6643   2.773   6.926   5.686
 1915SOL    HW1 6644   2.828   6.862   5.633
 1915SOL    HW2 6645   2.812   6.935   5.778
 1916SOL     OW 6646   3.407   6.074   2.507
 1916SOL    HW1 6647   3.324   6.126   2.484
 1916SOL    HW2 6648   3.483   6.107   2.451
 1917SOL     OW 6649   3.609   3.939   3.922
 1917SOL    HW1 6650   3.603   4.006   3.996
 1917SOL    HW2 6651   3.639   3.984   3.838
 1918SOL     OW 6652   0.688   6.485   5.336
 1918SOL    HW1 6653   0.692   6.514   5.241
 1918SOL    HW2 6654   0.687   6.565   5.396
 1919SOL     OW 6655   5.902   0.946   2.335
 1919SOL    HW1 6656   5.931   0.950   2.240
 1919SOL    HW2 6657   5.977   0.974   2.394
 1920SOL     OW 6658   6.273   6.397   4.684
 1920SOL    HW1 6659   6.292   6.492   4.707
 1920SOL    HW2 6660   6.316   6.337   4.751
 1921SOL     OW 6661   2.569   6.689   0.166
 1921SOL    HW1 6662   2.519   6.768   0.130
 1921SOL    HW2 6663   2.606   6.636   0.089
 1922SOL     OW 6664   3.881   4.478   0.419
 1922SOL    HW1 6665   3.795   4.467   0.368
 1922SOL    HW2 6666   3.873   4.555   0.482
 1923SOL     OW 6667   1.899   3.004   1.006
 1923SOL    HW1 6668   1.984   2.971   1.048
 1923SOL    HW2 6669   1.822   2.955   1.045
 1924SOL     OW 6670   0.451   3.480   0.760
 1924SOL    HW1 6671   0.354   3.459   0.772
 1924SOL    HW2 6672   0.501   3.395   0.741
 1925SOL     OW 6673   3.061   4.262   0.047
 1925SOL    HW1 6674   3.101   4.280   0.136
 1925SOL    HW2 6675   3.067   4.164   0.027
 1926SOL     OW 6676   0.589   0.813   3.764
 1926SOL    HW1 6677   0.618   0.727   3.721
 1926SOL    HW2 6678   0.540   0.794   3.849
 1927SOL     OW 6679   5.292   3.227   1.415
 1927SOL    HW1 6680   5.268   3.139   1.376
 1927SOL    HW2 6681   5.378   3.218   1.466
 1928SOL     OW 6682   0.209   5.573   4.436
 1928SOL    HW1 6683   0.295   5.625   4.437
 1928SOL    HW2 6684   0.216   5.498   4.370
 1929SOL     OW 6685   0.792   5.443   3.236
 1929SOL    HW1 6686   0.710   5.419   3.288
 1929SOL    HW2 6687   0.775   5.524   3.181
 1930SOL     OW 6688   6.874   5.197   6.153
 1930SOL    HW1 6689   6.797   5.241   6.105
 1930SOL    HW2 6690   6.878   5.101   6.128
 1931SOL     OW 6691   1.035   2.131   4.306
 1931SOL    HW1 6692   0.962   2.175   4.358
 1931SOL    HW2 6693   1.037   2.168   4.213
 1932SOL     OW 6694   6.099   3.611   2.572
 1932SOL    HW1 6695   6.100   3.686   2.506
 1932SOL    HW2 6696   6.122   3.525   2.525
 1933SOL     OW 6697   2.955   5.161   0.429
 1933SOL    HW1 6698   2.943   5.063   0.413
 1933SOL    HW2 6699   2.880   5.194   0.487
 1934SOL     OW 6700   0.135   5.695   2.835
 1934SOL    HW1 6701   0.194   5.630   2.787
 1934SOL    HW2 6702   0.191   5.769   2.874
 1935SOL     OW 6703   1.274   1.410   3.322
 1935SOL    HW1 6704   1.289   1.365   3.410
 1935SOL    HW2 6705   1.275   1.342   3.249
 1936SOL     OW 6706   0.196   6.056   5.150
 1936SOL    HW1 6707   0.200   6.145   5.104
 1936SOL    HW2 6708   0.128   5.999   5.104
 1937SOL     OW 6709   4.312   1.422   3.054
 1937SOL    HW1 6710   4.296   1.383   2.963
 1937SOL    HW2 6711   4.392   1.482   3.050
 1938SOL     OW 6712   5.740   0.007   4.626
 1938SOL    HW1 6713   5.724   6.943   4.576
 1938SOL    HW2 6714   5.698   0.083   4.577
 1939SOL     OW 6715   3.312   0.021   4.185
 1939SOL    HW1 6716   3.369   0.076   4.123
 1939SOL    HW2 6717   3.269   0.081   4.252
 1940SOL     OW 6718   6.597   6.369   6.542
 1940SOL    HW1 6719   6.550   6.354   6.455
 1940SOL    HW2 6720   6.646   6.286   6.568
 1941SOL     OW 6721   4.611   5.137   2.112
 1941SOL    HW1 6722   4.618   5.214   2.175
 1941SOL    HW2 6723   4.524   5.142   2.062
 1942SOL     OW 6724   0.452   3.730   2.544
 1942SOL    HW1 6725   0.410   3.659   2.488
 1942SOL    HW2 6726   0.397   3.743   2.627
 1943SOL     OW 6727   2.868   5.773   3.418
 1943SOL    HW1 6728   2.894   5.811   3.507
 1943SOL    HW2 6729   2.877   5.844   3.348
 1944SOL     OW 6730   0.184   6.556   1.737
 1944SOL    HW1 6731   0.084   6.556   1.736
 1944SOL    HW2 6732   0.217   6.516   1.823
 1945SOL     OW 6733   3.039   4.877   2.772
 1945SOL    HW1 6734   2.956   4.919   2.733
 1945SOL    HW2 6735   3.014   4.816   2.846
 1946SOL     OW 6736   1.644   6.790   6.884
 1946SOL    HW1 6737   1.678   6.884   6.891
 1946SOL    HW2 6738   1.568   6.787   6.820
 1947SOL     OW 6739   4.797   0.066   3.091
 1947SOL    HW1 6740   4.731   7.013   3.101
 1947SOL    HW2 6741   4.753   0.154   3.107
 1948SOL     OW 6742   5.986   3.546   5.419
 1948SOL    HW1 6743   5.986   3.581   5.325
 1948SOL    HW2 6744   5.894   3.514   5.442
 1949SOL     OW 6745   4.594   4.393   6.569
 1949SOL    HW1 6746   4.601   4.492   6.571
 1949SOL    HW2 6747   4.498   4.367   6.553
 1950SOL     OW 6748   3.362   5.175   0.413
 1950SOL    HW1 6749   3.317   5.187   0.501
 1950SOL    HW2 6750   3.441   5.115   0.423
 1951SOL     OW 6751   6.292   2.176   0.175
 1951SOL    HW1 6752   6.193   2.165   0.165
 1951SOL    HW2 6753   6.320   2.137   0.263
 1952SOL     OW 6754   3.610   2.883   4.317
 1952SOL    HW1 6755   3.589   2.938   4.398
 1952SOL    HW2 6756   3.538   2.816   4.302
 1953SOL     OW 6757   0.460   2.865   4.372
 1953SOL    HW1 6758   0.496   2.924   4.300
 1953SOL    HW2 6759   0.481   2.905   4.462
 1954SOL     OW 6760   2.143   1.790   4.256
 1954SOL    HW1 6761   2.088   1.873   4.261
 1954SOL    HW2 6762   2.135   1.739   4.341
 1955SOL     OW 6763   5.772   5.678   2.126
 1955SOL    HW1 6764   5.675   5.656   2.112
 1955SOL    HW2 6765   5.811   5.711   2.041
 1956SOL     OW 6766   4.947   6.353   2.919
 1956SOL    HW1 6767   4.902   6.264   2.930
 1956SOL    HW2 6768   4.909   6.419   2.984
 1957SOL     OW 6769   1.801   6.303   4.706
 1957SOL    HW1 6770   1.731   6.236   4.729
 1957SOL    HW2 6771   1.836   6.284   4.614
 1958SOL     OW 6772   3.597   3.446   5.847
 1958SOL    HW1 6773   3.608   3.496   5.761
 1958SOL    HW2 6774   3.569   3.352   5.827
 1959SOL     OW 6775   2.395   0.841   0.530
 1959SOL    HW1 6776   2.466   0.903   0.497
 1959SOL    HW2 6777   2.398   0.836   0.629
 1960SOL     OW 6778   5.221   5.954   2.921
 1960SOL    HW1 6779   5.216   6.053   2.936
 1960SOL    HW2 6780   5.154   5.908   2.978
 1961SOL     OW 6781   5.591   5.428   5.436
 1961SOL    HW1 6782   5.526   5.498   5.464
 1961SOL    HW2 6783   5.658   5.468   5.373
 1962SOL     OW 6784   0.004   6.625   4.114
 1962SOL    HW1 6785   6.969   6.679   4.052
 1962SOL    HW2 6786   0.072   6.573   4.062
 1963SOL     OW 6787   2.382   0.835   3.579
 1963SOL    HW1 6788   2.450   0.904   3.558
 1963SOL    HW2 6789   2.427   0.747   3.594
 1964SOL     OW 6790   6.015   3.238   2.547
 1964SOL    HW1 6791   6.003   3.188   2.460
 1964SOL    HW2 6792   5.949   3.204   2.614
 1965SOL     OW 6793   2.060   6.449   3.520
 1965SOL    HW1 6794   2.035   6.522   3.584
 1965SOL    HW2 6795   1.979   6.417   3.472
 1966SOL     OW 6796   6.466   0.302   6.759
 1966SOL    HW1 6797   6.443   0.232   6.826
 1966SOL    HW2 6798   6.560   0.289   6.728
 1967SOL     OW 6799   5.447   3.379   4.962
 1967SOL    HW1 6800   5.488   3.448   5.021
 1967SOL    HW2 6801   5.473   3.397   4.867
 1968SOL     OW 6802   3.990   5.329   4.665
 1968SOL    HW1 6803   3.996   5.429   4.670
 1968SOL    HW2 6804   4.065   5.295   4.609
 1969SOL     OW 6805   0.062   1.407   1.960
 1969SOL    HW1 6806   0.012   1.332   2.003
 1969SOL    HW2 6807   0.049   1.491   2.012
 1970SOL     OW 6808   1.435   0.831   3.694
 1970SOL    HW1 6809   1.393   0.828   3.603
 1970SOL    HW2 6810   1.512   0.895   3.693
 1971SOL     OW 6811   0.277   1.573   6.339
 1971SOL    HW1 6812   0.267   1.645   6.408
 1971SOL    HW2 6813   0.254   1.484   6.380
 1972SOL     OW 6814   1.401   0.598   3.826
 1972SOL    HW1 6815   1.428   0.625   3.918
 1972SOL    HW2 6816   1.406   0.677   3.765
 1973SOL     OW 6817   2.148   3.302   0.281
 1973SOL    HW1 6818   2.049   3.304   0.269
 1973SOL    HW2 6819   2.170   3.292   0.378
 1974SOL     OW 6820   5.980   6.833   4.513
 1974SOL    HW1 6821   6.011   6.772   4.440
 1974SOL    HW2 6822   6.006   6.927   4.491
 1975SOL     OW 6823   2.419   0.324   3.084
 1975SOL    HW1 6824   2.497   0.287   3.135
 1975SOL    HW2 6825   2.347   0.351   3.148
 1976SOL     OW 6826   6.520   3.868   6.374
 1976SOL    HW1 6827   6.588   3.932   6.411
 1976SOL    HW2 6828   6.499   3.798   6.442
 1977SOL     OW 6829   3.370   2.232   5.301
 1977SOL    HW1 6830   3.304   2.266   5.234
 1977SOL    HW2 6831   3.337   2.254   5.393
 1978SOL     OW 6832   6.967   2.555   4.995
 1978SOL    HW1 6833   6.933   2.638   5.039
 1978SOL    HW2 6834   0.041   2.569   4.965
 1979SOL     OW 6835   6.644   4.004   2.322
 1979SOL    HW1 6836   6.566   4.028   2.264
 1979SOL    HW2 6837   6.705   3.943   2.273
 1980SOL     OW 6838   2.596   0.534   2.636
 1980SOL    HW1 6839   2.578   0.482   2.553
 1980SOL    HW2 6840   2.693   0.525   2.661
 1981SOL     OW 6841   5.056   2.905   2.127
 1981SOL    HW1 6842   4.986   2.853   2.177
 1981SOL    HW2 6843   5.090   2.979   2.184
 1982SOL     OW 6844   0.035   6.669   4.984
 1982SOL    HW1 6845   0.045   6.643   5.080
 1982SOL    HW2 6846   0.111   6.631   4.931
 1983SOL     OW 6847   0.766   4.618   1.917
 1983SOL    HW1 6848   0.675   4.660   1.915
 1983SOL    HW2 6849   0.759   4.528   1.961
 1984SOL     OW 6850   5.143   0.797   5.074
 1984SOL    HW1 6851   5.081   0.805   5.152
 1984SOL    HW2 6852   5.108   0.727   5.011
 1985SOL     OW 6853   1.456   6.096   1.200
 1985SOL    HW1 6854   1.511   6.012   1.196
 1985SOL    HW2 6855   1.466   6.138   1.290
 1986SOL     OW 6856   6.865   2.340   0.410
 1986SOL    HW1 6857   6.881   2.246   0.381
 1986SOL    HW2 6858   6.837   2.395   0.332
 1987SOL     OW 6859   2.595   4.051   6.618
 1987SOL    HW1 6860   2.516   4.009   6.573
 1987SOL    HW2 6861   2.678   4.026   6.569
 1988SOL     OW 6862   4.543   3.488   0.782
 1988SOL    HW1 6863   4.540   3.587   0.768
 1988SOL    HW2 6864   4.452   3.450   0.765
 1989SOL     OW 6865   1.952   2.152   4.023
 1989SOL    HW1 6866   2.024   2.144   3.955
 1989SOL    HW2 6867   1.879   2.212   3.988
 1990SOL     OW 6868   1.362   0.371   3.029
 1990SOL    HW1 6869   1.456   0.344   3.049
 1990SOL    HW2 6870   1.319   0.407   3.112
 1991SOL     OW 6871   4.506   6.357   3.047
 1991SOL    HW1 6872   4.422   6.408   3.028
 1991SOL    HW2 6873   4.506   6.271   2.997
 1992SOL     OW 6874   2.294   6.168   5.633
 1992SOL    HW1 6875   2.372   6.130   5.583
 1992SOL    HW2 6876   2.264   6.102   5.703
 1993SOL     OW 6877   2.992   3.172   4.272
 1993SOL    HW1 6878   2.908   3.145   4.319
 1993SOL    HW2 6879   3.044   3.236   4.329
 1994SOL     OW 6880   6.381   2.500   2.191
 1994SOL    HW1 6881   6.463   2.452   2.160
 1994SOL    HW2 6882   6.339   2.450   2.267
 1995SOL     OW 6883   3.813   2.197   1.325
 1995SOL    HW1 6884   3.717   2.175   1.344
 1995SOL    HW2 6885   3.871   2.158   1.396
 1996SOL     OW 6886   2.673   4.405   5.311
 1996SOL    HW1 6887   2.659   4.307   5.302
 1996SOL    HW2 6888   2.756   4.432   5.264
 1997SOL     OW 6889   5.777   6.291   3.508
 1997SOL    HW1 6890   5.685   6.254   3.505
 1997SOL    HW2 6891   5.795   6.330   3.599
 1998SOL     OW 6892   3.175   4.590   5.489
 1998SOL    HW1 6893   3.091   4.561   5.442
 1998SOL    HW2 6894   3.205   4.678   5.453
 1999SOL     OW 6895   2.277   1.786   1.818
 1999SOL    HW1 6896   2.264   1.737   1.905
 1999SOL    HW2 6897   2.374   1.785   1.793
 2000SOL     OW 6898   3.112   1.207   5.155
 2000SOL    HW1 6899   3.195   1.260   5.172
 2000SOL    HW2 6900   3.031   1.263   5.176
 2001SOL     OW 6901   2.326   2.993   0.004
 2001SOL    HW1 6902   2.395   3.014   6.956
 2001SOL    HW2 6903   2.352   2.911   0.054
 2002SOL     OW 6904   1.330   5.127   4.920
 2002SOL    HW1 6905   1.283   5.081   4.845
 2002SOL    HW2 6906   1.266   5.141   4.996
 2003SOL     OW 6907   6.664   4.280   3.177
 2003SOL    HW1 6908   6.757   4.255   3.153
 2003SOL    HW2 6909   6.642   4.370   3.140
 2004SOL     OW 6910   3.370   6.940   6.505
 2004SOL    HW1 6911   3.293   6.943   6.568
 2004SOL    HW2 6912   3.433   6.867   6.533
 2005SOL     OW 6913   2.564   6.386   5.058
 2005SOL    HW1 6914   2.636   6.372   4.990
 2005SOL    HW2 6915   2.606   6.415   5.144
 2006SOL     OW 6916   4.710   6.552   3.398
 2006SOL    HW1 6917   4.638   6.537   3.330
 2006SOL    HW2 6918   4.755   6.640   3.380
 2007SOL     OW 6919   6.572   5.357   6.666
 2007SOL    HW1 6920   6.515   5.288   6.710
 2007SOL    HW2 6921   6.650   5.379   6.726
 2008SOL     OW 6922   0.319   6.118   5.603
 2008SOL    HW1 6923   0.265   6.095   5.522
 2008SOL    HW2 6924   0.273   6.192   5.654
 2009SOL     OW 6925   1.307   0.376   6.822
 2009SOL    HW1 6926   1.349   0.362   6.911
 2009SOL    HW2 6927   1.212   0.345   6.824
 2010SOL     OW 6928   2.100   0.824   0.997
 2010SOL    HW1 6929   2.065   0.784   1.082
 2010SOL    HW2 6930   2.025   0.842   0.934
 2011SOL     OW 6931   0.387   1.990   5.077
 2011SOL    HW1 6932   0.317   1.937   5.029
 2011SOL    HW2 6933   0.357   2.009   5.170
 2012SOL     OW 6934   6.703   2.891   1.171
 2012SOL    HW1 6935   6.712   2.981   1.129
 2012SOL    HW2 6936   6.751   2.823   1.116
 2013SOL     OW 6937   4.183   2.399   1.904
 2013SOL    HW1 6938   4.173   2.436   1.997
 2013SOL    HW2 6939   4.271   2.428   1.866
 2014SOL     OW 6940   3.341   5.669   3.367
 2014SOL    HW1 6941   3.290   5.584   3.352
 2014SOL    HW2 6942   3.438   5.654   3.347
 2015SOL     OW 6943   3.388   6.475   0.644
 2015SOL    HW1 6944   3.476   6.520   0.660
 2015SOL    HW2 6945   3.400   6.376   0.645
 2016SOL     OW 6946   6.090   5.846   4.017
 2016SOL    HW1 6947   6.174   5.829   4.069
 2016SOL    HW2 6948   6.113   5.893   3.932
 2017SOL     OW 6949   2.351   5.102   2.308
 2017SOL    HW1 6950   2.305   5.083   2.395
 2017SOL    HW2 6951   2.328   5.031   2.242
 2018SOL     OW 6952   0.654   3.809   6.398
 2018SOL    HW1 6953   0.711   3.730   6.421
 2018SOL    HW2 6954   0.630   3.806   6.301
 2019SOL     OW 6955   5.404   1.392   2.871
 2019SOL    HW1 6956   5.368   1.431   2.787
 2019SOL    HW2 6957   5.331   1.386   2.939
 2020SOL     OW 6958   1.921   5.424   3.263
 2020SOL    HW1 6959   1.885   5.454   3.175
 2020SOL    HW2 6960   1.885   5.482   3.336
 2021SOL     OW 6961   2.257   6.502   1.832
 2021SOL    HW1 6962   2.327   6.561   1.792
 2021SOL    HW2 6963   2.254   6.416   1.782
 2022SOL     OW 6964   3.237   5.486   1.043
 2022SOL    HW1 6965   3.249   5.387   1.055
 2022SOL    HW2 6966   3.224   5.529   1.132
 2023SOL     OW 6967   6.289   1.786   6.210
 2023SOL    HW1 6968   6.264   1.846   6.133
 2023SOL    HW2 6969   6.217   1.790   6.279
 2024SOL     OW 6970   6.251   0.723   3.100
 2024SOL    HW1 6971   6.220   0.786   3.171
 2024SOL    HW2 6972   6.174   0.667   3.069
 2025SOL     OW 6973   6.292   0.562   0.878
 2025SOL    HW1 6974   6.235   0.612   0.812
 2025SOL    HW2 6975   6.335   0.484   0.832
 2026SOL     OW 6976   2.004   1.991   4.878
 2026SOL    HW1 6977   2.062   1.954   4.806
 2026SOL    HW2 6978   1.920   2.027   4.839
 2027SOL     OW 6979   0.025   0.633   2.402
 2027SOL    HW1 6980   0.064   0.709   2.351
 2027SOL    HW2 6981   6.952   0.616   2.371
 2028SOL     OW 6982   3.575   4.388   6.179
 2028SOL    HW1 6983   3.590   4.296   6.143
 2028SOL    HW2 6984   3.621   4.396   6.268
 2029SOL     OW 6985   1.974   0.446   0.555
 2029SOL    HW1 6986   1.928   0.514   0.611
 2029SOL    HW2 6987   2.073   0.464   0.555
 2030SOL     OW 6988   1.723   2.508   3.112
 2030SOL    HW1 6989   1.726   2.546   3.020
 2030SOL    HW2 6990   1.774   2.568   3.174
 2031SOL     OW 6991   6.154   0.254   2.959
 2031SOL    HW1 6992   6.134   0.215   3.049
 2031SOL    HW2 6993   6.221   0.327   2.969
 2032SOL     OW 6994   4.556   6.312   1.954
 2032SOL    HW1 6995   4.456   6.312   1.965
 2032SOL    HW2 6996   4.598   6.338   2.041
 2033SOL     OW 6997   7.020   5.072   6.580
 2033SOL    HW1 6998   6.989   5.162   6.551
 2033SOL    HW2 6999   6.955   5.034   6.645
 2034SOL     OW 7000   2.296   6.021   3.790
 2034SOL    HW1 7001   2.278   6.089   3.719
 2034SOL    HW2 7002   2.249   6.046   3.874
 2035SOL     OW 7003   0.471   2.053   2.241
 2035SOL    HW1 7004   0.397   2.057   2.174
 2035SOL    HW2 7005   0.443   1.994   2.317
 2036SOL     OW 7006   0.829   4.960   0.764
 2036SOL    HW1 7007   0.880   4.900   0.703
 2036SOL    HW2 7008   0.888   5.035   0.794
 2037SOL     OW 7009   0.287   1.662   6.802
 2037SOL    HW1 7010   0.254   1.743   6.849
 2037SOL    HW2 7011   0.308   1.590   6.869
 2038SOL     OW 7012   1.316   0.015   4.805
 2038SOL    HW1 7013   1.338   6.969   4.876
 2038SOL    HW2 7014   1.340   0.106   4.838
 2039SOL     OW 7015   1.323   5.450   1.847
 2039SOL    HW1 7016   1.277   5.450   1.935
 2039SOL    HW2 7017   1.267   5.403   1.779
 2040SOL     OW 7018   3.799   4.019   4.339
 2040SOL    HW1 7019   3.789   3.920   4.330
 2040SOL    HW2 7020   3.799   4.044   4.436
 2041SOL     OW 7021   5.446   2.749   6.351
 2041SOL    HW1 7022   5.418   2.844   6.336
 2041SOL    HW2 7023   5.432   2.726   6.447
 2042SOL     OW 7024   3.255   5.925   0.577
 2042SOL    HW1 7025   3.187   5.911   0.649
 2042SOL    HW2 7026   3.241   5.857   0.505
 2043SOL     OW 7027   4.544   5.322   2.584
 2043SOL    HW1 7028   4.605   5.270   2.644
 2043SOL    HW2 7029   4.597   5.394   2.538
 2044SOL     OW 7030   6.590   0.535   2.108
 2044SOL    HW1 7031   6.583   0.452   2.163
 2044SOL    HW2 7032   6.583   0.512   2.011
 2045SOL     OW 7033   3.120   6.189   6.607
 2045SOL    HW1 7034   3.135   6.280   6.648
 2045SOL    HW2 7035   3.207   6.153   6.574
 2046SOL     OW 7036   6.377   6.995   5.857
 2046SOL    HW1 7037   6.305   0.008   5.796
 2046SOL    HW2 7038   6.463   6.990   5.807
 2047SOL     OW 7039   4.925   2.636   6.938
 2047SOL    HW1 7040   4.895   2.626   6.843
 2047SOL    HW2 7041   4.877   2.713   6.979
 2048SOL     OW 7042   4.982   6.300   5.719
 2048SOL    HW1 7043   5.067   6.328   5.762
 2048SOL    HW2 7044   4.997   6.216   5.666
 2049SOL     OW 7045   4.870   5.854   0.112
 2049SOL    HW1 7046   4.885   5.769   0.163
 2049SOL    HW2 7047   4.939   5.862   0.040
 2050SOL     OW 7048   5.748   0.339   3.839
 2050SOL    HW1 7049   5.729   0.437   3.850
 2050SOL    HW2 7050   5.663   0.288   3.845
 2051SOL     OW 7051   2.750   5.367   1.020
 2051SOL    HW1 7052   2.781   5.272   1.019
 2051SOL    HW2 7053   2.734   5.396   1.115
 2052SOL     OW 7054   1.174   3.101   0.762
 2052SOL    HW1 7055   1.174   3.002   0.774
 2052SOL    HW2 7056   1.125   3.124   0.677
 2053SOL     OW 7057   5.086   1.510   0.671
 2053SOL    HW1 7058   4.989   1.494   0.655
 2053SOL    HW2 7059   5.140   1.465   0.600
 2054SOL     OW 7060   0.286   3.413   1.105
 2054SOL    HW1 7061   0.383   3.413   1.129
 2054SOL    HW2 7062   0.238   3.342   1.158
 2055SOL     OW 7063   6.397   1.605   3.976
 2055SOL    HW1 7064   6.411   1.543   4.053
 2055SOL    HW2 7065   6.485   1.632   3.937
 2056SOL     OW 7066   1.133   6.864   2.151
 2056SOL    HW1 7067   1.096   6.807   2.225
 2056SOL    HW2 7068   1.061   6.923   2.116
 2057SOL     OW 7069   5.506   2.721   4.323
 2057SOL    HW1 7070   5.528   2.677   4.410
 2057SOL    HW2 7071   5.590   2.747   4.277
 2058SOL     OW 7072   0.431   1.403   1.595
 2058SOL    HW1 7073   0.414   1.349   1.512
 2058SOL    HW2 7074   0.367   1.376   1.666
 2059SOL     OW 7075   1.479   0.684   6.552
 2059SOL    HW1 7076   1.408   0.648   6.613
 2059SOL    HW2 7077   1.525   0.608   6.506
 2060SOL     OW 7078   0.211   5.442   2.483
 2060SOL    HW1 7079   0.237   5.368   2.422
 2060SOL    HW2 7080   0.153   5.406   2.556
 2061SOL     OW 7081   1.098   0.931   1.095
 2061SOL    HW1 7082   1.061   0.994   1.164
 2061SOL    HW2 7083   1.196   0.949   1.084
 2062SOL     OW 7084   4.038   0.182   4.144
 2062SOL    HW1 7085   4.117   0.174   4.206
 2062SOL    HW2 7086   3.969   0.240   4.187
 2063SOL     OW 7087   2.272   2.061   0.709
 2063SOL    HW1 7088   2.293   2.120   0.787
 2063SOL    HW2 7089   2.225   2.114   0.639
 2064SOL     OW 7090   1.097   1.870   0.504
 2064SOL    HW1 7091   1.045   1.946   0.543
 2064SOL    HW2 7092   1.057   1.784   0.535
 2065SOL     OW 7093   6.982   3.842   2.822
 2065SOL    HW1 7094   0.050   3.859   2.864
 2065SOL    HW2 7095   6.944   3.758   2.860
 2066SOL     OW 7096   1.170   6.198   3.083
 2066SOL    HW1 7097   1.155   6.294   3.107
 2066SOL    HW2 7098   1.219   6.153   3.157
 2067SOL     OW 7099   0.264   6.698   0.275
 2067SOL    HW1 7100   0.292   6.602   0.279
 2067SOL    HW2 7101   0.311   6.749   0.346
 2068SOL     OW 7102   2.150   1.545   5.205
 2068SOL    HW1 7103   2.103   1.615   5.260
 2068SOL    HW2 7104   2.178   1.469   5.264
 2069SOL     OW 7105   1.107   2.259   1.657
 2069SOL    HW1 7106   1.202   2.259   1.627
 2069SOL    HW2 7107   1.064   2.173   1.631
 2070SOL     OW 7108   0.804   1.036   2.796
 2070SOL    HW1 7109   0.897   1.072   2.790
 2070SOL    HW2 7110   0.748   1.074   2.722
 2071SOL     OW 7111   2.402   6.212   5.244
 2071SOL    HW1 7112   2.382   6.276   5.318
 2071SOL    HW2 7113   2.488   6.238   5.200
 2072SOL     OW 7114   5.030   4.698   2.164
 2072SOL    HW1 7115   5.130   4.694   2.159
 2072SOL    HW2 7116   4.993   4.607   2.183
 2073SOL     OW 7117   3.205   6.353   5.387
 2073SOL    HW1 7118   3.264   6.274   5.367
 2073SOL    HW2 7119   3.197   6.410   5.306
 2074SOL     OW 7120   6.029   2.605   2.727
 2074SOL    HW1 7121   6.105   2.667   2.746
 2074SOL    HW2 7122   6.051   2.547   2.649
 2075SOL     OW 7123   3.287   3.334   5.961
 2075SOL    HW1 7124   3.269   3.418   5.910
 2075SOL    HW2 7125   3.341   3.271   5.905
 2076SOL     OW 7126   5.509   0.268   0.871
 2076SOL    HW1 7127   5.565   0.295   0.950
 2076SOL    HW2 7128   5.540   0.179   0.837
 2077SOL     OW 7129   4.933   1.460   3.848
 2077SOL    HW1 7130   5.018   1.407   3.840
 2077SOL    HW2 7131   4.866   1.407   3.901
 2078SOL     OW 7132   4.058   5.469   5.039
 2078SOL    HW1 7133   4.076   5.538   4.969
 2078SOL    HW2 7134   3.973   5.421   5.017
 2079SOL     OW 7135   5.983   0.439   3.675
 2079SOL    HW1 7136   5.935   0.398   3.752
 2079SOL    HW2 7137   6.057   0.497   3.708
 2080SOL     OW 7138   2.939   1.693   3.773
 2080SOL    HW1 7139   2.909   1.681   3.679
 2080SOL    HW2 7140   2.896   1.624   3.831
 2081SOL     OW 7141   1.505   6.250   4.161
 2081SOL    HW1 7142   1.554   6.178   4.112
 2081SOL    HW2 7143   1.508   6.335   4.108
 2082SOL     OW 7144   4.867   0.298   2.104
 2082SOL    HW1 7145   4.836   0.261   2.017
 2082SOL    HW2 7146   4.798   0.280   2.175
 2083SOL     OW 7147   4.107   4.336   5.945
 2083SOL    HW1 7148   4.113   4.312   5.848
 2083SOL    HW2 7149   4.039   4.408   5.958
 2084SOL     OW 7150   6.811   2.214   2.499
 2084SOL    HW1 7151   6.855   2.254   2.579
 2084SOL    HW2 7152   6.881   2.189   2.432
 2085SOL     OW 7153   5.655   6.195   6.511
 2085SOL    HW1 7154   5.627   6.278   6.560
 2085SOL    HW2 7155   5.752   6.201   6.488
 2086SOL     OW 7156   3.668   5.380   0.135
 2086SOL    HW1 7157   3.628   5.358   0.224
 2086SOL    HW2 7158   3.768   5.376   0.142
 2087SOL     OW 7159   6.022   6.109   3.586
 2087SOL    HW1 7160   5.970   6.195   3.582
 2087SOL    HW2 7161   5.960   6.032   3.568
 2088SOL     OW 7162   2.431   6.913   1.523
 2088SOL    HW1 7163   2.331   6.918   1.528
 2088SOL    HW2 7164   2.467   6.996   1.481
 2089SOL     OW 7165   2.608   1.188   0.039
 2089SOL    HW1 7166   2.671   1.165   0.113
 2089SOL    HW2 7167   2.523   1.224   0.078
 2090SOL     OW 7168   3.164   3.348   3.902
 2090SOL    HW1 7169   3.081   3.370   3.954
 2090SOL    HW2 7170   3.151   3.261   3.855
 2091SOL     OW 7171   2.447   4.979   1.166
 2091SOL    HW1 7172   2.420   5.067   1.127
 2091SOL    HW2 7173   2.421   4.976   1.263
 2092SOL     OW 7174   0.123   5.782   1.050
 2092SOL    HW1 7175   0.039   5.810   1.096
 2092SOL    HW2 7176   0.151   5.692   1.082
 2093SOL     OW 7177   0.811   3.075   1.509
 2093SOL    HW1 7178   0.719   3.038   1.501
 2093SOL    HW2 7179   0.867   3.041   1.433
 2094SOL     OW 7180   6.386   0.432   1.653
 2094SOL    HW1 7181   6.316   0.462   1.588
 2094SOL    HW2 7182   6.369   0.338   1.680
 2095SOL     OW 7183   6.652   5.006   4.877
 2095SOL    HW1 7184   6.635   5.083   4.939
 2095SOL    HW2 7185   6.651   4.921   4.929
 2096SOL     OW 7186   4.932   3.712   3.706
 2096SOL    HW1 7187   4.931   3.699   3.805
 2096SOL    HW2 7188   4.945   3.809   3.685
 2097SOL     OW 7189   6.349   3.673   6.483
 2097SOL    HW1 7190   6.277   3.732   6.521
 2097SOL    HW2 7191   6.312   3.623   6.405
 2098SOL     OW 7192   3.745   6.869   4.089
 2098SOL    HW1 7193   3.709   6.835   4.177
 2098SOL    HW2 7194   3.827   6.818   4.066
 2099SOL     OW 7195   2.960   1.680   3.065
 2099SOL    HW1 7196   2.957   1.686   2.965
 2099SOL    HW2 7197   2.921   1.763   3.104
 2100SOL     OW 7198   3.770   4.808   6.957
 2100SOL    HW1 7199   3.779   4.720   7.003
 2100SOL    HW2 7200   3.684   4.851   6.984
 2101SOL     OW 7201   6.916   0.424   1.976
 2101SOL    HW1 7202   6.952   0.516   1.961
 2101SOL    HW2 7203   6.947   0.390   2.065
 2102SOL     OW 7204   6.822   5.557   1.762
 2102SOL    HW1 7205   6.905   5.588   1.809
 2102SOL    HW2 7206   6.745   5.560   1.825
 2103SOL     OW 7207   3.337   3.449   6.204
 2103SOL    HW1 7208   3.325   3.394   6.121
 2103SOL    HW2 7209   3.318   3.392   6.284
 2104SOL     OW 7210   1.595   4.142   5.742
 2104SOL    HW1 7211   1.682   4.169   5.701
 2104SOL    HW2 7212   1.561   4.059   5.697
 2105SOL     OW 7213   5.498   6.151   1.679
 2105SOL    HW1 7214   5.439   6.075   1.705
 2105SOL    HW2 7215   5.555   6.123   1.601
 2106SOL     OW 7216   5.844   5.620   6.581
 2106SOL    HW1 7217   5.816   5.716   6.577
 2106SOL    HW2 7218   5.883   5.593   6.493
 2107SOL     OW 7219   2.675   4.963   0.562
 2107SOL    HW1 7220   2.682   4.894   0.490
 2107SOL    HW2 7221   2.677   4.920   0.651
 2108SOL     OW 7222   5.619   4.235   6.424
 2108SOL    HW1 7223   5.579   4.326   6.431
 2108SOL    HW2 7224   5.712   4.242   6.390
 2109SOL     OW 7225   5.644   5.942   2.807
 2109SOL    HW1 7226   5.694   5.956   2.893
 2109SOL    HW2 7227   5.549   5.915   2.828
 2110SOL     OW 7228   1.635   5.129   5.254
 2110SOL    HW1 7229   1.584   5.198   5.202
 2110SOL    HW2 7230   1.660   5.053   5.193
 2111SOL     OW 7231   1.905   2.658   6.945
 2111SOL    HW1 7232   1.926   2.733   7.007
 2111SOL    HW2 7233   1.957   2.669   6.860
 2112SOL     OW 7234   5.377   3.438   0.286
 2112SOL    HW1 7235   5.332   3.508   0.231
 2112SOL    HW2 7236   5.355   3.348   0.249
 2113SOL     OW 7237   6.606   1.678   2.869
 2113SOL    HW1 7238   6.534   1.745   2.890
 2113SOL    HW2 7239   6.610   1.664   2.771
 2114SOL     OW 7240   1.871   3.324   7.018
 2114SOL    HW1 7241   1.906   3.246   6.967
 2114SOL    HW2 7242   1.802   3.371   6.964
 2115SOL     OW 7243   3.289   5.694   1.634
 2115SOL    HW1 7244   3.215   5.712   1.570
 2115SOL    HW2 7245   3.377   5.712   1.590
 2116SOL     OW 7246   0.973   4.250   4.029
 2116SOL    HW1 7247   0.935   4.246   4.121
 2116SOL    HW2 7248   0.921   4.190   3.968
 2117SOL     OW 7249   0.072   5.977   6.188
 2117SOL    HW1 7250   7.021   5.962   6.256
 2117SOL    HW2 7251   0.113   6.067   6.204
 2118SOL     OW 7252   0.053   3.394   2.198
 2118SOL    HW1 7253   0.133   3.345   2.231
 2118SOL    HW2 7254   0.044   3.380   2.099
 2119SOL     OW 7255   3.901   6.442   0.916
 2119SOL    HW1 7256   3.935   6.407   1.003
 2119SOL    HW2 7257   3.831   6.379   0.881
 2120SOL     OW 7258   6.368   4.539   2.248
 2120SOL    HW1 7259   6.298   4.478   2.210
 2120SOL    HW2 7260   6.456   4.491   2.252
 2121SOL     OW 7261   0.642   4.031   4.848
 2121SOL    HW1 7262   0.654   3.952   4.909
 2121SOL    HW2 7263   0.559   4.018   4.793
 2122SOL     OW 7264   4.473   5.092   5.515
 2122SOL    HW1 7265   4.394   5.099   5.454
 2122SOL    HW2 7266   4.552   5.135   5.472
 2123SOL     OW 7267   4.741   4.638   3.727
 2123SOL    HW1 7268   4.762   4.540   3.730
 2123SOL    HW2 7269   4.822   4.690   3.754
 2124SOL     OW 7270   3.128   2.110   1.435
 2124SOL    HW1 7271   3.205   2.173   1.420
 2124SOL    HW2 7272   3.096   2.075   1.347
 2125SOL     OW 7273   5.161   6.275   0.700
 2125SOL    HW1 7274   5.185   6.233   0.612
 2125SOL    HW2 7275   5.062   6.277   0.709
 2126SOL     OW 7276   3.017   1.254   1.704
 2126SOL    HW1 7277   2.968   1.297   1.779
 2126SOL    HW2 7278   3.072   1.179   1.738
 2127SOL     OW 7279   5.559   3.105   4.968
 2127SOL    HW1 7280   5.538   3.201   4.988
 2127SOL    HW2 7281   5.474   3.057   4.947
 2128SOL     OW 7282   0.569   4.379   4.529
 2128SOL    HW1 7283   0.614   4.450   4.584
 2128SOL    HW2 7284   0.618   4.293   4.539
 2129SOL     OW 7285   4.359   2.376   5.336
 2129SOL    HW1 7286   4.335   2.460   5.287
 2129SOL    HW2 7287   4.380   2.397   5.431
 2130SOL     OW 7288   5.335   0.949   3.512
 2130SOL    HW1 7289   5.331   0.938   3.413
 2130SOL    HW2 7290   5.346   1.046   3.534
 2131SOL     OW 7291   5.285   1.870   6.760
 2131SOL    HW1 7292   5.289   1.883   6.859
 2131SOL    HW2 7293   5.297   1.773   6.738
 2132SOL     OW 7294   1.744   3.681   1.251
 2132SOL    HW1 7295   1.760   3.603   1.190
 2132SOL    HW2 7296   1.823   3.742   1.248
 2133SOL     OW 7297   2.331   4.051   6.180
 2133SOL    HW1 7298   2.353   4.141   6.143
 2133SOL    HW2 7299   2.296   3.992   6.107
 2134SOL     OW 7300   0.166   6.554   0.684
 2134SOL    HW1 7301   0.147   6.460   0.656
 2134SOL    HW2 7302   0.121   6.572   0.772
 2135SOL     OW 7303   6.824   4.370   5.298
 2135SOL    HW1 7304   6.868   4.452   5.334
 2135SOL    HW2 7305   6.725   4.380   5.302
 2136SOL     OW 7306   1.546   5.474   0.209
 2136SOL    HW1 7307   1.461   5.526   0.221
 2136SOL    HW2 7308   1.524   5.376   0.201
 2137SOL     OW 7309   1.690   6.413   3.818
 2137SOL    HW1 7310   1.640   6.358   3.751
 2137SOL    HW2 7311   1.632   6.430   3.897
 2138SOL     OW 7312   5.178   1.984   2.325
 2138SOL    HW1 7313   5.248   2.024   2.385
 2138SOL    HW2 7314   5.177   2.032   2.238
 2139SOL     OW 7315   2.575   0.115   5.542
 2139SOL    HW1 7316   2.529   0.083   5.459
 2139SOL    HW2 7317   2.636   0.044   5.576
 2140SOL     OW 7318   2.466   1.587   3.986
 2140SOL    HW1 7319   2.506   1.599   4.077
 2140SOL    HW2 7320   2.399   1.512   3.990
 2141SOL     OW 7321   6.823   3.460   3.320
 2141SOL    HW1 7322   6.860   3.368   3.306
 2141SOL    HW2 7323   6.749   3.476   3.255
 2142SOL     OW 7324   1.497   2.547   2.226
 2142SOL    HW1 7325   1.424   2.514   2.165
 2142SOL    HW2 7326   1.584   2.508   2.198
 2143SOL     OW 7327   0.176   5.452   5.806
 2143SOL    HW1 7328   0.089   5.469   5.759
 2143SOL    HW2 7329   0.206   5.358   5.788
 2144SOL     OW 7330   6.238   4.617   2.786
 2144SOL    HW1 7331   6.233   4.574   2.697
 2144SOL    HW2 7332   6.174   4.694   2.790
 2145SOL     OW 7333   4.127   1.329   3.225
 2145SOL    HW1 7334   4.184   1.345   3.144
 2145SOL    HW2 7335   4.166   1.377   3.303
 2146SOL     OW 7336   2.343   2.337   6.176
 2146SOL    HW1 7337   2.318   2.255   6.124
 2146SOL    HW2 7338   2.261   2.389   6.198
 2147SOL     OW 7339   6.032   6.674   4.307
 2147SOL    HW1 7340   6.067   6.618   4.232
 2147SOL    HW2 7341   5.932   6.668   4.309
 2148SOL     OW 7342   0.146   2.274   5.328
 2148SOL    HW1 7343   0.074   2.255   5.395
 2148SOL    HW2 7344   0.154   2.373   5.316
 2149SOL     OW 7345   0.892   6.639   6.975
 2149SOL    HW1 7346   0.876   6.654   0.052
 2149SOL    HW2 7347   0.846   6.710   6.922
 2150SOL     OW 7348   1.392   3.251   0.777
 2150SOL    HW1 7349   1.354   3.327   0.830
 2150SOL    HW2 7350   1.317   3.200   0.734
 2151SOL     OW 7351   0.655   4.622   6.982
 2151SOL    HW1 7352   0.727   4.687   7.010
 2151SOL    HW2 7353   0.621   4.648   6.892
 2152SOL     OW 7354   5.274   6.367   3.731
 2152SOL    HW1 7355   5.321   6.280   3.714
 2152SOL    HW2 7356   5.271   6.385   3.830
 2153SOL     OW 7357   5.398   0.001   4.247
 2153SOL    HW1 7358   5.380   0.077   4.185
 2153SOL    HW2 7359   5.387   6.936   4.199
 2154SOL     OW 7360   2.444   6.651   2.509
 2154SOL    HW1 7361   2.413   6.746   2.516
 2154SOL    HW2 7362   2.366   6.590   2.524
 2155SOL     OW 7363   4.063   0.949   0.834
 2155SOL    HW1 7364   3.998   1.016   0.800
 2155SOL    HW2 7365   4.120   0.990   0.906
 2156SOL     OW 7366   5.761   2.542   5.043
 2156SOL    HW1 7367   5.741   2.447   5.067
 2156SOL    HW2 7368   5.724   2.562   4.952
 2157SOL     OW 7369   3.882   6.162   4.915
 2157SOL    HW1 7370   3.829   6.078   4.908
 2157SOL    HW2 7371   3.979   6.138   4.922
 2158SOL     OW 7372   2.859   6.962   0.605
 2158SOL    HW1 7373   2.925   6.922   0.668
 2158SOL    HW2 7374   2.818   6.890   0.550
 2159SOL     OW 7375   0.571   0.861   5.796
 2159SOL    HW1 7376   0.547   0.922   5.720
 2159SOL    HW2 7377   0.620   0.782   5.761
 2160SOL     OW 7378   5.464   0.183   6.423
 2160SOL    HW1 7379   5.419   0.098   6.451
 2160SOL    HW2 7380   5.558   0.184   6.456
 2161SOL     OW 7381   1.760   3.838   0.759
 2161SOL    HW1 7382   1.737   3.918   0.704
 2161SOL    HW2 7383   1.811   3.772   0.703
 2162SOL     OW 7384   1.975   0.203   1.185
 2162SOL    HW1 7385   2.061   0.195   1.135
 2162SOL    HW2 7386   1.908   0.252   1.129
 2163SOL     OW 7387   1.510   3.175   3.242
 2163SOL    HW1 7388   1.563   3.169   3.158
 2163SOL    HW2 7389   1.567   3.213   3.315
 2164SOL     OW 7390   2.152   3.744   2.228
 2164SOL    HW1 7391   2.173   3.663   2.174
 2164SOL    HW2 7392   2.164   3.723   2.325
 2165SOL     OW 7393   6.238   1.009   4.782
 2165SOL    HW1 7394   6.199   1.008   4.874
 2165SOL    HW2 7395   6.187   1.073   4.725
 2166SOL     OW 7396   7.009   2.998   1.936
 2166SOL    HW1 7397   6.916   3.026   1.911
 2166SOL    HW2 7398   0.053   3.066   1.903
 2167SOL     OW 7399   1.784   2.172   2.863
 2167SOL    HW1 7400   1.687   2.186   2.840
 2167SOL    HW2 7401   1.821   2.099   2.806
 2168SOL     OW 7402   1.907   2.140   3.351
 2168SOL    HW1 7403   1.814   2.104   3.348
 2168SOL    HW2 7404   1.971   2.068   3.324
 2169SOL     OW 7405   6.691   6.985   1.274
 2169SOL    HW1 7406   6.719   6.930   1.196
 2169SOL    HW2 7407   6.595   7.011   1.263
 2170SOL     OW 7408   1.484   3.597   6.297
 2170SOL    HW1 7409   1.578   3.618   6.323
 2170SOL    HW2 7410   1.431   3.681   6.289
 2171SOL     OW 7411   6.731   6.002   0.954
 2171SOL    HW1 7412   6.793   6.081   0.954
 2171SOL    HW2 7413   6.778   5.923   0.992
 2172SOL     OW 7414   2.640   1.949   4.705
 2172SOL    HW1 7415   2.657   1.969   4.608
 2172SOL    HW2 7416   2.705   1.880   4.737
 2173SOL     OW 7417   4.758   0.528   4.812
 2173SOL    HW1 7418   4.750   0.586   4.731
 2173SOL    HW2 7419   4.783   0.435   4.784
 2174SOL     OW 7420   5.453   0.641   5.854
 2174SOL    HW1 7421   5.399   0.717   5.891
 2174SOL    HW2 7422   5.392   0.578   5.807
 2175SOL     OW 7423   3.621   3.733   5.678
 2175SOL    HW1 7424   3.600   3.741   5.581
 2175SOL    HW2 7425   3.540   3.755   5.732
 2176SOL     OW 7426   5.973   2.183   3.367
 2176SOL    HW1 7427   6.042   2.125   3.322
 2176SOL    HW2 7428   6.019   2.260   3.411
 2177SOL     OW 7429   1.078   1.161   4.910
 2177SOL    HW1 7430   1.018   1.220   4.963
 2177SOL    HW2 7431   1.043   1.067   4.914
 2178SOL     OW 7432   1.352   2.497   2.493
 2178SOL    HW1 7433   1.334   2.565   2.563
 2178SOL    HW2 7434   1.349   2.540   2.403
 2179SOL     OW 7435   1.426   3.726   6.839
 2179SOL    HW1 7436   1.479   3.667   6.778
 2179SOL    HW2 7437   1.329   3.706   6.829
 2180SOL     OW 7438   0.598   5.661   2.829
 2180SOL    HW1 7439   0.630   5.581   2.879
 2180SOL    HW2 7440   0.502   5.650   2.807
 2181SOL     OW 7441   4.313   4.935   4.313
 2181SOL    HW1 7442   4.379   5.004   4.286
 2181SOL    HW2 7443   4.356   4.845   4.312
 2182SOL     OW 7444   0.248   6.478   1.368
 2182SOL    HW1 7445   0.293   6.425   1.440
 2182SOL    HW2 7446   0.159   6.438   1.347
 2183SOL     OW 7447   3.366   2.951   6.829
 2183SOL    HW1 7448   3.292   2.997   6.879
 2183SOL    HW2 7449   3.396   3.010   6.754
 2184SOL     OW 7450   6.465   1.350   0.679
 2184SOL    HW1 7451   6.526   1.312   0.749
 2184SOL    HW2 7452   6.434   1.277   0.618
 2185SOL     OW 7453   1.030   1.134   6.093
 2185SOL    HW1 7454   0.989   1.155   6.005
 2185SOL    HW2 7455   1.108   1.072   6.080
 2186SOL     OW 7456   6.604   6.194   5.405
 2186SOL    HW1 7457   6.691   6.181   5.356
 2186SOL    HW2 7458   6.535   6.132   5.368
 2187SOL     OW 7459   5.416   4.810   1.817
 2187SOL    HW1 7460   5.452   4.838   1.906
 2187SOL    HW2 7461   5.474   4.846   1.744
 2188SOL     OW 7462   3.026   1.138   0.787
 2188SOL    HW1 7463   3.001   1.235   0.791
 2188SOL    HW2 7464   3.113   1.124   0.834
 2189SOL     OW 7465   1.944   0.494   2.190
 2189SOL    HW1 7466   1.913   0.565   2.127
 2189SOL    HW2 7467   1.875   0.423   2.198
 2190SOL     OW 7468   6.521   4.685   2.002
 2190SOL    HW1 7469   6.569   4.620   1.943
 2190SOL    HW2 7470   6.550   4.672   2.096
 2191SOL     OW 7471   3.325   0.317   0.074
 2191SOL    HW1 7472   3.281   0.403   0.100
 2191SOL    HW2 7473   3.276   0.277   7.018
 2192SOL     OW 7474   5.052   1.700   1.911
 2192SOL    HW1 7475   5.089   1.686   1.819
 2192SOL    HW2 7476   5.014   1.793   1.918
 2193SOL     OW 7477   2.280   0.492   4.926
 2193SOL    HW1 7478   2.304   0.494   5.023
 2193SOL    HW2 7479   2.197   0.437   4.912
 2194SOL     OW 7480   0.415   3.979   6.002
 2194SOL    HW1 7481   0.415   3.963   5.903
 2194SOL    HW2 7482   0.510   3.984   6.035
 2195SOL     OW 7483   0.089   4.131   4.691
 2195SOL    HW1 7484   0.110   4.174   4.603
 2195SOL    HW2 7485   0.079   4.202   4.761
 2196SOL     OW 7486   3.920   0.605   6.970
 2196SOL    HW1 7487   3.885   0.604   0.043
 2196SOL    HW2 7488   3.968   0.690   6.953
 2197SOL     OW 7489   3.351   5.517   6.306
 2197SOL    HW1 7490   3.270   5.544   6.254
 2197SOL    HW2 7491   3.373   5.589   6.372
 2198SOL     OW 7492   1.314   0.984   6.935
 2198SOL    HW1 7493   1.298   1.083   6.939
 2198SOL    HW2 7494   1.299   0.952   6.842
 2199SOL     OW 7495   4.099   6.683   3.693
 2199SOL    HW1 7496   4.080   6.609   3.757
 2199SOL    HW2 7497   4.018   6.701   3.637
 2200SOL     OW 7498   2.173   2.364   4.052
 2200SOL    HW1 7499   2.115   2.401   4.125
 2200SOL    HW2 7500   2.250   2.314   4.093
 2201SOL     OW 7501   5.776   3.841   5.060
 2201SOL    HW1 7502   5.859   3.861   5.008
 2201SOL    HW2 7503   5.743   3.926   5.103
 2202SOL     OW 7504   3.339   6.683   3.365
 2202SOL    HW1 7505   3.439   6.696   3.364
 2202SOL    HW2 7506   3.300   6.717   3.280
 2203SOL     OW 7507   2.186   5.737   1.242
 2203SOL    HW1 7508   2.247   5.779   1.309
 2203SOL    HW2 7509   2.092   5.739   1.277
 2204SOL     OW 7510   5.765   2.352   1.069
 2204SOL    HW1 7511   5.668   2.374   1.074
 2204SOL    HW2 7512   5.783   2.267   1.118
 2205SOL     OW 7513   5.990   5.908   1.260
 2205SOL    HW1 7514   5.934   5.827   1.272
 2205SOL    HW2 7515   6.009   5.921   1.162
 2206SOL     OW 7516   3.546   2.361   5.776
 2206SOL    HW1 7517   3.626   2.400   5.728
 2206SOL    HW2 7518   3.577   2.306   5.853
 2207SOL     OW 7519   4.693   5.710   1.918
 2207SOL    HW1 7520   4.664   5.641   1.984
 2207SOL    HW2 7521   4.644   5.795   1.934
 2208SOL     OW 7522   0.158   6.527   3.070
 2208SOL    HW1 7523   0.246   6.516   3.117
 2208SOL    HW2 7524   0.113   6.609   3.104
 2209SOL     OW 7525   2.962   5.544   3.320
 2209SOL    HW1 7526   2.891   5.486   3.359
 2209SOL    HW2 7527   2.953   5.636   3.356
 2210SOL     OW 7528   5.409   0.057   1.559
 2210SOL    HW1 7529   5.480   0.011   1.612
 2210SOL    HW2 7530   5.321   0.047   1.605
 2211SOL     OW 7531   1.371   2.049   0.998
 2211SOL    HW1 7532   1.365   2.101   0.913
 2211SOL    HW2 7533   1.434   1.972   0.985
 2212SOL     OW 7534   2.947   5.855   6.427
 2212SOL    HW1 7535   2.951   5.797   6.345
 2212SOL    HW2 7536   2.990   5.808   6.503
 2213SOL     OW 7537   3.462   1.593   4.912
 2213SOL    HW1 7538   3.439   1.633   4.823
 2213SOL    HW2 7539   3.506   1.661   4.970
 2214SOL     OW 7540   4.122   4.236   6.725
 2214SOL    HW1 7541   4.054   4.163   6.732
 2214SOL    HW2 7542   4.082   4.323   6.755
 2215SOL     OW 7543   4.858   6.014   0.742
 2215SOL    HW1 7544   4.765   5.990   0.767
 2215SOL    HW2 7545   4.878   6.107   0.773
 2216SOL     OW 7546   0.839   6.044   0.050
 2216SOL    HW1 7547   0.753   6.075   0.009
 2216SOL    HW2 7548   0.905   6.120   0.049
 2217SOL     OW 7549   4.264   1.321   3.650
 2217SOL    HW1 7550   4.203   1.244   3.668
 2217SOL    HW2 7551   4.221   1.384   3.585
 2218SOL     OW 7552   6.573   5.329   5.478
 2218SOL    HW1 7553   6.614   5.300   5.392
 2218SOL    HW2 7554   6.619   5.284   5.554
 2219SOL     OW 7555   5.208   1.207   0.735
 2219SOL    HW1 7556   5.163   1.232   0.820
 2219SOL    HW2 7557   5.300   1.248   0.732
 2220SOL     OW 7558   6.744   6.066   4.225
 2220SOL    HW1 7559   6.701   6.131   4.163
 2220SOL    HW2 7560   6.775   5.986   4.173
 2221SOL     OW 7561   5.742   0.747   4.346
 2221SOL    HW1 7562   5.797   0.814   4.296
 2221SOL    HW2 7563   5.701   0.683   4.282
 2222SOL     OW 7564   3.985   0.356   3.185
 2222SOL    HW1 7565   3.960   0.384   3.092
 2222SOL    HW2 7566   3.906   0.314   3.229
 2223SOL     OW 7567   0.973   0.225   5.394
 2223SOL    HW1 7568   0.944   0.237   5.299
 2223SOL    HW2 7569   1.067   0.257   5.404
 2224SOL     OW 7570   5.309   4.666   6.908
 2224SOL    HW1 7571   5.284   4.579   6.950
 2224SOL    HW2 7572   5.354   4.648   6.820
 2225SOL     OW 7573   6.889   6.491   1.375
 2225SOL    HW1 7574   6.887   6.583   1.414
 2225SOL    HW2 7575   6.830   6.430   1.429
 2226SOL     OW 7576   2.597   3.817   6.944
 2226SOL    HW1 7577   2.655   3.745   6.982
 2226SOL    HW2 7578   2.654   3.883   6.896
 2227SOL     OW 7579   3.987   2.203   2.062
 2227SOL    HW1 7580   3.913   2.267   2.043
 2227SOL    HW2 7581   3.951   2.124   2.112
 2228SOL     OW 7582   5.775   5.914   6.614
 2228SOL    HW1 7583   5.808   5.913   6.709
 2228SOL    HW2 7584   5.685   5.958   6.611
 2229SOL     OW 7585   2.999   3.524   4.339
 2229SOL    HW1 7586   3.029   3.590   4.270
 2229SOL    HW2 7587   3.062   3.446   4.340
 2230SOL     OW 7588   6.271   0.565   6.403
 2230SOL    HW1 7589   6.217   0.482   6.389
 2230SOL    HW2 7590   6.333   0.551   6.480
 2231SOL     OW 7591   1.716   0.278   6.111
 2231SOL    HW1 7592   1.763   0.205   6.161
 2231SOL    HW2 7593   1.748   0.367   6.145
 2232SOL     OW 7594   1.812   0.868   6.257
 2232SOL    HW1 7595   1.797   0.799   6.186
 2232SOL    HW2 7596   1.906   0.861   6.291
 2233SOL     OW 7597   2.882   4.922   1.125
 2233SOL    HW1 7598   2.840   4.981   1.056
 2233SOL    HW2 7599   2.812   4.884   1.184
 2234SOL     OW 7600   4.993   2.121   1.708
 2234SOL    HW1 7601   4.903   2.161   1.725
 2234SOL    HW2 7602   4.983   2.022   1.698
 2235SOL     OW 7603   0.704   1.865   2.437
 2235SOL    HW1 7604   0.748   1.951   2.413
 2235SOL    HW2 7605   0.606   1.881   2.450
 2236SOL     OW 7606   2.359   5.128   5.396
 2236SOL    HW1 7607   2.269   5.102   5.361
 2236SOL    HW2 7608   2.362   5.113   5.495
 2237SOL     OW 7609   6.632   6.341   6.188
 2237SOL    HW1 7610   6.572   6.407   6.232
 2237SOL    HW2 7611   6.578   6.263   6.156
 2238SOL     OW 7612   6.486   3.497   2.248
 2238SOL    HW1 7613   6.576   3.455   2.257
 2238SOL    HW2 7614   6.467   3.554   2.328
 2239SOL     OW 7615   4.523   7.010   2.814
 2239SOL    HW1 7616   4.590   0.063   2.816
 2239SOL    HW2 7617   4.440   0.018   2.863
 2240SOL     OW 7618   5.088   5.366   2.597
 2240SOL    HW1 7619   5.162   5.393   2.658
 2240SOL    HW2 7620   5.045   5.448   2.559
 2241SOL     OW 7621   0.502   1.637   2.653
 2241SOL    HW1 7622   0.599   1.637   2.629
 2241SOL    HW2 7623   0.491   1.604   2.747
 2242SOL     OW 7624   5.182   2.368   4.587
 2242SOL    HW1 7625   5.084   2.385   4.598
 2242SOL    HW2 7626   5.233   2.425   4.651
 2243SOL     OW 7627   2.393   6.860   0.454
 2243SOL    HW1 7628   2.353   6.909   0.376
 2243SOL    HW2 7629   2.320   6.813   0.504
 2244SOL     OW 7630   2.505   1.755   0.877
 2244SOL    HW1 7631   2.537   1.753   0.972
 2244SOL    HW2 7632   2.446   1.676   0.860
 2245SOL     OW 7633   0.519   0.424   0.287
 2245SOL    HW1 7634   0.561   0.438   0.377
 2245SOL    HW2 7635   0.560   0.488   0.221
 2246SOL     OW 7636   4.216   1.903   5.577
 2246SOL    HW1 7637   4.129   1.886   5.532
 2246SOL    HW2 7638   4.284   1.930   5.509
 2247SOL     OW 7639   2.952   3.219   2.106
 2247SOL    HW1 7640   2.901   3.207   2.022
 2247SOL    HW2 7641   3.010   3.139   2.123
 2248SOL     OW 7642   5.203   3.897   5.053
 2248SOL    HW1 7643   5.105   3.918   5.049
 2248SOL    HW2 7644   5.225   3.828   4.983
 2249SOL     OW 7645   2.337   6.322   3.953
 2249SOL    HW1 7646   2.413   6.383   3.980
 2249SOL    HW2 7647   2.351   6.233   3.995
 2250SOL     OW 7648   4.440   6.154   6.368
 2250SOL    HW1 7649   4.384   6.142   6.285
 2250SOL    HW2 7650   4.380   6.171   6.446
 2251SOL     OW 7651   4.494   6.135   4.971
 2251SOL    HW1 7652   4.548   6.052   4.962
 2251SOL    HW2 7653   4.396   6.112   4.969
 2252SOL     OW 7654   3.811   0.675   2.556
 2252SOL    HW1 7655   3.835   0.623   2.639
 2252SOL    HW2 7656   3.717   0.652   2.530
 2253SOL     OW 7657   0.373   3.490   1.850
 2253SOL    HW1 7658   0.355   3.578   1.805
 2253SOL    HW2 7659   0.467   3.490   1.885
 2254SOL     OW 7660   4.076   3.294   2.556
 2254SOL    HW1 7661   4.044   3.200   2.538
 2254SOL    HW2 7662   4.110   3.334   2.471
 2255SOL     OW 7663   1.422   2.385   6.310
 2255SOL    HW1 7664   1.442   2.299   6.263
 2255SOL    HW2 7665   1.431   2.461   6.246
 2256SOL     OW 7666   5.640   0.325   1.120
 2256SOL    HW1 7667   5.694   0.243   1.137
 2256SOL    HW2 7668   5.696   0.407   1.137
 2257SOL     OW 7669   6.775   0.555   5.542
 2257SOL    HW1 7670   6.817   0.464   5.538
 2257SOL    HW2 7671   6.826   0.613   5.605
 2258SOL     OW 7672   2.332   6.860   4.391
 2258SOL    HW1 7673   2.241   6.900   4.395
 2258SOL    HW2 7674   2.399   6.931   4.367
 2259SOL     OW 7675   6.095   1.525   4.599
 2259SOL    HW1 7676   6.048   1.472   4.670
 2259SOL    HW2 7677   6.074   1.487   4.509
 2260SOL     OW 7678   1.030   3.788   1.080
 2260SOL    HW1 7679   0.939   3.751   1.097
 2260SOL    HW2 7680   1.048   3.789   0.981
 2261SOL     OW 7681   5.446   4.285   6.839
 2261SOL    HW1 7682   5.392   4.353   6.791
 2261SOL    HW2 7683   5.476   4.214   6.775
 2262SOL     OW 7684   6.741   6.636   4.474
 2262SOL    HW1 7685   6.835   6.640   4.438
 2262SOL    HW2 7686   6.682   6.696   4.419
 2263SOL     OW 7687   1.998   4.186   6.536
 2263SOL    HW1 7688   1.925   4.254   6.545
 2263SOL    HW2 7689   2.029   4.159   6.628
 2264SOL     OW 7690   2.262   0.281   5.619
 2264SOL    HW1 7691   2.169   0.314   5.602
 2264SOL    HW2 7692   2.262   0.215   5.694
 2265SOL     OW 7693   6.895   6.298   3.973
 2265SOL    HW1 7694   6.872   6.396   3.976
 2265SOL    HW2 7695   6.812   6.244   3.973
 2266SOL     OW 7696   4.575   2.519   6.654
 2266SOL    HW1 7697   4.580   2.590   6.724
 2266SOL    HW2 7698   4.539   2.558   6.569
 2267SOL     OW 7699   5.628   2.948   4.549
 2267SOL    HW1 7700   5.697   2.898   4.496
 2267SOL    HW2 7701   5.667   2.978   4.636
 2268SOL     OW 7702   1.339   6.558   4.819
 2268SOL    HW1 7703   1.297   6.494   4.755
 2268SOL    HW2 7704   1.414   6.513   4.867
 2269SOL     OW 7705   1.765   2.476   5.299
 2269SOL    HW1 7706   1.810   2.527   5.226
 2269SOL    HW2 7707   1.825   2.403   5.331
 2270SOL     OW 7708   4.839   1.291   6.188
 2270SOL    HW1 7709   4.918   1.328   6.237
 2270SOL    HW2 7710   4.866   1.262   6.097
 2271SOL     OW 7711   4.121   5.830   5.355
 2271SOL    HW1 7712   4.086   5.887   5.429
 2271SOL    HW2 7713   4.131   5.885   5.272
 2272SOL     OW 7714   5.540   1.430   5.953
 2272SOL    HW1 7715   5.522   1.408   5.858
 2272SOL    HW2 7716   5.458   1.413   6.008
 2273SOL     OW 7717   0.959   3.056   3.796
 2273SOL    HW1 7718   1.010   3.012   3.870
 2273SOL    HW2 7719   0.974   3.007   3.711
 2274SOL     OW 7720   1.366   0.992   0.182
 2274SOL    HW1 7721   1.285   0.954   0.228
 2274SOL    HW2 7722   1.352   0.991   0.083
 2275SOL     OW 7723   5.528   3.912   3.014
 2275SOL    HW1 7724   5.574   3.959   2.938
 2275SOL    HW2 7725   5.593   3.898   3.089
 2276SOL     OW 7726   1.790   2.001   1.083
 2276SOL    HW1 7727   1.796   1.978   1.180
 2276SOL    HW2 7728   1.831   2.091   1.068
 2277SOL     OW 7729   3.967   3.087   3.377
 2277SOL    HW1 7730   4.061   3.055   3.388
 2277SOL    HW2 7731   3.965   3.166   3.316
 2278SOL     OW 7732   0.673   2.725   4.019
 2278SOL    HW1 7733   0.602   2.722   3.948
 2278SOL    HW2 7734   0.715   2.816   4.020
 2279SOL     OW 7735   1.260   5.084   6.318
 2279SOL    HW1 7736   1.185   5.041   6.369
 2279SOL    HW2 7737   1.313   5.141   6.381
 2280SOL     OW 7738   4.891   1.835   5.696
 2280SOL    HW1 7739   4.830   1.914   5.696
 2280SOL    HW2 7740   4.864   1.773   5.770
 2281SOL     OW 7741   5.792   6.972   2.565
 2281SOL    HW1 7742   5.722   0.020   2.549
 2281SOL    HW2 7743   5.752   6.881   2.557
 2282SOL     OW 7744   3.524   5.824   6.226
 2282SOL    HW1 7745   3.536   5.907   6.172
 2282SOL    HW2 7746   3.442   5.833   6.283
 2283SOL     OW 7747   0.192   0.637   4.420
 2283SOL    HW1 7748   0.185   0.597   4.329
 2283SOL    HW2 7749   0.278   0.688   4.427
 2284SOL     OW 7750   0.998   3.288   6.393
 2284SOL    HW1 7751   0.992   3.339   6.479
 2284SOL    HW2 7752   0.976   3.192   6.409
 2285SOL     OW 7753   1.704   4.016   6.883
 2285SOL    HW1 7754   1.716   4.114   6.899
 2285SOL    HW2 7755   1.607   3.994   6.884
 2286SOL     OW 7756   4.447   5.012   3.032
 2286SOL    HW1 7757   4.524   5.009   3.095
 2286SOL    HW2 7758   4.429   5.107   3.006
 2287SOL     OW 7759   1.042   1.569   4.125
 2287SOL    HW1 7760   1.101   1.488   4.124
 2287SOL    HW2 7761   1.045   1.612   4.034
 2288SOL     OW 7762   6.641   5.479   2.896
 2288SOL    HW1 7763   6.640   5.533   2.980
 2288SOL    HW2 7764   6.719   5.418   2.896
 2289SOL     OW 7765   0.729   5.636   0.723
 2289SOL    HW1 7766   0.740   5.731   0.695
 2289SOL    HW2 7767   0.819   5.592   0.729
 2290SOL     OW 7768   0.962   4.990   6.860
 2290SOL    HW1 7769   1.032   4.932   6.819
 2290SOL    HW2 7770   1.005   5.062   6.914
 2291SOL     OW 7771   2.214   1.507   6.811
 2291SOL    HW1 7772   2.211   1.604   6.835
 2291SOL    HW2 7773   2.172   1.493   6.721
 2292SOL     OW 7774   2.363   1.279   4.182
 2292SOL    HW1 7775   2.292   1.302   4.115
 2292SOL    HW2 7776   2.384   1.359   4.238
 2293SOL     OW 7777   5.643   3.760   2.580
 2293SOL    HW1 7778   5.662   3.764   2.679
 2293SOL    HW2 7779   5.583   3.682   2.561
 2294SOL     OW 7780   4.149   6.451   0.188
 2294SOL    HW1 7781   4.064   6.496   0.160
 2294SOL    HW2 7782   4.211   6.517   0.230
 2295SOL     OW 7783   0.541   1.820   1.789
 2295SOL    HW1 7784   0.472   1.881   1.751
 2295SOL    HW2 7785   0.571   1.855   1.878
 2296SOL     OW 7786   2.994   6.813   0.797
 2296SOL    HW1 7787   2.965   6.796   0.891
 2296SOL    HW2 7788   3.070   6.751   0.774
 2297SOL     OW 7789   4.272   6.230   6.632
 2297SOL    HW1 7790   4.180   6.227   6.593
 2297SOL    HW2 7791   4.277   6.302   6.702
 2298SOL     OW 7792   4.213   2.963   6.788
 2298SOL    HW1 7793   4.199   2.926   6.696
 2298SOL    HW2 7794   4.307   2.995   6.797
 2299SOL     OW 7795   4.394   0.151   0.310
 2299SOL    HW1 7796   4.404   0.150   0.211
 2299SOL    HW2 7797   4.404   0.244   0.344
 2300SOL     OW 7798   1.139   4.675   1.041
 2300SOL    HW1 7799   1.134   4.683   1.141
 2300SOL    HW2 7800   1.231   4.699   1.011
 2301SOL     OW 7801   4.059   3.486   1.935
 2301SOL    HW1 7802   4.069   3.583   1.913
 2301SOL    HW2 7803   3.991   3.445   1.874
 2302SOL     OW 7804   2.157   5.019   3.046
 2302SOL    HW1 7805   2.170   5.084   3.121
 2302SOL    HW2 7806   2.132   4.930   3.083
 2303SOL     OW 7807   0.077   3.036   5.061
 2303SOL    HW1 7808   0.158   3.001   5.015
 2303SOL    HW2 7809   0.053   3.126   5.025
 2304SOL     OW 7810   2.474   1.117   4.535
 2304SOL    HW1 7811   2.437   1.040   4.484
 2304SOL    HW2 7812   2.559   1.089   4.580
 2305SOL     OW 7813   4.194   4.671   1.971
 2305SOL    HW1 7814   4.260   4.700   1.902
 2305SOL    HW2 7815   4.149   4.587   1.941
 2306SOL     OW 7816   0.074   4.095   0.494
 2306SOL    HW1 7817   0.109   4.157   0.424
 2306SOL    HW2 7818   0.137   4.019   0.507
 2307SOL     OW 7819   0.158   1.516   2.765
 2307SOL    HW1 7820   0.061   1.510   2.789
 2307SOL    HW2 7821   0.195   1.603   2.798
 2308SOL     OW 7822   0.129   6.874   0.114
 2308SOL    HW1 7823   0.131   6.964   0.157
 2308SOL    HW2 7824   0.137   6.803   0.184
 2309SOL     OW 7825   3.639   5.094   5.837
 2309SOL    HW1 7826   3.691   5.144   5.906
 2309SOL    HW2 7827   3.639   4.996   5.860
 2310SOL     OW 7828   5.606   1.608   2.648
 2310SOL    HW1 7829   5.612   1.545   2.726
 2310SOL    HW2 7830   5.541   1.681   2.670
 2311SOL     OW 7831   2.478   0.194   2.635
 2311SOL    HW1 7832   2.571   0.214   2.604
 2311SOL    HW2 7833   2.422   0.165   2.558
 2312SOL     OW 7834   2.734   1.071   2.533
 2312SOL    HW1 7835   2.744   0.988   2.479
 2312SOL    HW2 7836   2.644   1.071   2.578
 2313SOL     OW 7837   5.177   3.774   1.771
 2313SOL    HW1 7838   5.273   3.746   1.771
 2313SOL    HW2 7839   5.123   3.709   1.718
 2314SOL     OW 7840   6.842   6.651   3.022
 2314SOL    HW1 7841   6.869   6.555   3.013
 2314SOL    HW2 7842   6.743   6.659   3.014
 2315SOL     OW 7843   4.358   5.880   4.622
 2315SOL    HW1 7844   4.420   5.807   4.593
 2315SOL    HW2 7845   4.267   5.842   4.638
 2316SOL     OW 7846   2.941   1.745   5.766
 2316SOL    HW1 7847   3.027   1.695   5.757
 2316SOL    HW2 7848   2.960   1.840   5.791
 2317SOL     OW 7849   7.016   5.415   2.960
 2317SOL    HW1 7850   0.026   5.508   2.981
 2317SOL    HW2 7851   6.976   5.375   3.043
 2318SOL     OW 7852   1.145   4.548   5.480
 2318SOL    HW1 7853   1.229   4.516   5.435
 2318SOL    HW2 7854   1.102   4.619   5.426
 2319SOL     OW 7855   1.723   4.891   3.584
 2319SOL    HW1 7856   1.713   4.829   3.506
 2319SOL    HW2 7857   1.804   4.948   3.572
 2320SOL     OW 7858   1.006   2.106   5.243
 2320SOL    HW1 7859   1.029   2.202   5.227
 2320SOL    HW2 7860   1.018   2.054   5.159
 2321SOL     OW 7861   2.173   4.760   5.685
 2321SOL    HW1 7862   2.175   4.791   5.780
 2321SOL    HW2 7863   2.264   4.729   5.659
 2322SOL     OW 7864   1.664   3.987   1.735
 2322SOL    HW1 7865   1.648   3.921   1.662
 2322SOL    HW2 7866   1.604   4.066   1.722
 2323SOL     OW 7867   2.502   5.354   0.874
 2323SOL    HW1 7868   2.456   5.313   0.952
 2323SOL    HW2 7869   2.597   5.374   0.897
 2324SOL     OW 7870   6.771   5.219   2.883
 2324SOL    HW1 7871   6.683   5.172   2.884
 2324SOL    HW2 7872   6.802   5.229   2.789
 2325SOL     OW 7873   6.494   5.786   1.717
 2325SOL    HW1 7874   6.492   5.704   1.660
 2325SOL    HW2 7875   6.427   5.776   1.791
 2326SOL     OW 7876   2.007   0.559   0.142
 2326SOL    HW1 7877   1.934   0.510   0.189
 2326SOL    HW2 7878   2.095   0.530   0.177
 2327SOL     OW 7879   0.156   6.990   2.574
 2327SOL    HW1 7880   0.122   6.980   2.481
 2327SOL    HW2 7881   0.205   6.907   2.601
 2328SOL     OW 7882   2.046   3.508   2.751
 2328SOL    HW1 7883   2.040   3.586   2.814
 2328SOL    HW2 7884   1.955   3.470   2.737
 2329SOL     OW 7885   0.576   5.364   2.844
 2329SOL    HW1 7886   0.497   5.338   2.789
 2329SOL    HW2 7887   0.658   5.361   2.787
 2330SOL     OW 7888   6.329   3.225   0.933
 2330SOL    HW1 7889   6.233   3.247   0.913
 2330SOL    HW2 7890   6.345   3.127   0.917
 2331SOL     OW 7891   4.683   5.977   1.155
 2331SOL    HW1 7892   4.625   5.900   1.182
 2331SOL    HW2 7893   4.674   6.051   1.222
 2332SOL     OW 7894   5.979   6.834   5.925
 2332SOL    HW1 7895   5.937   6.920   5.953
 2332SOL    HW2 7896   6.077   6.836   5.945
 2333SOL     OW 7897   0.555   4.432   2.345
 2333SOL    HW1 7898   0.564   4.520   2.299
 2333SOL    HW2 7899   0.458   4.411   2.360
 2334SOL     OW 7900   2.780   1.731   6.425
 2334SOL    HW1 7901   2.703   1.795   6.416
 2334SOL    HW2 7902   2.830   1.728   6.338
 2335SOL     OW 7903   6.581   1.014   3.249
 2335SOL    HW1 7904   6.626   0.941   3.300
 2335SOL    HW2 7905   6.650   1.077   3.213
 2336SOL     OW 7906   1.748   1.483   2.860
 2336SOL    HW1 7907   1.710   1.460   2.950
 2336SOL    HW2 7908   1.839   1.522   2.871
 2337SOL     OW 7909   4.568   1.984   1.603
 2337SOL    HW1 7910   4.557   1.993   1.702
 2337SOL    HW2 7911   4.492   1.930   1.565
 2338SOL     OW 7912   0.344   3.721   3.358
 2338SOL    HW1 7913   0.271   3.690   3.418
 2338SOL    HW2 7914   0.424   3.663   3.370
 2339SOL     OW 7915   3.583   2.940   2.686
 2339SOL    HW1 7916   3.628   2.963   2.600
 2339SOL    HW2 7917   3.651   2.934   2.759
 2340SOL     OW 7918   2.128   4.827   6.448
 2340SOL    HW1 7919   2.096   4.793   6.537
 2340SOL    HW2 7920   2.211   4.881   6.461
 2341SOL     OW 7921   2.373   4.384   3.568
 2341SOL    HW1 7922   2.452   4.324   3.554
 2341SOL    HW2 7923   2.390   4.445   3.646
 2342SOL     OW 7924   3.089   0.470   3.894
 2342SOL    HW1 7925   3.131   0.499   3.979
 2342SOL    HW2 7926   3.084   0.370   3.892
 2343SOL     OW 7927   0.984   0.251   1.754
 2343SOL    HW1 7928   0.886   0.248   1.776
 2343SOL    HW2 7929   1.012   0.163   1.716
 2344SOL     OW 7930   5.448   3.789   0.516
 2344SOL    HW1 7931   5.466   3.862   0.582
 2344SOL    HW2 7932   5.374   3.817   0.455
 2345SOL     OW 7933   2.851   5.594   4.768
 2345SOL    HW1 7934   2.941   5.591   4.812
 2345SOL    HW2 7935   2.798   5.514   4.795
 2346SOL     OW 7936   4.069   3.684   6.843
 2346SOL    HW1 7937   4.012   3.621   6.790
 2346SOL    HW2 7938   4.091   3.642   6.931
 2347SOL     OW 7939   1.156   1.821   1.541
 2347SOL    HW1 7940   1.148   1.722   1.546
 2347SOL    HW2 7941   1.155   1.860   1.633
 2348SOL     OW 7942   0.134   5.063   2.733
 2348SOL    HW1 7943   0.220   5.016   2.751
 2348SOL    HW2 7944   0.081   5.012   2.665
 2349SOL     OW 7945   0.485   4.396   5.401
 2349SOL    HW1 7946   0.403   4.361   5.445
 2349SOL    HW2 7947   0.561   4.332   5.416
 2350SOL     OW 7948   6.140   3.594   6.981
 2350SOL    HW1 7949   6.224   3.541   6.978
 2350SOL    HW2 7950   6.062   3.533   6.990
 2351SOL     OW 7951   2.841   5.280   2.555
 2351SOL    HW1 7952   2.747   5.245   2.558
 2351SOL    HW2 7953   2.886   5.248   2.472
 2352SOL     OW 7954   0.426   2.646   3.916
 2352SOL    HW1 7955   0.331   2.665   3.891
 2352SOL    HW2 7956   0.471   2.597   3.841
 2353SOL     OW 7957   3.298   5.187   4.670
 2353SOL    HW1 7958   3.396   5.179   4.689
 2353SOL    HW2 7959   3.281   5.269   4.616
 2354SOL     OW 7960   1.947   2.829   3.433
 2354SOL    HW1 7961   1.979   2.806   3.525
 2354SOL    HW2 7962   1.985   2.917   3.406
 2355SOL     OW 7963   2.268   5.998   5.124
 2355SOL    HW1 7964   2.287   5.906   5.157
 2355SOL    HW2 7965   2.306   6.065   5.188
 2356SOL     OW 7966   6.149   2.804   0.036
 2356SOL    HW1 7967   6.125   2.898   0.059
 2356SOL    HW2 7968   6.140   2.746   0.117
 2357SOL     OW 7969   2.654   6.494   2.559
 2357SOL    HW1 7970   2.715   6.521   2.634
 2357SOL    HW2 7971   2.591   6.569   2.540
 2358SOL     OW 7972   3.829   5.105   6.536
 2358SOL    HW1 7973   3.782   5.097   6.448
 2358SOL    HW2 7974   3.762   5.100   6.610
 2359SOL     OW 7975   1.635   6.997   4.722
 2359SOL    HW1 7976   1.732   6.982   4.702
 2359SOL    HW2 7977   1.580   6.940   4.660
 2360SOL     OW 7978   6.822   3.544   6.961
 2360SOL    HW1 7979   6.730   3.574   6.939
 2360SOL    HW2 7980   6.881   3.623   6.976
 2361SOL     OW 7981   3.512   1.093   6.546
 2361SOL    HW1 7982   3.563   1.150   6.610
 2361SOL    HW2 7983   3.414   1.112   6.556
 2362SOL     OW 7984   3.228   5.393   3.279
 2362SOL    HW1 7985   3.232   5.319   3.346
 2362SOL    HW2 7986   3.132   5.418   3.263
 2363SOL     OW 7987   3.788   0.583   4.395
 2363SOL    HW1 7988   3.875   0.632   4.398
 2363SOL    HW2 7989   3.756   0.577   4.301
 2364SOL     OW 7990   0.919   2.411   0.745
 2364SOL    HW1 7991   0.847   2.477   0.766
 2364SOL    HW2 7992   0.916   2.389   0.647
 2365SOL     OW 7993   5.601   2.254   6.427
 2365SOL    HW1 7994   5.559   2.163   6.419
 2365SOL    HW2 7995   5.585   2.290   6.519
 2366SOL     OW 7996   4.123   5.415   0.735
 2366SOL    HW1 7997   4.030   5.406   0.697
 2366SOL    HW2 7998   4.151   5.327   0.773
 2367SOL     OW 7999   2.375   3.505   6.074
 2367SOL    HW1 8000   2.418   3.590   6.104
 2367SOL    HW2 8001   2.446   3.438   6.052
 2368SOL     OW 8002   6.325   6.153   2.442
 2368SOL    HW1 8003   6.269   6.114   2.369
 2368SOL    HW2 8004   6.269   6.213   2.499
 2369SOL     OW 8005   2.523   0.940   3.189
 2369SOL    HW1 8006   2.506   1.010   3.259
 2369SOL    HW2 8007   2.546   0.985   3.103
 2370SOL     OW 8008   6.300   1.916   6.765
 2370SOL    HW1 8009   6.201   1.905   6.757
 2370SOL    HW2 8010   6.327   1.904   6.860
 2371SOL     OW 8011   2.610   6.518   1.666
 2371SOL    HW1 8012   2.645   6.610   1.646
 2371SOL    HW2 8013   2.562   6.483   1.586
 2372SOL     OW 8014   6.540   3.335   2.800
 2372SOL    HW1 8015   6.574   3.412   2.746
 2372SOL    HW2 8016   6.453   3.303   2.762
 2373SOL     OW 8017   2.178   3.508   6.539
 2373SOL    HW1 8018   2.166   3.555   6.452
 2373SOL    HW2 8019   2.089   3.481   6.576
 2374SOL     OW 8020   5.807   3.309   4.814
 2374SOL    HW1 8021   5.786   3.216   4.843
 2374SOL    HW2 8022   5.895   3.310   4.766
 2375SOL     OW 8023   2.789   6.633   5.178
 2375SOL    HW1 8024   2.799   6.682   5.092
 2375SOL    HW2 8025   2.828   6.542   5.170
 2376SOL     OW 8026   6.436   3.424   4.606
 2376SOL    HW1 8027   6.432   3.434   4.705
 2376SOL    HW2 8028   6.482   3.339   4.583
 2377SOL     OW 8029   3.771   3.404   4.011
 2377SOL    HW1 8030   3.727   3.319   3.982
 2377SOL    HW2 8031   3.767   3.470   3.936
 2378SOL     OW 8032   5.423   2.680   6.880
 2378SOL    HW1 8033   5.518   2.686   6.848
 2378SOL    HW2 8034   5.410   2.594   6.929
 2379SOL     OW 8035   6.760   6.617   6.938
 2379SOL    HW1 8036   6.680   6.676   6.943
 2379SOL    HW2 8037   6.831   6.651   7.000
 2380SOL     OW 8038   6.163   1.668   2.254
 2380SOL    HW1 8039   6.196   1.593   2.197
 2380SOL    HW2 8040   6.224   1.679   2.333
 2381SOL     OW 8041   1.654   6.814   3.132
 2381SOL    HW1 8042   1.669   6.727   3.086
 2381SOL    HW2 8043   1.638   6.799   3.229
 2382SOL     OW 8044   1.306   3.455   5.350
 2382SOL    HW1 8045   1.400   3.422   5.355
 2382SOL    HW2 8046   1.306   3.552   5.327
 2383SOL     OW 8047   6.109   6.106   1.614
 2383SOL    HW1 8048   6.053   6.029   1.645
 2383SOL    HW2 8049   6.204   6.078   1.606
 2384SOL     OW 8050   4.556   2.001   1.863
 2384SOL    HW1 8051   4.541   2.086   1.914
 2384SOL    HW2 8052   4.639   1.956   1.897
 2385SOL     OW 8053   0.554   2.103   6.542
 2385SOL    HW1 8054   0.456   2.122   6.537
 2385SOL    HW2 8055   0.605   2.177   6.499
 2386SOL     OW 8056   4.568   5.262   4.055
 2386SOL    HW1 8057   4.601   5.355   4.041
 2386SOL    HW2 8058   4.558   5.216   3.967
 2387SOL     OW 8059   2.027   1.127   3.314
 2387SOL    HW1 8060   2.033   1.222   3.283
 2387SOL    HW2 8061   1.938   1.112   3.359
 2388SOL     OW 8062   6.465   1.401   4.160
 2388SOL    HW1 8063   6.512   1.320   4.124
 2388SOL    HW2 8064   6.395   1.373   4.225
 2389SOL     OW 8065   4.085   5.977   2.596
 2389SOL    HW1 8066   4.177   5.973   2.636
 2389SOL    HW2 8067   4.029   6.041   2.647
 2390SOL     OW 8068   3.129   4.392   1.473
 2390SOL    HW1 8069   3.193   4.424   1.543
 2390SOL    HW2 8070   3.109   4.467   1.410
 2391SOL     OW 8071   3.890   4.939   5.532
 2391SOL    HW1 8072   3.971   4.914   5.478
 2391SOL    HW2 8073   3.807   4.913   5.483
 2392SOL     OW 8074   3.964   1.013   6.920
 2392SOL    HW1 8075   3.964   1.090   6.856
 2392SOL    HW2 8076   4.046   1.018   6.978
 2393SOL     OW 8077   4.177   5.193   5.571
 2393SOL    HW1 8078   4.274   5.186   5.595
 2393SOL    HW2 8079   4.122   5.189   5.654
 2394SOL     OW 8080   0.006   4.865   5.640
 2394SOL    HW1 8081   0.090   4.818   5.615
 2394SOL    HW2 8082   0.006   4.884   5.739
 2395SOL     OW 8083   4.036   0.102   6.177
 2395SOL    HW1 8084   3.952   0.135   6.220
 2395SOL    HW2 8085   4.043   0.140   6.085
 2396SOL     OW 8086   4.076   4.487   0.858
 2396SOL    HW1 8087   4.173   4.511   0.860
 2396SOL    HW2 8088   4.046   4.460   0.950
 2397SOL     OW 8089   0.137   3.819   3.801
 2397SOL    HW1 8090   0.168   3.914   3.797
 2397SOL    HW2 8091   0.046   3.812   3.759
 2398SOL     OW 8092   4.298   4.503   5.785
 2398SOL    HW1 8093   4.229   4.468   5.849
 2398SOL    HW2 8094   4.346   4.427   5.743
 2399SOL     OW 8095   4.141   2.116   1.637
 2399SOL    HW1 8096   4.048   2.141   1.664
 2399SOL    HW2 8097   4.192   2.086   1.717
 2400SOL     OW 8098   2.312   5.370   1.433
 2400SOL    HW1 8099   2.293   5.425   1.352
 2400SOL    HW2 8100   2.394   5.314   1.417
 2401SOL     OW 8101   0.113   6.194   6.361
 2401SOL    HW1 8102   0.176   6.134   6.411
 2401SOL    HW2 8103   0.166   6.252   6.299
 2402SOL     OW 8104   6.824   6.427   4.210
 2402SOL    HW1 8105   6.840   6.333   4.181
 2402SOL    HW2 8106   6.909   6.480   4.200
 2403SOL     OW 8107   0.229   1.347   4.937
 2403SOL    HW1 8108   0.290   1.348   4.857
 2403SOL    HW2 8109   0.200   1.253   4.955
 2404SOL     OW 8110   1.330   0.480   0.373
 2404SOL    HW1 8111   1.287   0.474   0.283
 2404SOL    HW2 8112   1.329   0.575   0.404
 2405SOL     OW 8113   2.962   4.175   1.476
 2405SOL    HW1 8114   2.908   4.158   1.393
 2405SOL    HW2 8115   3.021   4.254   1.462
 2406SOL     OW 8116   4.734   0.777   1.293
 2406SOL    HW1 8117   4.667   0.707   1.269
 2406SOL    HW2 8118   4.764   0.825   1.210
 2407SOL     OW 8119   4.845   0.789   4.001
 2407SOL    HW1 8120   4.905   0.743   4.067
 2407SOL    HW2 8121   4.850   0.741   3.914
 2408SOL     OW 8122   4.582   4.521   2.127
 2408SOL    HW1 8123   4.649   4.588   2.094
 2408SOL    HW2 8124   4.577   4.444   2.063
 2409SOL     OW 8125   1.275   4.074   0.327
 2409SOL    HW1 8126   1.293   4.099   0.232
 2409SOL    HW2 8127   1.247   4.155   0.379
 2410SOL     OW 8128   3.173   2.965   2.469
 2410SOL    HW1 8129   3.103   3.035   2.482
 2410SOL    HW2 8130   3.231   2.961   2.550
 2411SOL     OW 8131   4.262   6.780   4.133
 2411SOL    HW1 8132   4.264   6.747   4.228
 2411SOL    HW2 8133   4.353   6.772   4.094
 2412SOL     OW 8134   4.223   3.613   0.943
 2412SOL    HW1 8135   4.296   3.649   1.002
 2412SOL    HW2 8136   4.201   3.520   0.972
 2413SOL     OW 8137   4.593   6.753   2.904
 2413SOL    HW1 8138   4.550   6.840   2.880
 2413SOL    HW2 8139   4.651   6.765   2.984
 2414SOL     OW 8140   5.788   3.610   4.026
 2414SOL    HW1 8141   5.856   3.661   3.973
 2414SOL    HW2 8142   5.825   3.593   4.118
 2415SOL     OW 8143   4.620   1.164   3.229
 2415SOL    HW1 8144   4.555   1.119   3.290
 2415SOL    HW2 8145   4.586   1.161   3.135
 2416SOL     OW 8146   5.465   1.728   6.526
 2416SOL    HW1 8147   5.505   1.779   6.451
 2416SOL    HW2 8148   5.524   1.652   6.551
 2417SOL     OW 8149   3.411   4.216   4.683
 2417SOL    HW1 8150   3.361   4.269   4.751
 2417SOL    HW2 8151   3.507   4.209   4.710
 2418SOL     OW 8152   3.330   2.907   2.747
 2418SOL    HW1 8153   3.427   2.913   2.721
 2418SOL    HW2 8154   3.298   2.814   2.734
 2419SOL     OW 8155   0.179   0.376   3.028
 2419SOL    HW1 8156   0.207   0.288   2.990
 2419SOL    HW2 8157   0.090   0.367   3.072
 2420SOL     OW 8158   2.041   6.942   1.972
 2420SOL    HW1 8159   2.010   6.874   2.038
 2420SOL    HW2 8160   2.140   6.935   1.962
 2421SOL     OW 8161   3.472   1.674   3.712
 2421SOL    HW1 8162   3.402   1.636   3.651
 2421SOL    HW2 8163   3.523   1.744   3.663
 2422SOL     OW 8164   4.649   1.518   0.718
 2422SOL    HW1 8165   4.684   1.499   0.810
 2422SOL    HW2 8166   4.568   1.576   0.725
 2423SOL     OW 8167   1.915   4.999   2.393
 2423SOL    HW1 8168   1.886   4.909   2.427
 2423SOL    HW2 8169   1.834   5.051   2.364
 2424SOL     OW 8170   6.148   0.004   0.812
 2424SOL    HW1 8171   6.112   0.097   0.821
 2424SOL    HW2 8172   6.078   6.965   0.773
 2425SOL     OW 8173   6.979   6.697   4.355
 2425SOL    HW1 8174   0.021   6.766   4.390
 2425SOL    HW2 8175   6.996   6.682   4.258
 2426SOL     OW 8176   2.721   4.701   4.376
 2426SOL    HW1 8177   2.728   4.732   4.471
 2426SOL    HW2 8178   2.637   4.648   4.365
 2427SOL     OW 8179   6.167   0.059   5.720
 2427SOL    HW1 8180   6.083   0.043   5.773
 2427SOL    HW2 8181   6.145   0.110   5.637
 2428SOL     OW 8182   6.168   0.751   0.712
 2428SOL    HW1 8183   6.257   0.797   0.711
 2428SOL    HW2 8184   6.104   0.801   0.652
 2429SOL     OW 8185   5.255   5.149   2.182
 2429SOL    HW1 8186   5.219   5.082   2.117
 2429SOL    HW2 8187   5.353   5.162   2.167
 2430SOL     OW 8188   5.170   6.984   2.613
 2430SOL    HW1 8189   5.243   6.950   2.554
 2430SOL    HW2 8190   5.147   0.057   2.588
 2431SOL     OW 8191   4.391   0.162   2.351
 2431SOL    HW1 8192   4.387   0.128   2.444
 2431SOL    HW2 8193   4.307   0.138   2.303
 2432SOL     OW 8194   2.274   6.007   2.705
 2432SOL    HW1 8195   2.252   5.931   2.644
 2432SOL    HW2 8196   2.330   5.975   2.781
 2433SOL     OW 8197   4.726   0.340   0.986
 2433SOL    HW1 8198   4.781   0.412   0.944
 2433SOL    HW2 8199   4.781   0.293   1.056
 2434SOL     OW 8200   3.832   2.971   4.800
 2434SOL    HW1 8201   3.842   2.991   4.703
 2434SOL    HW2 8202   3.786   2.883   4.811
 2435SOL     OW 8203   6.489   5.844   5.731
 2435SOL    HW1 8204   6.435   5.928   5.731
 2435SOL    HW2 8205   6.581   5.864   5.766
 2436SOL     OW 8206   2.788   5.105   0.933
 2436SOL    HW1 8207   2.842   5.141   0.858
 2436SOL    HW2 8208   2.717   5.044   0.897
 2437SOL     OW 8209   6.887   0.350   5.926
 2437SOL    HW1 8210   6.927   0.421   5.984
 2437SOL    HW2 8211   6.848   0.393   5.845
 2438SOL     OW 8212   2.983   3.424   0.702
 2438SOL    HW1 8213   2.957   3.330   0.725
 2438SOL    HW2 8214   3.059   3.453   0.759
 2439SOL     OW 8215   5.646   4.487   5.869
 2439SOL    HW1 8216   5.658   4.583   5.845
 2439SOL    HW2 8217   5.725   4.435   5.835
 2440SOL     OW 8218   5.566   4.982   5.721
 2440SOL    HW1 8219   5.604   5.059   5.670
 2440SOL    HW2 8220   5.507   5.017   5.794
 2441SOL     OW 8221   6.145   2.293   1.069
 2441SOL    HW1 8222   6.155   2.379   1.018
 2441SOL    HW2 8223   6.179   2.306   1.162
 2442SOL     OW 8224   0.431   2.051   5.708
 2442SOL    HW1 8225   0.451   1.982   5.638
 2442SOL    HW2 8226   0.489   2.131   5.693
 2443SOL     OW 8227   2.792   4.826   5.267
 2443SOL    HW1 8228   2.825   4.761   5.198
 2443SOL    HW2 8229   2.856   4.830   5.343
 2444SOL     OW 8230   3.184   2.751   5.689
 2444SOL    HW1 8231   3.240   2.731   5.769
 2444SOL    HW2 8232   3.167   2.666   5.639
 2445SOL     OW 8233   0.874   0.154   0.749
 2445SOL    HW1 8234   0.882   0.234   0.689
 2445SOL    HW2 8235   0.903   0.179   0.841
 2446SOL     OW 8236   5.048   2.970   6.092
 2446SOL    HW1 8237   5.117   2.900   6.109
 2446SOL    HW2 8238   5.083   3.035   6.024
 2447SOL     OW 8239   0.483   3.024   6.454
 2447SOL    HW1 8240   0.538   3.056   6.377
 2447SOL    HW2 8241   0.461   2.927   6.441
 2448SOL     OW 8242   0.161   6.983   4.165
 2448SOL    HW1 8243   0.168   6.947   4.258
 2448SOL    HW2 8244   0.218   0.045   4.158
 2449SOL     OW 8245   0.783   3.211   5.045
 2449SOL    HW1 8246   0.861   3.151   5.061
 2449SOL    HW2 8247   0.812   3.290   4.991
 2450SOL     OW 8248   1.917   2.859   1.553
 2450SOL    HW1 8249   1.960   2.948   1.537
 2450SOL    HW2 8250   1.834   2.852   1.497
 2451SOL     OW 8251   2.211   6.173   4.350
 2451SOL    HW1 8252   2.199   6.203   4.256
 2451SOL    HW2 8253   2.124   6.142   4.387
 2452SOL     OW 8254   2.659   2.498   4.707
 2452SOL    HW1 8255   2.712   2.583   4.704
 2452SOL    HW2 8256   2.677   2.445   4.625
 2453SOL     OW 8257   0.782   3.675   1.105
 2453SOL    HW1 8258   0.733   3.678   1.018
 2453SOL    HW2 8259   0.810   3.582   1.125
 2454SOL     OW 8260   1.957   0.084   1.752
 2454SOL    HW1 8261   2.014   0.027   1.810
 2454SOL    HW2 8262   1.921   0.029   1.676
 2455SOL     OW 8263   5.522   3.472   1.250
 2455SOL    HW1 8264   5.605   3.495   1.301
 2455SOL    HW2 8265   5.539   3.484   1.152
 2456SOL     OW 8266   2.846   6.794   1.070
 2456SOL    HW1 8267   2.786   6.757   1.000
 2456SOL    HW2 8268   2.792   6.834   1.143
 2457SOL     OW 8269   5.667   5.936   1.224
 2457SOL    HW1 8270   5.698   5.993   1.148
 2457SOL    HW2 8271   5.568   5.925   1.219
 2458SOL     OW 8272   0.284   6.455   1.971
 2458SOL    HW1 8273   0.341   6.490   2.045
 2458SOL    HW2 8274   0.331   6.380   1.925
 2459SOL     OW 8275   1.186   1.204   0.276
 2459SOL    HW1 8276   1.135   1.272   0.223
 2459SOL    HW2 8277   1.267   1.247   0.316
 2460SOL     OW 8278   2.968   4.721   1.489
 2460SOL    HW1 8279   3.000   4.698   1.581
 2460SOL    HW2 8280   2.914   4.804   1.492
 2461SOL     OW 8281   4.709   1.169   2.636
 2461SOL    HW1 8282   4.678   1.231   2.708
 2461SOL    HW2 8283   4.747   1.222   2.560
 2462SOL     OW 8284   2.658   4.027   6.106
 2462SOL    HW1 8285   2.671   3.988   6.197
 2462SOL    HW2 8286   2.674   4.125   6.109
 2463SOL     OW 8287   0.725   2.468   5.015
 2463SOL    HW1 8288   0.728   2.454   5.114
 2463SOL    HW2 8289   0.756   2.385   4.969
 2464SOL     OW 8290   1.146   3.169   0.480
 2464SOL    HW1 8291   1.243   3.194   0.488
 2464SOL    HW2 8292   1.134   3.102   0.407
 2465SOL     OW 8293   6.327   5.198   2.243
 2465SOL    HW1 8294   6.271   5.213   2.161
 2465SOL    HW2 8295   6.356   5.286   2.279
 2466SOL     OW 8296   3.692   1.311   1.676
 2466SOL    HW1 8297   3.769   1.307   1.612
 2466SOL    HW2 8298   3.620   1.369   1.638
 2467SOL     OW 8299   0.890   1.220   4.442
 2467SOL    HW1 8300   0.881   1.305   4.494
 2467SOL    HW2 8301   0.884   1.239   4.344
 2468SOL     OW 8302   6.216   4.413   6.935
 2468SOL    HW1 8303   6.148   4.360   6.884
 2468SOL    HW2 8304   6.215   4.508   6.903
 2469SOL     OW 8305   2.804   2.535   5.652
 2469SOL    HW1 8306   2.881   2.592   5.680
 2469SOL    HW2 8307   2.839   2.448   5.616
 2470SOL     OW 8308   5.541   2.947   0.779
 2470SOL    HW1 8309   5.536   2.870   0.843
 2470SOL    HW2 8310   5.636   2.977   0.772
 2471SOL     OW 8311   0.281   1.287   2.777
 2471SOL    HW1 8312   0.216   1.361   2.787
 2471SOL    HW2 8313   0.315   1.284   2.683
 2472SOL     OW 8314   5.883   1.184   3.777
 2472SOL    HW1 8315   5.828   1.237   3.713
 2472SOL    HW2 8316   5.865   1.086   3.764
 2473SOL     OW 8317   0.658   6.244   5.512
 2473SOL    HW1 8318   0.587   6.174   5.518
 2473SOL    HW2 8319   0.659   6.284   5.421
 2474SOL     OW 8320   6.375   6.775   4.324
 2474SOL    HW1 8321   6.347   6.797   4.417
 2474SOL    HW2 8322   6.474   6.788   4.315
 2475SOL     OW 8323   4.254   2.017   6.302
 2475SOL    HW1 8324   4.237   2.065   6.216
 2475SOL    HW2 8325   4.180   2.037   6.366
 2476SOL     OW 8326   0.483   1.370   3.324
 2476SOL    HW1 8327   0.390   1.397   3.300
 2476SOL    HW2 8328   0.479   1.306   3.401
 2477SOL     OW 8329   4.461   5.024   2.344
 2477SOL    HW1 8330   4.523   5.065   2.277
 2477SOL    HW2 8331   4.513   4.997   2.425
 2478SOL     OW 8332   0.114   6.977   2.323
 2478SOL    HW1 8333   0.185   0.020   2.295
 2478SOL    HW2 8334   0.149   6.883   2.314
 2479SOL     OW 8335   0.795   2.527   6.942
 2479SOL    HW1 8336   0.705   2.532   6.898
 2479SOL    HW2 8337   0.866   2.548   6.874
 2480SOL     OW 8338   6.335   5.351   1.652
 2480SOL    HW1 8339   6.380   5.432   1.615
 2480SOL    HW2 8340   6.380   5.268   1.617
 2481SOL     OW 8341   3.925   5.197   2.457
 2481SOL    HW1 8342   3.917   5.257   2.536
 2481SOL    HW2 8343   3.836   5.190   2.411
 2482SOL     OW 8344   4.329   2.134   5.043
 2482SOL    HW1 8345   4.285   2.222   5.024
 2482SOL    HW2 8346   4.408   2.149   5.103
 2483SOL     OW 8347   0.740   3.066   7.014
 2483SOL    HW1 8348   0.650   3.034   6.985
 2483SOL    HW2 8349   0.808   3.040   6.945
 2484SOL     OW 8350   3.647   4.175   5.683
 2484SOL    HW1 8351   3.618   4.126   5.601
 2484SOL    HW2 8352   3.597   4.139   5.762
 2485SOL     OW 8353   1.013   6.266   0.008
 2485SOL    HW1 8354   1.047   6.340   0.067
 2485SOL    HW2 8355   0.941   6.303   6.969
 2486SOL     OW 8356   0.637   5.687   3.733
 2486SOL    HW1 8357   0.620   5.593   3.763
 2486SOL    HW2 8358   0.651   5.746   3.812
 2487SOL     OW 8359   3.496   1.702   1.477
 2487SOL    HW1 8360   3.459   1.717   1.385
 2487SOL    HW2 8361   3.569   1.767   1.495
 2488SOL     OW 8362   3.359   6.084   6.568
 2488SOL    HW1 8363   3.415   6.164   6.545
 2488SOL    HW2 8364   3.365   6.067   6.667
 2489SOL     OW 8365   0.004   5.943   4.491
 2489SOL    HW1 8366   0.012   5.894   4.404
 2489SOL    HW2 8367   6.944   6.001   4.489
 2490SOL     OW 8368   5.811   3.146   1.149
 2490SOL    HW1 8369   5.856   3.202   1.079
 2490SOL    HW2 8370   5.764   3.205   1.214
 2491SOL     OW 8371   0.050   4.502   3.344
 2491SOL    HW1 8372   0.010   4.531   3.257
 2491SOL    HW2 8373   0.045   4.403   3.351
 2492SOL     OW 8374   4.224   1.580   6.193
 2492SOL    HW1 8375   4.133   1.596   6.231
 2492SOL    HW2 8376   4.258   1.491   6.223
 2493SOL     OW 8377   6.458   0.461   5.019
 2493SOL    HW1 8378   6.463   0.393   4.946
 2493SOL    HW2 8379   6.417   0.419   5.100
 2494SOL     OW 8380   4.543   5.039   1.040
 2494SOL    HW1 8381   4.485   5.058   0.960
 2494SOL    HW2 8382   4.621   4.983   1.012
 2495SOL     OW 8383   6.707   1.110   2.467
 2495SOL    HW1 8384   6.652   1.027   2.461
 2495SOL    HW2 8385   6.767   1.105   2.547
 2496SOL     OW 8386   1.919   5.127   0.891
 2496SOL    HW1 8387   1.928   5.203   0.956
 2496SOL    HW2 8388   1.870   5.052   0.936
 2497SOL     OW 8389   5.396   0.532   6.469
 2497SOL    HW1 8390   5.425   0.483   6.387
 2497SOL    HW2 8391   5.430   0.626   6.466
 2498SOL     OW 8392   0.937   3.420   4.900
 2498SOL    HW1 8393   0.929   3.365   4.818
 2498SOL    HW2 8394   1.015   3.482   4.891
 2499SOL     OW 8395   5.498   1.123   0.499
 2499SOL    HW1 8396   5.549   1.207   0.521
 2499SOL    HW2 8397   5.512   1.056   0.571
 2500SOL     OW 8398   4.547   3.787   6.323
 2500SOL    HW1 8399   4.572   3.757   6.231
 2500SOL    HW2 8400   4.613   3.855   6.355
 2501SOL     OW 8401   6.726   4.892   0.700
 2501SOL    HW1 8402   6.713   4.792   0.697
 2501SOL    HW2 8403   6.637   4.937   0.693
 2502SOL     OW 8404   0.669   0.526   3.662
 2502SOL    HW1 8405   0.615   0.456   3.709
 2502SOL    HW2 8406   0.761   0.492   3.647
 2503SOL     OW 8407   5.770   6.585   4.303
 2503SOL    HW1 8408   5.697   6.635   4.257
 2503SOL    HW2 8409   5.733   6.537   4.383
 2504SOL     OW 8410   2.572   4.616   3.147
 2504SOL    HW1 8411   2.507   4.547   3.117
 2504SOL    HW2 8412   2.643   4.627   3.078
 2505SOL     OW 8413   4.782   4.163   4.987
 2505SOL    HW1 8414   4.715   4.149   4.914
 2505SOL    HW2 8415   4.856   4.096   4.978
 2506SOL     OW 8416   0.682   0.805   0.523
 2506SOL    HW1 8417   0.681   0.775   0.619
 2506SOL    HW2 8418   0.681   0.905   0.520
 2507SOL     OW 8419   6.321   6.267   6.872
 2507SOL    HW1 8420   6.418   6.289   6.860
 2507SOL    HW2 8421   6.285   6.227   6.788
 2508SOL     OW 8422   1.580   2.162   1.930
 2508SOL    HW1 8423   1.562   2.066   1.948
 2508SOL    HW2 8424   1.678   2.175   1.912
 2509SOL     OW 8425   6.088   0.716   3.763
 2509SOL    HW1 8426   6.021   0.782   3.729
 2509SOL    HW2 8427   6.137   0.755   3.841
 2510SOL     OW 8428   4.141   6.450   2.374
 2510SOL    HW1 8429   4.208   6.377   2.373
 2510SOL    HW2 8430   4.106   6.463   2.467
 2511SOL     OW 8431   0.648   6.425   3.808
 2511SOL    HW1 8432   0.572   6.361   3.803
 2511SOL    HW2 8433   0.723   6.394   3.750
 2512SOL     OW 8434   6.197   3.577   4.151
 2512SOL    HW1 8435   6.264   3.572   4.226
 2512SOL    HW2 8436   6.151   3.665   4.152
 2513SOL     OW 8437   6.997   4.677   0.509
 2513SOL    HW1 8438   6.900   4.670   0.530
 2513SOL    HW2 8439   0.011   4.765   0.541
 2514SOL     OW 8440   6.983   2.133   3.730
 2514SOL    HW1 8441   7.011   2.049   3.683
 2514SOL    HW2 8442   0.009   2.139   3.818
 2515SOL     OW 8443   0.992   4.607   6.782
 2515SOL    HW1 8444   0.942   4.619   6.696
 2515SOL    HW2 8445   0.997   4.695   6.829
 2516SOL     OW 8446   5.334   6.760   4.136
 2516SOL    HW1 8447   5.299   6.805   4.054
 2516SOL    HW2 8448   5.284   6.675   4.151
 2517SOL     OW 8449   1.906   5.794   0.997
 2517SOL    HW1 8450   1.908   5.837   0.907
 2517SOL    HW2 8451   1.850   5.849   1.059
 2518SOL     OW 8452   2.501   2.462   0.152
 2518SOL    HW1 8453   2.511   2.425   0.244
 2518SOL    HW2 8454   2.463   2.554   0.157
 2519SOL     OW 8455   5.717   4.072   5.189
 2519SOL    HW1 8456   5.652   4.141   5.159
 2519SOL    HW2 8457   5.722   4.072   5.289
 2520SOL     OW 8458   3.505   5.446   1.259
 2520SOL    HW1 8459   3.446   5.369   1.234
 2520SOL    HW2 8460   3.555   5.423   1.342
 2521SOL     OW 8461   5.881   6.418   5.767
 2521SOL    HW1 8462   5.977   6.438   5.788
 2521SOL    HW2 8463   5.840   6.497   5.722
 2522SOL     OW 8464   2.135   5.066   5.037
 2522SOL    HW1 8465   2.105   4.994   5.099
 2522SOL    HW2 8466   2.189   5.026   4.963
 2523SOL     OW 8467   0.796   1.582   5.899
 2523SOL    HW1 8468   0.710   1.616   5.860
 2523SOL    HW2 8469   0.866   1.579   5.828
 2524SOL     OW 8470   1.632   6.986   4.338
 2524SOL    HW1 8471   1.719   6.940   4.354
 2524SOL    HW2 8472   1.572   6.974   4.417
 2525SOL     OW 8473   2.745   4.712   2.276
 2525SOL    HW1 8474   2.838   4.708   2.239
 2525SOL    HW2 8475   2.680   4.686   2.204
 2526SOL     OW 8476   1.348   2.566   4.574
 2526SOL    HW1 8477   1.296   2.645   4.608
 2526SOL    HW2 8478   1.434   2.598   4.533
 2527SOL     OW 8479   0.014   6.836   3.757
 2527SOL    HW1 8480   6.947   6.789   3.757
 2527SOL    HW2 8481   0.072   6.799   3.684
 2528SOL     OW 8482   5.229   5.638   0.608
 2528SOL    HW1 8483   5.207   5.541   0.596
 2528SOL    HW2 8484   5.148   5.693   0.592
 2529SOL     OW 8485   5.308   4.342   5.310
 2529SOL    HW1 8486   5.228   4.315   5.257
 2529SOL    HW2 8487   5.340   4.432   5.279
 2530SOL     OW 8488   1.006   6.242   3.336
 2530SOL    HW1 8489   0.939   6.170   3.319
 2530SOL    HW2 8490   0.999   6.312   3.265
 2531SOL     OW 8491   5.628   1.723   0.030
 2531SOL    HW1 8492   5.675   1.662   6.987
 2531SOL    HW2 8493   5.657   1.818   0.013
 2532SOL     OW 8494   0.912   5.152   5.459
 2532SOL    HW1 8495   0.910   5.064   5.411
 2532SOL    HW2 8496   0.928   5.225   5.393
 2533SOL     OW 8497   5.923   0.611   5.283
 2533SOL    HW1 8498   5.905   0.529   5.336
 2533SOL    HW2 8499   5.982   0.589   5.205
 2534SOL     OW 8500   6.506   1.321   3.596
 2534SOL    HW1 8501   6.505   1.353   3.691
 2534SOL    HW2 8502   6.599   1.331   3.558
 2535SOL     OW 8503   2.879   1.103   2.067
 2535SOL    HW1 8504   2.971   1.063   2.060
 2535SOL    HW2 8505   2.875   1.186   2.011
 2536SOL     OW 8506   0.188   0.503   4.172
 2536SOL    HW1 8507   0.110   0.441   4.162
 2536SOL    HW2 8508   0.203   0.552   4.086
 2537SOL     OW 8509   3.094   6.134   2.675
 2537SOL    HW1 8510   3.179   6.143   2.726
 2537SOL    HW2 8511   3.112   6.154   2.578
 2538SOL     OW 8512   0.580   5.107   5.441
 2538SOL    HW1 8513   0.592   5.199   5.405
 2538SOL    HW2 8514   0.646   5.090   5.514
 2539SOL     OW 8515   1.946   0.489   5.767
 2539SOL    HW1 8516   2.016   0.503   5.697
 2539SOL    HW2 8517   1.865   0.448   5.724
 2540SOL     OW 8518   4.624   2.245   2.451
 2540SOL    HW1 8519   4.654   2.201   2.367
 2540SOL    HW2 8520   4.586   2.177   2.513
 2541SOL     OW 8521   1.200   1.548   6.905
 2541SOL    HW1 8522   1.274   1.549   6.972
 2541SOL    HW2 8523   1.121   1.597   6.941
 2542SOL     OW 8524   3.855   1.534   3.392
 2542SOL    HW1 8525   3.879   1.530   3.295
 2542SOL    HW2 8526   3.843   1.629   3.420
 2543SOL     OW 8527   5.888   0.429   5.466
 2543SOL    HW1 8528   5.832   0.424   5.549
 2543SOL    HW2 8529   5.873   0.347   5.411
 2544SOL     OW 8530   0.096   6.930   0.979
 2544SOL    HW1 8531   0.181   6.970   0.942
 2544SOL    HW2 8532   0.086   6.958   1.075
 2545SOL     OW 8533   0.027   1.285   6.898
 2545SOL    HW1 8534   0.021   1.363   6.960
 2545SOL    HW2 8535   7.017   1.202   6.945
 2546SOL     OW 8536   6.350   3.746   2.388
 2546SOL    HW1 8537   6.252   3.744   2.411
 2546SOL    HW2 8538   6.361   3.752   2.289
 2547SOL     OW 8539   5.525   3.484   0.949
 2547SOL    HW1 8540   5.576   3.557   0.905
 2547SOL    HW2 8541   5.551   3.396   0.908
 2548SOL     OW 8542   6.587   0.220   5.276
 2548SOL    HW1 8543   6.518   0.194   5.343
 2548SOL    HW2 8544   6.656   0.149   5.270
 2549SOL     OW 8545   2.937   5.256   0.776
 2549SOL    HW1 8546   3.024   5.298   0.752
 2549SOL    HW2 8547   2.871   5.273   0.702
 2550SOL     OW 8548   3.610   0.256   1.082
 2550SOL    HW1 8549   3.560   0.254   1.168
 2550SOL    HW2 8550   3.651   0.166   1.064
 2551SOL     OW 8551   3.780   4.476   1.374
 2551SOL    HW1 8552   3.837   4.439   1.447
 2551SOL    HW2 8553   3.824   4.556   1.333
 2552SOL     OW 8554   2.425   4.655   1.693
 2552SOL    HW1 8555   2.513   4.607   1.699
 2552SOL    HW2 8556   2.354   4.591   1.663
 2553SOL     OW 8557   4.753   1.277   0.175
 2553SOL    HW1 8558   4.838   1.254   0.223
 2553SOL    HW2 8559   4.688   1.317   0.239
 2554SOL     OW 8560   0.609   5.536   0.960
 2554SOL    HW1 8561   0.616   5.574   0.868
 2554SOL    HW2 8562   0.597   5.609   1.026
 2555SOL     OW 8563   0.890   6.746   5.277
 2555SOL    HW1 8564   0.889   6.794   5.189
 2555SOL    HW2 8565   0.968   6.778   5.331
 2556SOL     OW 8566   5.343   6.877   0.691
 2556SOL    HW1 8567   5.303   6.878   0.782
 2556SOL    HW2 8568   5.299   6.806   0.635
 2557SOL     OW 8569   2.825   1.543   0.038
 2557SOL    HW1 8570   2.816   1.486   6.978
 2557SOL    HW2 8571   2.883   1.622   0.016
 2558SOL     OW 8572   5.166   1.913   1.338
 2558SOL    HW1 8573   5.228   1.988   1.358
 2558SOL    HW2 8574   5.193   1.832   1.389
 2559SOL     OW 8575   6.086   5.035   3.526
 2559SOL    HW1 8576   6.059   4.939   3.541
 2559SOL    HW2 8577   6.010   5.095   3.552
 2560SOL     OW 8578   4.448   2.477   1.928
 2560SOL    HW1 8579   4.427   2.508   1.835
 2560SOL    HW2 8580   4.528   2.526   1.962
 2561SOL     OW 8581   3.347   0.071   4.862
 2561SOL    HW1 8582   3.318   0.166   4.857
 2561SOL    HW2 8583   3.275   0.015   4.904
 2562SOL     OW 8584   1.619   6.784   5.123
 2562SOL    HW1 8585   1.673   6.703   5.143
 2562SOL    HW2 8586   1.547   6.794   5.192
 2563SOL     OW 8587   4.066   2.413   6.010
 2563SOL    HW1 8588   4.106   2.377   5.925
 2563SOL    HW2 8589   3.969   2.431   5.996
 2564SOL     OW 8590   1.462   1.346   0.544
 2564SOL    HW1 8591   1.480   1.266   0.486
 2564SOL    HW2 8592   1.521   1.342   0.625
 2565SOL     OW 8593   0.348   0.557   1.241
 2565SOL    HW1 8594   0.345   0.573   1.142
 2565SOL    HW2 8595   0.359   0.645   1.288
 2566SOL     OW 8596   3.162   1.597   0.919
 2566SOL    HW1 8597   3.095   1.569   0.850
 2566SOL    HW2 8598   3.203   1.516   0.961
 2567SOL     OW 8599   1.839   0.929   6.566
 2567SOL    HW1 8600   1.928   0.954   6.602
 2567SOL    HW2 8601   1.800   1.007   6.517
 2568SOL     OW 8602   2.437   6.071   1.201
 2568SOL    HW1 8603   2.422   6.089   1.298
 2568SOL    HW2 8604   2.449   6.158   1.153
 2569SOL     OW 8605   2.115   6.443   6.639
 2569SOL    HW1 8606   2.042   6.427   6.573
 2569SOL    HW2 8607   2.130   6.361   6.694
 2570SOL     OW 8608   0.522   6.913   3.891
 2570SOL    HW1 8609   0.598   6.850   3.878
 2570SOL    HW2 8610   0.452   6.870   3.948
 2571SOL     OW 8611   3.635   3.315   2.604
 2571SOL    HW1 8612   3.704   3.385   2.589
 2571SOL    HW2 8613   3.626   3.296   2.702
 2572SOL     OW 8614   2.172   5.776   2.566
 2572SOL    HW1 8615   2.142   5.811   2.478
 2572SOL    HW2 8616   2.241   5.705   2.552
 2573SOL     OW 8617   6.944   1.225   3.125
 2573SOL    HW1 8618   6.978   1.194   3.214
 2573SOL    HW2 8619   0.000   1.236   3.063
 2574SOL     OW 8620   0.300   3.739   2.052
 2574SOL    HW1 8621   0.366   3.808   2.082
 2574SOL    HW2 8622   0.274   3.682   2.129
 2575SOL     OW 8623   4.577   3.939   5.515
 2575SOL    HW1 8624   4.518   3.891   5.581
 2575SOL    HW2 8625   4.594   3.879   5.437
 2576SOL     OW 8626   0.745   0.260   3.197
 2576SOL    HW1 8627   0.714   0.348   3.231
 2576SOL    HW2 8628   0.666   0.206   3.168
 2577SOL     OW 8629   1.819   4.570   1.113
 2577SOL    HW1 8630   1.896   4.515   1.147
 2577SOL    HW2 8631   1.847   4.666   1.111
 2578SOL     OW 8632   4.740   2.790   4.898
 2578SOL    HW1 8633   4.720   2.852   4.823
 2578SOL    HW2 8634   4.783   2.841   4.973
 2579SOL     OW 8635   0.383   0.952   6.444
 2579SOL    HW1 8636   0.395   0.951   6.345
 2579SOL    HW2 8637   0.473   0.948   6.488
 2580SOL     OW 8638   1.920   2.010   5.363
 2580SOL    HW1 8639   1.892   1.957   5.443
 2580SOL    HW2 8640   1.933   2.106   5.389
 2581SOL     OW 8641   5.686   6.874   4.394
 2581SOL    HW1 8642   5.778   6.911   4.399
 2581SOL    HW2 8643   5.679   6.809   4.319
 2582SOL     OW 8644   6.689   4.560   2.975
 2582SOL    HW1 8645   6.648   4.558   2.883
 2582SOL    HW2 8646   6.693   4.654   3.008
 2583SOL     OW 8647   3.020   1.164   0.093
 2583SOL    HW1 8648   3.103   1.158   0.038
 2583SOL    HW2 8649   3.031   1.238   0.160
 2584SOL     OW 8650   4.350   1.010   3.231
 2584SOL    HW1 8651   4.383   1.069   3.306
 2584SOL    HW2 8652   4.251   1.003   3.235
 2585SOL     OW 8653   3.612   0.559   2.410
 2585SOL    HW1 8654   3.599   0.460   2.407
 2585SOL    HW2 8655   3.682   0.586   2.344
 2586SOL     OW 8656   0.736   1.649   3.875
 2586SOL    HW1 8657   0.658   1.669   3.935
 2586SOL    HW2 8658   0.731   1.708   3.795
 2587SOL     OW 8659   6.569   5.157   2.651
 2587SOL    HW1 8660   6.514   5.084   2.610
 2587SOL    HW2 8661   6.665   5.143   2.629
 2588SOL     OW 8662   3.788   6.584   2.568
 2588SOL    HW1 8663   3.739   6.651   2.624
 2588SOL    HW2 8664   3.875   6.624   2.538
 2589SOL     OW 8665   4.473   6.380   1.476
 2589SOL    HW1 8666   4.540   6.373   1.549
 2589SOL    HW2 8667   4.404   6.448   1.500
 2590SOL     OW 8668   3.916   5.865   3.972
 2590SOL    HW1 8669   3.885   5.957   3.946
 2590SOL    HW2 8670   3.939   5.864   4.069
 2591SOL     OW 8671   5.992   0.213   0.292
 2591SOL    HW1 8672   5.933   0.168   0.360
 2591SOL    HW2 8673   6.039   0.290   0.334
 2592SOL     OW 8674   2.803   4.801   1.771
 2592SOL    HW1 8675   2.763   4.889   1.796
 2592SOL    HW2 8676   2.813   4.745   1.853
 2593SOL     OW 8677   2.952   6.920   3.539
 2593SOL    HW1 8678   3.032   6.861   3.552
 2593SOL    HW2 8679   2.976   7.014   3.561
 2594SOL     OW 8680   1.878   6.054   0.050
 2594SOL    HW1 8681   1.900   6.010   0.138
 2594SOL    HW2 8682   1.798   6.010   0.010
 2595SOL     OW 8683   0.050   3.176   4.199
 2595SOL    HW1 8684   0.071   3.114   4.274
 2595SOL    HW2 8685   0.134   3.221   4.167
 2596SOL     OW 8686   4.403   2.081   1.290
 2596SOL    HW1 8687   4.378   2.166   1.338
 2596SOL    HW2 8688   4.321   2.024   1.281
 2597SOL     OW 8689   2.548   2.484   5.997
 2597SOL    HW1 8690   2.632   2.448   6.036
 2597SOL    HW2 8691   2.469   2.439   6.040
 2598SOL     OW 8692   6.952   1.180   2.754
 2598SOL    HW1 8693   6.946   1.277   2.781
 2598SOL    HW2 8694   6.963   1.174   2.655
 2599SOL     OW 8695   4.913   5.788   6.290
 2599SOL    HW1 8696   4.975   5.713   6.266
 2599SOL    HW2 8697   4.888   5.781   6.386
 2600SOL     OW 8698   0.816   2.525   4.557
 2600SOL    HW1 8699   0.802   2.443   4.614
 2600SOL    HW2 8700   0.820   2.605   4.616
 2601SOL     OW 8701   4.091   3.647   5.251
 2601SOL    HW1 8702   4.134   3.561   5.224
 2601SOL    HW2 8703   4.013   3.628   5.311
 2602SOL     OW 8704   6.090   6.473   6.188
 2602SOL    HW1 8705   6.108   6.559   6.236
 2602SOL    HW2 8706   6.056   6.405   6.253
 2603SOL     OW 8707   1.499   1.796   6.625
 2603SOL    HW1 8708   1.511   1.861   6.550
 2603SOL    HW2 8709   1.447   1.840   6.699
 2604SOL     OW 8710   5.299   1.498   1.090
 2604SOL    HW1 8711   5.348   1.531   1.172
 2604SOL    HW2 8712   5.324   1.555   1.012
 2605SOL     OW 8713   5.891   3.473   4.253
 2605SOL    HW1 8714   5.973   3.485   4.310
 2605SOL    HW2 8715   5.840   3.394   4.285
 2606SOL     OW 8716   6.487   4.635   1.618
 2606SOL    HW1 8717   6.438   4.721   1.632
 2606SOL    HW2 8718   6.425   4.567   1.579
 2607SOL     OW 8719   0.707   1.092   3.951
 2607SOL    HW1 8720   0.693   1.171   3.890
 2607SOL    HW2 8721   0.645   1.018   3.925
 2608SOL     OW 8722   4.738   0.540   0.644
 2608SOL    HW1 8723   4.751   0.599   0.564
 2608SOL    HW2 8724   4.819   0.544   0.701
 2609SOL     OW 8725   0.878   3.396   3.403
 2609SOL    HW1 8726   0.896   3.303   3.435
 2609SOL    HW2 8727   0.947   3.423   3.336
 2610SOL     OW 8728   5.213   5.799   4.597
 2610SOL    HW1 8729   5.160   5.723   4.561
 2610SOL    HW2 8730   5.179   5.885   4.558
 2611SOL     OW 8731   2.988   5.617   2.431
 2611SOL    HW1 8732   2.915   5.581   2.488
 2611SOL    HW2 8733   2.989   5.570   2.343
 2612SOL     OW 8734   0.447   0.181   5.224
 2612SOL    HW1 8735   0.480   0.129   5.145
 2612SOL    HW2 8736   0.507   0.166   5.302
 2613SOL     OW 8737   4.056   1.012   0.495
 2613SOL    HW1 8738   4.070   1.105   0.529
 2613SOL    HW2 8739   4.111   0.948   0.549
 2614SOL     OW 8740   6.213   5.903   6.923
 2614SOL    HW1 8741   6.119   5.911   6.890
 2614SOL    HW2 8742   6.271   5.868   6.850
 2615SOL     OW 8743   6.005   3.821   1.434
 2615SOL    HW1 8744   6.009   3.794   1.530
 2615SOL    HW2 8745   5.929   3.884   1.421
 2616SOL     OW 8746   4.050   3.743   1.845
 2616SOL    HW1 8747   3.965   3.767   1.892
 2616SOL    HW2 8748   4.076   3.816   1.782
 2617SOL     OW 8749   2.268   6.464   1.124
 2617SOL    HW1 8750   2.242   6.456   1.220
 2617SOL    HW2 8751   2.198   6.518   1.075
 2618SOL     OW 8752   1.573   6.542   0.335
 2618SOL    HW1 8753   1.548   6.602   0.410
 2618SOL    HW2 8754   1.585   6.596   0.251
 2619SOL     OW 8755   6.355   1.286   1.746
 2619SOL    HW1 8756   6.400   1.264   1.832
 2619SOL    HW2 8757   6.422   1.320   1.681
 2620SOL     OW 8758   1.539   5.884   4.267
 2620SOL    HW1 8759   1.443   5.901   4.245
 2620SOL    HW2 8760   1.548   5.794   4.310
 2621SOL     OW 8761   0.702   5.894   4.525
 2621SOL    HW1 8762   0.770   5.956   4.486
 2621SOL    HW2 8763   0.688   5.917   4.621
 2622SOL     OW 8764   2.207   2.435   4.809
 2622SOL    HW1 8765   2.271   2.391   4.746
 2622SOL    HW2 8766   2.258   2.471   4.887
 2623SOL     OW 8767   3.299   0.361   6.150
 2623SOL    HW1 8768   3.256   0.450   6.163
 2623SOL    HW2 8769   3.294   0.308   6.235
 2624SOL     OW 8770   6.015   2.123   4.128
 2624SOL    HW1 8771   6.026   2.212   4.084
 2624SOL    HW2 8772   5.917   2.101   4.135
 2625SOL     OW 8773   3.099   0.336   5.955
 2625SOL    HW1 8774   3.170   0.345   6.025
 2625SOL    HW2 8775   3.099   0.418   5.897
 2626SOL     OW 8776   1.376   6.915   2.689
 2626SOL    HW1 8777   1.386   6.877   2.781
 2626SOL    HW2 8778   1.399   7.013   2.691
 2627SOL     OW 8779   0.389   6.890   4.918
 2627SOL    HW1 8780   0.390   6.792   4.933
 2627SOL    HW2 8781   0.294   6.923   4.918
 2628SOL     OW 8782   4.367   6.012   0.517
 2628SOL    HW1 8783   4.279   5.971   0.490
 2628SOL    HW2 8784   4.396   5.973   0.604
 2629SOL     OW 8785   2.888   3.732   1.883
 2629SOL    HW1 8786   2.918   3.810   1.938
 2629SOL    HW2 8787   2.828   3.674   1.937
 2630SOL     OW 8788   2.830   2.079   2.757
 2630SOL    HW1 8789   2.855   2.152   2.819
 2630SOL    HW2 8790   2.878   2.090   2.670
 2631SOL     OW 8791   3.924   6.345   4.692
 2631SOL    HW1 8792   3.922   6.286   4.611
 2631SOL    HW2 8793   3.920   6.289   4.774
 2632SOL     OW 8794   4.880   1.345   1.218
 2632SOL    HW1 8795   4.897   1.442   1.234
 2632SOL    HW2 8796   4.874   1.297   1.306
 2633SOL     OW 8797   6.882   2.604   6.613
 2633SOL    HW1 8798   6.819   2.678   6.638
 2633SOL    HW2 8799   6.840   2.548   6.542
 2634SOL     OW 8800   3.183   4.911   0.794
 2634SOL    HW1 8801   3.109   4.893   0.729
 2634SOL    HW2 8802   3.255   4.842   0.783
 2635SOL     OW 8803   5.975   4.770   3.533
 2635SOL    HW1 8804   6.032   4.690   3.513
 2635SOL    HW2 8805   5.927   4.756   3.620
 2636SOL     OW 8806   5.979   5.859   5.628
 2636SOL    HW1 8807   5.902   5.896   5.679
 2636SOL    HW2 8808   6.000   5.919   5.551
 2637SOL     OW 8809   4.746   6.664   2.649
 2637SOL    HW1 8810   4.699   6.736   2.700
 2637SOL    HW2 8811   4.843   6.686   2.643
 2638SOL     OW 8812   4.599   5.710   1.200
 2638SOL    HW1 8813   4.655   5.726   1.282
 2638SOL    HW2 8814   4.611   5.615   1.169
 2639SOL     OW 8815   6.921   6.474   6.715
 2639SOL    HW1 8816   6.851   6.418   6.759
 2639SOL    HW2 8817   6.940   6.438   6.624
 2640SOL     OW 8818   6.530   6.918   6.280
 2640SOL    HW1 8819   6.576   6.981   6.342
 2640SOL    HW2 8820   6.590   6.900   6.202
 2641SOL     OW 8821   6.769   5.692   0.517
 2641SOL    HW1 8822   6.841   5.738   0.569
 2641SOL    HW2 8823   6.722   5.626   0.576
 2642SOL     OW 8824   6.691   0.535   3.756
 2642SOL    HW1 8825   6.658   0.560   3.847
 2642SOL    HW2 8826   6.754   0.605   3.723
 2643SOL     OW 8827   2.164   0.096   2.371
 2643SOL    HW1 8828   2.110   0.085   2.287
 2643SOL    HW2 8829   2.106   0.075   2.450
 2644SOL     OW 8830   6.764   6.117   4.858
 2644SOL    HW1 8831   6.781   6.201   4.909
 2644SOL    HW2 8832   6.686   6.130   4.797
 2645SOL     OW 8833   5.981   6.236   6.262
 2645SOL    HW1 8834   5.970   6.173   6.185
 2645SOL    HW2 8835   5.969   6.186   6.347
 2646SOL     OW 8836   6.225   6.045   6.654
 2646SOL    HW1 8837   6.279   6.019   6.734
 2646SOL    HW2 8838   6.218   5.967   6.592
 2647SOL     OW 8839   3.249   3.452   6.933
 2647SOL    HW1 8840   3.333   3.449   6.879
 2647SOL    HW2 8841   3.195   3.532   6.905
 2648SOL     OW 8842   4.138   1.489   3.450
 2648SOL    HW1 8843   4.047   1.450   3.441
 2648SOL    HW2 8844   4.147   1.567   3.388
 2649SOL     OW 8845   3.005   3.416   5.381
 2649SOL    HW1 8846   3.028   3.330   5.336
 2649SOL    HW2 8847   3.040   3.492   5.327
 2650SOL     OW 8848   0.324   6.515   2.637
 2650SOL    HW1 8849   0.410   6.471   2.663
 2650SOL    HW2 8850   0.277   6.458   2.570
 2651SOL     OW 8851   1.003   0.303   3.368
 2651SOL    HW1 8852   0.981   0.388   3.320
 2651SOL    HW2 8853   0.937   0.289   3.442
 2652SOL     OW 8854   3.090   3.275   2.542
 2652SOL    HW1 8855   3.065   3.237   2.631
 2652SOL    HW2 8856   3.173   3.330   2.552
 2653SOL     OW 8857   7.019   5.774   0.631
 2653SOL    HW1 8858   0.006   5.848   0.565
 2653SOL    HW2 8859   0.057   5.698   0.604
 2654SOL     OW 8860   6.560   1.825   5.759
 2654SOL    HW1 8861   6.561   1.755   5.830
 2654SOL    HW2 8862   6.617   1.902   5.787
 2655SOL     OW 8863   5.401   5.273   4.580
 2655SOL    HW1 8864   5.461   5.320   4.515
 2655SOL    HW2 8865   5.417   5.175   4.575
 2656SOL     OW 8866   6.131   3.429   5.024
 2656SOL    HW1 8867   6.204   3.385   4.971
 2656SOL    HW2 8868   6.094   3.362   5.089
 2657SOL     OW 8869   3.672   2.193   5.941
 2657SOL    HW1 8870   3.734   2.140   5.882
 2657SOL    HW2 8871   3.695   2.176   6.037
 2658SOL     OW 8872   5.967   4.138   5.060
 2658SOL    HW1 8873   5.877   4.116   5.096
 2658SOL    HW2 8874   6.036   4.125   5.131
 2659SOL     OW 8875   6.874   1.596   3.694
 2659SOL    HW1 8876   6.850   1.609   3.598
 2659SOL    HW2 8877   6.913   1.505   3.707
 2660SOL     OW 8878   0.396   2.510   3.050
 2660SOL    HW1 8879   0.438   2.600   3.038
 2660SOL    HW2 8880   0.301   2.521   3.078
 2661SOL     OW 8881   3.335   0.033   3.141
 2661SOL    HW1 8882   3.411   0.061   3.198
 2661SOL    HW2 8883   3.266   0.105   3.139
 2662SOL     OW 8884   3.602   0.857   3.767
 2662SOL    HW1 8885   3.618   0.932   3.832
 2662SOL    HW2 8886   3.567   0.895   3.681
 2663SOL     OW 8887   0.500   4.391   3.169
 2663SOL    HW1 8888   0.534   4.449   3.244
 2663SOL    HW2 8889   0.527   4.296   3.186
 2664SOL     OW 8890   4.427   4.189   1.562
 2664SOL    HW1 8891   4.427   4.192   1.662
 2664SOL    HW2 8892   4.391   4.274   1.526
 2665SOL     OW 8893   4.692   6.694   4.746
 2665SOL    HW1 8894   4.629   6.762   4.785
 2665SOL    HW2 8895   4.648   6.604   4.747
 2666SOL     OW 8896   4.577   6.099   1.639
 2666SOL    HW1 8897   4.541   6.006   1.628
 2666SOL    HW2 8898   4.532   6.143   1.717
 2667SOL     OW 8899   1.881   5.150   3.311
 2667SOL    HW1 8900   1.912   5.112   3.398
 2667SOL    HW2 8901   1.918   5.242   3.300
 2668SOL     OW 8902   6.581   2.527   5.415
 2668SOL    HW1 8903   6.489   2.487   5.406
 2668SOL    HW2 8904   6.647   2.470   5.368
 2669SOL     OW 8905   4.041   5.806   5.028
 2669SOL    HW1 8906   3.959   5.751   5.019
 2669SOL    HW2 8907   4.021   5.887   5.083
 2670SOL     OW 8908   2.782   6.598   4.325
 2670SOL    HW1 8909   2.814   6.504   4.316
 2670SOL    HW2 8910   2.731   6.624   4.244
 2671SOL     OW 8911   3.359   4.106   6.529
 2671SOL    HW1 8912   3.374   4.060   6.441
 2671SOL    HW2 8913   3.405   4.194   6.529
 2672SOL     OW 8914   0.682   4.380   0.095
 2672SOL    HW1 8915   0.625   4.405   0.017
 2672SOL    HW2 8916   0.748   4.453   0.112
 2673SOL     OW 8917   3.466   1.994   3.298
 2673SOL    HW1 8918   3.475   1.980   3.200
 2673SOL    HW2 8919   3.538   2.055   3.330
 2674SOL     OW 8920   6.524   5.582   5.268
 2674SOL    HW1 8921   6.545   5.607   5.363
 2674SOL    HW2 8922   6.436   5.621   5.242
 2675SOL     OW 8923   0.168   4.647   5.898
 2675SOL    HW1 8924   0.261   4.682   5.911
 2675SOL    HW2 8925   0.171   4.559   5.851
 2676SOL     OW 8926   4.655   0.347   1.844
 2676SOL    HW1 8927   4.603   0.425   1.810
 2676SOL    HW2 8928   4.626   0.264   1.797
 2677SOL     OW 8929   2.474   4.467   2.412
 2677SOL    HW1 8930   2.492   4.562   2.438
 2677SOL    HW2 8931   2.481   4.458   2.312
 2678SOL     OW 8932   0.584   6.081   6.778
 2678SOL    HW1 8933   0.675   6.080   6.737
 2678SOL    HW2 8934   0.546   5.988   6.778
 2679SOL     OW 8935   2.507   5.362   1.914
 2679SOL    HW1 8936   2.580   5.364   1.846
 2679SOL    HW2 8937   2.543   5.388   2.004
 2680SOL     OW 8938   0.816   2.724   1.112
 2680SOL    HW1 8939   0.916   2.720   1.108
 2680SOL    HW2 8940   0.787   2.709   1.206
 2681SOL     OW 8941   2.050   1.955   2.153
 2681SOL    HW1 8942   2.014   2.041   2.190
 2681SOL    HW2 8943   1.995   1.927   2.075
 2682SOL     OW 8944   6.552   2.762   4.324
 2682SOL    HW1 8945   6.542   2.860   4.342
 2682SOL    HW2 8946   6.629   2.747   4.262
 2683SOL     OW 8947   1.579   6.900   0.390
 2683SOL    HW1 8948   1.494   6.860   0.423
 2683SOL    HW2 8949   1.657   6.849   0.427
 2684SOL     OW 8950   2.220   5.309   2.669
 2684SOL    HW1 8951   2.147   5.374   2.691
 2684SOL    HW2 8952   2.257   5.270   2.754
 2685SOL     OW 8953   5.287   5.467   5.666
 2685SOL    HW1 8954   5.235   5.540   5.711
 2685SOL    HW2 8955   5.332   5.504   5.585
 2686SOL     OW 8956   1.309   3.108   5.123
 2686SOL    HW1 8957   1.384   3.108   5.188
 2686SOL    HW2 8958   1.330   3.171   5.048
 2687SOL     OW 8959   4.483   4.798   3.292
 2687SOL    HW1 8960   4.435   4.872   3.341
 2687SOL    HW2 8961   4.577   4.792   3.326
 2688SOL     OW 8962   3.651   4.554   5.970
 2688SOL    HW1 8963   3.603   4.514   6.048
 2688SOL    HW2 8964   3.614   4.515   5.885
 2689SOL     OW 8965   6.618   2.696   4.752
 2689SOL    HW1 8966   6.561   2.629   4.799
 2689SOL    HW2 8967   6.602   2.787   4.790
 2690SOL     OW 8968   3.159   3.441   3.584
 2690SOL    HW1 8969   3.120   3.433   3.492
 2690SOL    HW2 8970   3.086   3.445   3.651
 2691SOL     OW 8971   1.514   6.224   1.958
 2691SOL    HW1 8972   1.596   6.252   1.908
 2691SOL    HW2 8973   1.462   6.305   1.984
 2692SOL     OW 8974   0.071   4.996   3.527
 2692SOL    HW1 8975   0.096   5.071   3.465
 2692SOL    HW2 8976   0.072   4.910   3.476
 2693SOL     OW 8977   1.791   3.506   3.072
 2693SOL    HW1 8978   1.859   3.560   3.023
 2693SOL    HW2 8979   1.753   3.436   3.012
 2694SOL     OW 8980   2.079   1.362   2.673
 2694SOL    HW1 8981   2.003   1.410   2.630
 2694SOL    HW2 8982   2.146   1.428   2.706
 2695SOL     OW 8983   4.116   2.245   2.833
 2695SOL    HW1 8984   4.146   2.153   2.858
 2695SOL    HW2 8985   4.064   2.242   2.748
 2696SOL     OW 8986   3.908   3.796   5.557
 2696SOL    HW1 8987   3.988   3.837   5.600
 2696SOL    HW2 8988   3.853   3.868   5.513
 2697SOL     OW 8989   2.517   1.208   4.911
 2697SOL    HW1 8990   2.434   1.157   4.934
 2697SOL    HW2 8991   2.596   1.146   4.917
 2698SOL     OW 8992   1.779   2.244   6.608
 2698SOL    HW1 8993   1.809   2.282   6.521
 2698SOL    HW2 8994   1.685   2.273   6.626
 2699SOL     OW 8995   1.501   5.666   2.959
 2699SOL    HW1 8996   1.520   5.595   2.891
 2699SOL    HW2 8997   1.585   5.714   2.982
 2700SOL     OW 8998   2.050   4.468   3.084
 2700SOL    HW1 8999   2.093   4.432   3.167
 2700SOL    HW2 9000   2.059   4.401   3.010
 2701SOL     OW 9001   3.284   0.538   5.420
 2701SOL    HW1 9002   3.308   0.619   5.473
 2701SOL    HW2 9003   3.194   0.551   5.378
 2702SOL     OW 9004   6.726   6.332   2.624
 2702SOL    HW1 9005   6.690   6.243   2.651
 2702SOL    HW2 9006   6.814   6.347   2.670
 2703SOL     OW 9007   2.102   1.995   2.944
 2703SOL    HW1 9008   2.130   2.060   2.873
 2703SOL    HW2 9009   2.163   2.004   3.023
 2704SOL     OW 9010   1.479   6.070   0.247
 2704SOL    HW1 9011   1.465   6.169   0.242
 2704SOL    HW2 9012   1.392   6.025   0.268
 2705SOL     OW 9013   0.131   3.666   2.655
 2705SOL    HW1 9014   0.082   3.745   2.692
 2705SOL    HW2 9015   0.167   3.611   2.731
 2706SOL     OW 9016   6.628   2.344   3.479
 2706SOL    HW1 9017   6.700   2.275   3.469
 2706SOL    HW2 9018   6.627   2.403   3.398
 2707SOL     OW 9019   2.762   1.514   6.576
 2707SOL    HW1 9020   2.710   1.562   6.646
 2707SOL    HW2 9021   2.794   1.580   6.507
 2708SOL     OW 9022   1.662   4.505   0.244
 2708SOL    HW1 9023   1.703   4.422   0.207
 2708SOL    HW2 9024   1.730   4.555   0.298
 2709SOL     OW 9025   4.771   6.611   1.522
 2709SOL    HW1 9026   4.687   6.614   1.576
 2709SOL    HW2 9027   4.787   6.517   1.491
 2710SOL     OW 9028   6.675   4.425   2.461
 2710SOL    HW1 9029   6.671   4.520   2.429
 2710SOL    HW2 9030   6.583   4.391   2.479
 2711SOL     OW 9031   1.330   6.739   2.368
 2711SOL    HW1 9032   1.262   6.770   2.434
 2711SOL    HW2 9033   1.331   6.801   2.289
 2712SOL     OW 9034   3.414   5.268   2.795
 2712SOL    HW1 9035   3.324   5.237   2.826
 2712SOL    HW2 9036   3.469   5.188   2.769
 2713SOL     OW 9037   1.995   2.568   5.433
 2713SOL    HW1 9038   2.037   2.659   5.435
 2713SOL    HW2 9039   1.900   2.575   5.464
 2714SOL     OW 9040   5.689   0.139   6.584
 2714SOL    HW1 9041   5.744   0.056   6.588
 2714SOL    HW2 9042   5.664   0.168   6.676
 2715SOL     OW 9043   6.127   0.571   0.035
 2715SOL    HW1 9044   6.223   0.541   0.036
 2715SOL    HW2 9045   6.091   0.565   6.963
 2716SOL     OW 9046   6.348   6.745   2.040
 2716SOL    HW1 9047   6.318   6.739   2.135
 2716SOL    HW2 9048   6.401   6.664   2.016
 2717SOL     OW 9049   0.819   0.024   3.398
 2717SOL    HW1 9050   0.725   0.031   3.366
 2717SOL    HW2 9051   0.874   0.095   3.353
 2718SOL     OW 9052   0.646   4.321   3.410
 2718SOL    HW1 9053   0.702   4.380   3.468
 2718SOL    HW2 9054   0.680   4.227   3.415
 2719SOL     OW 9055   4.340   4.747   3.064
 2719SOL    HW1 9056   4.386   4.755   3.152
 2719SOL    HW2 9057   4.367   4.823   3.004
 2720SOL     OW 9058   1.257   6.229   4.280
 2720SOL    HW1 9059   1.201   6.188   4.208
 2720SOL    HW2 9060   1.349   6.246   4.244
 2721SOL     OW 9061   5.142   6.507   3.516
 2721SOL    HW1 9062   5.189   6.473   3.598
 2721SOL    HW2 9063   5.088   6.432   3.476
 2722SOL     OW 9064   1.021   5.890   1.728
 2722SOL    HW1 9065   1.066   5.935   1.805
 2722SOL    HW2 9066   1.050   5.794   1.724
 2723SOL     OW 9067   2.009   1.698   4.506
 2723SOL    HW1 9068   2.050   1.618   4.549
 2723SOL    HW2 9069   2.045   1.781   4.548
 2724SOL     OW 9070   4.256   6.086   6.131
 2724SOL    HW1 9071   4.238   6.139   6.048
 2724SOL    HW2 9072   4.261   5.989   6.107
 2725SOL     OW 9073   2.838   4.843   3.557
 2725SOL    HW1 9074   2.820   4.754   3.514
 2725SOL    HW2 9075   2.769   4.860   3.628
 2726SOL     OW 9076   4.572   6.559   2.441
 2726SOL    HW1 9077   4.501   6.535   2.507
 2726SOL    HW2 9078   4.652   6.596   2.489
 2727SOL     OW 9079   1.967   6.000   4.210
 2727SOL    HW1 9080   1.908   5.987   4.290
 2727SOL    HW2 9081   1.935   6.078   4.157
 2728SOL     OW 9082   2.827   6.807   5.400
 2728SOL    HW1 9083   2.823   6.737   5.328
 2728SOL    HW2 9084   2.769   6.884   5.374
 2729SOL     OW 9085   0.076   4.927   2.987
 2729SOL    HW1 9086   0.068   4.977   2.901
 2729SOL    HW2 9087   0.001   4.952   3.047
 2730SOL     OW 9088   1.379   4.775   0.956
 2730SOL    HW1 9089   1.406   4.772   1.052
 2730SOL    HW2 9090   1.364   4.870   0.928
 2731SOL     OW 9091   2.943   3.867   0.979
 2731SOL    HW1 9092   2.898   3.824   1.057
 2731SOL    HW2 9093   2.991   3.949   1.010
 2732SOL     OW 9094   5.290   3.197   4.426
 2732SOL    HW1 9095   5.261   3.198   4.522
 2732SOL    HW2 9096   5.222   3.242   4.369
 2733SOL     OW 9097   2.160   0.550   6.629
 2733SOL    HW1 9098   2.071   0.510   6.609
 2733SOL    HW2 9099   2.160   0.647   6.605
 2734SOL     OW 9100   2.341   0.314   4.396
 2734SOL    HW1 9101   2.261   0.372   4.382
 2734SOL    HW2 9102   2.351   0.294   4.494
 2735SOL     OW 9103   1.328   5.422   1.393
 2735SOL    HW1 9104   1.290   5.352   1.453
 2735SOL    HW2 9105   1.261   5.496   1.383
 2736SOL     OW 9106   4.265   6.968   6.237
 2736SOL    HW1 9107   4.246   6.878   6.276
 2736SOL    HW2 9108   4.179   7.016   6.219
 2737SOL     OW 9109   4.185   3.495   5.518
 2737SOL    HW1 9110   4.160   3.398   5.524
 2737SOL    HW2 9111   4.168   3.539   5.606
 2738SOL     OW 9112   6.086   3.803   4.205
 2738SOL    HW1 9113   5.988   3.807   4.226
 2738SOL    HW2 9114   6.137   3.854   4.274
 2739SOL     OW 9115   4.746   4.412   0.273
 2739SOL    HW1 9116   4.732   4.499   0.226
 2739SOL    HW2 9117   4.800   4.350   0.215
 2740SOL     OW 9118   6.313   2.698   4.426
 2740SOL    HW1 9119   6.283   2.612   4.384
 2740SOL    HW2 9120   6.401   2.725   4.386
 2741SOL     OW 9121   2.130   3.326   4.669
 2741SOL    HW1 9122   2.128   3.258   4.596
 2741SOL    HW2 9123   2.164   3.284   4.753
 2742SOL     OW 9124   2.686   6.403   5.639
 2742SOL    HW1 9125   2.702   6.305   5.624
 2742SOL    HW2 9126   2.627   6.416   5.718
 2743SOL     OW 9127   5.664   4.593   6.841
 2743SOL    HW1 9128   5.602   4.542   6.901
 2743SOL    HW2 9129   5.758   4.575   6.868
 2744SOL     OW 9130   4.818   6.782   0.332
 2744SOL    HW1 9131   4.908   6.758   0.294
 2744SOL    HW2 9132   4.816   6.879   0.354
 2745SOL     OW 9133   3.117   5.979   2.036
 2745SOL    HW1 9134   3.099   6.068   2.078
 2745SOL    HW2 9135   3.049   5.962   1.965
 2746SOL     OW 9136   0.938   2.253   6.111
 2746SOL    HW1 9137   0.905   2.160   6.126
 2746SOL    HW2 9138   1.033   2.250   6.082
 2747SOL     OW 9139   5.414   6.142   3.683
 2747SOL    HW1 9140   5.321   6.105   3.689
 2747SOL    HW2 9141   5.460   6.129   3.771
 2748SOL     OW 9142   5.521   0.993   4.971
 2748SOL    HW1 9143   5.441   1.015   5.028
 2748SOL    HW2 9144   5.494   0.927   4.901
 2749SOL     OW 9145   5.006   4.899   3.594
 2749SOL    HW1 9146   5.062   4.912   3.676
 2749SOL    HW2 9147   5.066   4.890   3.514
 2750SOL     OW 9148   1.119   6.692   0.436
 2750SOL    HW1 9149   1.164   6.781   0.430
 2750SOL    HW2 9150   1.063   6.678   0.354
 2751SOL     OW 9151   2.056   6.975   6.791
 2751SOL    HW1 9152   1.960   6.993   6.814
 2751SOL    HW2 9153   2.096   0.035   6.747
 2752SOL     OW 9154   0.803   6.720   6.385
 2752SOL    HW1 9155   0.893   6.677   6.388
 2752SOL    HW2 9156   0.744   6.669   6.322
 2753SOL     OW 9157   3.558   5.170   5.349
 2753SOL    HW1 9158   3.596   5.154   5.440
 2753SOL    HW2 9159   3.618   5.231   5.298
 2754SOL     OW 9160   0.934   5.982   4.350
 2754SOL    HW1 9161   0.994   5.903   4.340
 2754SOL    HW2 9162   0.975   6.060   4.301
 2755SOL     OW 9163   4.742   6.115   2.643
 2755SOL    HW1 9164   4.735   6.213   2.660
 2755SOL    HW2 9165   4.818   6.077   2.697
 2756SOL     OW 9166   0.233   2.738   5.133
 2756SOL    HW1 9167   0.217   2.784   5.045
 2756SOL    HW2 9168   0.294   2.660   5.118
 2757SOL     OW 9169   5.431   3.984   6.034
 2757SOL    HW1 9170   5.487   4.058   5.998
 2757SOL    HW2 9171   5.357   3.964   5.970
 2758SOL     OW 9172   0.494   6.566   1.669
 2758SOL    HW1 9173   0.425   6.635   1.691
 2758SOL    HW2 9174   0.533   6.586   1.579
 2759SOL     OW 9175   3.297   3.711   5.188
 2759SOL    HW1 9176   3.307   3.612   5.175
 2759SOL    HW2 9177   3.348   3.759   5.116
 2760SOL     OW 9178   5.554   5.564   2.658
 2760SOL    HW1 9179   5.596   5.573   2.567
 2760SOL    HW2 9180   5.623   5.582   2.728
 2761SOL     OW 9181   1.246   3.407   4.144
 2761SOL    HW1 9182   1.257   3.357   4.058
 2761SOL    HW2 9183   1.173   3.475   4.134
 2762SOL     OW 9184   4.225   1.311   1.520
 2762SOL    HW1 9185   4.284   1.322   1.440
 2762SOL    HW2 9186   4.270   1.348   1.601
 2763SOL     OW 9187   5.843   0.933   4.156
 2763SOL    HW1 9188   5.914   0.982   4.206
 2763SOL    HW2 9189   5.783   0.999   4.111
 2764SOL     OW 9190   0.201   2.803   3.719
 2764SOL    HW1 9191   0.277   2.855   3.682
 2764SOL    HW2 9192   0.131   2.791   3.649
 2765SOL     OW 9193   0.310   6.475   6.427
 2765SOL    HW1 9194   0.353   6.407   6.487
 2765SOL    HW2 9195   0.378   6.509   6.362
 2766SOL     OW 9196   4.728   0.037   0.351
 2766SOL    HW1 9197   4.629   0.039   0.336
 2766SOL    HW2 9198   4.759   0.127   0.383
 2767SOL     OW 9199   0.408   5.603   5.789
 2767SOL    HW1 9200   0.329   5.541   5.789
 2767SOL    HW2 9201   0.384   5.687   5.836
 2768SOL     OW 9202   3.705   6.224   1.675
 2768SOL    HW1 9203   3.681   6.240   1.770
 2768SOL    HW2 9204   3.805   6.214   1.667
 2769SOL     OW 9205   0.705   4.923   5.672
 2769SOL    HW1 9206   0.789   4.977   5.679
 2769SOL    HW2 9207   0.725   4.837   5.625
 2770SOL     OW 9208   2.588   6.653   0.425
 2770SOL    HW1 9209   2.646   6.679   0.348
 2770SOL    HW2 9210   2.539   6.733   0.458
 2771SOL     OW 9211   4.025   6.788   5.232
 2771SOL    HW1 9212   4.030   6.742   5.320
 2771SOL    HW2 9213   4.103   6.762   5.175
 2772SOL     OW 9214   5.287   1.967   3.793
 2772SOL    HW1 9215   5.275   1.884   3.848
 2772SOL    HW2 9216   5.216   1.970   3.722
 2773SOL     OW 9217   5.801   2.387   6.298
 2773SOL    HW1 9218   5.736   2.333   6.352
 2773SOL    HW2 9219   5.807   2.480   6.336
 2774SOL     OW 9220   6.581   0.439   4.060
 2774SOL    HW1 9221   6.602   0.489   4.144
 2774SOL    HW2 9222   6.486   0.454   4.035
 2775SOL     OW 9223   0.176   2.079   4.612
 2775SOL    HW1 9224   0.087   2.072   4.567
 2775SOL    HW2 9225   0.187   2.002   4.675
 2776SOL     OW 9226   4.708   4.005   6.397
 2776SOL    HW1 9227   4.678   4.008   6.492
 2776SOL    HW2 9228   4.663   4.079   6.346
 2777SOL     OW 9229   1.830   2.258   0.166
 2777SOL    HW1 9230   1.796   2.233   0.257
 2777SOL    HW2 9231   1.791   2.346   0.139
 2778SOL     OW 9232   3.335   0.216   5.711
 2778SOL    HW1 9233   3.310   0.237   5.617
 2778SOL    HW2 9234   3.372   0.297   5.755
 2779SOL     OW 9235   5.231   1.033   2.731
 2779SOL    HW1 9236   5.324   1.002   2.712
 2779SOL    HW2 9237   5.186   1.056   2.645
 2780SOL     OW 9238   0.610   1.283   4.739
 2780SOL    HW1 9239   0.624   1.190   4.772
 2780SOL    HW2 9240   0.671   1.346   4.788
 2781SOL     OW 9241   0.496   0.317   3.026
 2781SOL    HW1 9242   0.511   0.250   2.953
 2781SOL    HW2 9243   0.491   0.409   2.987
 2782SOL     OW 9244   5.519   6.777   5.388
 2782SOL    HW1 9245   5.589   6.848   5.389
 2782SOL    HW2 9246   5.429   6.820   5.378
 2783SOL     OW 9247   5.776   2.684   1.399
 2783SOL    HW1 9248   5.851   2.627   1.365
 2783SOL    HW2 9249   5.692   2.630   1.401
 2784SOL     OW 9250   0.402   2.745   2.012
 2784SOL    HW1 9251   0.380   2.653   2.045
 2784SOL    HW2 9252   0.321   2.785   1.970
 2785SOL     OW 9253   5.709   3.866   3.193
 2785SOL    HW1 9254   5.670   3.885   3.283
 2785SOL    HW2 9255   5.795   3.816   3.204
 2786SOL     OW 9256   0.161   5.578   0.525
 2786SOL    HW1 9257   0.235   5.634   0.490
 2786SOL    HW2 9258   0.179   5.482   0.506
 2787SOL     OW 9259   0.673   6.434   5.731
 2787SOL    HW1 9260   0.682   6.386   5.644
 2787SOL    HW2 9261   0.759   6.481   5.753
 2788SOL     OW 9262   3.008   6.478   0.570
 2788SOL    HW1 9263   2.911   6.485   0.594
 2788SOL    HW2 9264   3.058   6.434   0.645
 2789SOL     OW 9265   1.789   1.745   3.796
 2789SOL    HW1 9266   1.877   1.726   3.753
 2789SOL    HW2 9267   1.770   1.843   3.792
 2790SOL     OW 9268   6.712   5.439   1.552
 2790SOL    HW1 9269   6.661   5.363   1.594
 2790SOL    HW2 9270   6.765   5.486   1.623
 2791SOL     OW 9271   0.504   3.155   5.112
 2791SOL    HW1 9272   0.415   3.187   5.079
 2791SOL    HW2 9273   0.571   3.228   5.100
 2792SOL     OW 9274   3.172   2.006   6.093
 2792SOL    HW1 9275   3.168   2.028   5.995
 2792SOL    HW2 9276   3.255   1.953   6.111
 2793SOL     OW 9277   3.880   3.346   6.780
 2793SOL    HW1 9278   3.831   3.433   6.786
 2793SOL    HW2 9279   3.815   3.272   6.763
 2794SOL     OW 9280   1.913   1.888   6.921
 2794SOL    HW1 9281   1.928   1.976   6.967
 2794SOL    HW2 9282   1.823   1.852   6.946
 2795SOL     OW 9283   1.510   6.759   0.860
 2795SOL    HW1 9284   1.427   6.814   0.868
 2795SOL    HW2 9285   1.560   6.762   0.946
 2796SOL     OW 9286   2.667   5.984   0.152
 2796SOL    HW1 9287   2.631   6.070   0.188
 2796SOL    HW2 9288   2.725   5.941   0.221
 2797SOL     OW 9289   4.866   3.868   4.170
 2797SOL    HW1 9290   4.817   3.955   4.180
 2797SOL    HW2 9291   4.879   3.827   4.261
 2798SOL     OW 9292   5.217   2.114   2.105
 2798SOL    HW1 9293   5.136   2.173   2.103
 2798SOL    HW2 9294   5.299   2.171   2.116
 2799SOL     OW 9295   3.412   6.194   5.353
 2799SOL    HW1 9296   3.435   6.110   5.402
 2799SOL    HW2 9297   3.484   6.262   5.367
 2800SOL     OW 9298   5.269   1.339   0.150
 2800SOL    HW1 9299   5.270   1.242   0.172
 2800SOL    HW2 9300   5.196   1.384   0.201
 2801SOL     OW 9301   0.402   4.556   3.831
 2801SOL    HW1 9302   0.329   4.510   3.780
 2801SOL    HW2 9303   0.384   4.550   3.929
 2802SOL     OW 9304   1.190   4.989   4.720
 2802SOL    HW1 9305   1.232   4.898   4.732
 2802SOL    HW2 9306   1.156   4.998   4.626
 2803SOL     OW 9307   3.285   2.279   6.576
 2803SOL    HW1 9308   3.339   2.296   6.493
 2803SOL    HW2 9309   3.322   2.334   6.651
 2804SOL     OW 9310   6.675   2.840   4.095
 2804SOL    HW1 9311   6.589   2.890   4.092
 2804SOL    HW2 9312   6.694   2.801   4.004
 2805SOL     OW 9313   4.513   4.537   0.677
 2805SOL    HW1 9314   4.594   4.570   0.629
 2805SOL    HW2 9315   4.541   4.479   0.754
 2806SOL     OW 9316   0.599   3.364   4.644
 2806SOL    HW1 9317   0.511   3.385   4.686
 2806SOL    HW2 9318   0.583   3.332   4.550
 2807SOL     OW 9319   4.660   1.633   3.981
 2807SOL    HW1 9320   4.688   1.537   3.988
 2807SOL    HW2 9321   4.708   1.688   4.049
 2808SOL     OW 9322   1.546   6.129   5.989
 2808SOL    HW1 9323   1.455   6.106   5.955
 2808SOL    HW2 9324   1.568   6.068   6.066
 2809SOL     OW 9325   0.561   5.753   1.103
 2809SOL    HW1 9326   0.477   5.770   1.153
 2809SOL    HW2 9327   0.555   5.794   1.012
 2810SOL     OW 9328   0.624   6.168   2.815
 2810SOL    HW1 9329   0.662   6.089   2.768
 2810SOL    HW2 9330   0.622   6.151   2.914
 2811SOL     OW 9331   0.717   1.074   0.498
 2811SOL    HW1 9332   0.648   1.145   0.489
 2811SOL    HW2 9333   0.786   1.102   0.565
 2812SOL     OW 9334   2.096   1.298   0.996
 2812SOL    HW1 9335   2.038   1.300   0.915
 2812SOL    HW2 9336   2.065   1.226   1.058
 2813SOL     OW 9337   6.723   1.980   1.119
 2813SOL    HW1 9338   6.800   1.950   1.063
 2813SOL    HW2 9339   6.687   2.066   1.083
 2814SOL     OW 9340   2.835   3.869   6.799
 2814SOL    HW1 9341   2.901   3.925   6.747
 2814SOL    HW2 9342   2.801   3.796   6.740
 2815SOL     OW 9343   6.729   5.313   4.626
 2815SOL    HW1 9344   6.688   5.360   4.704
 2815SOL    HW2 9345   6.781   5.379   4.571
 2816SOL     OW 9346   0.999   5.115   4.867
 2816SOL    HW1 9347   0.922   5.146   4.811
 2816SOL    HW2 9348   1.063   5.063   4.810
 2817SOL     OW 9349   2.669   0.769   1.992
 2817SOL    HW1 9350   2.593   0.720   1.948
 2817SOL    HW2 9351   2.704   0.839   1.928
 2818SOL     OW 9352   1.722   1.078   0.598
 2818SOL    HW1 9353   1.786   1.150   0.572
 2818SOL    HW2 9354   1.763   0.989   0.578
 2819SOL     OW 9355   6.703   0.754   6.487
 2819SOL    HW1 9356   6.694   0.674   6.545
 2819SOL    HW2 9357   6.690   0.728   6.391
 2820SOL     OW 9358   2.381   1.810   0.256
 2820SOL    HW1 9359   2.332   1.827   0.170
 2820SOL    HW2 9360   2.479   1.803   0.237
 2821SOL     OW 9361   3.339   2.243   6.112
 2821SOL    HW1 9362   3.366   2.177   6.042
 2821SOL    HW2 9363   3.268   2.203   6.170
 2822SOL     OW 9364   4.335   2.890   1.115
 2822SOL    HW1 9365   4.415   2.838   1.145
 2822SOL    HW2 9366   4.256   2.829   1.106
 2823SOL     OW 9367   5.992   3.518   2.160
 2823SOL    HW1 9368   5.944   3.564   2.234
 2823SOL    HW2 9369   6.065   3.462   2.198
 2824SOL     OW 9370   0.699   4.664   5.557
 2824SOL    HW1 9371   0.770   4.598   5.579
 2824SOL    HW2 9372   0.679   4.659   5.459
 2825SOL     OW 9373   5.503   1.926   5.905
 2825SOL    HW1 9374   5.447   1.944   5.823
 2825SOL    HW2 9375   5.522   1.829   5.912
 2826SOL     OW 9376   2.514   3.310   6.979
 2826SOL    HW1 9377   2.469   3.278   0.041
 2826SOL    HW2 9378   2.610   3.331   6.999
 2827SOL     OW 9379   6.536   1.743   6.794
 2827SOL    HW1 9380   6.494   1.797   6.721
 2827SOL    HW2 9381   6.472   1.675   6.827
 2828SOL     OW 9382   1.673   4.021   0.580
 2828SOL    HW1 9383   1.740   4.084   0.540
 2828SOL    HW2 9384   1.604   3.998   0.511
 2829SOL     OW 9385   3.240   4.154   1.699
 2829SOL    HW1 9386   3.152   4.168   1.745
 2829SOL    HW2 9387   3.246   4.059   1.668
 2830SOL     OW 9388   3.082   5.623   4.350
 2830SOL    HW1 9389   3.122   5.639   4.440
 2830SOL    HW2 9390   2.987   5.593   4.360
 2831SOL     OW 9391   6.682   1.520   1.866
 2831SOL    HW1 9392   6.613   1.515   1.794
 2831SOL    HW2 9393   6.735   1.435   1.867
 2832SOL     OW 9394   1.235   3.942   1.727
 2832SOL    HW1 9395   1.313   3.903   1.776
 2832SOL    HW2 9396   1.160   3.876   1.726
 2833SOL     OW 9397   6.590   3.291   3.718
 2833SOL    HW1 9398   6.657   3.361   3.695
 2833SOL    HW2 9399   6.636   3.202   3.724
 2834SOL     OW 9400   3.253   0.428   4.455
 2834SOL    HW1 9401   3.333   0.446   4.398
 2834SOL    HW2 9402   3.244   0.499   4.525
 2835SOL     OW 9403   6.966   1.060   7.009
 2835SOL    HW1 9404   0.029   1.019   0.024
 2835SOL    HW2 9405   6.887   1.012   0.026
 2836SOL     OW 9406   2.928   5.838   1.606
 2836SOL    HW1 9407   2.905   5.758   1.549
 2836SOL    HW2 9408   2.863   5.911   1.588
 2837SOL     OW 9409   5.812   3.676   2.335
 2837SOL    HW1 9410   5.779   3.705   2.425
 2837SOL    HW2 9411   5.737   3.636   2.284
 2838SOL     OW 9412   6.961   3.720   5.748
 2838SOL    HW1 9413   6.986   3.693   5.655
 2838SOL    HW2 9414   6.878   3.672   5.776
 2839SOL     OW 9415   5.929   2.820   5.829
 2839SOL    HW1 9416   5.932   2.918   5.850
 2839SOL    HW2 9417   5.845   2.781   5.866
 2840SOL     OW 9418   5.868   6.648   5.216
 2840SOL    HW1 9419   5.877   6.549   5.205
 2840SOL    HW2 9420   5.957   6.691   5.201
 2841SOL     OW 9421   5.672   3.734   2.845
 2841SOL    HW1 9422   5.707   3.642   2.864
 2841SOL    HW2 9423   5.612   3.762   2.920
 2842SOL     OW 9424   0.632   0.149   3.866
 2842SOL    HW1 9425   0.590   0.061   3.890
 2842SOL    HW2 9426   0.704   0.133   3.798
 2843SOL     OW 9427   1.505   2.961   4.779
 2843SOL    HW1 9428   1.562   2.983   4.858
 2843SOL    HW2 9429   1.416   2.928   4.810
 2844SOL     OW 9430   5.338   4.144   0.416
 2844SOL    HW1 9431   5.433   4.113   0.416
 2844SOL    HW2 9432   5.304   4.147   0.322
 2845SOL     OW 9433   3.927   1.687   1.228
 2845SOL    HW1 9434   3.835   1.700   1.191
 2845SOL    HW2 9435   3.969   1.608   1.185
 2846SOL     OW 9436   4.690   6.769   6.706
 2846SOL    HW1 9437   4.703   6.692   6.643
 2846SOL    HW2 9438   4.601   6.761   6.750
 2847SOL     OW 9439   5.302   4.741   2.185
 2847SOL    HW1 9440   5.310   4.780   2.276
 2847SOL    HW2 9441   5.381   4.767   2.130
 2848SOL     OW 9442   0.635   3.508   7.015
 2848SOL    HW1 9443   0.681   3.596   7.018
 2848SOL    HW2 9444   0.594   3.495   6.925
 2849SOL     OW 9445   5.659   0.724   1.727
 2849SOL    HW1 9446   5.665   0.636   1.775
 2849SOL    HW2 9447   5.611   0.711   1.640
 2850SOL     OW 9448   0.676   1.178   1.132
 2850SOL    HW1 9449   0.663   1.184   1.033
 2850SOL    HW2 9450   0.671   1.270   1.172
 2851SOL     OW 9451   3.334   3.462   1.702
 2851SOL    HW1 9452   3.291   3.551   1.696
 2851SOL    HW2 9453   3.421   3.470   1.751
 2852SOL     OW 9454   0.162   5.590   5.336
 2852SOL    HW1 9455   0.125   5.608   5.428
 2852SOL    HW2 9456   0.248   5.640   5.324
 2853SOL     OW 9457   0.601   4.685   5.289
 2853SOL    HW1 9458   0.553   4.602   5.318
 2853SOL    HW2 9459   0.544   4.765   5.309
 2854SOL     OW 9460   3.159   0.240   6.877
 2854SOL    HW1 9461   3.092   0.166   6.885
 2854SOL    HW2 9462   3.112   0.325   6.854
 2855SOL     OW 9463   2.067   2.056   4.272
 2855SOL    HW1 9464   2.021   2.070   4.184
 2855SOL    HW2 9465   2.148   2.114   4.277
 2856SOL     OW 9466   1.233   5.833   4.822
 2856SOL    HW1 9467   1.166   5.820   4.895
 2856SOL    HW2 9468   1.325   5.833   4.861
 2857SOL     OW 9469   0.024   4.403   0.500
 2857SOL    HW1 9470   0.081   4.354   0.434
 2857SOL    HW2 9471   0.036   4.501   0.488
 2858SOL     OW 9472   5.419   4.621   3.524
 2858SOL    HW1 9473   5.460   4.576   3.603
 2858SOL    HW2 9474   5.380   4.552   3.463
 2859SOL     OW 9475   6.191   4.961   1.955
 2859SOL    HW1 9476   6.225   4.960   2.049
 2859SOL    HW2 9477   6.135   5.043   1.941
 2860SOL     OW 9478   1.354   6.469   3.572
 2860SOL    HW1 9479   1.393   6.387   3.613
 2860SOL    HW2 9480   1.387   6.550   3.621
 2861SOL     OW 9481   5.252   3.958   5.327
 2861SOL    HW1 9482   5.219   4.049   5.351
 2861SOL    HW2 9483   5.231   3.939   5.231
 2862SOL     OW 9484   4.440   0.919   6.895
 2862SOL    HW1 9485   4.424   0.916   6.797
 2862SOL    HW2 9486   4.521   0.864   6.918
 2863SOL     OW 9487   5.607   1.682   5.934
 2863SOL    HW1 9488   5.705   1.666   5.924
 2863SOL    HW2 9489   5.560   1.595   5.951
 2864SOL     OW 9490   4.427   4.323   1.228
 2864SOL    HW1 9491   4.497   4.252   1.243
 2864SOL    HW2 9492   4.362   4.292   1.159
 2865SOL     OW 9493   5.450   5.141   5.898
 2865SOL    HW1 9494   5.473   5.177   5.988
 2865SOL    HW2 9495   5.352   5.153   5.882
 2866SOL     OW 9496   3.971   5.663   0.874
 2866SOL    HW1 9497   3.899   5.692   0.811
 2866SOL    HW2 9498   4.048   5.627   0.822
 2867SOL     OW 9499   0.279   6.178   2.824
 2867SOL    HW1 9500   0.313   6.232   2.747
 2867SOL    HW2 9501   0.179   6.185   2.828
 2868SOL     OW 9502   6.884   6.792   5.368
 2868SOL    HW1 9503   6.930   6.714   5.325
 2868SOL    HW2 9504   6.951   6.848   5.417
 2869SOL     OW 9505   5.429   5.000   5.186
 2869SOL    HW1 9506   5.445   5.099   5.181
 2869SOL    HW2 9507   5.515   4.954   5.209
 2870SOL     OW 9508   0.656   1.193   1.454
 2870SOL    HW1 9509   0.558   1.199   1.433
 2870SOL    HW2 9510   0.680   1.098   1.475
 2871SOL     OW 9511   5.052   1.644   3.687
 2871SOL    HW1 9512   5.018   1.575   3.751
 2871SOL    HW2 9513   5.069   1.602   3.598
 2872SOL     OW 9514   3.588   1.986   2.737
 2872SOL    HW1 9515   3.665   1.964   2.677
 2872SOL    HW2 9516   3.506   1.999   2.682
 2873SOL     OW 9517   0.793   6.748   2.725
 2873SOL    HW1 9518   0.807   6.808   2.647
 2873SOL    HW2 9519   0.772   6.655   2.693
 2874SOL     OW 9520   2.100   1.139   2.968
 2874SOL    HW1 9521   2.080   1.233   2.996
 2874SOL    HW2 9522   2.140   1.089   3.045
 2875SOL     OW 9523   2.256   0.347   2.729
 2875SOL    HW1 9524   2.290   0.412   2.797
 2875SOL    HW2 9525   2.333   0.294   2.693
 2876SOL     OW 9526   0.637   6.744   0.792
 2876SOL    HW1 9527   0.701   6.668   0.806
 2876SOL    HW2 9528   0.649   6.812   0.864
 2877SOL     OW 9529   1.728   3.554   5.940
 2877SOL    HW1 9530   1.754   3.510   6.026
 2877SOL    HW2 9531   1.783   3.515   5.865
 2878SOL     OW 9532   3.235   2.966   4.538
 2878SOL    HW1 9533   3.181   2.960   4.623
 2878SOL    HW2 9534   3.331   2.947   4.559
 2879SOL     OW 9535   5.540   5.472   0.178
 2879SOL    HW1 9536   5.444   5.457   0.154
 2879SOL    HW2 9537   5.564   5.568   0.162
 2880SOL     OW 9538   1.516   1.786   3.032
 2880SOL    HW1 9539   1.616   1.783   3.031
 2880SOL    HW2 9540   1.480   1.693   3.025
 2881SOL     OW 9541   5.102   5.156   0.190
 2881SOL    HW1 9542   5.125   5.128   0.097
 2881SOL    HW2 9543   5.120   5.080   0.253
 2882SOL     OW 9544   4.103   6.476   6.640
 2882SOL    HW1 9545   4.201   6.487   6.621
 2882SOL    HW2 9546   4.053   6.473   6.553
 2883SOL     OW 9547   5.520   6.340   3.304
 2883SOL    HW1 9548   5.437   6.369   3.257
 2883SOL    HW2 9549   5.556   6.416   3.358
 2884SOL     OW 9550   6.046   5.577   3.395
 2884SOL    HW1 9551   6.003   5.630   3.467
 2884SOL    HW2 9552   6.123   5.526   3.433
 2885SOL     OW 9553   0.403   3.464   3.562
 2885SOL    HW1 9554   0.500   3.485   3.552
 2885SOL    HW2 9555   0.368   3.425   3.477
 2886SOL     OW 9556   2.273   4.338   4.660
 2886SOL    HW1 9557   2.214   4.416   4.680
 2886SOL    HW2 9558   2.222   4.253   4.674
 2887SOL     OW 9559   0.106   5.323   2.715
 2887SOL    HW1 9560   0.141   5.231   2.733
 2887SOL    HW2 9561   0.060   5.358   2.796
 2888SOL     OW 9562   4.698   6.477   6.609
 2888SOL    HW1 9563   4.689   6.378   6.605
 2888SOL    HW2 9564   4.672   6.517   6.521
 2889SOL     OW 9565   3.875   5.917   4.570
 2889SOL    HW1 9566   3.898   6.014   4.574
 2889SOL    HW2 9567   3.805   5.902   4.500
 2890SOL     OW 9568   1.737   2.495   0.068
 2890SOL    HW1 9569   1.648   2.487   0.022
 2890SOL    HW2 9570   1.793   2.563   0.020
 2891SOL     OW 9571   1.038   1.512   5.242
 2891SOL    HW1 9572   0.955   1.567   5.240
 2891SOL    HW2 9573   1.118   1.572   5.235
 2892SOL     OW 9574   5.402   4.287   2.086
 2892SOL    HW1 9575   5.496   4.320   2.096
 2892SOL    HW2 9576   5.339   4.362   2.107
 2893SOL     OW 9577   6.767   5.018   5.221
 2893SOL    HW1 9578   6.737   5.029   5.315
 2893SOL    HW2 9579   6.721   5.085   5.163
 2894SOL     OW 9580   1.616   5.478   1.018
 2894SOL    HW1 9581   1.528   5.437   1.041
 2894SOL    HW2 9582   1.659   5.514   1.101
 2895SOL     OW 9583   4.754   6.792   6.250
 2895SOL    HW1 9584   4.715   6.859   6.313
 2895SOL    HW2 9585   4.710   6.801   6.161
 2896SOL     OW 9586   6.207   0.489   5.474
 2896SOL    HW1 9587   6.115   0.453   5.489
 2896SOL    HW2 9588   6.269   0.451   5.543
 2897SOL     OW 9589   3.697   5.832   3.352
 2897SOL    HW1 9590   3.661   5.763   3.289
 2897SOL    HW2 9591   3.661   5.922   3.327
 2898SOL     OW 9592   5.315   2.766   3.286
 2898SOL    HW1 9593   5.400   2.719   3.309
 2898SOL    HW2 9594   5.239   2.702   3.289
 2899SOL     OW 9595   6.164   2.550   0.937
 2899SOL    HW1 9596   6.092   2.548   0.868
 2899SOL    HW2 9597   6.253   2.566   0.894
 2900SOL     OW 9598   2.512   2.859   5.619
 2900SOL    HW1 9599   2.523   2.950   5.660
 2900SOL    HW2 9600   2.547   2.790   5.682
 2901SOL     OW 9601   1.574   3.879   1.478
 2901SOL    HW1 9602   1.557   3.788   1.440
 2901SOL    HW2 9603   1.495   3.938   1.460
 2902SOL     OW 9604   5.571   6.121   3.442
 2902SOL    HW1 9605   5.535   6.199   3.390
 2902SOL    HW2 9606   5.531   6.122   3.534
 2903SOL     OW 9607   0.442   5.278   0.939
 2903SOL    HW1 9608   0.484   5.368   0.950
 2903SOL    HW2 9609   0.492   5.226   0.869
 2904SOL     OW 9610   3.052   4.830   4.968
 2904SOL    HW1 9611   3.099   4.773   4.900
 2904SOL    HW2 9612   2.973   4.781   5.004
 2905SOL     OW 9613   1.016   5.085   1.429
 2905SOL    HW1 9614   0.989   4.992   1.454
 2905SOL    HW2 9615   0.979   5.149   1.496
 2906SOL     OW 9616   0.031   6.304   5.923
 2906SOL    HW1 9617   7.011   6.279   6.010
 2906SOL    HW2 9618   6.985   6.291   5.849
 2907SOL     OW 9619   6.922   0.981   5.742
 2907SOL    HW1 9620   6.866   1.015   5.667
 2907SOL    HW2 9621   7.019   0.996   5.721
 2908SOL     OW 9622   4.009   6.490   4.102
 2908SOL    HW1 9623   3.985   6.467   4.007
 2908SOL    HW2 9624   3.927   6.484   4.159
 2909SOL     OW 9625   0.186   6.918   1.598
 2909SOL    HW1 9626   0.253   6.934   1.526
 2909SOL    HW2 9627   0.127   6.841   1.573
 2910SOL     OW 9628   1.214   0.883   4.426
 2910SOL    HW1 9629   1.185   0.835   4.343
 2910SOL    HW2 9630   1.137   0.935   4.463
 2911SOL     OW 9631   6.680   4.218   4.115
 2911SOL    HW1 9632   6.650   4.293   4.173
 2911SOL    HW2 9633   6.693   4.136   4.170
 2912SOL     OW 9634   0.738   1.386   2.149
 2912SOL    HW1 9635   0.732   1.475   2.195
 2912SOL    HW2 9636   0.744   1.400   2.050
 2913SOL     OW 9637   1.011   6.600   4.121
 2913SOL    HW1 9638   1.079   6.594   4.048
 2913SOL    HW2 9639   0.963   6.687   4.116
 2914SOL     OW 9640   3.650   4.244   1.014
 2914SOL    HW1 9641   3.649   4.250   1.114
 2914SOL    HW2 9642   3.611   4.156   0.986
 2915SOL     OW 9643   2.032   0.860   4.169
 2915SOL    HW1 9644   2.006   0.797   4.243
 2915SOL    HW2 9645   2.058   0.948   4.208
 2916SOL     OW 9646   0.487   5.392   6.502
 2916SOL    HW1 9647   0.578   5.426   6.523
 2916SOL    HW2 9648   0.454   5.433   6.417
 2917SOL     OW 9649   2.228   0.393   3.259
 2917SOL    HW1 9650   2.132   0.394   3.232
 2917SOL    HW2 9651   2.251   0.478   3.306
 2918SOL     OW 9652   5.118   2.471   1.230
 2918SOL    HW1 9653   5.051   2.412   1.185
 2918SOL    HW2 9654   5.074   2.517   1.308
 2919SOL     OW 9655   1.063   6.585   4.860
 2919SOL    HW1 9656   1.142   6.574   4.799
 2919SOL    HW2 9657   0.988   6.527   4.828
 2920SOL     OW 9658   2.747   2.573   1.704
 2920SOL    HW1 9659   2.809   2.630   1.650
 2920SOL    HW2 9660   2.796   2.536   1.783
 2921SOL     OW 9661   0.563   5.726   3.409
 2921SOL    HW1 9662   0.658   5.749   3.429
 2921SOL    HW2 9663   0.503   5.770   3.475
 2922SOL     OW 9664   3.873   4.958   3.579
 2922SOL    HW1 9665   3.846   4.909   3.496
 2922SOL    HW2 9666   3.802   5.022   3.605
 2923SOL     OW 9667   1.784   5.564   4.570
 2923SOL    HW1 9668   1.829   5.645   4.532
 2923SOL    HW2 9669   1.837   5.483   4.548
 2924SOL     OW 9670   5.263   1.553   6.426
 2924SOL    HW1 9671   5.298   1.644   6.448
 2924SOL    HW2 9672   5.338   1.486   6.431
 2925SOL     OW 9673   5.551   6.914   4.848
 2925SOL    HW1 9674   5.597   6.919   4.936
 2925SOL    HW2 9675   5.554   7.004   4.803
 2926SOL     OW 9676   6.078   3.073   4.880
 2926SOL    HW1 9677   6.136   3.022   4.944
 2926SOL    HW2 9678   6.010   3.011   4.840
 2927SOL     OW 9679   1.218   2.137   2.301
 2927SOL    HW1 9680   1.305   2.166   2.263
 2927SOL    HW2 9681   1.156   2.112   2.227
 2928SOL     OW 9682   5.280   4.368   0.579
 2928SOL    HW1 9683   5.313   4.298   0.515
 2928SOL    HW2 9684   5.330   4.360   0.665
 2929SOL     OW 9685   2.086   1.905   3.248
 2929SOL    HW1 9686   2.180   1.872   3.247
 2929SOL    HW2 9687   2.029   1.841   3.299
 2930SOL     OW 9688   0.709   3.245   4.292
 2930SOL    HW1 9689   0.745   3.275   4.381
 2930SOL    HW2 9690   0.674   3.324   4.242
 2931SOL     OW 9691   6.295   4.454   6.632
 2931SOL    HW1 9692   6.283   4.355   6.642
 2931SOL    HW2 9693   6.391   4.477   6.649
 2932SOL     OW 9694   6.360   6.063   0.954
 2932SOL    HW1 9695   6.379   6.057   1.052
 2932SOL    HW2 9696   6.407   5.989   0.906
 2933SOL     OW 9697   1.010   6.952   0.127
 2933SOL    HW1 9698   1.082   6.980   0.191
 2933SOL    HW2 9699   1.039   6.974   0.033
 2934SOL     OW 9700   5.650   5.114   1.866
 2934SOL    HW1 9701   5.703   5.032   1.886
 2934SOL    HW2 9702   5.566   5.088   1.817
 2935SOL     OW 9703   0.883   3.930   5.558
 2935SOL    HW1 9704   0.834   3.853   5.516
 2935SOL    HW2 9705   0.922   3.902   5.645
 2936SOL     OW 9706   4.284   6.330   1.982
 2936SOL    HW1 9707   4.215   6.366   2.044
 2936SOL    HW2 9708   4.304   6.234   2.005
 2937SOL     OW 9709   6.310   3.766   3.124
 2937SOL    HW1 9710   6.285   3.863   3.135
 2937SOL    HW2 9711   6.238   3.720   3.072
 2938SOL     OW 9712   0.404   5.365   0.537
 2938SOL    HW1 9713   0.345   5.360   0.617
 2938SOL    HW2 9714   0.423   5.273   0.503
 2939SOL     OW 9715   6.392   6.609   1.587
 2939SOL    HW1 9716   6.385   6.611   1.487
 2939SOL    HW2 9717   6.434   6.523   1.616
 2940SOL     OW 9718   4.532   6.719   3.964
 2940SOL    HW1 9719   4.616   6.732   4.016
 2940SOL    HW2 9720   4.503   6.806   3.924
 2941SOL     OW 9721   2.813   4.942   2.626
 2941SOL    HW1 9722   2.747   5.018   2.637
 2941SOL    HW2 9723   2.766   4.855   2.640
 2942SOL     OW 9724   3.467   2.335   1.662
 2942SOL    HW1 9725   3.462   2.388   1.577
 2942SOL    HW2 9726   3.556   2.352   1.706
 2943SOL     OW 9727   0.391   3.710   3.759
 2943SOL    HW1 9728   0.397   3.618   3.719
 2943SOL    HW2 9729   0.295   3.738   3.762
 2944SOL     OW 9730   0.724   6.122   3.388
 2944SOL    HW1 9731   0.766   6.067   3.316
 2944SOL    HW2 9732   0.749   6.086   3.477
 2945SOL     OW 9733   5.968   3.570   0.894
 2945SOL    HW1 9734   5.884   3.593   0.846
 2945SOL    HW2 9735   6.004   3.652   0.939
 2946SOL     OW 9736   3.375   3.490   4.245
 2946SOL    HW1 9737   3.350   3.510   4.150
 2946SOL    HW2 9738   3.362   3.572   4.300
 2947SOL     OW 9739   6.202   5.507   6.743
 2947SOL    HW1 9740   6.262   5.508   6.823
 2947SOL    HW2 9741   6.108   5.525   6.772
 2948SOL     OW 9742   6.392   4.012   1.120
 2948SOL    HW1 9743   6.467   3.971   1.173
 2948SOL    HW2 9744   6.379   3.960   1.036
 2949SOL     OW 9745   1.472   6.389   1.177
 2949SOL    HW1 9746   1.443   6.336   1.096
 2949SOL    HW2 9747   1.437   6.483   1.169
 2950SOL     OW 9748   5.740   5.190   2.570
 2950SOL    HW1 9749   5.836   5.219   2.572
 2950SOL    HW2 9750   5.696   5.218   2.655
 2951SOL     OW 9751   0.771   2.163   1.372
 2951SOL    HW1 9752   0.721   2.248   1.359
 2951SOL    HW2 9753   0.723   2.105   1.437
 2952SOL     OW 9754   0.240   1.464   3.953
 2952SOL    HW1 9755   0.199   1.553   3.969
 2952SOL    HW2 9756   0.339   1.470   3.966
 2953SOL     OW 9757   1.445   6.072   2.990
 2953SOL    HW1 9758   1.401   6.155   3.025
 2953SOL    HW2 9759   1.383   5.995   3.001
 2954SOL     OW 9760   0.790   4.207   6.242
 2954SOL    HW1 9761   0.822   4.135   6.304
 2954SOL    HW2 9762   0.834   4.294   6.267
 2955SOL     OW 9763   1.787   4.597   6.529
 2955SOL    HW1 9764   1.858   4.652   6.574
 2955SOL    HW2 9765   1.702   4.651   6.524
 2956SOL     OW 9766   5.541   3.961   4.648
 2956SOL    HW1 9767   5.583   3.885   4.697
 2956SOL    HW2 9768   5.598   4.043   4.657
 2957SOL     OW 9769   1.554   5.335   2.430
 2957SOL    HW1 9770   1.579   5.364   2.338
 2957SOL    HW2 9771   1.631   5.288   2.472
 2958SOL     OW 9772   1.713   4.699   1.586
 2958SOL    HW1 9773   1.768   4.692   1.504
 2958SOL    HW2 9774   1.622   4.660   1.568
 2959SOL     OW 9775   0.057   4.834   4.198
 2959SOL    HW1 9776   0.011   4.747   4.183
 2959SOL    HW2 9777   0.087   4.871   4.111
 2960SOL     OW 9778   4.989   6.546   1.264
 2960SOL    HW1 9779   4.903   6.580   1.227
 2960SOL    HW2 9780   4.974   6.509   1.356
 2961SOL     OW 9781   5.806   2.546   1.708
 2961SOL    HW1 9782   5.824   2.645   1.709
 2961SOL    HW2 9783   5.735   2.525   1.775
 2962SOL     OW 9784   0.091   0.149   3.836
 2962SOL    HW1 9785   0.166   0.131   3.773
 2962SOL    HW2 9786   0.035   0.067   3.845
 2963SOL     OW 9787   2.015   1.340   5.560
 2963SOL    HW1 9788   1.939   1.393   5.522
 2963SOL    HW2 9789   2.032   1.370   5.654
 2964SOL     OW 9790   1.776   0.170   6.509
 2964SOL    HW1 9791   1.681   0.141   6.518
 2964SOL    HW2 9792   1.815   0.130   6.427
 2965SOL     OW 9793   5.900   0.519   6.331
 2965SOL    HW1 9794   5.926   0.423   6.327
 2965SOL    HW2 9795   5.928   0.557   6.419
 2966SOL     OW 9796   3.859   5.815   3.056
 2966SOL    HW1 9797   3.848   5.732   3.110
 2966SOL    HW2 9798   3.772   5.838   3.012
 2967SOL     OW 9799   5.675   6.826   5.125
 2967SOL    HW1 9800   5.624   6.857   5.205
 2967SOL    HW2 9801   5.754   6.773   5.155
 2968SOL     OW 9802   1.384   4.340   1.466
 2968SOL    HW1 9803   1.335   4.273   1.411
 2968SOL    HW2 9804   1.461   4.376   1.413
 2969SOL     OW 9805   4.634   2.672   4.566
 2969SOL    HW1 9806   4.666   2.671   4.472
 2969SOL    HW2 9807   4.576   2.593   4.583
 2970SOL     OW 9808   2.440   2.386   5.708
 2970SOL    HW1 9809   2.347   2.350   5.712
 2970SOL    HW2 9810   2.487   2.365   5.794
 2971SOL     OW 9811   4.370   3.478   6.595
 2971SOL    HW1 9812   4.378   3.451   6.691
 2971SOL    HW2 9813   4.425   3.560   6.579
 2972SOL     OW 9814   0.701   5.914   6.381
 2972SOL    HW1 9815   0.613   5.901   6.428
 2972SOL    HW2 9816   0.692   5.886   6.286
 2973SOL     OW 9817   5.298   0.763   4.174
 2973SOL    HW1 9818   5.372   0.701   4.147
 2973SOL    HW2 9819   5.305   0.848   4.121
 2974SOL     OW 9820   5.661   6.186   2.453
 2974SOL    HW1 9821   5.583   6.247   2.441
 2974SOL    HW2 9822   5.732   6.209   2.386
 2975SOL     OW 9823   0.044   3.384   4.616
 2975SOL    HW1 9824   0.073   3.438   4.538
 2975SOL    HW2 9825   0.098   3.300   4.621
 2976SOL     OW 9826   3.801   0.269   1.690
 2976SOL    HW1 9827   3.723   0.232   1.741
 2976SOL    HW2 9828   3.801   0.369   1.697
 2977SOL     OW 9829   1.664   1.664   2.097
 2977SOL    HW1 9830   1.762   1.666   2.078
 2977SOL    HW2 9831   1.648   1.643   2.193
 2978SOL     OW 9832   3.784   5.978   0.524
 2978SOL    HW1 9833   3.688   5.987   0.500
 2978SOL    HW2 9834   3.836   6.054   0.485
 2979SOL     OW 9835   2.483   1.196   5.769
 2979SOL    HW1 9836   2.513   1.232   5.680
 2979SOL    HW2 9837   2.554   1.214   5.837
 2980SOL     OW 9838   3.505   2.850   3.910
 2980SOL    HW1 9839   3.454   2.907   3.974
 2980SOL    HW2 9840   3.598   2.838   3.943
 2981SOL     OW 9841   3.192   2.266   1.719
 2981SOL    HW1 9842   3.292   2.279   1.721
 2981SOL    HW2 9843   3.149   2.348   1.681
 2982SOL     OW 9844   1.688   0.996   1.058
 2982SOL    HW1 9845   1.675   1.085   1.102
 2982SOL    HW2 9846   1.684   0.924   1.128
 2983SOL     OW 9847   6.367   2.911   6.570
 2983SOL    HW1 9848   6.269   2.896   6.580
 2983SOL    HW2 9849   6.400   2.866   6.487
 2984SOL     OW 9850   0.483   6.099   1.318
 2984SOL    HW1 9851   0.417   6.024   1.312
 2984SOL    HW2 9852   0.507   6.131   1.227
 2985SOL     OW 9853   6.340   0.333   5.688
 2985SOL    HW1 9854   6.274   0.338   5.763
 2985SOL    HW2 9855   6.431   0.356   5.723
 2986SOL     OW 9856   3.345   3.449   2.585
 2986SOL    HW1 9857   3.323   3.473   2.491
 2986SOL    HW2 9858   3.432   3.399   2.588
 2987SOL     OW 9859   2.259   5.607   4.945
 2987SOL    HW1 9860   2.199   5.534   4.977
 2987SOL    HW2 9861   2.301   5.653   5.023
 2988SOL     OW 9862   0.571   1.361   6.769
 2988SOL    HW1 9863   0.482   1.347   6.727
 2988SOL    HW2 9864   0.584   1.459   6.789
 2989SOL     OW 9865   5.716   3.640   5.483
 2989SOL    HW1 9866   5.755   3.557   5.523
 2989SOL    HW2 9867   5.788   3.708   5.469
 2990SOL     OW 9868   5.010   1.093   5.495
 2990SOL    HW1 9869   4.932   1.033   5.514
 2990SOL    HW2 9870   5.022   1.103   5.396
 2991SOL     OW 9871   6.408   2.830   6.941
 2991SOL    HW1 9872   6.315   2.849   6.910
 2991SOL    HW2 9873   6.473   2.854   6.869
 2992SOL     OW 9874   0.946   3.913   5.258
 2992SOL    HW1 9875   0.910   3.864   5.337
 2992SOL    HW2 9876   0.941   4.011   5.275
 2993SOL     OW 9877   3.342   4.874   0.213
 2993SOL    HW1 9878   3.397   4.949   0.176
 2993SOL    HW2 9879   3.348   4.795   0.152
 2994SOL     OW 9880   2.567   5.043   5.083
 2994SOL    HW1 9881   2.503   5.118   5.098
 2994SOL    HW2 9882   2.627   5.034   5.163
 2995SOL     OW 9883   5.089   0.133   1.640
 2995SOL    HW1 9884   5.131   0.188   1.712
 2995SOL    HW2 9885   5.095   0.036   1.665
 2996SOL     OW 9886   6.916   0.723   4.150
 2996SOL    HW1 9887   6.875   0.757   4.065
 2996SOL    HW2 9888   6.889   0.783   4.226
 2997SOL     OW 9889   4.768   5.830   4.221
 2997SOL    HW1 9890   4.803   5.764   4.288
 2997SOL    HW2 9891   4.703   5.891   4.265
 2998SOL     OW 9892   2.756   0.250   2.104
 2998SOL    HW1 9893   2.658   0.270   2.102
 2998SOL    HW2 9894   2.771   0.158   2.140
 2999SOL     OW 9895   1.431   4.662   0.219
 2999SOL    HW1 9896   1.360   4.632   0.283
 2999SOL    HW2 9897   1.517   4.615   0.240
 3000SOL     OW 9898   2.204   3.906   5.985
 3000SOL    HW1 9899   2.281   3.918   5.921
 3000SOL    HW2 9900   2.141   3.838   5.948
 3001SOL     OW 9901   3.889   0.708   6.529
 3001SOL    HW1 9902   3.867   0.800   6.562
 3001SOL    HW2 9903   3.894   0.709   6.430
 3002SOL     OW 9904   1.036   2.044   2.121
 3002SOL    HW1 9905   1.047   1.944   2.116
 3002SOL    HW2 9906   0.948   2.066   2.162
 3003SOL     OW 9907   0.944   6.087   0.661
 3003SOL    HW1 9908   0.998   6.134   0.592
 3003SOL    HW2 9909   0.990   6.002   0.688
 3004SOL     OW 9910   3.183   6.807   4.150
 3004SOL    HW1 9911   3.115   6.801   4.223
 3004SOL    HW2 9912   3.240   6.888   4.163
 3005SOL     OW 9913   2.416   2.233   0.953
 3005SOL    HW1 9914   2.326   2.202   0.982
 3005SOL    HW2 9915   2.470   2.154   0.922
 3006SOL     OW 9916   5.561   1.335   5.689
 3006SOL    HW1 9917   5.522   1.246   5.715
 3006SOL    HW2 9918   5.547   1.350   5.591
 3007SOL     OW 9919   6.313   5.739   5.919
 3007SOL    HW1 9920   6.384   5.746   5.850
 3007SOL    HW2 9921   6.228   5.708   5.876
 3008SOL     OW 9922   5.235   3.934   5.800
 3008SOL    HW1 9923   5.203   4.026   5.778
 3008SOL    HW2 9924   5.191   3.868   5.740
 3009SOL     OW 9925   5.495   3.170   1.899
 3009SOL    HW1 9926   5.423   3.186   1.966
 3009SOL    HW2 9927   5.492   3.074   1.869
 3010SOL     OW 9928   4.321   4.826   1.795
 3010SOL    HW1 9929   4.339   4.924   1.801
 3010SOL    HW2 9930   4.407   4.776   1.809
 3011SOL     OW 9931   6.107   6.822   0.018
 3011SOL    HW1 9932   6.050   6.849   0.096
 3011SOL    HW2 9933   6.112   6.722   0.013
 3012SOL     OW 9934   2.406   1.377   4.617
 3012SOL    HW1 9935   2.439   1.290   4.580
 3012SOL    HW2 9936   2.344   1.359   4.694
 3013SOL     OW 9937   0.816   5.793   5.143
 3013SOL    HW1 9938   0.756   5.847   5.083
 3013SOL    HW2 9939   0.820   5.836   5.233
 3014SOL     OW 9940   3.760   0.366   0.182
 3014SOL    HW1 9941   3.692   0.430   0.145
 3014SOL    HW2 9942   3.814   0.413   0.252
 3015SOL     OW 9943   2.245   0.052   5.807
 3015SOL    HW1 9944   2.157   0.050   5.855
 3015SOL    HW2 9945   2.317   0.017   5.866
 3016SOL     OW 9946   2.996   1.000   4.116
 3016SOL    HW1 9947   3.082   0.949   4.110
 3016SOL    HW2 9948   3.005   1.086   4.065
 3017SOL     OW 9949   1.261   6.260   6.927
 3017SOL    HW1 9950   1.284   6.354   6.950
 3017SOL    HW2 9951   1.164   6.244   6.942
 3018SOL     OW 9952   2.725   2.344   1.405
 3018SOL    HW1 9953   2.821   2.337   1.432
 3018SOL    HW2 9954   2.672   2.380   1.481
 3019SOL     OW 9955   1.713   0.541   5.256
 3019SOL    HW1 9956   1.710   0.556   5.157
 3019SOL    HW2 9957   1.633   0.488   5.283
 3020SOL     OW 9958   4.926   4.518   6.945
 3020SOL    HW1 9959   4.905   4.612   6.972
 3020SOL    HW2 9960   4.843   4.473   6.912
 3021SOL     OW 9961   4.500   6.343   4.304
 3021SOL    HW1 9962   4.424   6.407   4.303
 3021SOL    HW2 9963   4.580   6.386   4.346
 3022SOL     OW 9964   4.008   6.769   4.039
 3022SOL    HW1 9965   4.105   6.788   4.055
 3022SOL    HW2 9966   3.995   6.671   4.022
 3023SOL     OW 9967   5.383   4.582   5.205
 3023SOL    HW1 9968   5.471   4.630   5.197
 3023SOL    HW2 9969   5.340   4.575   5.115
 3024SOL     OW 9970   6.498   1.371   0.275
 3024SOL    HW1 9971   6.561   1.373   0.197
 3024SOL    HW2 9972   6.464   1.277   0.287
 3025SOL     OW 9973   4.443   5.378   0.952
 3025SOL    HW1 9974   4.401   5.309   1.012
 3025SOL    HW2 9975   4.486   5.332   0.874
 3026SOL     OW 9976   0.378   0.130   2.616
 3026SOL    HW1 9977   0.456   0.093   2.566
 3026SOL    HW2 9978   0.302   0.065   2.613
 3027SOL     OW 9979   4.366   0.017   0.865
 3027SOL    HW1 9980   4.266   0.013   0.871
 3027SOL    HW2 9981   4.406   6.960   0.913
 3028SOL     OW 9982   3.671   3.366   4.670
 3028SOL    HW1 9983   3.573   3.367   4.650
 3028SOL    HW2 9984   3.719   3.421   4.602
 3029SOL     OW 9985   0.228   2.272   5.068
 3029SOL    HW1 9986   0.146   2.247   5.017
 3029SOL    HW2 9987   0.209   2.269   5.166
 3030SOL     OW 9988   0.880   3.074   6.142
 3030SOL    HW1 9989   0.832   3.035   6.064
 3030SOL    HW2 9990   0.972   3.102   6.115
 3031SOL     OW 9991   0.635   4.749   6.702
 3031SOL    HW1 9992   0.620   4.829   6.644
 3031SOL    HW2 9993   0.712   4.696   6.667
 3032SOL     OW 9994   3.343   6.713   3.805
 3032SOL    HW1 9995   3.364   6.807   3.835
 3032SOL    HW2 9996   3.426   6.657   3.809
 3033SOL     OW 9997   2.067   1.077   6.631
 3033SOL    HW1 9998   2.084   1.123   6.544
 3033SOL    HW2 9999   2.002   1.130   6.685
 3034SOL     OW10000   5.571   3.520   3.416
 3034SOL    HW110001   5.576   3.603   3.471
 3034SOL    HW210002   5.515   3.452   3.464
 3035SOL     OW10003   6.847   3.267   6.617
 3035SOL    HW110004   6.919   3.321   6.660
 3035SOL    HW210005   6.864   3.260   6.519
 3036SOL     OW10006   3.311   1.786   6.085
 3036SOL    HW110007   3.334   1.692   6.108
 3036SOL    HW210008   3.339   1.805   5.991
 3037SOL     OW10009   0.466   4.833   6.175
 3037SOL    HW110010   0.467   4.820   6.076
 3037SOL    HW210011   0.561   4.837   6.209
 3038SOL     OW10012   6.135   4.638   5.241
 3038SOL    HW110013   6.117   4.540   5.257
 3038SOL    HW210014   6.068   4.674   5.176
 3039SOL     OW10015   5.702   3.309   6.198
 3039SOL    HW110016   5.635   3.356   6.142
 3039SOL    HW210017   5.655   3.251   6.265
 3040SOL     OW10018   3.943   6.707   6.394
 3040SOL    HW110019   3.876   6.752   6.336
 3040SOL    HW210020   3.955   6.613   6.364
 3041SOL     OW10021   2.004   5.452   6.816
 3041SOL    HW110022   2.048   5.371   6.779
 3041SOL    HW210023   1.904   5.439   6.815
 3042SOL     OW10024   0.058   5.195   3.906
 3042SOL    HW110025   0.117   5.196   3.987
 3042SOL    HW210026   0.109   5.159   3.828
 3043SOL     OW10027   2.760   4.088   1.268
 3043SOL    HW110028   2.708   4.138   1.199
 3043SOL    HW210029   2.746   3.990   1.256
 3044SOL     OW10030   4.075   3.317   4.940
 3044SOL    HW110031   4.145   3.246   4.945
 3044SOL    HW210032   3.997   3.284   4.887
 3045SOL     OW10033   5.450   0.391   2.913
 3045SOL    HW110034   5.389   0.316   2.940
 3045SOL    HW210035   5.484   0.437   2.996
 3046SOL     OW10036   6.054   5.409   1.321
 3046SOL    HW110037   6.046   5.406   1.221
 3046SOL    HW210038   6.069   5.504   1.350
 3047SOL     OW10039   5.475   1.643   3.551
 3047SOL    HW110040   5.503   1.610   3.461
 3047SOL    HW210041   5.508   1.737   3.564
 3048SOL     OW10042   4.476   4.695   1.402
 3048SOL    HW110043   4.382   4.708   1.432
 3048SOL    HW210044   4.519   4.784   1.386
 3049SOL     OW10045   0.513   0.896   2.064
 3049SOL    HW110046   0.519   0.994   2.047
 3049SOL    HW210047   0.604   0.861   2.087
 3050SOL     OW10048   3.780   2.431   5.967
 3050SOL    HW110049   3.815   2.433   5.874
 3050SOL    HW210050   3.732   2.345   5.984
 3051SOL     OW10051   2.206   5.249   6.724
 3051SOL    HW110052   2.293   5.211   6.754
 3051SOL    HW210053   2.194   5.229   6.626
 3052SOL     OW10054   5.968   6.366   3.694
 3052SOL    HW110055   6.016   6.417   3.622
 3052SOL    HW210056   6.035   6.332   3.760
 3053SOL     OW10057   0.728   4.916   6.259
 3053SOL    HW110058   0.811   4.893   6.207
 3053SOL    HW210059   0.695   5.006   6.231
 3054SOL     OW10060   6.216   6.501   3.219
 3054SOL    HW110061   6.157   6.574   3.185
 3054SOL    HW210062   6.193   6.415   3.173
 3055SOL     OW10063   4.984   6.422   0.323
 3055SOL    HW110064   5.080   6.401   0.303
 3055SOL    HW210065   4.958   6.506   0.275
 3056SOL     OW10066   4.527   2.391   1.318
 3056SOL    HW110067   4.516   2.441   1.404
 3056SOL    HW210068   4.622   2.360   1.309
 3057SOL     OW10069   6.779   3.712   3.446
 3057SOL    HW110070   6.697   3.694   3.500
 3057SOL    HW210071   6.824   3.625   3.424
 3058SOL     OW10072   6.929   4.663   5.917
 3058SOL    HW110073   6.895   4.596   5.851
 3058SOL    HW210074   0.006   4.673   5.906
 3059SOL     OW10075   1.275   2.540   3.326
 3059SOL    HW110076   1.253   2.445   3.350
 3059SOL    HW210077   1.342   2.541   3.252
 3060SOL     OW10078   5.971   3.777   3.219
 3060SOL    HW110079   6.019   3.701   3.175
 3060SOL    HW210080   6.008   3.791   3.311
 3061SOL     OW10081   5.912   6.403   2.497
 3061SOL    HW110082   5.900   6.490   2.545
 3061SOL    HW210083   5.885   6.328   2.557
 3062SOL     OW10084   3.761   5.117   1.444
 3062SOL    HW110085   3.720   5.055   1.378
 3062SOL    HW210086   3.732   5.092   1.537
 3063SOL     OW10087   6.208   4.735   0.453
 3063SOL    HW110088   6.169   4.684   0.376
 3063SOL    HW210089   6.143   4.733   0.529
 3064SOL     OW10090   4.760   2.189   6.291
 3064SOL    HW110091   4.671   2.159   6.256
 3064SOL    HW210092   4.769   2.164   6.387
 3065SOL     OW10093   5.666   0.974   6.428
 3065SOL    HW110094   5.764   0.981   6.445
 3065SOL    HW210095   5.623   1.064   6.441
 3066SOL     OW10096   5.571   0.429   6.013
 3066SOL    HW110097   5.558   0.508   5.953
 3066SOL    HW210098   5.489   0.372   6.011
 3067SOL     OW10099   1.943   2.015   4.512
 3067SOL    HW110100   2.001   2.014   4.430
 3067SOL    HW210101   1.855   2.057   4.491
 3068SOL     OW10102   5.869   6.916   0.715
 3068SOL    HW110103   5.926   6.833   0.709
 3068SOL    HW210104   5.775   6.893   0.691
 3069SOL     OW10105   5.597   6.530   3.499
 3069SOL    HW110106   5.594   6.474   3.582
 3069SOL    HW210107   5.588   6.627   3.523
 3070SOL     OW10108   3.051   0.872   1.483
 3070SOL    HW110109   2.963   0.824   1.490
 3070SOL    HW210110   3.089   0.860   1.392
 3071SOL     OW10111   5.656   4.616   5.094
 3071SOL    HW110112   5.714   4.569   5.160
 3071SOL    HW210113   5.632   4.553   5.020
 3072SOL     OW10114   1.445   6.762   5.321
 3072SOL    HW110115   1.414   6.811   5.403
 3072SOL    HW210116   1.415   6.666   5.327
 3073SOL     OW10117   6.586   5.775   2.763
 3073SOL    HW110118   6.530   5.789   2.681
 3073SOL    HW210119   6.532   5.727   2.832
 3074SOL     OW10120   3.197   2.791   1.833
 3074SOL    HW110121   3.231   2.803   1.926
 3074SOL    HW210122   3.128   2.861   1.813
 3075SOL     OW10123   3.876   5.067   1.078
 3075SOL    HW110124   3.793   5.047   1.130
 3075SOL    HW210125   3.852   5.123   0.998
 3076SOL     OW10126   1.987   1.631   3.995
 3076SOL    HW110127   2.048   1.659   3.920
 3076SOL    HW210128   1.944   1.711   4.035
 3077SOL     OW10129   6.980   3.657   2.115
 3077SOL    HW110130   7.019   3.578   2.163
 3077SOL    HW210131   6.934   3.716   2.181
 3078SOL     OW10132   6.563   4.212   0.980
 3078SOL    HW110133   6.521   4.241   0.893
 3078SOL    HW210134   6.539   4.117   0.998
 3079SOL     OW10135   0.983   3.836   3.942
 3079SOL    HW110136   0.960   3.888   4.025
 3079SOL    HW210137   1.068   3.872   3.903
 3080SOL     OW10138   3.839   4.673   1.700
 3080SOL    HW110139   3.890   4.588   1.682
 3080SOL    HW210140   3.753   4.650   1.745
 3081SOL     OW10141   1.899   2.698   6.146
 3081SOL    HW110142   1.946   2.784   6.166
 3081SOL    HW210143   1.861   2.702   6.053
 3082SOL     OW10144   5.518   4.295   4.984
 3082SOL    HW110145   5.482   4.212   4.942
 3082SOL    HW210146   5.509   4.371   4.920
 3083SOL     OW10147   4.328   5.731   1.223
 3083SOL    HW110148   4.425   5.727   1.202
 3083SOL    HW210149   4.276   5.681   1.153
 3084SOL     OW10150   6.766   5.230   4.230
 3084SOL    HW110151   6.816   5.186   4.155
 3084SOL    HW210152   6.775   5.175   4.313
 3085SOL     OW10153   6.721   5.713   6.851
 3085SOL    HW110154   6.645   5.777   6.867
 3085SOL    HW210155   6.726   5.648   6.926
 3086SOL     OW10156   6.131   6.432   6.503
 3086SOL    HW110157   6.086   6.365   6.561
 3086SOL    HW210158   6.074   6.514   6.494
 3087SOL     OW10159   3.025   0.511   1.999
 3087SOL    HW110160   3.057   0.599   1.964
 3087SOL    HW210161   3.077   0.487   2.081
 3088SOL     OW10162   2.667   3.416   5.470
 3088SOL    HW110163   2.636   3.506   5.439
 3088SOL    HW210164   2.765   3.420   5.492
 3089SOL     OW10165   3.950   6.631   6.918
 3089SOL    HW110166   3.852   6.651   6.926
 3089SOL    HW210167   3.962   6.537   6.886
 3090SOL     OW10168   1.623   2.211   2.369
 3090SOL    HW110169   1.647   2.259   2.454
 3090SOL    HW210170   1.538   2.248   2.333
 3091SOL     OW10171   1.168   2.625   6.677
 3091SOL    HW110172   1.070   2.619   6.695
 3091SOL    HW210173   1.183   2.634   6.578
 3092SOL     OW10174   5.102   1.302   3.483
 3092SOL    HW110175   5.115   1.392   3.440
 3092SOL    HW210176   5.007   1.274   3.473
 3093SOL     OW10177   6.514   4.790   6.707
 3093SOL    HW110178   6.569   4.795   6.623
 3093SOL    HW210179   6.425   4.748   6.686
 3094SOL     OW10180   2.295   1.534   6.106
 3094SOL    HW110181   2.266   1.513   6.013
 3094SOL    HW210182   2.373   1.596   6.104
 3095SOL     OW10183   1.841   3.601   5.172
 3095SOL    HW110184   1.784   3.520   5.158
 3095SOL    HW210185   1.838   3.627   5.268
 3096SOL     OW10186   1.996   2.764   3.699
 3096SOL    HW110187   1.922   2.805   3.751
 3096SOL    HW210188   2.072   2.740   3.760
 3097SOL     OW10189   5.647   2.901   5.690
 3097SOL    HW110190   5.568   2.892   5.628
 3097SOL    HW210191   5.731   2.884   5.639
 3098SOL     OW10192   1.314   3.443   2.569
 3098SOL    HW110193   1.269   3.439   2.480
 3098SOL    HW210194   1.253   3.407   2.639
 3099SOL     OW10195   0.741   6.698   5.501
 3099SOL    HW110196   0.799   6.742   5.433
 3099SOL    HW210197   0.781   6.709   5.591
 3100SOL     OW10198   6.098   4.419   2.196
 3100SOL    HW110199   6.079   4.415   2.098
 3100SOL    HW210200   6.046   4.493   2.237
 3101SOL     OW10201   5.036   0.606   4.895
 3101SOL    HW110202   5.109   0.544   4.866
 3101SOL    HW210203   4.951   0.584   4.847
 3102SOL     OW10204   5.948   4.001   2.539
 3102SOL    HW110205   5.863   4.053   2.552
 3102SOL    HW210206   6.012   4.054   2.484
 3103SOL     OW10207   1.621   1.522   2.342
 3103SOL    HW110208   1.686   1.446   2.349
 3103SOL    HW210209   1.561   1.521   2.422
 3104SOL     OW10210   5.969   1.937   6.121
 3104SOL    HW110211   6.042   1.959   6.055
 3104SOL    HW210212   5.883   1.977   6.089
 3105SOL     OW10213   5.838   4.277   0.596
 3105SOL    HW110214   5.748   4.241   0.572
 3105SOL    HW210215   5.905   4.203   0.594
 3106SOL     OW10216   5.390   1.652   6.129
 3106SOL    HW110217   5.348   1.592   6.197
 3106SOL    HW210218   5.321   1.712   6.090
 3107SOL     OW10219   4.031   2.180   4.655
 3107SOL    HW110220   3.950   2.203   4.600
 3107SOL    HW210221   4.013   2.202   4.751
 3108SOL     OW10222   1.707   4.619   3.466
 3108SOL    HW110223   1.799   4.599   3.500
 3108SOL    HW210224   1.644   4.625   3.544
 3109SOL     OW10225   6.925   5.631   3.338
 3109SOL    HW110226   6.992   5.568   3.378
 3109SOL    HW210227   6.849   5.643   3.402
 3110SOL     OW10228   1.279   6.082   4.511
 3110SOL    HW110229   1.374   6.059   4.536
 3110SOL    HW210230   1.279   6.129   4.423
 3111SOL     OW10231   6.537   4.128   3.645
 3111SOL    HW110232   6.552   4.210   3.700
 3111SOL    HW210233   6.482   4.062   3.698
 3112SOL     OW10234   4.405   0.761   0.755
 3112SOL    HW110235   4.479   0.773   0.688
 3112SOL    HW210236   4.442   0.769   0.847
 3113SOL     OW10237   1.192   0.429   3.871
 3113SOL    HW110238   1.213   0.418   3.968
 3113SOL    HW210239   1.267   0.478   3.826
 3114SOL     OW10240   4.790   6.197   5.332
 3114SOL    HW110241   4.752   6.249   5.408
 3114SOL    HW210242   4.784   6.251   5.248
 3115SOL     OW10243   4.555   5.735   4.477
 3115SOL    HW110244   4.654   5.740   4.491
 3115SOL    HW210245   4.535   5.669   4.404
 3116SOL     OW10246   0.810   1.889   6.614
 3116SOL    HW110247   0.838   1.876   6.709
 3116SOL    HW210248   0.719   1.851   6.600
 3117SOL     OW10249   4.043   6.788   0.952
 3117SOL    HW110250   4.142   6.776   0.943
 3117SOL    HW210251   4.011   6.857   0.887
 3118SOL     OW10252   0.987   1.859   2.975
 3118SOL    HW110253   1.085   1.876   2.990
 3118SOL    HW210254   0.951   1.925   2.910
 3119SOL     OW10255   4.368   6.515   3.890
 3119SOL    HW110256   4.398   6.427   3.926
 3119SOL    HW210257   4.438   6.584   3.908
 3120SOL     OW10258   3.043   6.063   0.291
 3120SOL    HW110259   3.034   6.149   0.241
 3120SOL    HW210260   3.020   6.077   0.387
 3121SOL     OW10261   3.697   2.117   3.372
 3121SOL    HW110262   3.736   2.194   3.423
 3121SOL    HW210263   3.771   2.065   3.329
 3122SOL     OW10264   5.632   3.796   5.903
 3122SOL    HW110265   5.682   3.713   5.879
 3122SOL    HW210266   5.563   3.815   5.833
 3123SOL     OW10267   1.922   2.790   2.729
 3123SOL    HW110268   1.997   2.854   2.743
 3123SOL    HW210269   1.837   2.841   2.715
 3124SOL     OW10270   4.934   6.839   5.727
 3124SOL    HW110271   4.974   6.821   5.817
 3124SOL    HW210272   5.002   6.884   5.669
 3125SOL     OW10273   1.652   1.774   5.083
 3125SOL    HW110274   1.680   1.685   5.048
 3125SOL    HW210275   1.633   1.766   5.181
 3126SOL     OW10276   4.470   4.309   5.671
 3126SOL    HW110277   4.456   4.227   5.616
 3126SOL    HW210278   4.567   4.333   5.670
 3127SOL     OW10279   6.332   1.927   5.633
 3127SOL    HW110280   6.307   1.861   5.563
 3127SOL    HW210281   6.417   1.898   5.678
 3128SOL     OW10282   3.724   0.896   0.993
 3128SOL    HW110283   3.717   0.856   1.084
 3128SOL    HW210284   3.750   0.992   1.000
 3129SOL     OW10285   4.337   4.397   0.517
 3129SOL    HW110286   4.387   4.325   0.470
 3129SOL    HW210287   4.401   4.450   0.573
 3130SOL     OW10288   6.553   5.994   2.196
 3130SOL    HW110289   6.625   5.993   2.266
 3130SOL    HW210290   6.539   6.088   2.164
 3131SOL     OW10291   6.862   2.860   2.983
 3131SOL    HW110292   6.799   2.910   2.923
 3131SOL    HW210293   6.933   2.817   2.928
 3132SOL     OW10294   4.842   4.311   6.703
 3132SOL    HW110295   4.767   4.302   6.636
 3132SOL    HW210296   4.879   4.403   6.697
 3133SOL     OW10297   5.301   6.744   3.378
 3133SOL    HW110298   5.374   6.761   3.311
 3133SOL    HW210299   5.288   6.646   3.389
 3134SOL     OW10300   5.157   4.730   2.946
 3134SOL    HW110301   5.135   4.811   2.892
 3134SOL    HW210302   5.072   4.681   2.967
 3135SOL     OW10303   3.423   0.324   6.527
 3135SOL    HW110304   3.447   0.280   6.614
 3135SOL    HW210305   3.504   0.365   6.487
 3136SOL     OW10306   6.543   6.934   2.462
 3136SOL    HW110307   6.536   6.960   2.366
 3136SOL    HW210308   6.520   6.837   2.471
 3137SOL     OW10309   4.481   5.122   0.053
 3137SOL    HW110310   4.572   5.153   0.081
 3137SOL    HW210311   4.427   5.201   0.024
 3138SOL     OW10312   6.921   6.742   4.650
 3138SOL    HW110313   6.838   6.694   4.621
 3138SOL    HW210314   6.991   6.732   4.580
 3139SOL     OW10315   1.616   5.032   1.984
 3139SOL    HW110316   1.551   4.974   2.033
 3139SOL    HW210317   1.665   4.977   1.917
 3140SOL     OW10318   4.998   6.160   0.090
 3140SOL    HW110319   5.020   6.078   0.144
 3140SOL    HW210320   4.988   6.134   7.015
 3141SOL     OW10321   5.749   1.439   6.975
 3141SOL    HW110322   5.659   1.434   6.933
 3141SOL    HW210323   5.751   1.382   0.036
 3142SOL     OW10324   4.540   1.228   4.142
 3142SOL    HW110325   4.445   1.255   4.131
 3142SOL    HW210326   4.546   1.128   4.145
 3143SOL     OW10327   6.920   1.138   0.416
 3143SOL    HW110328   6.993   1.199   0.448
 3143SOL    HW210329   6.859   1.189   0.356
 3144SOL     OW10330   4.026   4.862   0.028
 3144SOL    HW110331   3.938   4.862   7.002
 3144SOL    HW210332   4.100   4.862   6.982
 3145SOL     OW10333   1.047   5.521   6.047
 3145SOL    HW110334   0.967   5.556   6.095
 3145SOL    HW210335   1.019   5.485   5.958
 3146SOL     OW10336   6.180   1.893   4.202
 3146SOL    HW110337   6.152   1.986   4.180
 3146SOL    HW210338   6.101   1.841   4.235
 3147SOL     OW10339   4.868   6.846   1.137
 3147SOL    HW110340   4.814   6.761   1.140
 3147SOL    HW210341   4.882   6.879   1.230
 3148SOL     OW10342   6.291   4.875   6.990
 3148SOL    HW110343   6.390   4.865   6.991
 3148SOL    HW210344   6.267   4.971   7.007
 3149SOL     OW10345   3.997   2.896   6.988
 3149SOL    HW110346   4.054   2.915   6.908
 3149SOL    HW210347   3.906   2.934   6.975
 3150SOL     OW10348   6.934   0.215   5.271
 3150SOL    HW110349   6.946   0.248   5.365
 3150SOL    HW210350   7.019   0.175   5.239
 3151SOL     OW10351   6.630   0.916   5.866
 3151SOL    HW110352   6.695   0.978   5.823
 3151SOL    HW210353   6.587   0.962   5.944
 3152SOL     OW10354   2.435   1.900   5.626
 3152SOL    HW110355   2.423   1.838   5.704
 3152SOL    HW210356   2.496   1.857   5.559
 3153SOL     OW10357   5.658   5.985   1.934
 3153SOL    HW110358   5.565   5.949   1.935
 3153SOL    HW210359   5.677   6.029   2.022
 3154SOL     OW10360   3.383   2.062   0.907
 3154SOL    HW110361   3.341   2.149   0.880
 3154SOL    HW210362   3.319   1.988   0.888
 3155SOL     OW10363   0.251   5.609   6.529
 3155SOL    HW110364   0.185   5.611   6.453
 3155SOL    HW210365   0.251   5.519   6.571
 3156SOL     OW10366   3.323   4.382   1.222
 3156SOL    HW110367   3.317   4.457   1.288
 3156SOL    HW210368   3.411   4.336   1.233
 3157SOL     OW10369   1.441   1.339   4.015
 3157SOL    HW110370   1.483   1.363   4.103
 3157SOL    HW210371   1.408   1.422   3.970
 3158SOL     OW10372   2.551   0.683   6.213
 3158SOL    HW110373   2.507   0.600   6.247
 3158SOL    HW210374   2.648   0.664   6.195
 3159SOL     OW10375   5.168   0.028   1.206
 3159SOL    HW110376   5.190   0.125   1.195
 3159SOL    HW210377   5.079   0.018   1.250
 3160SOL     OW10378   2.338   1.020   4.846
 3160SOL    HW110379   2.392   1.023   4.762
 3160SOL    HW210380   2.312   0.925   4.865
 3161SOL     OW10381   1.657   2.763   1.946
 3161SOL    HW110382   1.684   2.667   1.938
 3161SOL    HW210383   1.723   2.820   1.896
 3162SOL     OW10384   1.103   5.622   1.641
 3162SOL    HW110385   1.097   5.600   1.544
 3162SOL    HW210386   1.199   5.618   1.671
 3163SOL     OW10387   5.009   4.444   1.205
 3163SOL    HW110388   4.910   4.431   1.195
 3163SOL    HW210389   5.047   4.370   1.259
 3164SOL     OW10390   2.500   0.100   4.372
 3164SOL    HW110391   2.432   0.171   4.353
 3164SOL    HW210392   2.585   0.143   4.404
 3165SOL     OW10393   0.784   5.750   6.744
 3165SOL    HW110394   0.824   5.841   6.740
 3165SOL    HW210395   0.836   5.693   6.808
 3166SOL     OW10396   4.101   2.251   4.300
 3166SOL    HW110397   4.147   2.168   4.332
 3166SOL    HW210398   4.025   2.226   4.241
 3167SOL     OW10399   6.382   2.914   1.874
 3167SOL    HW110400   6.419   2.899   1.966
 3167SOL    HW210401   6.441   2.871   1.806
 3168SOL     OW10402   5.522   1.318   1.375
 3168SOL    HW110403   5.614   1.289   1.348
 3168SOL    HW210404   5.455   1.254   1.340
 3169SOL     OW10405   0.708   4.027   1.829
 3169SOL    HW110406   0.704   3.935   1.868
 3169SOL    HW210407   0.678   4.024   1.734
 3170SOL     OW10408   2.283   4.098   3.420
 3170SOL    HW110409   2.309   4.147   3.337
 3170SOL    HW210410   2.226   4.156   3.477
 3171SOL     OW10411   5.400   1.475   4.909
 3171SOL    HW110412   5.422   1.388   4.863
 3171SOL    HW210413   5.334   1.458   4.982
 3172SOL     OW10414   5.801   4.012   1.370
 3172SOL    HW110415   5.733   4.063   1.423
 3172SOL    HW210416   5.841   4.073   1.301
 3173SOL     OW10417   5.547   3.225   6.878
 3173SOL    HW110418   5.516   3.155   6.941
 3173SOL    HW210419   5.536   3.315   6.920
 3174SOL     OW10420   3.449   2.321   6.359
 3174SOL    HW110421   3.534   2.372   6.362
 3174SOL    HW210422   3.406   2.332   6.270
 3175SOL     OW10423   6.002   6.290   5.391
 3175SOL    HW110424   5.926   6.310   5.453
 3175SOL    HW210425   6.088   6.296   5.441
 3176SOL     OW10426   0.645   4.922   4.083
 3176SOL    HW110427   0.622   4.919   3.986
 3176SOL    HW210428   0.741   4.896   4.096
 3177SOL     OW10429   4.863   3.092   3.025
 3177SOL    HW110430   4.846   3.073   3.122
 3177SOL    HW210431   4.855   3.190   3.009
 3178SOL     OW10432   0.947   0.312   2.645
 3178SOL    HW110433   1.023   0.361   2.688
 3178SOL    HW210434   0.867   0.372   2.641
 3179SOL     OW10435   0.929   3.151   2.218
 3179SOL    HW110436   1.005   3.214   2.206
 3179SOL    HW210437   0.963   3.060   2.241
 3180SOL     OW10438   6.727   6.703   6.676
 3180SOL    HW110439   6.785   6.640   6.727
 3180SOL    HW210440   6.634   6.666   6.671
 3181SOL     OW10441   0.590   6.203   4.634
 3181SOL    HW110442   0.666   6.146   4.667
 3181SOL    HW210443   0.589   6.290   4.684
 3182SOL     OW10444   1.253   6.761   1.376
 3182SOL    HW110445   1.282   6.782   1.470
 3182SOL    HW210446   1.169   6.811   1.355
 3183SOL     OW10447   4.152   3.994   0.691
 3183SOL    HW110448   4.160   3.958   0.784
 3183SOL    HW210449   4.182   4.090   0.689
 3184SOL     OW10450   6.197   1.506   4.232
 3184SOL    HW110451   6.214   1.410   4.255
 3184SOL    HW210452   6.282   1.558   4.241
 3185SOL     OW10453   0.976   6.700   5.993
 3185SOL    HW110454   0.989   6.785   5.942
 3185SOL    HW210455   1.065   6.663   6.020
 3186SOL     OW10456   0.350   2.425   5.675
 3186SOL    HW110457   0.319   2.406   5.768
 3186SOL    HW210458   0.272   2.432   5.614
 3187SOL     OW10459   5.407   0.153   3.417
 3187SOL    HW110460   5.438   0.243   3.449
 3187SOL    HW210461   5.477   0.113   3.357
 3188SOL     OW10462   1.690   6.294   1.316
 3188SOL    HW110463   1.613   6.317   1.257
 3188SOL    HW210464   1.655   6.255   1.402
 3189SOL     OW10465   2.481   1.456   6.539
 3189SOL    HW110466   2.581   1.462   6.535
 3189SOL    HW210467   2.454   1.360   6.551
 3190SOL     OW10468   6.097   6.575   4.046
 3190SOL    HW110469   6.096   6.478   4.021
 3190SOL    HW210470   6.015   6.619   4.009
 3191SOL     OW10471   3.724   4.759   1.460
 3191SOL    HW110472   3.788   4.724   1.529
 3191SOL    HW210473   3.636   4.779   1.503
 3192SOL     OW10474   5.357   0.795   3.017
 3192SOL    HW110475   5.273   0.740   3.015
 3192SOL    HW210476   5.345   0.875   2.958
 3193SOL     OW10477   3.158   5.282   4.937
 3193SOL    HW110478   3.210   5.268   5.021
 3193SOL    HW210479   3.221   5.291   4.859
 3194SOL     OW10480   1.978   6.995   5.063
 3194SOL    HW110481   1.931   6.944   5.135
 3194SOL    HW210482   1.930   0.060   5.046
 3195SOL     OW10483   0.731   6.433   0.253
 3195SOL    HW110484   0.735   6.350   0.310
 3195SOL    HW210485   0.744   6.513   0.311
 3196SOL     OW10486   6.210   0.135   2.631
 3196SOL    HW110487   6.178   0.212   2.576
 3196SOL    HW210488   6.132   0.087   2.670
 3197SOL     OW10489   2.795   0.693   0.063
 3197SOL    HW110490   2.749   0.638   0.133
 3197SOL    HW210491   2.860   0.636   0.013
 3198SOL     OW10492   5.491   3.064   4.030
 3198SOL    HW110493   5.549   3.072   4.111
 3198SOL    HW210494   5.522   3.128   3.960
 3199SOL     OW10495   5.053   3.844   3.259
 3199SOL    HW110496   5.021   3.761   3.305
 3199SOL    HW210497   4.974   3.903   3.239
 3200SOL     OW10498   6.059   3.826   4.878
 3200SOL    HW110499   6.019   3.761   4.814
 3200SOL    HW210500   6.038   3.920   4.849
 3201SOL     OW10501   6.749   4.116   1.776
 3201SOL    HW110502   6.794   4.162   1.853
 3201SOL    HW210503   6.817   4.076   1.715
 3202SOL     OW10504   2.639   2.500   6.410
 3202SOL    HW110505   2.630   2.597   6.389
 3202SOL    HW210506   2.664   2.450   6.327
 3203SOL     OW10507   3.342   6.607   2.031
 3203SOL    HW110508   3.372   6.687   2.083
 3203SOL    HW210509   3.276   6.637   1.961
 3204SOL     OW10510   4.330   0.410   4.019
 3204SOL    HW110511   4.363   0.487   4.075
 3204SOL    HW210512   4.236   0.428   3.991
 3205SOL     OW10513   4.462   2.416   6.008
 3205SOL    HW110514   4.434   2.470   5.928
 3205SOL    HW210515   4.407   2.444   6.087
 3206SOL     OW10516   3.127   4.527   1.055
 3206SOL    HW110517   3.188   4.557   0.981
 3206SOL    HW210518   3.175   4.462   1.114
 3207SOL     OW10519   2.256   6.240   3.610
 3207SOL    HW110520   2.286   6.303   3.682
 3207SOL    HW210521   2.171   6.275   3.569
 3208SOL     OW10522   6.838   4.244   5.943
 3208SOL    HW110523   6.930   4.282   5.957
 3208SOL    HW210524   6.826   4.165   6.002
 3209SOL     OW10525   5.040   6.789   5.988
 3209SOL    HW110526   5.113   6.720   5.984
 3209SOL    HW210527   5.026   6.816   6.083
 3210SOL     OW10528   5.186   5.591   1.917
 3210SOL    HW110529   5.124   5.653   1.965
 3210SOL    HW210530   5.222   5.524   1.982
 3211SOL     OW10531   2.028   6.560   6.227
 3211SOL    HW110532   2.100   6.554   6.158
 3211SOL    HW210533   2.047   6.637   6.288
 3212SOL     OW10534   3.218   6.528   4.178
 3212SOL    HW110535   3.245   6.470   4.100
 3212SOL    HW210536   3.208   6.622   4.147
 3213SOL     OW10537   1.449   0.593   5.845
 3213SOL    HW110538   1.367   0.602   5.789
 3213SOL    HW210539   1.530   0.606   5.788
 3214SOL     OW10540   3.786   0.535   2.793
 3214SOL    HW110541   3.810   0.442   2.765
 3214SOL    HW210542   3.689   0.539   2.817
 3215SOL     OW10543   2.016   3.174   2.017
 3215SOL    HW110544   2.023   3.238   2.093
 3215SOL    HW210545   2.044   3.218   1.933
 3216SOL     OW10546   6.193   5.273   0.730
 3216SOL    HW110547   6.195   5.240   0.636
 3216SOL    HW210548   6.223   5.201   0.793
 3217SOL     OW10549   6.888   5.893   4.019
 3217SOL    HW110550   6.880   5.804   4.063
 3217SOL    HW210551   6.935   5.882   3.931
 3218SOL     OW10552   5.774   1.530   3.497
 3218SOL    HW110553   5.862   1.489   3.473
 3218SOL    HW210554   5.744   1.493   3.585
 3219SOL     OW10555   5.551   2.020   4.807
 3219SOL    HW110556   5.574   1.927   4.779
 3219SOL    HW210557   5.555   2.028   4.906
 3220SOL     OW10558   0.467   3.616   5.625
 3220SOL    HW110559   0.532   3.669   5.570
 3220SOL    HW210560   0.411   3.679   5.680
 3221SOL     OW10561   4.169   1.507   2.161
 3221SOL    HW110562   4.107   1.585   2.160
 3221SOL    HW210563   4.134   1.437   2.224
 3222SOL     OW10564   3.654   1.012   3.174
 3222SOL    HW110565   3.623   1.053   3.260
 3222SOL    HW210566   3.741   0.966   3.188
 3223SOL     OW10567   1.646   5.834   0.637
 3223SOL    HW110568   1.735   5.875   0.659
 3223SOL    HW210569   1.573   5.887   0.682
 3224SOL     OW10570   4.989   2.936   4.811
 3224SOL    HW110571   4.941   2.920   4.724
 3224SOL    HW210572   4.929   2.985   4.874
 3225SOL     OW10573   4.801   1.338   4.895
 3225SOL    HW110574   4.807   1.423   4.948
 3225SOL    HW210575   4.710   1.330   4.855
 3226SOL     OW10576   6.402   0.910   0.695
 3226SOL    HW110577   6.447   0.901   0.784
 3226SOL    HW210578   6.469   0.936   0.626
 3227SOL     OW10579   6.048   4.402   5.513
 3227SOL    HW110580   6.123   4.447   5.561
 3227SOL    HW210581   5.964   4.456   5.523
 3228SOL     OW10582   2.475   4.203   0.322
 3228SOL    HW110583   2.378   4.205   0.346
 3228SOL    HW210584   2.529   4.203   0.406
 3229SOL     OW10585   1.550   1.573   0.767
 3229SOL    HW110586   1.583   1.626   0.846
 3229SOL    HW210587   1.536   1.478   0.794
 3230SOL     OW10588   2.928   6.391   5.142
 3230SOL    HW110589   3.010   6.362   5.091
 3230SOL    HW210590   2.946   6.385   5.240
 3231SOL     OW10591   2.191   2.864   2.397
 3231SOL    HW110592   2.224   2.925   2.469
 3231SOL    HW210593   2.122   2.912   2.342
 3232SOL     OW10594   2.849   4.726   2.929
 3232SOL    HW110595   2.845   4.779   3.013
 3232SOL    HW210596   2.759   4.725   2.885
 3233SOL     OW10597   2.750   0.008   6.834
 3233SOL    HW110598   2.702   0.079   6.886
 3233SOL    HW210599   2.683   6.974   6.784
 3234SOL     OW10600   3.448   3.313   0.983
 3234SOL    HW110601   3.395   3.268   1.056
 3234SOL    HW210602   3.522   3.253   0.954
 3235SOL     OW10603   6.648   1.348   2.757
 3235SOL    HW110604   6.619   1.427   2.704
 3235SOL    HW210605   6.567   1.294   2.783
 3236SOL     OW10606   5.340   0.127   0.638
 3236SOL    HW110607   5.371   0.037   0.666
 3236SOL    HW210608   5.404   0.196   0.670
 3237SOL     OW10609   6.058   1.292   5.290
 3237SOL    HW110610   5.969   1.301   5.334
 3237SOL    HW210611   6.077   1.375   5.237
 3238SOL     OW10612   6.345   5.067   1.518
 3238SOL    HW110613   6.316   5.003   1.589
 3238SOL    HW210614   6.395   5.017   1.447
 3239SOL     OW10615   5.937   0.209   5.277
 3239SOL    HW110616   6.011   0.252   5.226
 3239SOL    HW210617   5.854   0.264   5.267
 3240SOL     OW10618   0.562   1.639   0.774
 3240SOL    HW110619   0.604   1.649   0.864
 3240SOL    HW210620   0.468   1.674   0.777
 3241SOL     OW10621   0.136   2.902   5.326
 3241SOL    HW110622   0.082   2.975   5.283
 3241SOL    HW210623   0.169   2.839   5.256
 3242SOL     OW10624   6.771   4.124   4.749
 3242SOL    HW110625   6.829   4.043   4.750
 3242SOL    HW210626   6.807   4.190   4.682
 3243SOL     OW10627   5.680   5.451   3.889
 3243SOL    HW110628   5.721   5.438   3.799
 3243SOL    HW210629   5.631   5.538   3.891
 3244SOL     OW10630   4.777   0.031   6.815
 3244SOL    HW110631   4.864   0.030   6.864
 3244SOL    HW210632   4.769   6.968   6.760
 3245SOL     OW10633   3.214   6.338   4.393
 3245SOL    HW110634   3.233   6.240   4.403
 3245SOL    HW210635   3.241   6.368   4.301
 3246SOL     OW10636   6.684   5.777   3.137
 3246SOL    HW110637   6.766   5.746   3.184
 3246SOL    HW210638   6.661   5.713   3.063
 3247SOL     OW10639   2.031   4.062   3.917
 3247SOL    HW110640   1.944   4.109   3.930
 3247SOL    HW210641   2.023   3.999   3.840
 3248SOL     OW10642   6.059   2.645   3.546
 3248SOL    HW110643   6.061   2.722   3.609
 3248SOL    HW210644   5.964   2.619   3.528
 3249SOL     OW10645   3.351   4.149   4.081
 3249SOL    HW110646   3.443   4.168   4.114
 3249SOL    HW210647   3.295   4.231   4.088
 3250SOL     OW10648   4.599   6.198   3.694
 3250SOL    HW110649   4.597   6.138   3.774
 3250SOL    HW210650   4.638   6.287   3.720
 3251SOL     OW10651   2.675   2.240   2.375
 3251SOL    HW110652   2.672   2.163   2.439
 3251SOL    HW210653   2.623   2.317   2.412
 3252SOL     OW10654   2.027   1.756   2.857
 3252SOL    HW110655   2.039   1.836   2.915
 3252SOL    HW210656   1.988   1.785   2.769
 3253SOL     OW10657   6.891   4.059   0.120
 3253SOL    HW110658   6.990   4.051   0.108
 3253SOL    HW210659   6.871   4.074   0.217
 3254SOL     OW10660   6.109   6.432   0.410
 3254SOL    HW110661   6.054   6.381   0.476
 3254SOL    HW210662   6.143   6.516   0.453
 3255SOL     OW10663   3.656   5.787   1.983
 3255SOL    HW110664   3.750   5.754   1.991
 3255SOL    HW210665   3.602   5.721   1.931
 3256SOL     OW10666   5.533   2.538   1.383
 3256SOL    HW110667   5.500   2.481   1.459
 3256SOL    HW210668   5.536   2.483   1.300
 3257SOL     OW10669   3.126   1.087   3.305
 3257SOL    HW110670   3.052   1.043   3.255
 3257SOL    HW210671   3.214   1.063   3.263
 3258SOL     OW10672   1.512   5.705   3.910
 3258SOL    HW110673   1.602   5.671   3.883
 3258SOL    HW210674   1.461   5.631   3.955
 3259SOL     OW10675   5.526   4.378   4.345
 3259SOL    HW110676   5.539   4.466   4.391
 3259SOL    HW210677   5.613   4.348   4.308
 3260SOL     OW10678   1.369   4.697   2.904
 3260SOL    HW110679   1.383   4.677   2.807
 3260SOL    HW210680   1.312   4.779   2.912
 3261SOL     OW10681   6.057   0.061   4.415
 3261SOL    HW110682   6.107   0.013   4.342
 3261SOL    HW210683   5.981   0.111   4.375
 3262SOL     OW10684   3.086   1.830   3.414
 3262SOL    HW110685   3.106   1.790   3.324
 3262SOL    HW210686   2.988   1.826   3.431
 3263SOL     OW10687   6.403   0.483   1.358
 3263SOL    HW110688   6.363   0.558   1.410
 3263SOL    HW210689   6.495   0.464   1.393
 3264SOL     OW10690   1.764   4.288   6.886
 3264SOL    HW110691   1.810   4.257   6.802
 3264SOL    HW210692   1.681   4.338   6.862
 3265SOL     OW10693   0.078   5.576   6.326
 3265SOL    HW110694   7.011   5.542   6.360
 3265SOL    HW210695   0.094   5.539   6.235
 3266SOL     OW10696   3.678   5.071   6.309
 3266SOL    HW110697   3.582   5.054   6.286
 3266SOL    HW210698   3.736   5.048   6.231
 3267SOL     OW10699   3.869   6.688   1.138
 3267SOL    HW110700   3.945   6.725   1.084
 3267SOL    HW210701   3.791   6.670   1.078
 3268SOL     OW10702   5.696   4.474   1.859
 3268SOL    HW110703   5.701   4.410   1.936
 3268SOL    HW210704   5.629   4.545   1.879
 3269SOL     OW10705   2.230   4.939   1.558
 3269SOL    HW110706   2.188   5.029   1.542
 3269SOL    HW210707   2.160   4.868   1.548
 3270SOL     OW10708   1.388   2.886   5.792
 3270SOL    HW110709   1.397   2.919   5.698
 3270SOL    HW210710   1.303   2.834   5.801
 3271SOL     OW10711   1.119   3.183   1.017
 3271SOL    HW110712   1.134   3.278   1.046
 3271SOL    HW210713   1.144   3.173   0.921
 3272SOL     OW10714   4.207   6.593   1.125
 3272SOL    HW110715   4.144   6.624   1.054
 3272SOL    HW210716   4.254   6.510   1.094
 3273SOL     OW10717   4.045   3.986   6.430
 3273SOL    HW110718   4.016   3.926   6.355
 3273SOL    HW210719   4.145   3.983   6.439
 3274SOL     OW10720   4.740   0.018   1.736
 3274SOL    HW110721   4.779   0.089   1.677
 3274SOL    HW210722   4.662   6.997   1.690
 3275SOL     OW10723   4.813   0.750   1.785
 3275SOL    HW110724   4.897   0.778   1.832
 3275SOL    HW210725   4.737   0.749   1.851
 3276SOL     OW10726   6.362   5.546   6.963
 3276SOL    HW110727   6.398   5.459   6.997
 3276SOL    HW210728   6.358   5.612   0.017
 3277SOL     OW10729   3.682   1.833   2.472
 3277SOL    HW110730   3.736   1.774   2.532
 3277SOL    HW210731   3.620   1.777   2.417
 3278SOL     OW10732   4.802   0.954   6.227
 3278SOL    HW110733   4.729   0.919   6.285
 3278SOL    HW210734   4.774   0.949   6.131
 3279SOL     OW10735   3.667   0.307   2.345
 3279SOL    HW110736   3.758   0.307   2.388
 3279SOL    HW210737   3.664   0.239   2.273
 3280SOL     OW10738   0.365   2.896   4.035
 3280SOL    HW110739   0.416   2.977   4.065
 3280SOL    HW210740   0.429   2.821   4.017
 3281SOL     OW10741   5.846   1.874   2.119
 3281SOL    HW110742   5.823   1.953   2.062
 3281SOL    HW210743   5.775   1.860   2.188
 3282SOL     OW10744   6.547   4.567   5.478
 3282SOL    HW110745   6.522   4.661   5.457
 3282SOL    HW210746   6.570   4.560   5.575
 3283SOL     OW10747   3.091   1.844   0.620
 3283SOL    HW110748   2.998   1.854   0.654
 3283SOL    HW210749   3.112   1.918   0.557
 3284SOL     OW10750   2.226   0.096   4.967
 3284SOL    HW110751   2.159   0.029   5.000
 3284SOL    HW210752   2.179   0.180   4.939
 3285SOL     OW10753   4.011   2.165   3.923
 3285SOL    HW110754   3.911   2.164   3.926
 3285SOL    HW210755   4.042   2.144   3.830
 3286SOL     OW10756   1.691   3.130   3.008
 3286SOL    HW110757   1.696   3.052   2.945
 3286SOL    HW210758   1.630   3.200   2.970
 3287SOL     OW10759   2.323   1.183   0.700
 3287SOL    HW110760   2.359   1.223   0.785
 3287SOL    HW210761   2.359   1.233   0.622
 3288SOL     OW10762   2.841   5.995   2.256
 3288SOL    HW110763   2.867   5.923   2.193
 3288SOL    HW210764   2.783   5.957   2.329
 3289SOL     OW10765   4.856   0.566   0.065
 3289SOL    HW110766   4.865   0.484   0.007
 3289SOL    HW210767   4.947   0.603   0.083
 3290SOL     OW10768   0.846   5.331   0.273
 3290SOL    HW110769   0.798   5.368   0.194
 3290SOL    HW210770   0.813   5.374   0.356
 3291SOL     OW10771   4.775   6.284   5.029
 3291SOL    HW110772   4.699   6.233   4.990
 3291SOL    HW210773   4.844   6.301   4.959
 3292SOL     OW10774   0.023   2.427   0.168
 3292SOL    HW110775   7.006   2.336   0.184
 3292SOL    HW210776   6.995   2.470   0.092
 3293SOL     OW10777   6.450   4.955   2.522
 3293SOL    HW110778   6.461   4.877   2.460
 3293SOL    HW210779   6.355   4.985   2.520
 3294SOL     OW10780   3.517   2.800   5.732
 3294SOL    HW110781   3.455   2.780   5.807
 3294SOL    HW210782   3.471   2.780   5.645
 3295SOL     OW10783   1.562   2.762   3.185
 3295SOL    HW110784   1.660   2.773   3.201
 3295SOL    HW210785   1.542   2.667   3.164
 3296SOL     OW10786   2.399   0.914   6.728
 3296SOL    HW110787   2.433   1.006   6.748
 3296SOL    HW210788   2.435   0.883   6.640
 3297SOL     OW10789   3.814   0.684   5.556
 3297SOL    HW110790   3.729   0.714   5.512
 3297SOL    HW210791   3.892   0.716   5.503
 3298SOL     OW10792   3.537   4.809   5.618
 3298SOL    HW110793   3.602   4.850   5.681
 3298SOL    HW210794   3.455   4.781   5.669
 3299SOL     OW10795   2.939   6.682   3.998
 3299SOL    HW110796   2.854   6.725   4.028
 3299SOL    HW210797   3.017   6.739   4.026
 3300SOL     OW10798   1.842   0.797   3.420
 3300SOL    HW110799   1.915   0.780   3.354
 3300SOL    HW210800   1.855   0.887   3.461
 3301SOL     OW10801   1.166   1.697   2.783
 3301SOL    HW110802   1.215   1.615   2.811
 3301SOL    HW210803   1.070   1.675   2.767
 3302SOL     OW10804   1.303   5.355   5.395
 3302SOL    HW110805   1.378   5.415   5.424
 3302SOL    HW210806   1.324   5.261   5.420
 3303SOL     OW10807   3.839   3.982   0.577
 3303SOL    HW110808   3.882   4.059   0.529
 3303SOL    HW210809   3.893   3.959   0.658
 3304SOL     OW10810   2.224   4.199   0.413
 3304SOL    HW110811   2.143   4.144   0.391
 3304SOL    HW210812   2.218   4.229   0.508
 3305SOL     OW10813   2.709   2.782   0.350
 3305SOL    HW110814   2.670   2.838   0.277
 3305SOL    HW210815   2.740   2.841   0.425
 3306SOL     OW10816   2.622   0.360   0.530
 3306SOL    HW110817   2.713   0.401   0.525
 3306SOL    HW210818   2.612   0.293   0.456
 3307SOL     OW10819   1.970   5.348   4.567
 3307SOL    HW110820   2.027   5.348   4.649
 3307SOL    HW210821   2.024   5.379   4.489
 3308SOL     OW10822   4.587   5.184   1.436
 3308SOL    HW110823   4.570   5.267   1.382
 3308SOL    HW210824   4.571   5.103   1.379
 3309SOL     OW10825   5.760   3.951   3.461
 3309SOL    HW110826   5.724   4.044   3.470
 3309SOL    HW210827   5.847   3.945   3.510
 3310SOL     OW10828   6.130   4.506   5.993
 3310SOL    HW110829   6.091   4.506   6.085
 3310SOL    HW210830   6.219   4.461   5.993
 3311SOL     OW10831   2.103   3.116   0.081
 3311SOL    HW110832   2.130   3.207   0.114
 3311SOL    HW210833   2.185   3.067   0.050
 3312SOL     OW10834   4.809   3.087   6.935
 3312SOL    HW110835   4.786   3.139   6.852
 3312SOL    HW210836   4.760   3.125   7.013
 3313SOL     OW10837   0.138   0.124   4.548
 3313SOL    HW110838   0.168   0.140   4.642
 3313SOL    HW210839   0.196   0.175   4.485
 3314SOL     OW10840   3.586   6.289   2.854
 3314SOL    HW110841   3.568   6.198   2.817
 3314SOL    HW210842   3.582   6.357   2.779
 3315SOL     OW10843   1.481   6.485   4.007
 3315SOL    HW110844   1.505   6.563   4.064
 3315SOL    HW210845   1.382   6.477   4.001
 3316SOL     OW10846   3.786   2.021   0.141
 3316SOL    HW110847   3.863   2.082   0.124
 3316SOL    HW210848   3.737   2.005   0.055
 3317SOL     OW10849   6.028   1.912   1.764
 3317SOL    HW110850   6.049   2.008   1.782
 3317SOL    HW210851   6.057   1.888   1.672
 3318SOL     OW10852   3.279   2.899   0.310
 3318SOL    HW110853   3.182   2.898   0.284
 3318SOL    HW210854   3.287   2.919   0.407
 3319SOL     OW10855   6.545   6.433   4.261
 3319SOL    HW110856   6.506   6.484   4.184
 3319SOL    HW210857   6.645   6.441   4.259
 3320SOL     OW10858   6.272   0.449   2.193
 3320SOL    HW110859   6.355   0.400   2.169
 3320SOL    HW210860   6.295   0.529   2.250
 3321SOL     OW10861   4.672   2.038   0.056
 3321SOL    HW110862   4.635   2.099   7.008
 3321SOL    HW210863   4.633   2.060   0.145
 3322SOL     OW10864   6.108   2.628   1.201
 3322SOL    HW110865   6.169   2.599   1.127
 3322SOL    HW210866   6.031   2.565   1.207
 3323SOL     OW10867   1.645   1.586   1.597
 3323SOL    HW110868   1.609   1.553   1.684
 3323SOL    HW210869   1.644   1.511   1.530
 3324SOL     OW10870   5.762   5.383   5.988
 3324SOL    HW110871   5.832   5.454   5.977
 3324SOL    HW210872   5.675   5.416   5.951
 3325SOL     OW10873   2.634   5.070   5.392
 3325SOL    HW110874   2.682   4.987   5.366
 3325SOL    HW210875   2.538   5.065   5.363
 3326SOL     OW10876   3.536   2.008   2.141
 3326SOL    HW110877   3.480   2.044   2.216
 3326SOL    HW210878   3.591   2.082   2.103
 3327SOL     OW10879   1.280   5.564   5.923
 3327SOL    HW110880   1.189   5.576   5.963
 3327SOL    HW210881   1.283   5.477   5.873
 3328SOL     OW10882   5.041   2.952   5.263
 3328SOL    HW110883   5.009   2.956   5.358
 3328SOL    HW210884   5.127   3.002   5.255
 3329SOL     OW10885   0.203   6.327   5.705
 3329SOL    HW110886   0.136   6.323   5.779
 3329SOL    HW210887   0.280   6.385   5.732
 3330SOL     OW10888   6.942   3.202   3.219
 3330SOL    HW110889   6.951   3.210   3.120
 3330SOL    HW210890   6.852   3.164   3.242
 3331SOL     OW10891   2.034   3.228   0.801
 3331SOL    HW110892   1.980   3.154   0.842
 3331SOL    HW210893   2.077   3.195   0.717
 3332SOL     OW10894   6.724   4.103   1.226
 3332SOL    HW110895   6.686   4.011   1.216
 3332SOL    HW210896   6.753   4.137   1.136
 3333SOL     OW10897   2.677   5.680   5.808
 3333SOL    HW110898   2.601   5.687   5.873
 3333SOL    HW210899   2.757   5.640   5.854
 3334SOL     OW10900   1.455   3.356   1.256
 3334SOL    HW110901   1.428   3.376   1.162
 3334SOL    HW210902   1.546   3.314   1.257
 3335SOL     OW10903   5.559   4.513   4.815
 3335SOL    HW110904   5.634   4.500   4.749
 3335SOL    HW210905   5.495   4.580   4.779
 3336SOL     OW10906   2.859   6.068   5.713
 3336SOL    HW110907   2.862   6.117   5.801
 3336SOL    HW210908   2.893   6.129   5.641
 3337SOL     OW10909   3.469   1.655   0.774
 3337SOL    HW110910   3.387   1.602   0.750
 3337SOL    HW210911   3.443   1.747   0.801
 3338SOL     OW10912   6.831   4.704   7.009
 3338SOL    HW110913   6.926   4.684   0.012
 3338SOL    HW210914   6.776   4.704   0.072
 3339SOL     OW10915   1.065   5.049   6.109
 3339SOL    HW110916   1.133   5.070   6.179
 3339SOL    HW210917   1.056   5.127   6.046
 3340SOL     OW10918   4.092   0.236   2.119
 3340SOL    HW110919   4.038   0.223   2.035
 3340SOL    HW210920   4.104   0.148   2.165
 3341SOL     OW10921   0.779   6.944   0.622
 3341SOL    HW110922   0.816   0.001   0.672
 3341SOL    HW210923   0.714   6.895   0.680
 3342SOL     OW10924   2.654   0.370   5.470
 3342SOL    HW110925   2.573   0.426   5.484
 3342SOL    HW210926   2.628   0.274   5.466
 3343SOL     OW10927   0.399   2.745   1.638
 3343SOL    HW110928   0.410   2.842   1.659
 3343SOL    HW210929   0.476   2.694   1.676
 3344SOL     OW10930   0.689   2.337   6.146
 3344SOL    HW110931   0.784   2.316   6.122
 3344SOL    HW210932   0.665   2.427   6.110
 3345SOL     OW10933   2.105   3.750   5.250
 3345SOL    HW110934   2.128   3.677   5.315
 3345SOL    HW210935   2.053   3.711   5.173
 3346SOL     OW10936   1.902   5.822   2.603
 3346SOL    HW110937   1.876   5.776   2.518
 3346SOL    HW210938   2.002   5.827   2.609
 3347SOL     OW10939   6.063   3.784   3.535
 3347SOL    HW110940   6.014   3.846   3.597
 3347SOL    HW210941   6.086   3.700   3.584
 3348SOL     OW10942   3.745   3.506   2.879
 3348SOL    HW110943   3.840   3.538   2.873
 3348SOL    HW210944   3.738   3.438   2.952
 3349SOL     OW10945   5.208   3.151   6.332
 3349SOL    HW110946   5.237   3.246   6.337
 3349SOL    HW210947   5.150   3.137   6.251
 3350SOL     OW10948   1.509   2.587   1.053
 3350SOL    HW110949   1.464   2.536   1.127
 3350SOL    HW210950   1.552   2.522   0.990
 3351SOL     OW10951   5.642   2.527   0.520
 3351SOL    HW110952   5.569   2.589   0.548
 3351SOL    HW210953   5.647   2.450   0.583
 3352SOL     OW10954   0.189   2.959   0.390
 3352SOL    HW110955   0.218   2.901   0.313
 3352SOL    HW210956   0.118   2.911   0.442
 3353SOL     OW10957   1.903   6.445   5.894
 3353SOL    HW110958   1.847   6.470   5.972
 3353SOL    HW210959   1.867   6.361   5.853
 3354SOL     OW10960   0.822   0.524   1.703
 3354SOL    HW110961   0.888   0.452   1.726
 3354SOL    HW210962   0.731   0.497   1.734
 3355SOL     OW10963   6.106   1.045   2.529
 3355SOL    HW110964   6.107   1.020   2.626
 3355SOL    HW210965   6.101   1.144   2.520
 3356SOL     OW10966   1.573   3.749   5.936
 3356SOL    HW110967   1.622   3.671   5.975
 3356SOL    HW210968   1.614   3.774   5.849
 3357SOL     OW10969   2.613   5.359   2.181
 3357SOL    HW110970   2.531   5.393   2.227
 3357SOL    HW210971   2.653   5.284   2.234
 3358SOL     OW10972   6.890   4.792   3.856
 3358SOL    HW110973   6.990   4.793   3.855
 3358SOL    HW210974   6.856   4.867   3.799
 3359SOL     OW10975   2.216   1.521   1.943
 3359SOL    HW110976   2.258   1.431   1.927
 3359SOL    HW210977   2.197   1.532   2.040
 3360SOL     OW10978   2.439   0.759   6.477
 3360SOL    HW110979   2.339   0.757   6.475
 3360SOL    HW210980   2.474   0.755   6.383
 3361SOL     OW10981   3.866   0.844   3.223
 3361SOL    HW110982   3.927   0.849   3.302
 3361SOL    HW210983   3.868   0.751   3.186
 3362SOL     OW10984   3.096   1.753   3.996
 3362SOL    HW110985   3.159   1.822   3.960
 3362SOL    HW210986   3.028   1.730   3.926
 3363SOL     OW10987   6.851   1.030   6.098
 3363SOL    HW110988   6.940   1.068   6.074
 3363SOL    HW210989   6.846   0.935   6.070
 3364SOL     OW10990   2.557   4.973   5.877
 3364SOL    HW110991   2.572   4.880   5.909
 3364SOL    HW210992   2.646   5.019   5.867
 3365SOL     OW10993   6.314   2.380   5.558
 3365SOL    HW110994   6.323   2.375   5.657
 3365SOL    HW210995   6.282   2.471   5.532
 3366SOL     OW10996   5.283   1.356   6.901
 3366SOL    HW110997   5.282   1.351   7.001
 3366SOL    HW210998   5.189   1.360   6.867
 3367SOL     OW10999   1.528   6.963   2.399
 3367SOL    HW111000   1.521   0.042   2.397
 3367SOL    HW211001   1.506   6.930   2.491
 3368SOL     OW11002   6.564   1.451   5.067
 3368SOL    HW111003   6.650   1.489   5.033
 3368SOL    HW211004   6.561   1.462   5.166
 3369SOL     OW11005   3.736   6.287   6.419
 3369SOL    HW111006   3.757   6.258   6.325
 3369SOL    HW211007   3.761   6.214   6.482
 3370SOL     OW11008   5.886   7.013   5.668
 3370SOL    HW111009   5.917   0.030   5.581
 3370SOL    HW211010   5.912   6.917   5.674
 3371SOL     OW11011   6.727   4.853   1.341
 3371SOL    HW111012   6.640   4.897   1.363
 3371SOL    HW211013   6.726   4.825   1.245
 3372SOL     OW11014   0.184   2.105   2.803
 3372SOL    HW111015   0.169   2.101   2.901
 3372SOL    HW211016   0.248   2.180   2.782
 3373SOL     OW11017   0.543   2.456   6.761
 3373SOL    HW111018   0.630   2.424   6.723
 3373SOL    HW211019   0.504   2.384   6.819
 3374SOL     OW11020   3.578   5.554   5.387
 3374SOL    HW111021   3.593   5.485   5.458
 3374SOL    HW211022   3.603   5.644   5.422
 3375SOL     OW11023   3.603   3.651   4.551
 3375SOL    HW111024   3.536   3.686   4.485
 3375SOL    HW211025   3.672   3.597   4.503
 3376SOL     OW11026   2.805   3.128   1.769
 3376SOL    HW111027   2.800   3.228   1.763
 3376SOL    HW211028   2.729   3.088   1.718
 3377SOL     OW11029   2.414   5.391   5.350
 3377SOL    HW111030   2.403   5.297   5.381
 3377SOL    HW211031   2.382   5.454   5.421
 3378SOL     OW11032   0.402   1.162   0.502
 3378SOL    HW111033   0.456   1.241   0.473
 3378SOL    HW211034   0.309   1.191   0.522
 3379SOL     OW11035   6.185   4.796   5.482
 3379SOL    HW111036   6.180   4.742   5.399
 3379SOL    HW211037   6.096   4.794   5.529
 3380SOL     OW11038   0.698   3.828   5.021
 3380SOL    HW111039   0.779   3.863   5.069
 3380SOL    HW211040   0.642   3.774   5.084
 3381SOL     OW11041   3.442   2.681   1.623
 3381SOL    HW111042   3.487   2.753   1.570
 3381SOL    HW211043   3.429   2.712   1.717
 3382SOL     OW11044   0.032   6.691   6.827
 3382SOL    HW111045   6.994   6.618   6.789
 3382SOL    HW211046   0.110   6.706   6.766
 3383SOL     OW11047   0.963   4.380   1.830
 3383SOL    HW111048   0.991   4.476   1.838
 3383SOL    HW211049   0.958   4.356   1.733
 3384SOL     OW11050   3.128   3.294   4.469
 3384SOL    HW111051   3.157   3.217   4.524
 3384SOL    HW211052   3.137   3.379   4.522
 3385SOL     OW11053   6.572   4.592   3.910
 3385SOL    HW111054   6.648   4.609   3.973
 3385SOL    HW211055   6.486   4.591   3.961
 3386SOL     OW11056   6.289   3.837   5.046
 3386SOL    HW111057   6.324   3.930   5.039
 3386SOL    HW211058   6.206   3.829   4.990
 3387SOL     OW11059   3.243   1.963   2.936
 3387SOL    HW111060   3.187   2.044   2.920
 3387SOL    HW211061   3.236   1.902   2.857
 3388SOL     OW11062   5.415   2.346   1.574
 3388SOL    HW111063   5.439   2.252   1.550
 3388SOL    HW211064   5.318   2.351   1.597
 3389SOL     OW11065   4.205   5.239   2.703
 3389SOL    HW111066   4.257   5.255   2.619
 3389SOL    HW211067   4.267   5.207   2.775
 3390SOL     OW11068   4.719   2.328   5.915
 3390SOL    HW111069   4.798   2.390   5.909
 3390SOL    HW211070   4.683   2.329   6.008
 3391SOL     OW11071   3.554   2.060   3.794
 3391SOL    HW111072   3.547   1.966   3.763
 3391SOL    HW211073   3.464   2.096   3.816
 3392SOL     OW11074   4.810   5.917   3.269
 3392SOL    HW111075   4.786   5.822   3.292
 3392SOL    HW211076   4.811   5.972   3.353
 3393SOL     OW11077   0.216   0.497   0.285
 3393SOL    HW111078   0.233   0.561   0.360
 3393SOL    HW211079   0.298   0.441   0.270
 3394SOL     OW11080   5.654   1.442   2.451
 3394SOL    HW111081   5.633   1.505   2.526
 3394SOL    HW211082   5.590   1.365   2.454
 3395SOL     OW11083   1.109   3.710   5.495
 3395SOL    HW111084   1.179   3.707   5.423
 3395SOL    HW211085   1.019   3.691   5.455
 3396SOL     OW11086   6.065   3.489   4.467
 3396SOL    HW111087   6.152   3.489   4.418
 3396SOL    HW211088   6.060   3.409   4.526
 3397SOL     OW11089   3.282   5.914   6.373
 3397SOL    HW111090   3.337   5.964   6.440
 3397SOL    HW211091   3.217   5.978   6.330
 3398SOL     OW11092   0.528   0.814   3.177
 3398SOL    HW111093   0.546   0.738   3.114
 3398SOL    HW211094   0.589   0.807   3.256
 3399SOL     OW11095   4.287   5.504   5.177
 3399SOL    HW111096   4.202   5.476   5.131
 3399SOL    HW211097   4.266   5.574   5.246
 3400SOL     OW11098   5.102   2.428   0.044
 3400SOL    HW111099   5.124   2.479   0.128
 3400SOL    HW211100   5.036   2.481   7.011
 3401SOL     OW11101   6.860   4.358   6.658
 3401SOL    HW111102   6.780   4.318   6.703
 3401SOL    HW211103   6.869   4.453   6.686
 3402SOL     OW11104   5.521   5.067   2.481
 3402SOL    HW111105   5.607   5.103   2.518
 3402SOL    HW211106   5.450   5.137   2.488
 3403SOL     OW11107   3.041   2.088   5.139
 3403SOL    HW111108   3.104   2.151   5.095
 3403SOL    HW211109   3.034   2.004   5.084
 3404SOL     OW11110   4.637   0.361   1.546
 3404SOL    HW111111   4.546   0.343   1.584
 3404SOL    HW211112   4.653   0.460   1.546
 3405SOL     OW11113   5.804   3.753   0.244
 3405SOL    HW111114   5.749   3.672   0.224
 3405SOL    HW211115   5.863   3.773   0.166
 3406SOL     OW11116   0.852   4.606   1.222
 3406SOL    HW111117   0.896   4.531   1.173
 3406SOL    HW211118   0.795   4.658   1.159
 3407SOL     OW11119   1.528   5.083   2.951
 3407SOL    HW111120   1.582   5.140   3.013
 3407SOL    HW211121   1.589   5.017   2.905
 3408SOL     OW11122   5.311   3.784   2.903
 3408SOL    HW111123   5.377   3.840   2.953
 3408SOL    HW211124   5.352   3.696   2.881
 3409SOL     OW11125   2.857   1.029   5.434
 3409SOL    HW111126   2.938   1.009   5.379
 3409SOL    HW211127   2.827   0.947   5.481
 3410SOL     OW11128   0.133   0.994   0.170
 3410SOL    HW111129   0.231   0.975   0.163
 3410SOL    HW211130   0.094   0.938   0.243
 3411SOL     OW11131   4.269   2.181   2.506
 3411SOL    HW111132   4.274   2.265   2.561
 3411SOL    HW211133   4.347   2.178   2.443
 3412SOL     OW11134   4.048   5.619   6.666
 3412SOL    HW111135   3.951   5.632   6.689
 3412SOL    HW211136   4.057   5.543   6.602
 3413SOL     OW11137   4.573   1.414   2.493
 3413SOL    HW111138   4.526   1.500   2.471
 3413SOL    HW211139   4.542   1.382   2.583
 3414SOL     OW11140   3.542   1.272   5.443
 3414SOL    HW111141   3.506   1.310   5.528
 3414SOL    HW211142   3.595   1.189   5.463
 3415SOL     OW11143   1.171   5.412   4.672
 3415SOL    HW111144   1.184   5.493   4.614
 3415SOL    HW211145   1.101   5.353   4.633
 3416SOL     OW11146   2.827   4.797   6.451
 3416SOL    HW111147   2.780   4.718   6.413
 3416SOL    HW211148   2.844   4.864   6.379
 3417SOL     OW11149   5.985   1.178   1.302
 3417SOL    HW111150   6.083   1.188   1.316
 3417SOL    HW211151   5.951   1.103   1.359
 3418SOL     OW11152   3.146   2.505   6.231
 3418SOL    HW111153   3.055   2.543   6.216
 3418SOL    HW211154   3.138   2.415   6.275
 3419SOL     OW11155   4.903   3.807   0.061
 3419SOL    HW111156   4.886   3.847   0.151
 3419SOL    HW211157   4.829   3.833   7.020
 3420SOL     OW11158   4.251   1.587   3.899
 3420SOL    HW111159   4.214   1.666   3.948
 3420SOL    HW211160   4.175   1.533   3.862
 3421SOL     OW11161   0.055   6.700   2.777
 3421SOL    HW111162   0.112   6.674   2.855
 3421SOL    HW211163   0.112   6.721   2.698
 3422SOL     OW11164   3.052   2.136   2.575
 3422SOL    HW111165   3.073   2.145   2.478
 3422SOL    HW211166   3.118   2.190   2.628
 3423SOL     OW11167   2.835   0.540   1.741
 3423SOL    HW111168   2.916   0.569   1.689
 3423SOL    HW211169   2.832   0.590   1.827
 3424SOL     OW11170   4.254   0.816   2.186
 3424SOL    HW111171   4.326   0.774   2.241
 3424SOL    HW211172   4.236   0.908   2.219
 3425SOL     OW11173   4.642   4.025   1.522
 3425SOL    HW111174   4.566   4.089   1.536
 3425SOL    HW211175   4.723   4.059   1.570
 3426SOL     OW11176   4.696   3.949   0.817
 3426SOL    HW111177   4.613   3.893   0.824
 3426SOL    HW211178   4.675   4.032   0.765
 3427SOL     OW11179   1.309   1.565   0.582
 3427SOL    HW111180   1.357   1.478   0.572
 3427SOL    HW211181   1.300   1.587   0.679
 3428SOL     OW11182   4.092   4.776   3.427
 3428SOL    HW111183   4.054   4.694   3.470
 3428SOL    HW211184   4.109   4.845   3.497
 3429SOL     OW11185   0.145   2.560   0.368
 3429SOL    HW111186   0.210   2.491   0.398
 3429SOL    HW211187   0.100   2.530   0.284
 3430SOL     OW11188   1.348   5.198   6.713
 3430SOL    HW111189   1.257   5.231   6.736
 3430SOL    HW211190   1.398   5.268   6.663
 3431SOL     OW11191   1.725   6.381   6.556
 3431SOL    HW111192   1.645   6.398   6.613
 3431SOL    HW211193   1.791   6.455   6.569
 3432SOL     OW11194   2.732   2.092   6.860
 3432SOL    HW111195   2.691   2.074   6.770
 3432SOL    HW211196   2.688   2.173   6.900
 3433SOL     OW11197   5.044   1.014   4.602
 3433SOL    HW111198   5.133   1.008   4.558
 3433SOL    HW211199   5.054   1.007   4.701
 3434SOL     OW11200   4.378   1.937   3.456
 3434SOL    HW111201   4.418   2.018   3.413
 3434SOL    HW211202   4.407   1.932   3.551
 3435SOL     OW11203   0.607   0.999   7.009
 3435SOL    HW111204   0.672   1.006   0.064
 3435SOL    HW211205   0.654   0.966   6.927
 3436SOL     OW11206   4.758   0.123   3.442
 3436SOL    HW111207   4.784   0.093   3.351
 3436SOL    HW211208   4.732   0.219   3.440
 3437SOL     OW11209   4.800   0.768   6.845
 3437SOL    HW111210   4.825   0.707   6.920
 3437SOL    HW211211   4.737   0.721   6.783
 3438SOL     OW11212   1.183   4.813   6.813
 3438SOL    HW111213   1.222   4.848   6.728
 3438SOL    HW211214   1.256   4.802   6.881
 3439SOL     OW11215   2.394   0.125   3.615
 3439SOL    HW111216   2.362   0.205   3.665
 3439SOL    HW211217   2.388   0.143   3.517
 3440SOL     OW11218   3.198   2.546   0.643
 3440SOL    HW111219   3.116   2.558   0.698
 3440SOL    HW211220   3.265   2.493   0.694
 3441SOL     OW11221   4.235   0.371   4.488
 3441SOL    HW111222   4.172   0.427   4.542
 3441SOL    HW211223   4.329   0.390   4.514
 3442SOL     OW11224   0.852   4.832   3.260
 3442SOL    HW111225   0.835   4.930   3.274
 3442SOL    HW211226   0.897   4.794   3.340
 3443SOL     OW11227   5.858   6.710   3.985
 3443SOL    HW111228   5.783   6.646   4.000
 3443SOL    HW211229   5.874   6.720   3.886
 3444SOL     OW11230   4.690   4.821   0.457
 3444SOL    HW111231   4.744   4.862   0.383
 3444SOL    HW211232   4.593   4.838   0.441
 3445SOL     OW11233   5.408   5.006   4.557
 3445SOL    HW111234   5.401   4.955   4.472
 3445SOL    HW211235   5.430   4.943   4.632
 3446SOL     OW11236   3.184   6.459   2.943
 3446SOL    HW111237   3.094   6.434   2.910
 3446SOL    HW211238   3.205   6.554   2.917
 3447SOL     OW11239   6.303   4.743   5.767
 3447SOL    HW111240   6.232   4.739   5.837
 3447SOL    HW211241   6.264   4.779   5.682
 3448SOL     OW11242   3.272   2.770   0.856
 3448SOL    HW111243   3.368   2.792   0.869
 3448SOL    HW211244   3.251   2.684   0.903
 3449SOL     OW11245   6.616   6.003   2.941
 3449SOL    HW111246   6.695   5.967   2.990
 3449SOL    HW211247   6.589   5.939   2.869
 3450SOL     OW11248   0.799   1.849   1.224
 3450SOL    HW111249   0.743   1.928   1.248
 3450SOL    HW211250   0.896   1.870   1.241
 3451SOL     OW11251   1.562   4.892   4.205
 3451SOL    HW111252   1.605   4.829   4.140
 3451SOL    HW211253   1.464   4.871   4.210
 3452SOL     OW11254   6.749   2.155   0.688
 3452SOL    HW111255   6.808   2.236   0.684
 3452SOL    HW211256   6.769   2.096   0.610
 3453SOL     OW11257   6.102   6.572   5.824
 3453SOL    HW111258   6.190   6.612   5.802
 3453SOL    HW211259   6.037   6.644   5.848
 3454SOL     OW11260   1.503   1.227   0.239
 3454SOL    HW111261   1.445   1.148   0.221
 3454SOL    HW211262   1.599   1.203   0.223
 3455SOL     OW11263   2.243   2.942   4.118
 3455SOL    HW111264   2.150   2.930   4.153
 3455SOL    HW211265   2.240   2.977   4.025
 3456SOL     OW11266   6.506   6.915   0.762
 3456SOL    HW111267   6.452   6.908   0.845
 3456SOL    HW211268   6.484   7.000   0.715
 3457SOL     OW11269   2.088   6.664   3.786
 3457SOL    HW111270   2.000   6.676   3.832
 3457SOL    HW211271   2.094   6.728   3.709
 3458SOL     OW11272   5.219   5.000   0.681
 3458SOL    HW111273   5.202   5.091   0.718
 3458SOL    HW211274   5.153   4.935   0.720
 3459SOL     OW11275   6.828   6.407   3.369
 3459SOL    HW111276   6.795   6.313   3.357
 3459SOL    HW211277   6.758   6.471   3.338
 3460SOL     OW11278   3.300   2.990   5.850
 3460SOL    HW111279   3.255   2.927   5.787
 3460SOL    HW211280   3.313   2.945   5.938
 3461SOL     OW11281   2.275   5.513   3.301
 3461SOL    HW111282   2.359   5.565   3.317
 3461SOL    HW211283   2.294   5.434   3.243
 3462SOL     OW11284   4.937   2.839   2.761
 3462SOL    HW111285   4.934   2.864   2.664
 3462SOL    HW211286   4.865   2.773   2.781
 3463SOL     OW11287   1.641   2.592   1.354
 3463SOL    HW111288   1.725   2.548   1.324
 3463SOL    HW211289   1.563   2.536   1.329
 3464SOL     OW11290   5.157   2.229   6.166
 3464SOL    HW111291   5.252   2.209   6.144
 3464SOL    HW211292   5.113   2.271   6.087
 3465SOL     OW11293   2.086   4.701   1.589
 3465SOL    HW111294   2.031   4.667   1.665
 3465SOL    HW211295   2.110   4.625   1.529
 3466SOL     OW11296   6.286   4.252   3.813
 3466SOL    HW111297   6.323   4.309   3.739
 3466SOL    HW211298   6.280   4.306   3.897
 3467SOL     OW11299   2.791   3.071   1.100
 3467SOL    HW111300   2.772   2.989   1.046
 3467SOL    HW211301   2.725   3.142   1.077
 3468SOL     OW11302   3.729   1.621   0.710
 3468SOL    HW111303   3.635   1.624   0.743
 3468SOL    HW211304   3.788   1.584   0.782
 3469SOL     OW11305   3.723   5.786   5.733
 3469SOL    HW111306   3.797   5.731   5.696
 3469SOL    HW211307   3.755   5.833   5.816
 3470SOL     OW11308   1.051   2.543   2.131
 3470SOL    HW111309   0.976   2.481   2.155
 3470SOL    HW211310   1.015   2.621   2.080
 3471SOL     OW11311   4.849   3.043   5.057
 3471SOL    HW111312   4.898   3.130   5.049
 3471SOL    HW211313   4.904   2.977   5.106
 3472SOL     OW11314   4.432   1.681   3.051
 3472SOL    HW111315   4.397   1.771   3.075
 3472SOL    HW211316   4.518   1.691   3.002
 3473SOL     OW11317   5.924   4.757   2.124
 3473SOL    HW111318   6.018   4.786   2.140
 3473SOL    HW211319   5.924   4.674   2.067
 3474SOL     OW11320   4.986   4.713   3.856
 3474SOL    HW111321   5.029   4.803   3.848
 3474SOL    HW211322   5.036   4.646   3.801
 3475SOL     OW11323   0.069   4.551   3.966
 3475SOL    HW111324   0.030   4.539   3.875
 3475SOL    HW211325   0.017   4.497   4.032
 3476SOL     OW11326   1.655   1.435   3.093
 3476SOL    HW111327   1.718   1.414   3.167
 3476SOL    HW211328   1.563   1.447   3.129
 3477SOL     OW11329   0.492   4.433   1.873
 3477SOL    HW111330   0.535   4.403   1.958
 3477SOL    HW211331   0.467   4.353   1.819
 3478SOL     OW11332   2.321   0.664   1.291
 3478SOL    HW111333   2.297   0.747   1.241
 3478SOL    HW211334   2.254   0.648   1.364
 3479SOL     OW11335   1.525   4.887   4.704
 3479SOL    HW111336   1.554   4.967   4.755
 3479SOL    HW211337   1.439   4.853   4.741
 3480SOL     OW11338   1.561   4.778   6.630
 3480SOL    HW111339   1.468   4.804   6.605
 3480SOL    HW211340   1.624   4.852   6.607
 3481SOL     OW11341   6.038   0.556   4.688
 3481SOL    HW111342   6.012   0.479   4.747
 3481SOL    HW211343   5.995   0.546   4.599
 3482SOL     OW11344   5.680   3.130   6.414
 3482SOL    HW111345   5.731   3.052   6.449
 3482SOL    HW211346   5.684   3.205   6.480
 3483SOL     OW11347   5.460   2.837   5.467
 3483SOL    HW111348   5.380   2.878   5.422
 3483SOL    HW211349   5.435   2.748   5.504
 3484SOL     OW11350   1.004   3.832   4.998
 3484SOL    HW111351   0.961   3.745   4.974
 3484SOL    HW211352   0.969   3.864   5.086
 3485SOL     OW11353   6.703   2.809   6.676
 3485SOL    HW111354   6.698   2.844   6.583
 3485SOL    HW211355   6.747   2.877   6.735
 3486SOL     OW11356   1.852   6.576   5.665
 3486SOL    HW111357   1.868   6.522   5.747
 3486SOL    HW211358   1.914   6.655   5.664
 3487SOL     OW11359   4.278   1.320   6.970
 3487SOL    HW111360   4.325   1.396   7.015
 3487SOL    HW211361   4.288   1.328   6.871
 3488SOL     OW11362   5.638   0.228   4.483
 3488SOL    HW111363   5.711   0.232   4.416
 3488SOL    HW211364   5.553   0.264   4.443
 3489SOL     OW11365   3.072   6.281   1.385
 3489SOL    HW111366   3.170   6.287   1.406
 3489SOL    HW211367   3.024   6.358   1.426
 3490SOL     OW11368   3.218   6.661   0.755
 3490SOL    HW111369   3.286   6.699   0.817
 3490SOL    HW211370   3.262   6.599   0.690
 3491SOL     OW11371   4.028   4.774   6.066
 3491SOL    HW111372   4.112   4.809   6.107
 3491SOL    HW211373   4.011   4.822   5.980
 3492SOL     OW11374   6.046   4.536   3.048
 3492SOL    HW111375   6.029   4.450   3.000
 3492SOL    HW211376   6.140   4.564   3.034
 3493SOL     OW11377   6.695   2.907   5.599
 3493SOL    HW111378   6.712   2.893   5.697
 3493SOL    HW211379   6.682   3.005   5.582
 3494SOL     OW11380   4.071   1.929   2.375
 3494SOL    HW111381   4.029   1.838   2.372
 3494SOL    HW211382   4.003   1.996   2.405
 3495SOL     OW11383   1.306   3.370   3.175
 3495SOL    HW111384   1.337   3.284   3.215
 3495SOL    HW211385   1.384   3.423   3.143
 3496SOL     OW11386   5.952   4.964   1.412
 3496SOL    HW111387   6.011   4.893   1.373
 3496SOL    HW211388   5.974   5.052   1.370
 3497SOL     OW11389   3.079   6.921   2.430
 3497SOL    HW111390   3.011   6.901   2.500
 3497SOL    HW211391   3.068   6.857   2.353
 3498SOL     OW11392   2.044   2.605   1.598
 3498SOL    HW111393   2.098   2.594   1.681
 3498SOL    HW211394   1.993   2.691   1.602
 3499SOL     OW11395   6.102   6.398   4.486
 3499SOL    HW111396   6.093   6.492   4.454
 3499SOL    HW211397   6.171   6.394   4.559
 3500SOL     OW11398   2.251   2.248   4.337
 3500SOL    HW111399   2.345   2.250   4.303
 3500SOL    HW211400   2.216   2.342   4.343
 3501SOL     OW11401   1.215   6.977   5.735
 3501SOL    HW111402   1.150   0.022   5.697
 3501SOL    HW211403   1.219   6.987   5.834
 3502SOL     OW11404   4.416   2.469   2.590
 3502SOL    HW111405   4.488   2.449   2.523
 3502SOL    HW211406   4.399   2.568   2.591
 3503SOL     OW11407   6.971   5.916   6.613
 3503SOL    HW111408   6.905   5.841   6.604
 3503SOL    HW211409   6.965   5.955   6.705
 3504SOL     OW11410   1.837   0.384   0.309
 3504SOL    HW111411   1.878   0.427   0.390
 3504SOL    HW211412   1.749   0.344   0.333
 3505SOL     OW11413   4.854   3.971   6.028
 3505SOL    HW111414   4.856   4.060   6.075
 3505SOL    HW211415   4.825   3.985   5.933
 3506SOL     OW11416   4.287   5.156   4.904
 3506SOL    HW111417   4.227   5.119   4.975
 3506SOL    HW211418   4.292   5.255   4.913
 3507SOL     OW11419   3.201   1.134   0.517
 3507SOL    HW111420   3.174   1.165   0.608
 3507SOL    HW211421   3.285   1.181   0.490
 3508SOL     OW11422   3.314   1.366   5.242
 3508SOL    HW111423   3.349   1.409   5.159
 3508SOL    HW211424   3.380   1.298   5.274
 3509SOL     OW11425   3.763   5.733   6.252
 3509SOL    HW111426   3.738   5.638   6.270
 3509SOL    HW211427   3.682   5.783   6.220
 3510SOL     OW11428   2.757   1.234   0.810
 3510SOL    HW111429   2.806   1.218   0.724
 3510SOL    HW211430   2.705   1.319   0.802
 3511SOL     OW11431   2.663   4.530   1.687
 3511SOL    HW111432   2.732   4.525   1.759
 3511SOL    HW211433   2.705   4.509   1.599
 3512SOL     OW11434   0.095   5.767   5.571
 3512SOL    HW111435   0.132   5.845   5.520
 3512SOL    HW211436   0.074   5.795   5.664
 3513SOL     OW11437   6.064   1.726   0.923
 3513SOL    HW111438   6.058   1.703   1.020
 3513SOL    HW211439   6.053   1.825   0.911
 3514SOL     OW11440   3.521   1.662   1.816
 3514SOL    HW111441   3.443   1.599   1.812
 3514SOL    HW211442   3.513   1.730   1.743
 3515SOL     OW11443   0.256   5.325   4.372
 3515SOL    HW111444   0.201   5.313   4.455
 3515SOL    HW211445   0.353   5.325   4.396
 3516SOL     OW11446   5.080   0.723   1.419
 3516SOL    HW111447   5.016   0.680   1.355
 3516SOL    HW211448   5.160   0.664   1.430
 3517SOL     OW11449   5.906   0.649   1.418
 3517SOL    HW111450   5.806   0.647   1.421
 3517SOL    HW211451   5.938   0.742   1.401
 3518SOL     OW11452   5.400   0.647   5.200
 3518SOL    HW111453   5.469   0.601   5.145
 3518SOL    HW211454   5.386   0.740   5.166
 3519SOL     OW11455   3.320   0.499   1.059
 3519SOL    HW111456   3.307   0.421   1.121
 3519SOL    HW211457   3.385   0.474   0.988
 3520SOL     OW11458   2.720   5.975   4.525
 3520SOL    HW111459   2.664   5.897   4.496
 3520SOL    HW211460   2.749   5.963   4.620
 3521SOL     OW11461   2.697   3.141   6.201
 3521SOL    HW111462   2.605   3.112   6.176
 3521SOL    HW211463   2.698   3.172   6.296
 3522SOL     OW11464   0.869   6.239   6.145
 3522SOL    HW111465   0.793   6.244   6.080
 3522SOL    HW211466   0.833   6.220   6.236
 3523SOL     OW11467   2.122   6.182   0.004
 3523SOL    HW111468   2.036   6.132   0.014
 3523SOL    HW211469   2.151   6.178   6.929
 3524SOL     OW11470   4.751   1.367   4.023
 3524SOL    HW111471   4.665   1.337   4.065
 3524SOL    HW211472   4.828   1.332   4.077
 3525SOL     OW11473   0.062   3.261   2.983
 3525SOL    HW111474   0.091   3.328   2.914
 3525SOL    HW211475   0.122   3.269   3.063
 3526SOL     OW11476   7.017   6.598   2.405
 3526SOL    HW111477   6.959   6.676   2.428
 3526SOL    HW211478   0.088   6.630   2.384
 3527SOL     OW11479   0.407   2.488   6.537
 3527SOL    HW111480   0.438   2.487   6.633
 3527SOL    HW211481   0.473   2.441   6.480
 3528SOL     OW11482   2.387   5.901   4.401
 3528SOL    HW111483   2.295   5.934   4.420
 3528SOL    HW211484   2.432   5.962   4.337
 3529SOL     OW11485   4.793   4.890   0.946
 3529SOL    HW111486   4.708   4.866   0.899
 3529SOL    HW211487   4.870   4.851   0.896
 3530SOL     OW11488   6.399   6.580   0.736
 3530SOL    HW111489   6.351   6.615   0.815
 3530SOL    HW211490   6.485   6.538   0.765
 3531SOL     OW11491   4.619   2.601   0.593
 3531SOL    HW111492   4.713   2.584   0.624
 3531SOL    HW211493   4.558   2.604   0.672
 3532SOL     OW11494   1.962   0.987   1.704
 3532SOL    HW111495   2.018   1.062   1.739
 3532SOL    HW211496   2.003   0.900   1.730
 3533SOL     OW11497   0.947   1.579   2.985
 3533SOL    HW111498   0.931   1.676   2.964
 3533SOL    HW211499   1.030   1.571   3.040
 3534SOL     OW11500   6.943   1.246   0.901
 3534SOL    HW111501   6.857   1.200   0.879
 3534SOL    HW211502   7.014   1.178   0.922
 3535SOL     OW11503   2.898   5.919   4.302
 3535SOL    HW111504   2.933   5.833   4.266
 3535SOL    HW211505   2.867   5.906   4.396
 3536SOL     OW11506   3.856   1.614   3.110
 3536SOL    HW111507   3.773   1.666   3.130
 3536SOL    HW211508   3.831   1.525   3.073
 3537SOL     OW11509   1.711   6.953   3.540
 3537SOL    HW111510   1.639   6.984   3.602
 3537SOL    HW211511   1.798   6.994   3.567
 3538SOL     OW11512   2.704   5.724   2.681
 3538SOL    HW111513   2.767   5.647   2.689
 3538SOL    HW211514   2.755   5.810   2.694
 3539SOL     OW11515   3.622   3.479   4.246
 3539SOL    HW111516   3.524   3.483   4.232
 3539SOL    HW211517   3.665   3.425   4.173
 3540SOL     OW11518   1.677   2.201   3.141
 3540SOL    HW111519   1.694   2.297   3.163
 3540SOL    HW211520   1.724   2.178   3.056
 3541SOL     OW11521   3.652   4.131   4.150
 3541SOL    HW111522   3.679   4.228   4.148
 3541SOL    HW211523   3.701   4.084   4.223
 3542SOL     OW11524   6.613   5.296   1.345
 3542SOL    HW111525   6.540   5.269   1.407
 3542SOL    HW211526   6.681   5.349   1.395
 3543SOL     OW11527   5.954   3.212   5.106
 3543SOL    HW111528   5.981   3.198   5.011
 3543SOL    HW211529   5.893   3.137   5.134
 3544SOL     OW11530   2.070   6.524   6.913
 3544SOL    HW111531   2.139   6.488   6.850
 3544SOL    HW211532   2.027   6.604   6.872
 3545SOL     OW11533   3.173   4.796   0.452
 3545SOL    HW111534   3.085   4.842   0.439
 3545SOL    HW211535   3.234   4.818   0.376
 3546SOL     OW11536   0.088   4.921   2.171
 3546SOL    HW111537   0.156   4.891   2.238
 3546SOL    HW211538   7.017   4.899   2.203
 3547SOL     OW11539   4.935   4.613   4.509
 3547SOL    HW111540   4.966   4.541   4.570
 3547SOL    HW211541   5.006   4.683   4.501
 3548SOL     OW11542   4.707   3.340   5.276
 3548SOL    HW111543   4.722   3.365   5.372
 3548SOL    HW211544   4.700   3.422   5.220
 3549SOL     OW11545   6.184   3.356   2.305
 3549SOL    HW111546   6.126   3.280   2.275
 3549SOL    HW211547   6.270   3.320   2.342
 3550SOL     OW11548   5.693   1.885   3.241
 3550SOL    HW111549   5.671   1.837   3.156
 3550SOL    HW211550   5.625   1.958   3.256
 3551SOL     OW11551   2.248   6.776   2.766
 3551SOL    HW111552   2.150   6.792   2.766
 3551SOL    HW211553   2.266   6.677   2.767
 3552SOL     OW11554   6.832   4.774   3.337
 3552SOL    HW111555   6.798   4.728   3.420
 3552SOL    HW211556   6.927   4.748   3.321
 3553SOL     OW11557   5.749   2.107   3.543
 3553SOL    HW111558   5.847   2.112   3.525
 3553SOL    HW211559   5.715   2.198   3.570
 3554SOL     OW11560   3.954   5.804   6.938
 3554SOL    HW111561   3.898   5.765   6.864
 3554SOL    HW211562   3.991   5.892   6.909
 3555SOL     OW11563   0.174   2.369   3.351
 3555SOL    HW111564   0.268   2.402   3.344
 3555SOL    HW211565   0.149   2.320   3.267
 3556SOL     OW11566   4.587   1.078   6.508
 3556SOL    HW111567   4.588   1.156   6.445
 3556SOL    HW211568   4.651   1.096   6.583
 3557SOL     OW11569   0.785   0.336   4.429
 3557SOL    HW111570   0.842   0.266   4.386
 3557SOL    HW211571   0.747   0.300   4.515
 3558SOL     OW11572   6.936   5.807   1.955
 3558SOL    HW111573   6.965   5.833   2.047
 3558SOL    HW211574   6.836   5.813   1.949
 3559SOL     OW11575   1.200   0.559   5.403
 3559SOL    HW111576   1.115   0.613   5.404
 3559SOL    HW211577   1.278   0.620   5.410
 3560SOL     OW11578   6.626   6.374   1.889
 3560SOL    HW111579   6.721   6.343   1.882
 3560SOL    HW211580   6.617   6.437   1.966
 3561SOL     OW11581   5.261   4.362   3.897
 3561SOL    HW111582   5.193   4.362   3.970
 3561SOL    HW211583   5.350   4.389   3.935
 3562SOL     OW11584   3.937   2.218   3.517
 3562SOL    HW111585   3.964   2.263   3.432
 3562SOL    HW211586   4.019   2.201   3.573
 3563SOL     OW11587   5.106   0.271   1.361
 3563SOL    HW111588   5.195   0.300   1.325
 3563SOL    HW211589   5.117   0.239   1.455
 3564SOL     OW11590   6.948   4.537   3.106
 3564SOL    HW111591   6.852   4.542   3.080
 3564SOL    HW211592   7.004   4.585   3.038
 3565SOL     OW11593   1.628   0.625   5.603
 3565SOL    HW111594   1.653   0.535   5.641
 3565SOL    HW211595   1.625   0.619   5.504
 3566SOL     OW11596   0.856   4.671   6.556
 3566SOL    HW111597   0.873   4.770   6.559
 3566SOL    HW211598   0.835   4.644   6.462
 3567SOL     OW11599   0.263   2.760   1.269
 3567SOL    HW111600   0.357   2.759   1.303
 3567SOL    HW211601   0.211   2.832   1.315
 3568SOL     OW11602   4.871   3.955   3.599
 3568SOL    HW111603   4.782   3.913   3.616
 3568SOL    HW211604   4.906   3.995   3.684
 3569SOL     OW11605   4.107   3.720   3.809
 3569SOL    HW111606   4.108   3.750   3.905
 3569SOL    HW211607   4.179   3.653   3.794
 3570SOL     OW11608   0.282   1.562   5.361
 3570SOL    HW111609   0.239   1.597   5.444
 3570SOL    HW211610   0.329   1.637   5.314
 3571SOL     OW11611   2.442   6.817   4.670
 3571SOL    HW111612   2.453   6.793   4.573
 3571SOL    HW211613   2.370   6.885   4.680
 3572SOL     OW11614   5.479   3.685   1.756
 3572SOL    HW111615   5.536   3.691   1.838
 3572SOL    HW211616   5.537   3.670   1.676
 3573SOL     OW11617   0.219   4.799   3.941
 3573SOL    HW111618   0.173   4.711   3.945
 3573SOL    HW211619   0.299   4.798   4.001
 3574SOL     OW11620   1.814   1.836   5.556
 3574SOL    HW111621   1.770   1.871   5.639
 3574SOL    HW211622   1.744   1.813   5.489
 3575SOL     OW11623   5.271   0.063   6.756
 3575SOL    HW111624   5.241   6.994   6.722
 3575SOL    HW211625   5.250   0.133   6.687
 3576SOL     OW11626   1.374   3.018   0.465
 3576SOL    HW111627   1.471   3.026   0.484
 3576SOL    HW211628   1.357   3.036   0.368
 3577SOL     OW11629   1.631   2.760   4.656
 3577SOL    HW111630   1.728   2.772   4.677
 3577SOL    HW211631   1.580   2.837   4.691
 3578SOL     OW11632   3.704   2.705   6.351
 3578SOL    HW111633   3.639   2.749   6.413
 3578SOL    HW211634   3.718   2.763   6.271
 3579SOL     OW11635   0.910   4.167   1.224
 3579SOL    HW111636   0.817   4.177   1.188
 3579SOL    HW211637   0.970   4.134   1.151
 3580SOL     OW11638   6.954   4.312   1.820
 3580SOL    HW111639   6.909   4.337   1.735
 3580SOL    HW211640   0.017   4.262   1.800
 3581SOL     OW11641   1.038   0.729   3.078
 3581SOL    HW111642   1.108   0.734   3.007
 3581SOL    HW211643   0.988   0.816   3.082
 3582SOL     OW11644   4.271   5.698   6.843
 3582SOL    HW111645   4.228   5.742   6.922
 3582SOL    HW211646   4.200   5.660   6.784
 3583SOL     OW11647   1.594   5.361   1.374
 3583SOL    HW111648   1.499   5.393   1.374
 3583SOL    HW211649   1.595   5.263   1.395
 3584SOL     OW11650   5.582   4.841   4.701
 3584SOL    HW111651   5.515   4.852   4.775
 3584SOL    HW211652   5.669   4.883   4.728
 3585SOL     OW11653   3.561   1.880   3.562
 3585SOL    HW111654   3.643   1.850   3.514
 3585SOL    HW211655   3.497   1.919   3.496
 3586SOL     OW11656   6.670   1.585   5.660
 3586SOL    HW111657   6.652   1.683   5.667
 3586SOL    HW211658   6.587   1.534   5.683
 3587SOL     OW11659   3.100   0.692   6.150
 3587SOL    HW111660   3.173   0.701   6.082
 3587SOL    HW211661   3.139   0.660   6.236
 3588SOL     OW11662   5.767   4.492   4.649
 3588SOL    HW111663   5.814   4.450   4.571
 3588SOL    HW211664   5.835   4.520   4.717
 3589SOL     OW11665   0.889   6.981   6.265
 3589SOL    HW111666   0.831   6.901   6.251
 3589SOL    HW211667   0.876   7.017   6.357
 3590SOL     OW11668   6.798   5.842   5.663
 3590SOL    HW111669   6.856   5.775   5.709
 3590SOL    HW211670   6.786   5.922   5.721
 3591SOL     OW11671   5.290   1.964   0.393
 3591SOL    HW111672   5.270   1.934   0.487
 3591SOL    HW211673   5.295   1.884   0.333
 3592SOL     OW11674   1.144   6.220   1.361
 3592SOL    HW111675   1.172   6.151   1.428
 3592SOL    HW211676   1.193   6.205   1.275
 3593SOL     OW11677   4.034   3.265   5.624
 3593SOL    HW111678   4.051   3.202   5.548
 3593SOL    HW211679   4.058   3.222   5.710
 3594SOL     OW11680   4.559   4.992   5.222
 3594SOL    HW111681   4.470   4.948   5.230
 3594SOL    HW211682   4.548   5.091   5.223
 3595SOL     OW11683   5.458   6.136   4.461
 3595SOL    HW111684   5.492   6.103   4.550
 3595SOL    HW211685   5.526   6.116   4.391
 3596SOL     OW11686   4.242   1.977   2.696
 3596SOL    HW111687   4.239   2.032   2.613
 3596SOL    HW211688   4.149   1.948   2.720
 3597SOL     OW11689   3.336   3.831   5.713
 3597SOL    HW111690   3.294   3.905   5.766
 3597SOL    HW211691   3.355   3.863   5.620
 3598SOL     OW11692   6.877   5.602   4.929
 3598SOL    HW111693   6.848   5.672   4.864
 3598SOL    HW211694   6.796   5.555   4.965
 3599SOL     OW11695   2.588   1.577   5.166
 3599SOL    HW111696   2.561   1.556   5.072
 3599SOL    HW211697   2.686   1.595   5.170
 3600SOL     OW11698   2.649   3.729   6.645
 3600SOL    HW111699   2.575   3.769   6.698
 3600SOL    HW211700   2.627   3.633   6.624
 3601SOL     OW11701   4.804   0.796   5.014
 3601SOL    HW111702   4.843   0.879   4.974
 3601SOL    HW211703   4.809   0.722   4.946
 3602SOL     OW11704   1.284   2.064   1.427
 3602SOL    HW111705   1.238   1.988   1.472
 3602SOL    HW211706   1.323   2.125   1.496
 3603SOL     OW11707   2.317   1.086   5.476
 3603SOL    HW111708   2.325   1.094   5.576
 3603SOL    HW211709   2.402   1.116   5.434
 3604SOL     OW11710   0.082   1.054   3.337
 3604SOL    HW111711   0.121   0.971   3.296
 3604SOL    HW211712   0.122   1.068   3.428
 3605SOL     OW11713   1.259   0.315   4.994
 3605SOL    HW111714   1.160   0.324   4.979
 3605SOL    HW211715   1.279   0.226   5.034
 3606SOL     OW11716   1.981   6.837   2.469
 3606SOL    HW111717   1.936   6.764   2.521
 3606SOL    HW211718   1.996   6.916   2.529
 3607SOL     OW11719   6.549   1.556   3.137
 3607SOL    HW111720   6.637   1.518   3.108
 3607SOL    HW211721   6.486   1.556   3.059
 3608SOL     OW11722   3.443   1.960   5.335
 3608SOL    HW111723   3.407   2.053   5.326
 3608SOL    HW211724   3.393   1.898   5.274
 3609SOL     OW11725   3.763   0.389   5.557
 3609SOL    HW111726   3.748   0.358   5.463
 3609SOL    HW211727   3.791   0.485   5.557
 3610SOL     OW11728   1.886   1.149   5.847
 3610SOL    HW111729   1.839   1.226   5.804
 3610SOL    HW211730   1.902   1.077   5.779
 3611SOL     OW11731   5.614   4.076   2.807
 3611SOL    HW111732   5.675   4.155   2.803
 3611SOL    HW211733   5.578   4.056   2.716
 3612SOL     OW11734   4.539   2.108   0.509
 3612SOL    HW111735   4.573   2.199   0.484
 3612SOL    HW211736   4.612   2.040   0.496
 3613SOL     OW11737   3.777   6.836   3.317
 3613SOL    HW111738   3.788   6.804   3.412
 3613SOL    HW211739   3.747   6.760   3.260
 3614SOL     OW11740   3.344   6.084   6.845
 3614SOL    HW111741   3.366   6.168   6.894
 3614SOL    HW211742   3.254   6.051   6.875
 3615SOL     OW11743   4.978   3.106   5.574
 3615SOL    HW111744   4.950   3.182   5.515
 3615SOL    HW211745   4.910   3.094   5.646
 3616SOL     OW11746   1.468   2.538   0.029
 3616SOL    HW111747   1.511   2.627   0.044
 3616SOL    HW211748   1.375   2.551   7.017
 3617SOL     OW11749   4.123   5.565   5.456
 3617SOL    HW111750   4.201   5.571   5.519
 3617SOL    HW211751   4.125   5.643   5.393
 3618SOL     OW11752   1.560   5.670   4.417
 3618SOL    HW111753   1.629   5.625   4.474
 3618SOL    HW211754   1.524   5.604   4.351
 3619SOL     OW11755   6.236   2.076   2.764
 3619SOL    HW111756   6.279   2.059   2.676
 3619SOL    HW211757   6.270   2.162   2.802
 3620SOL     OW11758   5.441   5.823   5.248
 3620SOL    HW111759   5.533   5.828   5.285
 3620SOL    HW211760   5.444   5.791   5.153
 3621SOL     OW11761   3.834   3.007   3.761
 3621SOL    HW111762   3.819   2.912   3.788
 3621SOL    HW211763   3.791   3.068   3.828
 3622SOL     OW11764   1.976   5.361   6.477
 3622SOL    HW111765   1.959   5.331   6.384
 3622SOL    HW211766   1.938   5.453   6.490
 3623SOL     OW11767   1.470   5.830   6.061
 3623SOL    HW111768   1.450   5.780   5.976
 3623SOL    HW211769   1.386   5.844   6.112
 3624SOL     OW11770   2.372   2.225   2.356
 3624SOL    HW111771   2.368   2.324   2.338
 3624SOL    HW211772   2.443   2.184   2.299
 3625SOL     OW11773   6.148   2.544   1.505
 3625SOL    HW111774   6.135   2.571   1.410
 3625SOL    HW211775   6.060   2.516   1.544
 3626SOL     OW11776   1.722   2.810   5.622
 3626SOL    HW111777   1.658   2.742   5.586
 3626SOL    HW211778   1.736   2.794   5.720
 3627SOL     OW11779   3.447   1.650   2.561
 3627SOL    HW111780   3.386   1.651   2.482
 3627SOL    HW211781   3.527   1.593   2.541
 3628SOL     OW11782   6.920   1.427   1.368
 3628SOL    HW111783   6.973   1.474   1.438
 3628SOL    HW211784   6.876   1.495   1.309
 3629SOL     OW11785   1.456   1.005   4.301
 3629SOL    HW111786   1.382   0.975   4.361
 3629SOL    HW211787   1.542   1.006   4.353
 3630SOL     OW11788   6.459   2.195   2.868
 3630SOL    HW111789   6.387   2.263   2.888
 3630SOL    HW211790   6.450   2.118   2.930
 3631SOL     OW11791   2.079   6.154   2.595
 3631SOL    HW111792   2.114   6.240   2.559
 3631SOL    HW211793   2.153   6.104   2.640
 3632SOL     OW11794   4.977   3.245   2.499
 3632SOL    HW111795   4.909   3.200   2.557
 3632SOL    HW211796   4.933   3.276   2.415
 3633SOL     OW11797   4.077   4.340   0.050
 3633SOL    HW111798   4.121   4.251   0.050
 3633SOL    HW211799   4.084   4.381   0.141
 3634SOL     OW11800   3.022   5.576   6.895
 3634SOL    HW111801   2.987   5.593   6.987
 3634SOL    HW211802   2.962   5.619   6.827
 3635SOL     OW11803   1.221   6.472   2.509
 3635SOL    HW111804   1.248   6.562   2.544
 3635SOL    HW211805   1.240   6.402   2.579
 3636SOL     OW11806   0.157   5.673   4.908
 3636SOL    HW111807   0.068   5.638   4.938
 3636SOL    HW211808   0.157   5.773   4.914
 3637SOL     OW11809   6.012   2.787   6.820
 3637SOL    HW111810   6.010   2.885   6.800
 3637SOL    HW211811   6.049   2.773   6.912
 3638SOL     OW11812   0.268   3.031   3.384
 3638SOL    HW111813   0.185   2.975   3.390
 3638SOL    HW211814   0.308   3.042   3.475
 3639SOL     OW11815   4.137   3.465   4.718
 3639SOL    HW111816   4.139   3.400   4.642
 3639SOL    HW211817   4.103   3.418   4.800
 3640SOL     OW11818   4.424   1.649   2.426
 3640SOL    HW111819   4.410   1.666   2.328
 3640SOL    HW211820   4.336   1.630   2.469
 3641SOL     OW11821   6.576   3.721   1.974
 3641SOL    HW111822   6.551   3.630   1.942
 3641SOL    HW211823   6.560   3.788   1.901
 3642SOL     OW11824   5.104   4.237   6.717
 3642SOL    HW111825   5.131   4.208   6.626
 3642SOL    HW211826   5.005   4.252   6.720
 3643SOL     OW11827   4.326   5.786   4.978
 3643SOL    HW111828   4.362   5.697   5.008
 3643SOL    HW211829   4.228   5.788   4.993
 3644SOL     OW11830   2.798   0.865   1.759
 3644SOL    HW111831   2.763   0.952   1.723
 3644SOL    HW211832   2.811   0.801   1.683
 3645SOL     OW11833   1.689   4.266   3.467
 3645SOL    HW111834   1.697   4.338   3.537
 3645SOL    HW211835   1.780   4.239   3.437
 3646SOL     OW11836   2.100   5.077   5.388
 3646SOL    HW111837   2.078   4.980   5.398
 3646SOL    HW211838   2.017   5.131   5.398
 3647SOL     OW11839   3.709   0.131   0.746
 3647SOL    HW111840   3.735   0.228   0.752
 3647SOL    HW211841   3.633   0.121   0.681
 3648SOL     OW11842   5.145   4.334   3.185
 3648SOL    HW111843   5.184   4.319   3.094
 3648SOL    HW211844   5.046   4.320   3.181
 3649SOL     OW11845   5.139   2.602   0.251
 3649SOL    HW111846   5.228   2.558   0.257
 3649SOL    HW211847   5.149   2.701   0.263
 3650SOL     OW11848   5.653   6.079   6.023
 3650SOL    HW111849   5.630   6.072   6.120
 3650SOL    HW211850   5.714   6.157   6.008
 3651SOL     OW11851   0.682   2.107   5.944
 3651SOL    HW111852   0.633   2.162   5.876
 3651SOL    HW211853   0.653   2.134   6.036
 3652SOL     OW11854   4.707   2.658   2.789
 3652SOL    HW111855   4.731   2.566   2.821
 3652SOL    HW211856   4.690   2.718   2.868
 3653SOL     OW11857   2.391   1.529   0.704
 3653SOL    HW111858   2.422   1.468   0.631
 3653SOL    HW211859   2.373   1.476   0.787
 3654SOL     OW11860   3.944   6.539   1.790
 3654SOL    HW111861   3.898   6.572   1.707
 3654SOL    HW211862   4.029   6.492   1.764
 3655SOL     OW11863   1.031   0.864   3.924
 3655SOL    HW111864   1.131   0.861   3.921
 3655SOL    HW211865   0.999   0.954   3.896
 3656SOL     OW11866   0.203   0.069   0.620
 3656SOL    HW111867   0.124   0.039   0.567
 3656SOL    HW211868   0.190   0.163   0.649
 3657SOL     OW11869   5.696   5.058   6.093
 3657SOL    HW111870   5.735   5.121   6.025
 3657SOL    HW211871   5.767   5.034   6.160
 3658SOL     OW11872   1.628   4.249   5.073
 3658SOL    HW111873   1.646   4.179   5.004
 3658SOL    HW211874   1.710   4.303   5.089
 3659SOL     OW11875   0.961   2.349   6.361
 3659SOL    HW111876   0.933   2.288   6.288
 3659SOL    HW211877   0.943   2.444   6.334
 3660SOL     OW11878   3.784   5.284   5.204
 3660SOL    HW111879   3.792   5.192   5.166
 3660SOL    HW211880   3.843   5.293   5.284
 3661SOL     OW11881   0.915   1.442   4.632
 3661SOL    HW111882   0.861   1.524   4.610
 3661SOL    HW211883   1.006   1.451   4.592
 3662SOL     OW11884   3.437   1.616   5.596
 3662SOL    HW111885   3.378   1.602   5.517
 3662SOL    HW211886   3.533   1.604   5.569
 3663SOL     OW11887   1.891   2.335   6.390
 3663SOL    HW111888   1.907   2.290   6.302
 3663SOL    HW211889   1.977   2.373   6.424
 3664SOL     OW11890   2.737   1.954   1.126
 3664SOL    HW111891   2.833   1.969   1.104
 3664SOL    HW211892   2.699   2.035   1.170
 3665SOL     OW11893   6.756   5.859   5.238
 3665SOL    HW111894   6.720   5.786   5.296
 3665SOL    HW211895   6.693   5.874   5.161
 3666SOL     OW11896   2.039   3.299   4.296
 3666SOL    HW111897   2.038   3.208   4.339
 3666SOL    HW211898   2.097   3.360   4.349
 3667SOL     OW11899   1.881   6.558   0.918
 3667SOL    HW111900   1.923   6.622   0.855
 3667SOL    HW211901   1.929   6.561   1.006
 3668SOL     OW11902   5.949   1.092   0.954
 3668SOL    HW111903   5.911   1.184   0.939
 3668SOL    HW211904   6.047   1.099   0.970
 3669SOL     OW11905   6.633   1.082   1.737
 3669SOL    HW111906   6.692   1.116   1.663
 3669SOL    HW211907   6.559   1.028   1.698
 3670SOL     OW11908   1.962   6.748   2.201
 3670SOL    HW111909   1.985   6.786   2.291
 3670SOL    HW211910   2.014   6.664   2.186
 3671SOL     OW11911   0.002   0.701   4.868
 3671SOL    HW111912   6.977   0.647   4.939
 3671SOL    HW211913   6.965   0.778   4.841
 3672SOL     OW11914   4.442   0.416   3.276
 3672SOL    HW111915   4.371   0.390   3.211
 3672SOL    HW211916   4.409   0.399   3.369
 3673SOL     OW11917   3.277   0.942   1.625
 3673SOL    HW111918   3.194   0.926   1.572
 3673SOL    HW211919   3.352   0.888   1.588
 3674SOL     OW11920   0.496   4.350   5.775
 3674SOL    HW111921   0.426   4.379   5.840
 3674SOL    HW211922   0.453   4.299   5.701
 3675SOL     OW11923   6.564   0.695   4.527
 3675SOL    HW111924   6.470   0.718   4.552
 3675SOL    HW211925   6.620   0.778   4.527
 3676SOL     OW11926   2.888   1.047   5.758
 3676SOL    HW111927   2.813   1.045   5.824
 3676SOL    HW211928   2.914   1.142   5.740
 3677SOL     OW11929   1.562   0.834   4.660
 3677SOL    HW111930   1.590   0.796   4.748
 3677SOL    HW211931   1.478   0.886   4.671
 3678SOL     OW11932   2.695   1.162   3.062
 3678SOL    HW111933   2.615   1.217   3.085
 3678SOL    HW211934   2.718   1.174   2.965
 3679SOL     OW11935   2.847   0.915   2.271
 3679SOL    HW111936   2.822   0.970   2.191
 3679SOL    HW211937   2.768   0.861   2.300
 3680SOL     OW11938   3.821   2.150   4.457
 3680SOL    HW111939   3.746   2.207   4.426
 3680SOL    HW211940   3.873   2.117   4.378
 3681SOL     OW11941   1.337   6.273   3.857
 3681SOL    HW111942   1.412   6.267   3.791
 3681SOL    HW211943   1.298   6.182   3.873
 3682SOL     OW11944   5.556   2.207   1.320
 3682SOL    HW111945   5.641   2.170   1.282
 3682SOL    HW211946   5.541   2.168   1.411
 3683SOL     OW11947   6.643   1.879   0.805
 3683SOL    HW111948   6.543   1.878   0.796
 3683SOL    HW211949   6.681   1.950   0.746
 3684SOL     OW11950   2.446   6.395   5.794
 3684SOL    HW111951   2.424   6.390   5.892
 3684SOL    HW211952   2.438   6.303   5.754
 3685SOL     OW11953   2.621   6.722   4.076
 3685SOL    HW111954   2.618   6.814   4.113
 3685SOL    HW211955   2.588   6.722   3.982
 3686SOL     OW11956   6.858   4.022   0.410
 3686SOL    HW111957   6.952   4.049   0.425
 3686SOL    HW211958   6.798   4.069   0.475
 3687SOL     OW11959   6.332   4.493   4.344
 3687SOL    HW111960   6.354   4.548   4.424
 3687SOL    HW211961   6.410   4.435   4.321
 3688SOL     OW11962   6.858   2.893   1.513
 3688SOL    HW111963   6.913   2.817   1.549
 3688SOL    HW211964   6.765   2.862   1.498
 3689SOL     OW11965   1.493   1.376   5.616
 3689SOL    HW111966   1.464   1.331   5.700
 3689SOL    HW211967   1.414   1.388   5.556
 3690SOL     OW11968   6.224   4.494   1.621
 3690SOL    HW111969   6.180   4.414   1.580
 3690SOL    HW211970   6.169   4.575   1.602
 3691SOL     OW11971   1.680   2.401   0.859
 3691SOL    HW111972   1.706   2.310   0.828
 3691SOL    HW211973   1.758   2.444   0.904
 3692SOL     OW11974   1.536   3.060   5.300
 3692SOL    HW111975   1.609   2.992   5.311
 3692SOL    HW211976   1.468   3.047   5.372
 3693SOL     OW11977   0.077   1.407   2.507
 3693SOL    HW111978   0.123   1.425   2.594
 3693SOL    HW211979   0.082   1.309   2.486
 3694SOL     OW11980   6.787   6.672   1.983
 3694SOL    HW111981   6.706   6.631   1.941
 3694SOL    HW211982   6.786   6.657   2.081
 3695SOL     OW11983   6.336   3.874   3.441
 3695SOL    HW111984   6.240   3.854   3.459
 3695SOL    HW211985   6.346   3.971   3.416
 3696SOL     OW11986   4.415   0.159   4.079
 3696SOL    HW111987   4.402   0.246   4.032
 3696SOL    HW211988   4.360   0.157   4.163
 3697SOL     OW11989   6.162   5.561   3.021
 3697SOL    HW111990   6.128   5.622   2.950
 3697SOL    HW211991   6.241   5.511   2.987
 3698SOL     OW11992   1.283   6.758   4.281
 3698SOL    HW111993   1.328   6.710   4.357
 3698SOL    HW211994   1.334   6.743   4.197
 3699SOL     OW11995   2.698   1.876   2.856
 3699SOL    HW111996   2.749   1.961   2.837
 3699SOL    HW211997   2.749   1.798   2.820
 3700SOL     OW11998   1.389   5.263   4.366
 3700SOL    HW111999   1.421   5.252   4.460
 3700SOL    HW212000   1.447   5.329   4.318
 3701SOL     OW12001   0.100   0.632   1.913
 3701SOL    HW112002   0.132   0.639   2.007
 3701SOL    HW212003   0.130   0.545   1.873
 3702SOL     OW12004   6.569   4.600   3.486
 3702SOL    HW112005   6.565   4.686   3.435
 3702SOL    HW212006   6.664   4.572   3.497
 3703SOL     OW12007   1.081   2.176   2.782
 3703SOL    HW112008   1.058   2.234   2.860
 3703SOL    HW212009   1.118   2.232   2.708
 3704SOL     OW12010   6.035   6.698   0.616
 3704SOL    HW112011   6.124   6.709   0.571
 3704SOL    HW212012   6.047   6.645   0.700
 3705SOL     OW12013   6.298   4.148   3.368
 3705SOL    HW112014   6.242   4.128   3.287
 3705SOL    HW212015   6.394   4.132   3.348
 3706SOL     OW12016   1.027   5.277   6.479
 3706SOL    HW112017   0.939   5.289   6.432
 3706SOL    HW212018   1.096   5.333   6.434
 3707SOL     OW12019   0.592   5.037   3.796
 3707SOL    HW112020   0.577   4.938   3.788
 3707SOL    HW212021   0.689   5.057   3.786
 3708SOL     OW12022   1.623   5.944   0.003
 3708SOL    HW112023   1.582   5.954   0.094
 3708SOL    HW212024   1.559   5.980   6.955
 3709SOL     OW12025   0.388   1.566   2.431
 3709SOL    HW112026   0.416   1.633   2.362
 3709SOL    HW212027   0.429   1.589   2.519
 3710SOL     OW12028   2.167   4.159   5.604
 3710SOL    HW112029   2.128   4.251   5.604
 3710SOL    HW212030   2.111   4.099   5.548
 3711SOL     OW12031   1.843   5.344   5.189
 3711SOL    HW112032   1.847   5.312   5.284
 3711SOL    HW212033   1.795   5.276   5.133
 3712SOL     OW12034   3.121   5.309   4.331
 3712SOL    HW112035   3.070   5.385   4.291
 3712SOL    HW212036   3.166   5.258   4.258
 3713SOL     OW12037   6.094   0.150   5.491
 3713SOL    HW112038   6.167   0.085   5.469
 3713SOL    HW212039   6.041   0.168   5.408
 3714SOL     OW12040   0.194   5.098   6.859
 3714SOL    HW112041   0.136   5.179   6.847
 3714SOL    HW212042   0.216   5.060   6.769
 3715SOL     OW12043   6.448   4.586   3.233
 3715SOL    HW112044   6.461   4.685   3.226
 3715SOL    HW212045   6.466   4.556   3.327
 3716SOL     OW12046   5.565   5.801   5.926
 3716SOL    HW112047   5.555   5.778   5.829
 3716SOL    HW212048   5.530   5.893   5.942
 3717SOL     OW12049   4.887   0.483   1.347
 3717SOL    HW112050   4.829   0.532   1.412
 3717SOL    HW212051   4.946   0.419   1.397
 3718SOL     OW12052   5.427   6.935   6.488
 3718SOL    HW112053   5.516   6.890   6.496
 3718SOL    HW212054   5.360   6.885   6.542
 3719SOL     OW12055   2.777   4.125   0.333
 3719SOL    HW112056   2.737   4.034   0.321
 3719SOL    HW212057   2.866   4.128   0.288
 3720SOL     OW12058   0.130   2.228   1.313
 3720SOL    HW112059   0.106   2.278   1.396
 3720SOL    HW212060   0.168   2.291   1.245
 3721SOL     OW12061   6.242   6.977   6.294
 3721SOL    HW112062   6.213   6.914   6.222
 3721SOL    HW212063   6.341   6.983   6.296
 3722SOL     OW12064   6.045   6.572   1.180
 3722SOL    HW112065   6.026   6.545   1.275
 3722SOL    HW212066   6.136   6.613   1.175
 3723SOL     OW12067   4.640   4.273   6.287
 3723SOL    HW112068   4.580   4.337   6.239
 3723SOL    HW212069   4.638   4.293   6.385
 3724SOL     OW12070   6.656   4.632   4.851
 3724SOL    HW112071   6.718   4.681   4.789
 3724SOL    HW212072   6.630   4.692   4.926
 3725SOL     OW12073   0.335   6.167   0.429
 3725SOL    HW112074   0.353   6.111   0.348
 3725SOL    HW212075   0.301   6.256   0.401
 3726SOL     OW12076   6.152   3.635   5.167
 3726SOL    HW112077   6.130   3.567   5.097
 3726SOL    HW212078   6.213   3.704   5.129
 3727SOL     OW12079   6.840   1.705   4.290
 3727SOL    HW112080   6.898   1.623   4.288
 3727SOL    HW212081   6.762   1.693   4.228
 3728SOL     OW12082   2.034   4.429   0.647
 3728SOL    HW112083   1.943   4.418   0.687
 3728SOL    HW212084   2.027   4.420   0.547
 3729SOL     OW12085   0.052   0.173   6.145
 3729SOL    HW112086   0.051   0.087   6.093
 3729SOL    HW212087   0.116   0.237   6.103
 3730SOL     OW12088   5.038   4.875   4.201
 3730SOL    HW112089   5.105   4.806   4.228
 3730SOL    HW212090   5.082   4.944   4.144
 3731SOL     OW12091   0.319   1.859   1.326
 3731SOL    HW112092   0.336   1.934   1.263
 3731SOL    HW212093   0.243   1.803   1.291
 3732SOL     OW12094   3.753   2.940   6.920
 3732SOL    HW112095   3.688   2.903   6.986
 3732SOL    HW212096   3.709   2.949   6.831
 3733SOL     OW12097   1.805   1.129   3.462
 3733SOL    HW112098   1.778   1.136   3.559
 3733SOL    HW212099   1.764   1.204   3.410
 3734SOL     OW12100   3.425   0.427   1.936
 3734SOL    HW112101   3.395   0.408   1.843
 3734SOL    HW212102   3.406   0.348   1.995
 3735SOL     OW12103   4.431   1.024   2.699
 3735SOL    HW112104   4.463   0.939   2.741
 3735SOL    HW212105   4.502   1.094   2.706
 3736SOL     OW12106   0.680   1.888   0.076
 3736SOL    HW112107   0.687   1.806   0.134
 3736SOL    HW212108   0.726   1.964   0.121
 3737SOL     OW12109   6.075   2.407   3.817
 3737SOL    HW112110   6.057   2.362   3.730
 3737SOL    HW212111   6.168   2.444   3.817
 3738SOL     OW12112   0.381   1.230   1.362
 3738SOL    HW112113   0.389   1.170   1.282
 3738SOL    HW212114   0.299   1.205   1.414
 3739SOL     OW12115   2.915   4.580   6.753
 3739SOL    HW112116   2.848   4.639   6.799
 3739SOL    HW212117   2.969   4.532   6.822
 3740SOL     OW12118   5.294   6.036   6.821
 3740SOL    HW112119   5.197   6.028   6.797
 3740SOL    HW212120   5.328   6.126   6.793
 3741SOL     OW12121   5.599   4.091   0.332
 3741SOL    HW112122   5.672   4.056   0.273
 3741SOL    HW212123   5.620   4.071   0.427
 3742SOL     OW12124   4.902   5.494   1.279
 3742SOL    HW112125   4.995   5.500   1.242
 3742SOL    HW212126   4.852   5.422   1.231
 3743SOL     OW12127   2.525   3.986   0.695
 3743SOL    HW112128   2.603   3.936   0.732
 3743SOL    HW212129   2.557   4.067   0.646
 3744SOL     OW12130   6.596   6.096   2.656
 3744SOL    HW112131   6.566   6.078   2.562
 3744SOL    HW212132   6.525   6.067   2.720
 3745SOL     OW12133   5.643   2.370   2.681
 3745SOL    HW112134   5.565   2.432   2.668
 3745SOL    HW212135   5.665   2.364   2.778
 3746SOL     OW12136   5.011   6.856   4.896
 3746SOL    HW112137   4.917   6.889   4.907
 3746SOL    HW212138   5.010   6.762   4.860
 3747SOL     OW12139   2.401   5.805   5.578
 3747SOL    HW112140   2.409   5.869   5.654
 3747SOL    HW212141   2.383   5.713   5.614
 3748SOL     OW12142   4.818   2.471   3.291
 3748SOL    HW112143   4.781   2.515   3.373
 3748SOL    HW212144   4.763   2.391   3.269
 3749SOL     OW12145   6.209   6.756   1.773
 3749SOL    HW112146   6.259   6.776   1.857
 3749SOL    HW212147   6.253   6.680   1.725
 3750SOL     OW12148   5.683   4.413   1.140
 3750SOL    HW112149   5.629   4.334   1.111
 3750SOL    HW212150   5.758   4.427   1.075
 3751SOL     OW12151   1.181   4.608   0.301
 3751SOL    HW112152   1.124   4.667   0.359
 3751SOL    HW212153   1.125   4.535   0.262
 3752SOL     OW12154   1.078   6.341   5.927
 3752SOL    HW112155   1.051   6.335   5.831
 3752SOL    HW212156   0.998   6.328   5.985
 3753SOL     OW12157   0.692   0.711   5.417
 3753SOL    HW112158   0.782   0.724   5.460
 3753SOL    HW212159   0.634   0.655   5.476
 3754SOL     OW12160   6.628   5.927   1.502
 3754SOL    HW112161   6.627   5.863   1.426
 3754SOL    HW212162   6.637   5.876   1.588
 3755SOL     OW12163   4.550   2.483   3.032
 3755SOL    HW112164   4.632   2.508   2.979
 3755SOL    HW212165   4.482   2.444   2.970
 3756SOL     OW12166   3.596   6.882   0.436
 3756SOL    HW112167   3.604   6.982   0.430
 3756SOL    HW212168   3.678   6.844   0.479
 3757SOL     OW12169   3.756   4.819   6.530
 3757SOL    HW112170   3.780   4.915   6.548
 3757SOL    HW212171   3.820   4.780   6.463
 3758SOL     OW12172   6.578   0.865   2.375
 3758SOL    HW112173   6.633   0.794   2.419
 3758SOL    HW212174   6.481   0.844   2.390
 3759SOL     OW12175   5.047   4.244   0.902
 3759SOL    HW112176   4.974   4.311   0.910
 3759SOL    HW212177   5.025   4.163   0.957
 3760SOL     OW12178   1.626   1.535   5.955
 3760SOL    HW112179   1.529   1.511   5.949
 3760SOL    HW212180   1.659   1.519   6.048
 3761SOL     OW12181   6.606   6.232   4.036
 3761SOL    HW112182   6.554   6.191   4.111
 3761SOL    HW212183   6.544   6.283   3.977
 3762SOL     OW12184   0.446   2.803   0.311
 3762SOL    HW112185   0.368   2.798   0.249
 3762SOL    HW212186   0.484   2.896   0.310
 3763SOL     OW12187   0.364   3.439   4.718
 3763SOL    HW112188   0.326   3.515   4.665
 3763SOL    HW212189   0.292   3.399   4.774
 3764SOL     OW12190   2.125   0.273   4.119
 3764SOL    HW112191   2.061   0.307   4.050
 3764SOL    HW212192   2.115   0.174   4.127
 3765SOL     OW12193   6.028   1.356   3.530
 3765SOL    HW112194   6.060   1.267   3.498
 3765SOL    HW212195   6.098   1.398   3.588
 3766SOL     OW12196   1.698   1.288   5.257
 3766SOL    HW112197   1.693   1.210   5.319
 3766SOL    HW212198   1.718   1.371   5.309
 3767SOL     OW12199   0.311   4.828   0.217
 3767SOL    HW112200   0.364   4.750   0.183
 3767SOL    HW212201   0.225   4.796   0.255
 3768SOL     OW12202   4.590   6.399   1.218
 3768SOL    HW112203   4.504   6.377   1.172
 3768SOL    HW212204   4.573   6.413   1.316
 3769SOL     OW12205   4.235   6.777   5.059
 3769SOL    HW112206   4.273   6.869   5.061
 3769SOL    HW212207   4.303   6.714   5.022
 3770SOL     OW12208   1.794   2.788   0.478
 3770SOL    HW112209   1.886   2.768   0.513
 3770SOL    HW212210   1.763   2.712   0.421
 3771SOL     OW12211   4.290   1.387   5.448
 3771SOL    HW112212   4.279   1.368   5.351
 3771SOL    HW212213   4.233   1.465   5.474
 3772SOL     OW12214   4.849   0.742   2.496
 3772SOL    HW112215   4.778   0.736   2.425
 3772SOL    HW212216   4.819   0.804   2.568
 3773SOL     OW12217   6.338   2.744   0.721
 3773SOL    HW112218   6.404   2.688   0.670
 3773SOL    HW212219   6.246   2.724   0.688
 3774SOL     OW12220   0.806   1.413   1.870
 3774SOL    HW112221   0.731   1.466   1.831
 3774SOL    HW212222   0.892   1.442   1.829
 3775SOL     OW12223   5.336   2.895   3.629
 3775SOL    HW112224   5.310   2.921   3.722
 3775SOL    HW212225   5.266   2.927   3.565
 3776SOL     OW12226   2.643   2.051   6.591
 3776SOL    HW112227   2.701   2.009   6.520
 3776SOL    HW212228   2.572   2.105   6.548
 3777SOL     OW12229   0.946   4.491   2.897
 3777SOL    HW112230   1.026   4.434   2.916
 3777SOL    HW212231   0.932   4.496   2.798
 3778SOL     OW12232   2.307   6.896   1.931
 3778SOL    HW112233   2.369   6.860   2.001
 3778SOL    HW212234   2.321   6.846   1.846
 3779SOL     OW12235   2.155   4.535   0.054
 3779SOL    HW112236   2.081   4.569   7.017
 3779SOL    HW212237   2.227   4.494   7.018
 3780SOL     OW12238   2.383   0.297   4.039
 3780SOL    HW112239   2.406   0.394   4.042
 3780SOL    HW212240   2.305   0.280   4.100
 3781SOL     OW12241   3.050   5.532   4.943
 3781SOL    HW112242   3.064   5.433   4.948
 3781SOL    HW212243   3.054   5.570   5.035
 3782SOL     OW12244   2.660   0.798   2.439
 3782SOL    HW112245   2.562   0.812   2.446
 3782SOL    HW212246   2.684   0.708   2.474
 3783SOL     OW12247   4.941   5.272   4.403
 3783SOL    HW112248   4.894   5.185   4.388
 3783SOL    HW212249   5.013   5.260   4.472
 3784SOL     OW12250   5.341   2.166   4.489
 3784SOL    HW112251   5.373   2.116   4.570
 3784SOL    HW212252   5.282   2.241   4.518
 3785SOL     OW12253   0.960   0.685   2.005
 3785SOL    HW112254   0.988   0.592   1.984
 3785SOL    HW212255   0.992   0.746   1.932
 3786SOL     OW12256   2.933   6.357   2.855
 3786SOL    HW112257   2.982   6.301   2.788
 3786SOL    HW212258   2.907   6.444   2.813
 3787SOL     OW12259   4.721   0.945   4.223
 3787SOL    HW112260   4.770   0.915   4.141
 3787SOL    HW212261   4.782   1.002   4.279
 3788SOL     OW12262   6.969   3.961   2.546
 3788SOL    HW112263   6.898   4.029   2.534
 3788SOL    HW212264   6.987   3.947   2.643
 3789SOL     OW12265   1.340   5.042   1.796
 3789SOL    HW112266   1.327   5.079   1.888
 3789SOL    HW212267   1.411   4.972   1.798
 3790SOL     OW12268   2.091   3.096   3.422
 3790SOL    HW112269   2.069   3.177   3.476
 3790SOL    HW212270   2.072   3.113   3.326
 3791SOL     OW12271   6.133   0.741   2.784
 3791SOL    HW112272   6.224   0.740   2.742
 3791SOL    HW212273   6.115   0.832   2.821
 3792SOL     OW12274   0.831   6.180   6.435
 3792SOL    HW112275   0.792   6.088   6.444
 3792SOL    HW212276   0.767   6.246   6.475
 3793SOL     OW12277   0.762   5.790   2.374
 3793SOL    HW112278   0.679   5.806   2.428
 3793SOL    HW212279   0.787   5.693   2.380
 3794SOL     OW12280   4.578   0.156   3.678
 3794SOL    HW112281   4.514   0.080   3.668
 3794SOL    HW212282   4.663   0.134   3.631
 3795SOL     OW12283   5.340   0.443   0.039
 3795SOL    HW112284   5.284   0.508   7.009
 3795SOL    HW212285   5.433   0.480   0.050
 3796SOL     OW12286   0.589   2.779   0.752
 3796SOL    HW112287   0.607   2.823   0.841
 3796SOL    HW212288   0.610   2.844   0.679
 3797SOL     OW12289   6.957   5.754   2.651
 3797SOL    HW112290   0.004   5.738   2.722
 3797SOL    HW212291   6.900   5.672   2.641
 3798SOL     OW12292   0.975   4.270   0.839
 3798SOL    HW112293   0.967   4.193   0.902
 3798SOL    HW212294   0.942   4.241   0.749
 3799SOL     OW12295   1.535   0.389   5.392
 3799SOL    HW112296   1.441   0.389   5.428
 3799SOL    HW212297   1.547   0.311   5.332
 3800SOL     OW12298   5.273   2.555   5.231
 3800SOL    HW112299   5.176   2.534   5.244
 3800SOL    HW212300   5.283   2.624   5.159
 3801SOL     OW12301   6.733   0.288   6.504
 3801SOL    HW112302   6.656   0.227   6.491
 3801SOL    HW212303   6.782   0.300   6.417
 3802SOL     OW12304   1.846   2.642   5.101
 3802SOL    HW112305   1.758   2.641   5.054
 3802SOL    HW212306   1.919   2.623   5.034
 3803SOL     OW12307   3.953   1.241   1.269
 3803SOL    HW112308   4.026   1.211   1.330
 3803SOL    HW212309   3.883   1.170   1.263
 3804SOL     OW12310   5.058   3.562   5.294
 3804SOL    HW112311   5.013   3.479   5.327
 3804SOL    HW212312   5.103   3.608   5.370
 3805SOL     OW12313   1.892   3.694   1.645
 3805SOL    HW112314   1.937   3.660   1.727
 3805SOL    HW212315   1.948   3.765   1.602
 3806SOL     OW12316   3.753   0.924   0.275
 3806SOL    HW112317   3.801   0.947   0.360
 3806SOL    HW212318   3.776   0.990   0.204
 3807SOL     OW12319   1.105   6.864   2.842
 3807SOL    HW112320   1.061   6.944   2.799
 3807SOL    HW212321   1.097   6.871   2.941
 3808SOL     OW12322   3.251   0.805   0.580
 3808SOL    HW112323   3.170   0.852   0.545
 3808SOL    HW212324   3.326   0.816   0.515
 3809SOL     OW12325   4.068   0.281   0.112
 3809SOL    HW112326   4.140   0.328   0.163
 3809SOL    HW212327   3.979   0.315   0.143
 3810SOL     OW12328   1.894   3.358   6.438
 3810SOL    HW112329   1.937   3.331   6.524
 3810SOL    HW212330   1.851   3.448   6.449
 3811SOL     OW12331   0.676   0.509   6.472
 3811SOL    HW112332   0.579   0.486   6.480
 3811SOL    HW212333   0.723   0.489   6.559
 3812SOL     OW12334   4.836   0.867   5.520
 3812SOL    HW112335   4.743   0.901   5.512
 3812SOL    HW212336   4.866   0.874   5.616
 3813SOL     OW12337   3.794   4.826   2.203
 3813SOL    HW112338   3.734   4.807   2.126
 3813SOL    HW212339   3.806   4.924   2.214
 3814SOL     OW12340   2.200   0.770   1.634
 3814SOL    HW112341   2.281   0.797   1.582
 3814SOL    HW212342   2.210   0.800   1.729
 3815SOL     OW12343   5.529   2.064   2.010
 3815SOL    HW112344   5.463   2.067   1.936
 3815SOL    HW212345   5.497   2.003   2.082
 3816SOL     OW12346   0.013   6.721   0.476
 3816SOL    HW112347   0.060   6.660   0.411
 3816SOL    HW212348   0.058   6.714   0.565
 3817SOL     OW12349   5.099   1.947   5.532
 3817SOL    HW112350   5.020   1.906   5.578
 3817SOL    HW212351   5.125   1.892   5.453
 3818SOL     OW12352   4.230   5.710   3.119
 3818SOL    HW112353   4.327   5.734   3.116
 3818SOL    HW212354   4.188   5.730   3.030
 3819SOL     OW12355   6.291   4.144   6.226
 3819SOL    HW112356   6.261   4.227   6.180
 3819SOL    HW212357   6.369   4.105   6.178
 3820SOL     OW12358   4.747   6.274   3.261
 3820SOL    HW112359   4.699   6.329   3.192
 3820SOL    HW212360   4.691   6.269   3.343
 3821SOL     OW12361   6.991   4.383   1.033
 3821SOL    HW112362   0.002   4.410   1.124
 3821SOL    HW212363   6.924   4.450   1.001
 3822SOL     OW12364   0.582   4.901   1.494
 3822SOL    HW112365   0.594   4.878   1.397
 3822SOL    HW212366   0.486   4.927   1.510
 3823SOL     OW12367   2.704   3.825   5.722
 3823SOL    HW112368   2.698   3.742   5.778
 3823SOL    HW212369   2.798   3.859   5.724
 3824SOL     OW12370   0.330   2.314   5.954
 3824SOL    HW112371   0.333   2.229   6.006
 3824SOL    HW212372   0.235   2.343   5.942
 3825SOL     OW12373   0.062   6.469   6.277
 3825SOL    HW112374   0.157   6.470   6.307
 3825SOL    HW212375   0.023   6.560   6.288
 3826SOL     OW12376   6.833   1.629   1.215
 3826SOL    HW112377   6.747   1.669   1.249
 3826SOL    HW212378   6.850   1.661   1.122
 3827SOL     OW12379   5.522   1.673   1.993
 3827SOL    HW112380   5.488   1.589   1.951
 3827SOL    HW212381   5.448   1.718   2.043
 3828SOL     OW12382   4.400   0.927   1.623
 3828SOL    HW112383   4.417   0.961   1.715
 3828SOL    HW212384   4.327   0.858   1.626
 3829SOL     OW12385   0.834   5.367   3.706
 3829SOL    HW112386   0.742   5.401   3.686
 3829SOL    HW212387   0.828   5.272   3.737
 3830SOL     OW12388   3.260   0.269   5.457
 3830SOL    HW112389   3.194   0.241   5.388
 3830SOL    HW212390   3.278   0.367   5.449
 3831SOL     OW12391   4.823   1.971   2.789
 3831SOL    HW112392   4.804   2.059   2.745
 3831SOL    HW212393   4.866   1.909   2.724
 3832SOL     OW12394   5.662   6.708   2.542
 3832SOL    HW112395   5.753   6.672   2.565
 3832SOL    HW212396   5.651   6.709   2.442
 3833SOL     OW12397   1.482   6.194   2.279
 3833SOL    HW112398   1.412   6.151   2.221
 3833SOL    HW212399   1.491   6.142   2.364
 3834SOL     OW12400   2.253   2.557   0.909
 3834SOL    HW112401   2.247   2.653   0.882
 3834SOL    HW212402   2.346   2.523   0.891
 3835SOL     OW12403   3.610   5.324   3.068
 3835SOL    HW112404   3.707   5.300   3.056
 3835SOL    HW212405   3.562   5.247   3.111
 3836SOL     OW12406   1.891   3.177   5.303
 3836SOL    HW112407   1.880   3.141   5.210
 3836SOL    HW212408   1.913   3.103   5.366
 3837SOL     OW12409   3.154   4.176   0.293
 3837SOL    HW112410   3.225   4.108   0.277
 3837SOL    HW212411   3.125   4.172   0.388
 3838SOL     OW12412   5.883   3.586   4.873
 3838SOL    HW112413   5.821   3.508   4.868
 3838SOL    HW212414   5.968   3.558   4.918
 3839SOL     OW12415   0.533   6.576   6.220
 3839SOL    HW112416   0.587   6.635   6.160
 3839SOL    HW212417   0.489   6.504   6.166
 3840SOL     OW12418   2.500   1.836   3.444
 3840SOL    HW112419   2.520   1.933   3.434
 3840SOL    HW212420   2.564   1.795   3.509
 3841SOL     OW12421   0.815   3.660   3.803
 3841SOL    HW112422   0.881   3.587   3.818
 3841SOL    HW212423   0.862   3.748   3.794
 3842SOL     OW12424   1.955   5.277   0.288
 3842SOL    HW112425   1.942   5.368   0.327
 3842SOL    HW212426   1.991   5.285   0.195
 3843SOL     OW12427   5.806   4.068   0.165
 3843SOL    HW112428   5.868   3.995   0.194
 3843SOL    HW212429   5.806   4.074   0.065
 3844SOL     OW12430   2.388   4.755   5.524
 3844SOL    HW112431   2.438   4.719   5.446
 3844SOL    HW212432   2.373   4.853   5.512
 3845SOL     OW12433   3.358   3.764   4.327
 3845SOL    HW112434   3.304   3.781   4.244
 3845SOL    HW212435   3.338   3.835   4.395
 3846SOL     OW12436   0.139   4.819   4.444
 3846SOL    HW112437   0.239   4.812   4.445
 3846SOL    HW212438   0.108   4.844   4.352
 3847SOL     OW12439   1.030   7.006   1.223
 3847SOL    HW112440   1.114   0.027   1.259
 3847SOL    HW212441   0.958   7.010   1.292
 3848SOL     OW12442   3.137   6.345   1.740
 3848SOL    HW112443   3.043   6.318   1.718
 3848SOL    HW212444   3.199   6.306   1.673
 3849SOL     OW12445   2.570   1.424   5.631
 3849SOL    HW112446   2.485   1.476   5.628
 3849SOL    HW212447   2.629   1.459   5.704
 3850SOL     OW12448   1.992   3.810   1.249
 3850SOL    HW112449   1.994   3.896   1.198
 3850SOL    HW212450   2.006   3.828   1.346
 3851SOL     OW12451   2.478   2.766   1.391
 3851SOL    HW112452   2.561   2.821   1.387
 3851SOL    HW212453   2.425   2.780   1.307
 3852SOL     OW12454   4.552   0.883   5.537
 3852SOL    HW112455   4.455   0.860   5.549
 3852SOL    HW212456   4.563   0.982   5.545
 3853SOL     OW12457   0.466   4.226   1.708
 3853SOL    HW112458   0.530   4.150   1.697
 3853SOL    HW212459   0.373   4.191   1.709
 3854SOL     OW12460   1.618   3.244   4.231
 3854SOL    HW112461   1.690   3.201   4.285
 3854SOL    HW212462   1.599   3.335   4.268
 3855SOL     OW12463   6.869   1.278   5.252
 3855SOL    HW112464   6.783   1.232   5.231
 3855SOL    HW212465   6.914   1.306   5.167
 3856SOL     OW12466   1.862   6.011   5.994
 3856SOL    HW112467   1.899   6.025   5.902
 3856SOL    HW212468   1.819   6.096   6.026
 3857SOL     OW12469   0.722   0.259   6.349
 3857SOL    HW112470   0.702   0.356   6.366
 3857SOL    HW212471   0.640   0.214   6.314
 3858SOL     OW12472   3.081   4.495   6.937
 3858SOL    HW112473   3.082   4.401   6.970
 3858SOL    HW212474   3.164   4.542   6.968
 3859SOL     OW12475   6.077   2.548   2.362
 3859SOL    HW112476   6.009   2.545   2.289
 3859SOL    HW212477   6.122   2.637   2.362
 3860SOL     OW12478   2.678   6.139   4.820
 3860SOL    HW112479   2.631   6.164   4.735
 3860SOL    HW212480   2.615   6.090   4.880
 3861SOL     OW12481   3.737   4.233   6.999
 3861SOL    HW112482   3.717   4.226   6.901
 3861SOL    HW212483   3.806   4.165   0.002
 3862SOL     OW12484   0.895   5.762   5.790
 3862SOL    HW112485   0.957   5.823   5.740
 3862SOL    HW212486   0.885   5.794   5.884
 3863SOL     OW12487   2.474   3.152   0.203
 3863SOL    HW112488   2.538   3.076   0.208
 3863SOL    HW212489   2.383   3.118   0.179
 3864SOL     OW12490   3.160   2.108   1.096
 3864SOL    HW112491   3.081   2.088   1.038
 3864SOL    HW212492   3.240   2.061   1.061
 3865SOL     OW12493   4.005   0.976   2.394
 3865SOL    HW112494   4.056   0.897   2.361
 3865SOL    HW212495   3.946   0.948   2.470
 3866SOL     OW12496   3.585   6.496   6.810
 3866SOL    HW112497   3.629   6.550   6.882
 3866SOL    HW212498   3.635   6.508   6.724
 3867SOL     OW12499   1.727   4.964   3.187
 3867SOL    HW112500   1.756   4.944   3.093
 3867SOL    HW212501   1.794   5.023   3.231
 3868SOL     OW12502   2.059   5.349   3.039
 3868SOL    HW112503   2.105   5.261   3.051
 3868SOL    HW212504   2.048   5.393   3.128
 3869SOL     OW12505   0.710   1.932   3.735
 3869SOL    HW112506   0.712   1.972   3.643
 3869SOL    HW212507   0.617   1.936   3.771
 3870SOL     OW12508   3.720   3.454   0.627
 3870SOL    HW112509   3.661   3.394   0.573
 3870SOL    HW212510   3.739   3.538   0.576
 3871SOL     OW12511   3.004   1.112   4.823
 3871SOL    HW112512   3.086   1.135   4.875
 3871SOL    HW212513   3.028   1.050   4.748
 3872SOL     OW12514   4.511   4.099   1.051
 3872SOL    HW112515   4.555   4.048   1.124
 3872SOL    HW212516   4.442   4.042   1.007
 3873SOL     OW12517   5.661   4.349   2.121
 3873SOL    HW112518   5.698   4.434   2.158
 3873SOL    HW212519   5.694   4.272   2.175
 3874SOL     OW12520   4.769   6.110   6.135
 3874SOL    HW112521   4.855   6.062   6.119
 3874SOL    HW212522   4.721   6.122   6.048
 3875SOL     OW12523   2.466   3.643   0.245
 3875SOL    HW112524   2.385   3.678   0.199
 3875SOL    HW212525   2.480   3.693   0.331
 3876SOL     OW12526   6.073   3.787   2.367
 3876SOL    HW112527   5.990   3.735   2.348
 3876SOL    HW212528   6.050   3.868   2.421
 3877SOL     OW12529   4.619   1.805   2.524
 3877SOL    HW112530   4.701   1.797   2.468
 3877SOL    HW212531   4.551   1.739   2.492
 3878SOL     OW12532   5.022   5.914   4.337
 3878SOL    HW112533   4.939   5.968   4.347
 3878SOL    HW212534   5.100   5.965   4.375
 3879SOL     OW12535   3.014   6.145   0.537
 3879SOL    HW112536   3.044   6.213   0.604
 3879SOL    HW212537   3.036   6.053   0.571
 3880SOL     OW12538   6.445   1.621   4.344
 3880SOL    HW112539   6.486   1.640   4.255
 3880SOL    HW212540   6.428   1.707   4.392
 3881SOL     OW12541   0.485   5.746   6.199
 3881SOL    HW112542   0.420   5.776   6.129
 3881SOL    HW212543   0.456   5.781   6.288
 3882SOL     OW12544   0.451   6.343   6.626
 3882SOL    HW112545   0.543   6.382   6.628
 3882SOL    HW212546   0.455   6.247   6.656
 3883SOL     OW12547   3.699   1.535   6.901
 3883SOL    HW112548   3.748   1.501   6.821
 3883SOL    HW212549   3.601   1.515   6.891
 3884SOL     OW12550   2.502   5.378   5.878
 3884SOL    HW112551   2.567   5.399   5.806
 3884SOL    HW212552   2.535   5.301   5.932
 3885SOL     OW12553   6.685   0.560   4.272
 3885SOL    HW112554   6.704   0.552   4.370
 3885SOL    HW212555   6.770   0.575   4.222
 3886SOL     OW12556   0.347   5.931   4.857
 3886SOL    HW112557   0.361   6.016   4.907
 3886SOL    HW212558   0.304   5.952   4.768
 3887SOL     OW12559   5.749   3.038   4.779
 3887SOL    HW112560   5.812   2.978   4.830
 3887SOL    HW212561   5.673   3.064   4.839
 3888SOL     OW12562   5.515   1.121   2.915
 3888SOL    HW112563   5.532   1.085   3.007
 3888SOL    HW212564   5.446   1.193   2.919
 3889SOL     OW12565   6.322   5.642   6.346
 3889SOL    HW112566   6.230   5.636   6.309
 3889SOL    HW212567   6.330   5.583   6.426
 3890SOL     OW12568   6.467   3.163   3.309
 3890SOL    HW112569   6.396   3.104   3.349
 3890SOL    HW212570   6.442   3.186   3.215
 3891SOL     OW12571   4.413   4.500   6.152
 3891SOL    HW112572   4.436   4.561   6.077
 3891SOL    HW212573   4.397   4.408   6.116
 3892SOL     OW12574   5.588   5.733   3.760
 3892SOL    HW112575   5.593   5.828   3.729
 3892SOL    HW212576   5.495   5.699   3.752
 3893SOL     OW12577   2.988   6.151   4.774
 3893SOL    HW112578   2.965   6.218   4.703
 3893SOL    HW212579   2.942   6.064   4.753
 3894SOL     OW12580   5.672   5.383   6.545
 3894SOL    HW112581   5.747   5.435   6.587
 3894SOL    HW212582   5.705   5.336   6.463
 3895SOL     OW12583   1.734   2.103   6.091
 3895SOL    HW112584   1.811   2.166   6.095
 3895SOL    HW212585   1.748   2.028   6.156
 3896SOL     OW12586   6.677   2.789   0.738
 3896SOL    HW112587   6.621   2.766   0.659
 3896SOL    HW212588   6.640   2.744   0.819
 3897SOL     OW12589   2.707   6.819   3.627
 3897SOL    HW112590   2.801   6.846   3.607
 3897SOL    HW212591   2.657   6.805   3.542
 3898SOL     OW12592   3.348   3.524   3.956
 3898SOL    HW112593   3.268   3.469   3.932
 3898SOL    HW212594   3.345   3.611   3.907
 3899SOL     OW12595   5.064   2.048   6.850
 3899SOL    HW112596   5.124   1.970   6.832
 3899SOL    HW212597   4.969   2.019   6.847
 3900SOL     OW12598   0.690   2.658   3.214
 3900SOL    HW112599   0.704   2.670   3.312
 3900SOL    HW212600   0.640   2.737   3.178
 3901SOL     OW12601   3.659   5.832   5.474
 3901SOL    HW112602   3.679   5.839   5.572
 3901SOL    HW212603   3.727   5.884   5.423
 3902SOL     OW12604   3.547   5.656   3.174
 3902SOL    HW112605   3.480   5.646   3.101
 3902SOL    HW212606   3.603   5.574   3.179
 3903SOL     OW12607   3.640   3.756   6.408
 3903SOL    HW112608   3.733   3.767   6.374
 3903SOL    HW212609   3.575   3.771   6.333
 3904SOL     OW12610   2.346   6.361   0.015
 3904SOL    HW112611   2.257   6.314   0.021
 3904SOL    HW212612   2.365   6.407   0.101
 3905SOL     OW12613   4.406   0.563   5.548
 3905SOL    HW112614   4.497   0.543   5.583
 3905SOL    HW212615   4.355   0.478   5.535
 3906SOL     OW12616   6.476   5.962   4.304
 3906SOL    HW112617   6.570   5.995   4.310
 3906SOL    HW212618   6.425   5.991   4.385
 3907SOL     OW12619   0.776   1.515   4.187
 3907SOL    HW112620   0.713   1.591   4.173
 3907SOL    HW212621   0.864   1.537   4.144
 3908SOL     OW12622   2.231   1.282   4.800
 3908SOL    HW112623   2.277   1.199   4.829
 3908SOL    HW212624   2.178   1.320   4.876
 3909SOL     OW12625   5.741   3.243   2.002
 3909SOL    HW112626   5.744   3.239   2.102
 3909SOL    HW212627   5.647   3.253   1.972
 3910SOL     OW12628   2.184   2.844   1.318
 3910SOL    HW112629   2.190   2.924   1.258
 3910SOL    HW212630   2.179   2.873   1.413
 3911SOL     OW12631   6.579   1.321   1.051
 3911SOL    HW112632   6.614   1.273   0.970
 3911SOL    HW212633   6.581   1.259   1.129
 3912SOL     OW12634   5.050   4.067   0.500
 3912SOL    HW112635   5.143   4.069   0.463
 3912SOL    HW212636   5.026   4.157   0.534
 3913SOL     OW12637   4.003   4.877   1.454
 3913SOL    HW112638   3.962   4.824   1.380
 3913SOL    HW212639   3.933   4.934   1.496
 3914SOL     OW12640   0.325   0.947   0.789
 3914SOL    HW112641   0.367   1.015   0.730
 3914SOL    HW212642   0.397   0.892   0.832
 3915SOL     OW12643   5.577   0.549   4.996
 3915SOL    HW112644   5.514   0.550   4.918
 3915SOL    HW212645   5.622   0.638   5.003
 3916SOL     OW12646   1.739   2.385   2.161
 3916SOL    HW112647   1.713   2.309   2.222
 3916SOL    HW212648   1.838   2.395   2.161
 3917SOL     OW12649   4.766   5.790   2.678
 3917SOL    HW112650   4.762   5.889   2.671
 3917SOL    HW212651   4.828   5.763   2.752
 3918SOL     OW12652   3.902   7.014   1.132
 3918SOL    HW112653   3.905   6.982   1.227
 3918SOL    HW212654   3.981   6.978   1.083
 3919SOL     OW12655   5.242   5.360   3.004
 3919SOL    HW112656   5.240   5.385   3.101
 3919SOL    HW212657   5.149   5.343   2.971
 3920SOL     OW12658   4.489   1.166   5.923
 3920SOL    HW112659   4.421   1.107   5.965
 3920SOL    HW212660   4.472   1.261   5.950
 3921SOL     OW12661   1.422   3.080   5.980
 3921SOL    HW112662   1.460   3.044   6.066
 3921SOL    HW212663   1.417   3.007   5.913
 3922SOL     OW12664   5.700   2.415   4.143
 3922SOL    HW112665   5.614   2.453   4.175
 3922SOL    HW212666   5.682   2.354   4.065
 3923SOL     OW12667   5.780   0.985   1.134
 3923SOL    HW112668   5.730   0.909   1.092
 3923SOL    HW212669   5.844   1.023   1.067
 3924SOL     OW12670   5.341   5.185   3.727
 3924SOL    HW112671   5.275   5.113   3.751
 3924SOL    HW212672   5.384   5.219   3.811
 3925SOL     OW12673   3.567   4.452   1.630
 3925SOL    HW112674   3.549   4.524   1.698
 3925SOL    HW212675   3.609   4.493   1.549
 3926SOL     OW12676   1.386   5.949   5.277
 3926SOL    HW112677   1.301   5.899   5.295
 3926SOL    HW212678   1.365   6.037   5.236
 3927SOL     OW12679   6.229   6.690   5.504
 3927SOL    HW112680   6.260   6.700   5.599
 3927SOL    HW212681   6.293   6.632   5.455
 3928SOL     OW12682   4.550   5.670   2.853
 3928SOL    HW112683   4.603   5.692   2.770
 3928SOL    HW212684   4.455   5.654   2.829
 3929SOL     OW12685   1.310   1.298   5.401
 3929SOL    HW112686   1.347   1.238   5.330
 3929SOL    HW212687   1.212   1.281   5.411
 3930SOL     OW12688   2.404   5.768   3.841
 3930SOL    HW112689   2.354   5.850   3.816
 3930SOL    HW212690   2.340   5.693   3.857
 3931SOL     OW12691   0.224   2.067   0.090
 3931SOL    HW112692   0.282   2.101   0.164
 3931SOL    HW212693   0.182   2.145   0.043
 3932SOL     OW12694   2.158   3.867   2.662
 3932SOL    HW112695   2.154   3.772   2.633
 3932SOL    HW212696   2.173   3.926   2.583
 3933SOL     OW12697   1.404   6.578   1.739
 3933SOL    HW112698   1.332   6.522   1.698
 3933SOL    HW212699   1.397   6.573   1.839
 3934SOL     OW12700   1.831   6.479   2.056
 3934SOL    HW112701   1.771   6.549   2.017
 3934SOL    HW212702   1.926   6.509   2.050
 3935SOL     OW12703   0.460   1.033   5.127
 3935SOL    HW112704   0.380   1.087   5.100
 3935SOL    HW212705   0.538   1.094   5.143
 3936SOL     OW12706   6.327   4.429   3.588
 3936SOL    HW112707   6.251   4.427   3.523
 3936SOL    HW212708   6.410   4.459   3.541
 3937SOL     OW12709   1.350   6.540   7.016
 3937SOL    HW112710   1.445   6.511   7.007
 3937SOL    HW212711   1.347   6.639   0.014
 3938SOL     OW12712   0.429   3.835   6.574
 3938SOL    HW112713   0.513   3.834   6.521
 3938SOL    HW212714   0.361   3.777   6.530
 3939SOL     OW12715   2.437   6.523   4.127
 3939SOL    HW112716   2.421   6.541   4.224
 3939SOL    HW212717   2.486   6.600   4.087
 3940SOL     OW12718   2.505   6.123   6.900
 3940SOL    HW112719   2.478   6.029   6.922
 3940SOL    HW212720   2.437   6.186   6.936
 3941SOL     OW12721   5.974   5.344   2.679
 3941SOL    HW112722   6.010   5.253   2.697
 3941SOL    HW212723   5.933   5.381   2.762
 3942SOL     OW12724   0.204   5.991   6.522
 3942SOL    HW112725   0.245   6.049   6.593
 3942SOL    HW212726   0.113   5.961   6.551
 3943SOL     OW12727   0.909   4.409   0.384
 3943SOL    HW112728   0.899   4.451   0.293
 3943SOL    HW212729   0.838   4.443   0.445
 3944SOL     OW12730   4.704   3.329   0.478
 3944SOL    HW112731   4.695   3.428   0.473
 3944SOL    HW212732   4.706   3.300   0.574
 3945SOL     OW12733   0.021   0.979   2.891
 3945SOL    HW112734   7.006   1.064   2.852
 3945SOL    HW212735   6.984   0.950   2.968
 3946SOL     OW12736   6.051   1.651   1.228
 3946SOL    HW112737   6.006   1.563   1.214
 3946SOL    HW212738   6.138   1.637   1.275
 3947SOL     OW12739   5.668   0.024   1.766
 3947SOL    HW112740   5.711   0.082   1.835
 3947SOL    HW212741   5.691   6.949   1.785
 3948SOL     OW12742   2.048   1.470   4.676
 3948SOL    HW112743   2.101   1.390   4.707
 3948SOL    HW212744   2.022   1.525   4.756
 3949SOL     OW12745   6.470   7.018   2.213
 3949SOL    HW112746   6.517   0.085   2.202
 3949SOL    HW212747   6.386   0.011   2.265
 3950SOL     OW12748   2.817   4.949   1.508
 3950SOL    HW112749   2.821   5.047   1.527
 3950SOL    HW212750   2.805   4.899   1.593
 3951SOL     OW12751   6.700   2.430   3.708
 3951SOL    HW112752   6.695   2.388   3.617
 3951SOL    HW212753   6.695   2.529   3.699
 3952SOL     OW12754   5.912   4.742   6.718
 3952SOL    HW112755   5.814   4.749   6.740
 3952SOL    HW212756   5.926   4.664   6.657
 3953SOL     OW12757   3.703   3.126   5.301
 3953SOL    HW112758   3.736   3.211   5.261
 3953SOL    HW212759   3.717   3.128   5.400
 3954SOL     OW12760   1.191   3.924   5.644
 3954SOL    HW112761   1.174   3.845   5.585
 3954SOL    HW212762   1.126   3.996   5.621
 3955SOL     OW12763   5.671   3.510   0.154
 3955SOL    HW112764   5.606   3.508   0.078
 3955SOL    HW212765   5.642   3.444   0.224
 3956SOL     OW12766   6.669   2.537   5.145
 3956SOL    HW112767   6.744   2.602   5.153
 3956SOL    HW212768   6.584   2.585   5.123
 3957SOL     OW12769   1.349   2.696   1.841
 3957SOL    HW112770   1.441   2.735   1.843
 3957SOL    HW212771   1.321   2.683   1.746
 3958SOL     OW12772   5.724   5.144   1.106
 3958SOL    HW112773   5.630   5.152   1.072
 3958SOL    HW212774   5.734   5.194   1.191
 3959SOL     OW12775   3.031   4.948   1.732
 3959SOL    HW112776   2.960   4.878   1.737
 3959SOL    HW212777   3.121   4.905   1.740
 3960SOL     OW12778   6.085   2.662   0.654
 3960SOL    HW112779   6.088   2.565   0.627
 3960SOL    HW212780   5.995   2.699   0.633
 3961SOL     OW12781   6.673   1.172   0.838
 3961SOL    HW112782   6.625   1.086   0.856
 3961SOL    HW212783   6.717   1.167   0.748
 3962SOL     OW12784   6.986   6.877   6.573
 3962SOL    HW112785   0.045   6.817   6.580
 3962SOL    HW212786   6.925   6.861   6.651
 3963SOL     OW12787   5.366   3.833   4.470
 3963SOL    HW112788   5.303   3.901   4.434
 3963SOL    HW212789   5.417   3.872   4.546
 3964SOL     OW12790   5.704   4.280   6.710
 3964SOL    HW112791   5.663   4.235   6.632
 3964SOL    HW212792   5.633   4.321   6.767
 3965SOL     OW12793   2.513   4.246   1.218
 3965SOL    HW112794   2.545   4.286   1.303
 3965SOL    HW212795   2.454   4.311   1.170
 3966SOL     OW12796   0.285   3.354   5.000
 3966SOL    HW112797   0.195   3.323   4.969
 3966SOL    HW212798   0.283   3.369   5.099
 3967SOL     OW12799   2.455   0.040   0.622
 3967SOL    HW112800   2.435   6.981   0.565
 3967SOL    HW212801   2.529   0.093   0.579
 3968SOL     OW12802   4.556   2.911   0.725
 3968SOL    HW112803   4.569   2.812   0.731
 3968SOL    HW212804   4.646   2.956   0.722
 3969SOL     OW12805   6.098   6.293   0.685
 3969SOL    HW112806   6.023   6.351   0.718
 3969SOL    HW212807   6.176   6.299   0.747
 3970SOL     OW12808   5.997   4.206   3.948
 3970SOL    HW112809   6.065   4.200   3.874
 3970SOL    HW212810   6.020   4.284   4.007
 3971SOL     OW12811   0.725   5.895   4.116
 3971SOL    HW112812   0.781   5.938   4.187
 3971SOL    HW212813   0.772   5.902   4.028
 3972SOL     OW12814   1.123   0.565   6.464
 3972SOL    HW112815   1.051   0.533   6.402
 3972SOL    HW212816   1.098   0.655   6.500
 3973SOL     OW12817   4.088   3.189   1.863
 3973SOL    HW112818   4.120   3.267   1.915
 3973SOL    HW212819   4.146   3.175   1.783
 3974SOL     OW12820   5.257   0.864   6.834
 3974SOL    HW112821   5.321   0.940   6.823
 3974SOL    HW212822   5.164   0.897   6.822
 3975SOL     OW12823   0.034   6.411   4.438
 3975SOL    HW112824   0.063   6.498   4.399
 3975SOL    HW212825   0.106   6.343   4.423
 3976SOL     OW12826   1.681   2.794   5.288
 3976SOL    HW112827   1.688   2.716   5.226
 3976SOL    HW212828   1.658   2.762   5.380
 3977SOL     OW12829   3.065   4.902   5.742
 3977SOL    HW112830   2.978   4.859   5.767
 3977SOL    HW212831   3.091   4.969   5.811
 3978SOL     OW12832   4.851   2.749   6.095
 3978SOL    HW112833   4.899   2.837   6.097
 3978SOL    HW212834   4.821   2.725   6.187
 3979SOL     OW12835   1.315   5.826   3.114
 3979SOL    HW112836   1.376   5.768   3.060
 3979SOL    HW212837   1.235   5.773   3.141
 3980SOL     OW12838   4.812   4.084   4.367
 3980SOL    HW112839   4.797   3.990   4.400
 3980SOL    HW212840   4.909   4.106   4.373
 3981SOL     OW12841   0.167   1.132   6.302
 3981SOL    HW112842   0.147   1.166   6.210
 3981SOL    HW212843   0.172   1.209   6.366
 3982SOL     OW12844   1.889   3.046   4.635
 3982SOL    HW112845   1.924   2.952   4.629
 3982SOL    HW212846   1.789   3.045   4.630
 3983SOL     OW12847   2.810   0.506   3.848
 3983SOL    HW112848   2.903   0.541   3.859
 3983SOL    HW212849   2.805   0.447   3.768
 3984SOL     OW12850   1.299   5.701   2.147
 3984SOL    HW112851   1.316   5.789   2.191
 3984SOL    HW212852   1.346   5.699   2.058
 3985SOL     OW12853   1.439   2.929   1.475
 3985SOL    HW112854   1.357   2.979   1.446
 3985SOL    HW212855   1.457   2.948   1.572
 3986SOL     OW12856   6.946   2.403   3.115
 3986SOL    HW112857   6.871   2.456   3.154
 3986SOL    HW212858   6.909   2.325   3.065
 3987SOL     OW12859   0.587   4.194   5.193
 3987SOL    HW112860   0.511   4.146   5.149
 3987SOL    HW212861   0.618   4.140   5.271
 3988SOL     OW12862   5.236   6.916   1.739
 3988SOL    HW112863   5.306   6.937   1.807
 3988SOL    HW212864   5.210   6.820   1.746
 3989SOL     OW12865   4.556   0.790   5.794
 3989SOL    HW112866   4.563   0.840   5.708
 3989SOL    HW212867   4.624   0.717   5.795
 3990SOL     OW12868   6.113   0.526   4.312
 3990SOL    HW112869   6.029   0.528   4.367
 3990SOL    HW212870   6.095   0.478   4.226
 3991SOL     OW12871   6.581   1.940   3.716
 3991SOL    HW112872   6.627   2.013   3.768
 3991SOL    HW212873   6.487   1.968   3.696
 3992SOL     OW12874   5.942   3.740   5.968
 3992SOL    HW112875   6.011   3.790   5.916
 3992SOL    HW212876   5.865   3.800   5.989
 3993SOL     OW12877   1.864   0.610   4.222
 3993SOL    HW112878   1.812   0.645   4.145
 3993SOL    HW212879   1.845   0.665   4.303
 3994SOL     OW12880   2.656   2.080   3.755
 3994SOL    HW112881   2.636   1.986   3.781
 3994SOL    HW212882   2.619   2.098   3.663
 3995SOL     OW12883   1.411   3.350   1.949
 3995SOL    HW112884   1.327   3.308   1.982
 3995SOL    HW212885   1.454   3.402   2.023
 3996SOL     OW12886   0.016   6.306   5.047
 3996SOL    HW112887   6.991   6.325   4.961
 3996SOL    HW212888   0.096   6.364   5.056
 3997SOL     OW12889   5.871   3.925   4.582
 3997SOL    HW112890   5.813   3.868   4.641
 3997SOL    HW212891   5.872   4.019   4.617
 3998SOL     OW12892   4.501   1.951   3.691
 3998SOL    HW112893   4.446   1.892   3.750
 3998SOL    HW212894   4.595   1.917   3.689
 3999SOL     OW12895   5.031   2.528   0.876
 3999SOL    HW112896   5.067   2.595   0.941
 3999SOL    HW212897   5.105   2.468   0.844
 4000SOL     OW12898   1.918   4.677   2.914
 4000SOL    HW112899   1.922   4.605   2.983
 4000SOL    HW212900   1.978   4.653   2.837
 4001SOL     OW12901   0.454   6.057   4.412
 4001SOL    HW112902   0.519   6.077   4.338
 4001SOL    HW212903   0.481   6.106   4.495
 4002SOL     OW12904   4.031   3.711   4.603
 4002SOL    HW112905   4.066   3.625   4.641
 4002SOL    HW212906   4.074   3.788   4.651
 4003SOL     OW12907   2.820   0.800   4.823
 4003SOL    HW112908   2.864   0.866   4.761
 4003SOL    HW212909   2.760   0.740   4.771
 4004SOL     OW12910   1.882   3.753   4.931
 4004SOL    HW112911   1.873   3.734   5.029
 4004SOL    HW212912   1.848   3.676   4.879
 4005SOL     OW12913   5.806   3.034   0.769
 4005SOL    HW112914   5.898   3.053   0.736
 4005SOL    HW212915   5.807   2.950   0.824
 4006SOL     OW12916   0.201   5.907   2.146
 4006SOL    HW112917   0.126   5.864   2.197
 4006SOL    HW212918   0.233   5.845   2.075
 4007SOL     OW12919   0.545   0.985   1.693
 4007SOL    HW112920   0.599   1.044   1.752
 4007SOL    HW212921   0.466   1.035   1.658
 4008SOL     OW12922   4.030   0.873   1.465
 4008SOL    HW112923   4.094   0.905   1.394
 4008SOL    HW212924   3.994   0.784   1.439
 4009SOL     OW12925   3.710   2.660   1.147
 4009SOL    HW112926   3.805   2.677   1.171
 4009SOL    HW212927   3.678   2.578   1.194
 4010SOL     OW12928   1.776   4.367   0.701
 4010SOL    HW112929   1.692   4.409   0.734
 4010SOL    HW212930   1.757   4.315   0.618
 4011SOL     OW12931   6.421   6.621   6.040
 4011SOL    HW112932   6.420   6.565   6.123
 4011SOL    HW212933   6.494   6.689   6.046
 4012SOL     OW12934   5.402   5.572   1.712
 4012SOL    HW112935   5.395   5.501   1.641
 4012SOL    HW212936   5.316   5.576   1.763
 4013SOL     OW12937   0.148   1.766   0.111
 4013SOL    HW112938   0.093   1.818   0.176
 4013SOL    HW212939   0.245   1.790   0.122
 4014SOL     OW12940   3.275   5.824   2.660
 4014SOL    HW112941   3.285   5.734   2.616
 4014SOL    HW212942   3.223   5.884   2.600
 4015SOL     OW12943   3.828   6.279   5.124
 4015SOL    HW112944   3.845   6.242   5.033
 4015SOL    HW212945   3.914   6.283   5.176
 4016SOL     OW12946   4.904   5.570   4.694
 4016SOL    HW112947   4.991   5.577   4.743
 4016SOL    HW212948   4.845   5.505   4.741
 4017SOL     OW12949   1.910   5.523   6.086
 4017SOL    HW112950   1.868   5.598   6.036
 4017SOL    HW212951   1.852   5.498   6.163
 4018SOL     OW12952   4.647   5.416   1.123
 4018SOL    HW112953   4.597   5.429   1.208
 4018SOL    HW212954   4.583   5.416   1.046
 4019SOL     OW12955   0.146   2.633   3.141
 4019SOL    HW112956   0.094   2.556   3.176
 4019SOL    HW212957   0.100   2.672   3.061
 4020SOL     OW12958   6.624   5.655   4.463
 4020SOL    HW112959   6.681   5.607   4.396
 4020SOL    HW212960   6.651   5.751   4.467
 4021SOL     OW12961   4.586   5.093   6.044
 4021SOL    HW112962   4.530   5.110   5.962
 4021SOL    HW212963   4.562   5.160   6.115
 4022SOL     OW12964   3.404   7.014   1.266
 4022SOL    HW112965   3.463   6.998   1.187
 4022SOL    HW212966   3.370   6.926   1.302
 4023SOL     OW12967   0.520   2.073   4.100
 4023SOL    HW112968   0.553   2.131   4.026
 4023SOL    HW212969   0.503   2.129   4.181
 4024SOL     OW12970   0.441   6.119   6.294
 4024SOL    HW112971   0.521   6.080   6.339
 4024SOL    HW212972   0.453   6.116   6.195
 4025SOL     OW12973   6.817   4.915   4.245
 4025SOL    HW112974   6.740   4.971   4.272
 4025SOL    HW212975   6.881   4.969   4.190
 4026SOL     OW12976   0.559   6.859   4.211
 4026SOL    HW112977   0.622   6.788   4.241
 4026SOL    HW212978   0.471   6.818   4.187
 4027SOL     OW12979   2.829   5.184   5.239
 4027SOL    HW112980   2.777   5.148   5.316
 4027SOL    HW212981   2.871   5.271   5.265
 4028SOL     OW12982   5.148   1.840   4.592
 4028SOL    HW112983   5.099   1.757   4.617
 4028SOL    HW212984   5.153   1.900   4.672
 4029SOL     OW12985   1.270   6.894   0.894
 4029SOL    HW112986   1.285   6.937   0.982
 4029SOL    HW212987   1.173   6.870   0.884
 4030SOL     OW12988   0.576   1.544   1.777
 4030SOL    HW112989   0.523   1.487   1.714
 4030SOL    HW212990   0.546   1.639   1.769
 4031SOL     OW12991   5.803   5.663   0.416
 4031SOL    HW112992   5.857   5.612   0.484
 4031SOL    HW212993   5.804   5.614   0.329
 4032SOL     OW12994   5.159   2.097   2.713
 4032SOL    HW112995   5.219   2.156   2.659
 4032SOL    HW212996   5.130   2.019   2.658
 4033SOL     OW12997   1.656   2.878   2.892
 4033SOL    HW112998   1.616   2.824   2.966
 4033SOL    HW212999   1.586   2.899   2.825
 4034SOL     OW13000   1.715   2.347   4.615
 4034SOL    HW113001   1.704   2.267   4.556
 4034SOL    HW213002   1.785   2.328   4.684
 4035SOL     OW13003   4.153   2.441   1.567
 4035SOL    HW113004   4.113   2.365   1.618
 4035SOL    HW213005   4.203   2.405   1.488
 4036SOL     OW13006   3.877   6.072   3.518
 4036SOL    HW113007   3.975   6.089   3.528
 4036SOL    HW213008   3.859   6.028   3.430
 4037SOL     OW13009   1.799   2.002   6.499
 4037SOL    HW113010   1.808   2.087   6.551
 4037SOL    HW213011   1.703   1.983   6.482
 4038SOL     OW13012   3.581   4.838   5.914
 4038SOL    HW113013   3.612   4.744   5.921
 4038SOL    HW213014   3.506   4.853   5.979
 4039SOL     OW13015   5.923   4.404   1.749
 4039SOL    HW113016   5.926   4.361   1.659
 4039SOL    HW213017   5.828   4.415   1.778
 4040SOL     OW13018   3.040   0.279   5.092
 4040SOL    HW113019   3.095   0.222   5.153
 4040SOL    HW213020   3.092   0.298   5.008
 4041SOL     OW13021   1.457   5.927   1.642
 4041SOL    HW113022   1.508   5.842   1.628
 4041SOL    HW213023   1.442   5.941   1.740
 4042SOL     OW13024   0.297   1.721   3.152
 4042SOL    HW113025   0.391   1.686   3.158
 4042SOL    HW213026   0.281   1.787   3.225
 4043SOL     OW13027   4.293   1.867   6.018
 4043SOL    HW113028   4.357   1.841   5.946
 4043SOL    HW213029   4.342   1.915   6.091
 4044SOL     OW13030   4.458   4.532   3.317
 4044SOL    HW113031   4.463   4.631   3.306
 4044SOL    HW213032   4.398   4.510   3.394
 4045SOL     OW13033   4.619   1.333   5.317
 4045SOL    HW113034   4.608   1.376   5.407
 4045SOL    HW213035   4.573   1.389   5.248
 4046SOL     OW13036   5.057   1.563   4.161
 4046SOL    HW113037   5.075   1.505   4.081
 4046SOL    HW213038   5.139   1.615   4.184
 4047SOL     OW13039   3.113   2.259   6.352
 4047SOL    HW113040   3.147   2.229   6.441
 4047SOL    HW213041   3.062   2.185   6.309
 4048SOL     OW13042   5.032   2.055   3.622
 4048SOL    HW113043   4.994   2.140   3.584
 4048SOL    HW213044   4.979   2.030   3.704
 4049SOL     OW13045   4.251   3.847   1.295
 4049SOL    HW113046   4.182   3.775   1.308
 4049SOL    HW213047   4.267   3.893   1.383
 4050SOL     OW13048   6.867   5.209   2.624
 4050SOL    HW113049   6.881   5.143   2.550
 4050SOL    HW213050   6.955   5.232   2.665
 4051SOL     OW13051   5.303   0.967   4.596
 4051SOL    HW113052   5.395   0.997   4.573
 4051SOL    HW213053   5.264   0.917   4.519
 4052SOL     OW13054   5.000   1.965   4.349
 4052SOL    HW113055   5.048   1.963   4.437
 4052SOL    HW213056   5.028   2.045   4.297
 4053SOL     OW13057   0.856   5.114   3.825
 4053SOL    HW113058   0.897   5.124   3.916
 4053SOL    HW213059   0.923   5.075   3.762
 4054SOL     OW13060   4.687   3.667   1.237
 4054SOL    HW113061   4.742   3.611   1.176
 4054SOL    HW213062   4.721   3.658   1.331
 4055SOL     OW13063   6.869   4.312   6.963
 4055SOL    HW113064   6.874   4.306   0.041
 4055SOL    HW213065   6.773   4.311   6.934
 4056SOL     OW13066   5.071   3.279   7.016
 4056SOL    HW113067   5.008   3.270   0.072
 4056SOL    HW213068   5.097   3.189   6.984
 4057SOL     OW13069   6.865   3.796   6.327
 4057SOL    HW113070   6.846   3.699   6.314
 4057SOL    HW213071   6.915   3.832   6.248
 4058SOL     OW13072   3.555   0.401   4.405
 4058SOL    HW113073   3.496   0.365   4.332
 4058SOL    HW213074   3.543   0.500   4.411
 4059SOL     OW13075   0.661   1.354   3.819
 4059SOL    HW113076   0.715   1.438   3.823
 4059SOL    HW213077   0.665   1.316   3.727
 4060SOL     OW13078   0.194   6.280   4.694
 4060SOL    HW113079   0.170   6.295   4.598
 4060SOL    HW213080   0.219   6.184   4.707
 4061SOL     OW13081   0.418   4.840   1.750
 4061SOL    HW113082   0.431   4.747   1.717
 4061SOL    HW213083   0.378   4.897   1.678
 4062SOL     OW13084   1.935   4.038   0.006
 4062SOL    HW113085   1.850   4.035   6.976
 4062SOL    HW213086   1.930   4.110   0.076
 4063SOL     OW13087   3.853   0.461   0.931
 4063SOL    HW113088   3.907   0.545   0.924
 4063SOL    HW213089   3.813   0.439   0.843
 4064SOL     OW13090   2.361   0.935   5.744
 4064SOL    HW113091   2.386   1.032   5.747
 4064SOL    HW213092   2.401   0.889   5.823
 4065SOL     OW13093   2.364   1.669   1.514
 4065SOL    HW113094   2.332   1.588   1.563
 4065SOL    HW213095   2.425   1.721   1.574
 4066SOL     OW13096   0.318   4.654   4.663
 4066SOL    HW113097   0.357   4.678   4.752
 4066SOL    HW213098   0.379   4.684   4.590
 4067SOL     OW13099   6.725   4.616   0.594
 4067SOL    HW113100   6.748   4.520   0.576
 4067SOL    HW213101   6.632   4.635   0.561
 4068SOL     OW13102   2.244   2.819   5.280
 4068SOL    HW113103   2.290   2.852   5.198
 4068SOL    HW213104   2.264   2.881   5.356
 4069SOL     OW13105   4.851   6.539   5.711
 4069SOL    HW113106   4.892   6.623   5.675
 4069SOL    HW213107   4.914   6.463   5.696
 4070SOL     OW13108   1.583   3.304   3.951
 4070SOL    HW113109   1.643   3.380   3.929
 4070SOL    HW213110   1.608   3.266   4.040
 4071SOL     OW13111   2.005   0.796   4.869
 4071SOL    HW113112   2.104   0.796   4.880
 4071SOL    HW213113   1.974   0.702   4.854
 4072SOL     OW13114   3.332   6.524   2.589
 4072SOL    HW113115   3.422   6.498   2.623
 4072SOL    HW213116   3.321   6.493   2.494
 4073SOL     OW13117   4.275   5.042   0.276
 4073SOL    HW113118   4.311   4.998   0.194
 4073SOL    HW213119   4.235   5.130   0.252
 4074SOL     OW13120   1.268   5.338   2.235
 4074SOL    HW113121   1.202   5.399   2.191
 4074SOL    HW213122   1.299   5.379   2.321
 4075SOL     OW13123   5.984   1.450   0.179
 4075SOL    HW113124   6.004   1.457   0.277
 4075SOL    HW213125   5.912   1.382   0.164
 4076SOL     OW13126   1.976   5.804   3.952
 4076SOL    HW113127   1.951   5.890   3.907
 4076SOL    HW213128   1.910   5.733   3.927
 4077SOL     OW13129   3.147   1.877   1.568
 4077SOL    HW113130   3.229   1.891   1.623
 4077SOL    HW213131   3.119   1.964   1.527
 4078SOL     OW13132   4.142   5.018   2.421
 4078SOL    HW113133   4.185   4.979   2.502
 4078SOL    HW213134   4.077   5.089   2.448
 4079SOL     OW13135   0.431   2.010   3.720
 4079SOL    HW113136   0.437   2.029   3.622
 4079SOL    HW213137   0.335   2.004   3.747
 4080SOL     OW13138   6.950   2.056   4.880
 4080SOL    HW113139   6.881   1.992   4.849
 4080SOL    HW213140   6.909   2.122   4.944
 4081SOL     OW13141   0.671   3.897   3.671
 4081SOL    HW113142   0.640   3.807   3.702
 4081SOL    HW213143   0.743   3.886   3.603
 4082SOL     OW13144   0.764   3.314   6.843
 4082SOL    HW113145   0.804   3.235   6.888
 4082SOL    HW213146   0.671   3.328   6.877
 4083SOL     OW13147   6.660   2.885   5.127
 4083SOL    HW113148   6.757   2.876   5.103
 4083SOL    HW213149   6.647   2.857   5.222
 4084SOL     OW13150   6.119   1.233   4.640
 4084SOL    HW113151   6.172   1.285   4.573
 4084SOL    HW213152   6.028   1.214   4.603
 4085SOL     OW13153   2.694   5.413   0.135
 4085SOL    HW113154   2.640   5.359   0.200
 4085SOL    HW213155   2.658   5.401   0.043
 4086SOL     OW13156   1.366   3.882   1.100
 4086SOL    HW113157   1.308   3.893   1.181
 4086SOL    HW213158   1.340   3.949   1.031
 4087SOL     OW13159   2.349   1.477   2.480
 4087SOL    HW113160   2.303   1.536   2.547
 4087SOL    HW213161   2.303   1.388   2.477
 4088SOL     OW13162   6.793   1.456   7.004
 4088SOL    HW113163   6.729   1.528   0.010
 4088SOL    HW213164   6.884   1.477   0.016
 4089SOL     OW13165   0.436   1.008   5.558
 4089SOL    HW113166   0.408   0.949   5.482
 4089SOL    HW213167   0.517   1.061   5.531
 4090SOL     OW13168   3.099   5.012   6.509
 4090SOL    HW113169   3.068   5.080   6.575
 4090SOL    HW213170   3.107   4.923   6.553
 4091SOL     OW13171   4.616   0.157   1.334
 4091SOL    HW113172   4.600   0.242   1.384
 4091SOL    HW213173   4.713   0.150   1.310
 4092SOL     OW13174   6.734   1.429   4.023
 4092SOL    HW113175   6.751   1.353   4.085
 4092SOL    HW213176   6.693   1.505   4.073
 4093SOL     OW13177   5.649   0.092   4.187
 4093SOL    HW113178   5.579   0.027   4.216
 4093SOL    HW213179   5.607   0.164   4.133
 4094SOL     OW13180   3.202   4.079   5.774
 4094SOL    HW113181   3.104   4.091   5.761
 4094SOL    HW213182   3.250   4.162   5.748
 4095SOL     OW13183   2.075   3.716   5.827
 4095SOL    HW113184   2.155   3.711   5.767
 4095SOL    HW213185   2.020   3.633   5.816
 4096SOL     OW13186   4.554   4.670   1.859
 4096SOL    HW113187   4.638   4.683   1.913
 4096SOL    HW213188   4.566   4.591   1.799
 4097SOL     OW13189   3.669   3.663   3.408
 4097SOL    HW113190   3.722   3.582   3.431
 4097SOL    HW213191   3.620   3.647   3.322
 4098SOL     OW13192   0.875   3.431   2.120
 4098SOL    HW113193   0.786   3.474   2.105
 4098SOL    HW213194   0.929   3.488   2.182
 4099SOL     OW13195   2.454   6.063   2.256
 4099SOL    HW113196   2.538   6.008   2.260
 4099SOL    HW213197   2.376   6.007   2.284
 4100SOL     OW13198   3.727   6.601   3.192
 4100SOL    HW113199   3.651   6.545   3.224
 4100SOL    HW213200   3.811   6.571   3.236
 4101SOL     OW13201   4.543   1.766   0.117
 4101SOL    HW113202   4.510   1.856   0.145
 4101SOL    HW213203   4.634   1.774   0.077
 4102SOL     OW13204   4.967   2.152   0.304
 4102SOL    HW113205   5.005   2.202   0.382
 4102SOL    HW213206   5.035   2.147   0.232
 4103SOL     OW13207   0.467   6.885   2.454
 4103SOL    HW113208   0.534   6.956   2.475
 4103SOL    HW213209   0.429   6.849   2.539
 4104SOL     OW13210   2.165   4.498   2.745
 4104SOL    HW113211   2.195   4.593   2.756
 4104SOL    HW213212   2.242   4.441   2.716
 4105SOL     OW13213   6.170   4.680   6.837
 4105SOL    HW113214   6.078   4.705   6.806
 4105SOL    HW213215   6.204   4.750   6.900
 4106SOL     OW13216   0.185   3.804   4.581
 4106SOL    HW113217   0.149   3.803   4.674
 4106SOL    HW213218   0.132   3.740   4.524
 4107SOL     OW13219   6.877   0.596   0.483
 4107SOL    HW113220   6.904   0.540   0.405
 4107SOL    HW213221   6.928   0.567   0.564
 4108SOL     OW13222   6.364   2.663   4.946
 4108SOL    HW113223   6.355   2.629   5.039
 4108SOL    HW213224   6.273   2.682   4.908
 4109SOL     OW13225   2.999   6.064   3.923
 4109SOL    HW113226   2.904   6.082   3.949
 4109SOL    HW213227   3.002   6.016   3.836
 4110SOL     OW13228   4.460   3.187   5.372
 4110SOL    HW113229   4.539   3.237   5.337
 4110SOL    HW213230   4.489   3.127   5.447
 4111SOL     OW13231   3.649   3.206   6.674
 4111SOL    HW113232   3.665   3.246   6.583
 4111SOL    HW213233   3.638   3.107   6.665
 4112SOL     OW13234   3.746   0.755   5.030
 4112SOL    HW113235   3.787   0.664   5.021
 4112SOL    HW213236   3.672   0.766   4.964
 4113SOL     OW13237   3.601   5.004   5.135
 4113SOL    HW113238   3.561   4.983   5.046
 4113SOL    HW213239   3.538   5.062   5.187
 4114SOL     OW13240   3.837   2.095   2.855
 4114SOL    HW113241   3.747   2.090   2.811
 4114SOL    HW213242   3.906   2.119   2.786
 4115SOL     OW13243   5.222   4.329   2.402
 4115SOL    HW113244   5.234   4.378   2.315
 4115SOL    HW213245   5.217   4.396   2.476
 4116SOL     OW13246   3.335   1.022   2.514
 4116SOL    HW113247   3.246   1.067   2.510
 4116SOL    HW213248   3.330   0.933   2.469
 4117SOL     OW13249   0.673   5.626   1.637
 4117SOL    HW113250   0.700   5.605   1.543
 4117SOL    HW213251   0.669   5.725   1.649
 4118SOL     OW13252   2.507   6.949   0.038
 4118SOL    HW113253   2.509   6.898   6.972
 4118SOL    HW213254   2.578   7.020   0.036
 4119SOL     OW13255   4.834   1.239   3.447
 4119SOL    HW113256   4.822   1.301   3.525
 4119SOL    HW213257   4.752   1.242   3.389
 4120SOL     OW13258   4.731   1.008   2.052
 4120SOL    HW113259   4.666   0.960   1.993
 4120SOL    HW213260   4.719   1.107   2.042
 4121SOL     OW13261   6.805   2.155   4.360
 4121SOL    HW113262   6.795   2.225   4.431
 4121SOL    HW213263   6.845   2.072   4.400
 4122SOL     OW13264   1.717   5.676   6.957
 4122SOL    HW113265   1.760   5.708   0.020
 4122SOL    HW213266   1.642   5.737   6.933
 4123SOL     OW13267   4.477   3.873   5.841
 4123SOL    HW113268   4.503   3.968   5.855
 4123SOL    HW213269   4.406   3.868   5.770
 4124SOL     OW13270   4.093   6.142   3.751
 4124SOL    HW113271   4.127   6.048   3.747
 4124SOL    HW213272   4.130   6.194   3.674
 4125SOL     OW13273   5.066   0.996   1.350
 4125SOL    HW113274   5.056   0.924   1.419
 4125SOL    HW213275   4.982   1.050   1.346
 4126SOL     OW13276   2.130   4.725   4.553
 4126SOL    HW113277   2.089   4.810   4.585
 4126SOL    HW213278   2.204   4.746   4.488
 4127SOL     OW13279   6.400   4.351   4.652
 4127SOL    HW113280   6.418   4.444   4.621
 4127SOL    HW213281   6.406   4.347   4.752
 4128SOL     OW13282   0.872   1.835   1.938
 4128SOL    HW113283   0.919   1.820   2.025
 4128SOL    HW213284   0.777   1.863   1.956
 4129SOL     OW13285   6.441   2.586   6.059
 4129SOL    HW113286   6.527   2.610   6.104
 4129SOL    HW213287   6.461   2.540   5.972
 4130SOL     OW13288   6.707   3.168   0.994
 4130SOL    HW113289   6.638   3.227   0.952
 4130SOL    HW213290   6.783   3.224   1.027
 4131SOL     OW13291   0.285   3.909   3.180
 4131SOL    HW113292   0.279   4.008   3.197
 4131SOL    HW213293   0.284   3.860   3.267
 4132SOL     OW13294   4.681   2.147   4.877
 4132SOL    HW113295   4.657   2.088   4.954
 4132SOL    HW213296   4.639   2.237   4.889
 4133SOL     OW13297   2.167   2.567   1.264
 4133SOL    HW113298   2.163   2.662   1.293
 4133SOL    HW213299   2.241   2.555   1.197
 4134SOL     OW13300   1.940   1.526   0.397
 4134SOL    HW113301   1.849   1.544   0.361
 4134SOL    HW213302   2.000   1.604   0.379
 4135SOL     OW13303   1.994   0.675   1.195
 4135SOL    HW113304   2.018   0.666   1.292
 4135SOL    HW213305   1.951   0.590   1.164
 4136SOL     OW13306   0.943   1.782   3.236
 4136SOL    HW113307   0.968   1.784   3.139
 4136SOL    HW213308   0.930   1.688   3.265
 4137SOL     OW13309   3.814   3.479   6.044
 4137SOL    HW113310   3.745   3.472   5.972
 4137SOL    HW213311   3.774   3.451   6.131
 4138SOL     OW13312   4.210   6.083   2.217
 4138SOL    HW113313   4.250   6.160   2.265
 4138SOL    HW213314   4.142   6.038   2.276
 4139SOL     OW13315   2.882   0.987   0.578
 4139SOL    HW113316   2.864   0.892   0.606
 4139SOL    HW213317   2.941   1.030   0.646
 4140SOL     OW13318   4.542   1.467   5.533
 4140SOL    HW113319   4.453   1.430   5.506
 4140SOL    HW213320   4.531   1.561   5.564
 4141SOL     OW13321   5.291   5.356   0.096
 4141SOL    HW113322   5.264   5.302   0.176
 4141SOL    HW213323   5.213   5.408   0.064
 4142SOL     OW13324   5.943   3.232   1.435
 4142SOL    HW113325   5.975   3.243   1.529
 4142SOL    HW213326   5.851   3.192   1.435
 4143SOL     OW13327   0.676   3.011   2.177
 4143SOL    HW113328   0.698   2.918   2.147
 4143SOL    HW213329   0.757   3.069   2.168
 4144SOL     OW13330   4.075   0.625   1.906
 4144SOL    HW113331   4.014   0.601   1.981
 4144SOL    HW213332   4.107   0.719   1.918
 4145SOL     OW13333   2.881   6.927   3.065
 4145SOL    HW113334   2.858   6.937   2.969
 4145SOL    HW213335   2.800   6.941   3.121
 4146SOL     OW13336   4.998   5.158   0.592
 4146SOL    HW113337   4.901   5.138   0.575
 4146SOL    HW213338   5.051   5.074   0.587
 4147SOL     OW13339   2.687   2.064   5.969
 4147SOL    HW113340   2.742   2.120   5.906
 4147SOL    HW213341   2.591   2.067   5.940
 4148SOL     OW13342   6.794   0.211   2.758
 4148SOL    HW113343   6.838   0.196   2.846
 4148SOL    HW213344   6.721   0.143   2.746
 4149SOL     OW13345   4.702   4.241   2.165
 4149SOL    HW113346   4.615   4.236   2.117
 4149SOL    HW213347   4.695   4.306   2.241
 4150SOL     OW13348   4.650   0.464   5.615
 4150SOL    HW113349   4.704   0.512   5.685
 4150SOL    HW213350   4.703   0.460   5.530
 4151SOL     OW13351   0.454   5.499   0.313
 4151SOL    HW113352   0.435   5.458   0.403
 4151SOL    HW213353   0.383   5.471   0.249
 4152SOL     OW13354   3.153   3.948   1.522
 4152SOL    HW113355   3.096   4.029   1.536
 4152SOL    HW213356   3.202   3.957   1.436
 4153SOL     OW13357   6.073   5.425   5.929
 4153SOL    HW113358   6.098   5.520   5.909
 4153SOL    HW213359   6.068   5.373   5.844
 4154SOL     OW13360   4.411   2.517   5.570
 4154SOL    HW113361   4.427   2.594   5.509
 4154SOL    HW213362   4.402   2.551   5.664
 4155SOL     OW13363   1.624   3.156   0.644
 4155SOL    HW113364   1.637   3.250   0.611
 4155SOL    HW213365   1.566   3.158   0.725
 4156SOL     OW13366   5.711   0.372   5.219
 4156SOL    HW113367   5.713   0.446   5.152
 4156SOL    HW213368   5.629   0.380   5.275
 4157SOL     OW13369   3.562   0.784   3.334
 4157SOL    HW113370   3.626   0.829   3.272
 4157SOL    HW213371   3.524   0.850   3.398
 4158SOL     OW13372   0.889   0.719   3.593
 4158SOL    HW113373   0.864   0.677   3.680
 4158SOL    HW213374   0.965   0.667   3.552
 4159SOL     OW13375   0.555   3.700   5.207
 4159SOL    HW113376   0.577   3.605   5.228
 4159SOL    HW213377   0.533   3.749   5.291
 4160SOL     OW13378   0.625   0.352   1.479
 4160SOL    HW113379   0.586   0.279   1.534
 4160SOL    HW213380   0.578   0.438   1.499
 4161SOL     OW13381   6.334   1.761   0.803
 4161SOL    HW113382   6.244   1.786   0.841
 4161SOL    HW213383   6.376   1.691   0.860
 4162SOL     OW13384   0.630   6.715   5.127
 4162SOL    HW113385   0.716   6.766   5.126
 4162SOL    HW213386   0.639   6.634   5.068
 4163SOL     OW13387   6.523   1.334   5.326
 4163SOL    HW113388   6.600   1.274   5.346
 4163SOL    HW213389   6.441   1.279   5.310
 4164SOL     OW13390   2.723   6.525   5.919
 4164SOL    HW113391   2.717   6.559   5.825
 4164SOL    HW213392   2.673   6.586   5.980
 4165SOL     OW13393   2.625   5.924   2.420
 4165SOL    HW113394   2.584   5.842   2.380
 4165SOL    HW213395   2.625   5.915   2.520
 4166SOL     OW13396   6.561   1.853   1.686
 4166SOL    HW113397   6.513   1.844   1.599
 4166SOL    HW213398   6.495   1.874   1.759
 4167SOL     OW13399   1.686   2.799   1.080
 4167SOL    HW113400   1.620   2.725   1.065
 4167SOL    HW213401   1.706   2.807   1.177
 4168SOL     OW13402   1.818   5.490   1.479
 4168SOL    HW113403   1.835   5.426   1.555
 4168SOL    HW213404   1.733   5.465   1.434
 4169SOL     OW13405   6.329   3.530   5.811
 4169SOL    HW113406   6.249   3.480   5.777
 4169SOL    HW213407   6.412   3.485   5.777
 4170SOL     OW13408   3.542   1.111   5.011
 4170SOL    HW113409   3.485   1.193   5.004
 4170SOL    HW213410   3.635   1.137   5.038
 4171SOL     OW13411   6.018   3.549   1.391
 4171SOL    HW113412   6.030   3.645   1.416
 4171SOL    HW213413   6.091   3.494   1.431
 4172SOL     OW13414   2.552   0.952   0.259
 4172SOL    HW113415   2.524   0.879   0.197
 4172SOL    HW213416   2.496   1.034   0.241
 4173SOL     OW13417   4.875   3.092   5.866
 4173SOL    HW113418   4.967   3.131   5.875
 4173SOL    HW213419   4.807   3.163   5.885
 4174SOL     OW13420   5.404   0.517   4.049
 4174SOL    HW113421   5.412   0.552   3.955
 4174SOL    HW213422   5.335   0.444   4.052
 4175SOL     OW13423   2.646   1.454   2.476
 4175SOL    HW113424   2.549   1.433   2.488
 4175SOL    HW213425   2.670   1.532   2.533
 4176SOL     OW13426   5.742   4.321   2.755
 4176SOL    HW113427   5.829   4.285   2.720
 4176SOL    HW213428   5.755   4.415   2.786
 4177SOL     OW13429   6.362   5.351   3.235
 4177SOL    HW113430   6.331   5.298   3.157
 4177SOL    HW213431   6.335   5.305   3.320
 4178SOL     OW13432   4.126   2.485   5.541
 4178SOL    HW113433   4.104   2.581   5.521
 4178SOL    HW213434   4.203   2.481   5.604
 4179SOL     OW13435   6.868   2.293   6.887
 4179SOL    HW113436   6.894   2.373   6.832
 4179SOL    HW213437   6.782   2.256   6.853
 4180SOL     OW13438   4.563   3.548   1.649
 4180SOL    HW113439   4.467   3.540   1.679
 4180SOL    HW213440   4.611   3.463   1.670
 4181SOL     OW13441   6.604   0.713   0.462
 4181SOL    HW113442   6.684   0.657   0.486
 4181SOL    HW213443   6.608   0.799   0.512
 4182SOL     OW13444   5.449   0.738   3.809
 4182SOL    HW113445   5.483   0.813   3.865
 4182SOL    HW213446   5.359   0.760   3.773
 4183SOL     OW13447   2.163   1.156   1.764
 4183SOL    HW113448   2.237   1.130   1.702
 4183SOL    HW213449   2.198   1.219   1.833
 4184SOL     OW13450   4.521   4.923   6.887
 4184SOL    HW113451   4.612   4.940   6.851
 4184SOL    HW213452   4.500   4.990   6.959
 4185SOL     OW13453   6.921   0.272   3.683
 4185SOL    HW113454   6.996   0.255   3.747
 4185SOL    HW213455   6.848   0.322   3.729
 4186SOL     OW13456   3.765   4.259   1.744
 4186SOL    HW113457   3.698   4.329   1.769
 4186SOL    HW213458   3.718   4.171   1.733
 4187SOL     OW13459   3.932   5.302   6.772
 4187SOL    HW113460   3.839   5.302   6.808
 4187SOL    HW213461   3.997   5.320   6.845
 4188SOL     OW13462   5.361   6.383   4.003
 4188SOL    HW113463   5.298   6.460   4.012
 4188SOL    HW213464   5.368   6.335   4.090
 4189SOL     OW13465   1.540   3.606   3.384
 4189SOL    HW113466   1.521   3.607   3.286
 4189SOL    HW213467   1.503   3.688   3.427
 4190SOL     OW13468   2.508   0.107   1.379
 4190SOL    HW113469   2.461   0.185   1.419
 4190SOL    HW213470   2.547   0.133   1.291
 4191SOL     OW13471   0.444   1.946   2.823
 4191SOL    HW113472   0.540   1.918   2.824
 4191SOL    HW213473   0.431   2.019   2.890
 4192SOL     OW13474   5.986   0.615   3.342
 4192SOL    HW113475   6.013   0.557   3.419
 4192SOL    HW213476   6.053   0.605   3.268
 4193SOL     OW13477   1.822   6.406   3.396
 4193SOL    HW113478   1.780   6.336   3.338
 4193SOL    HW213479   1.752   6.471   3.425
 4194SOL     OW13480   5.646   0.502   3.594
 4194SOL    HW113481   5.690   0.412   3.589
 4194SOL    HW213482   5.691   0.556   3.665
 4195SOL     OW13483   5.087   1.071   3.843
 4195SOL    HW113484   5.146   1.151   3.847
 4195SOL    HW213485   4.997   1.097   3.809
 4196SOL     OW13486   4.709   2.879   3.692
 4196SOL    HW113487   4.686   2.873   3.595
 4196SOL    HW213488   4.769   2.958   3.707
 4197SOL     OW13489   5.414   4.051   4.917
 4197SOL    HW113490   5.451   4.007   4.835
 4197SOL    HW213491   5.352   3.988   4.964
 4198SOL     OW13492   6.672   3.670   6.167
 4198SOL    HW113493   6.611   3.593   6.191
 4198SOL    HW213494   6.649   3.749   6.223
 4199SOL     OW13495   3.289   4.035   6.260
 4199SOL    HW113496   3.291   3.983   6.175
 4199SOL    HW213497   3.283   4.133   6.239
 4200SOL     OW13498   2.874   0.315   6.776
 4200SOL    HW113499   2.929   0.241   6.736
 4200SOL    HW213500   2.804   0.344   6.710
 4201SOL     OW13501   5.832   6.705   4.733
 4201SOL    HW113502   5.781   6.777   4.780
 4201SOL    HW213503   5.879   6.744   4.654
 4202SOL     OW13504   5.194   3.651   5.511
 4202SOL    HW113505   5.124   3.694   5.568
 4202SOL    HW213506   5.272   3.625   5.568
 4203SOL     OW13507   4.216   5.771   4.425
 4203SOL    HW113508   4.219   5.672   4.435
 4203SOL    HW213509   4.292   5.812   4.476
 4204SOL     OW13510   1.619   3.832   0.289
 4204SOL    HW113511   1.551   3.840   0.362
 4204SOL    HW213512   1.574   3.798   0.206
 4205SOL     OW13513   2.353   5.903   2.955
 4205SOL    HW113514   2.434   5.847   2.939
 4205SOL    HW213515   2.375   5.974   3.022
 4206SOL     OW13516   5.081   6.410   4.324
 4206SOL    HW113517   5.113   6.504   4.337
 4206SOL    HW213518   4.984   6.412   4.301
 4207SOL     OW13519   0.717   0.032   0.161
 4207SOL    HW113520   0.814   0.016   0.143
 4207SOL    HW213521   0.688   6.998   0.239
 4208SOL     OW13522   0.543   2.902   1.359
 4208SOL    HW113523   0.505   2.936   1.445
 4208SOL    HW213524   0.550   2.978   1.294
 4209SOL     OW13525   3.177   0.111   5.262
 4209SOL    HW113526   3.273   0.082   5.258
 4209SOL    HW213527   3.124   0.044   5.315
 4210SOL     OW13528   3.948   2.759   0.422
 4210SOL    HW113529   4.013   2.683   0.415
 4210SOL    HW213530   3.855   2.724   0.415
 4211SOL     OW13531   5.320   3.582   4.443
 4211SOL    HW113532   5.341   3.680   4.444
 4211SOL    HW213533   5.399   3.531   4.476
 4212SOL     OW13534   6.250   6.789   2.314
 4212SOL    HW113535   6.258   6.887   2.334
 4212SOL    HW213536   6.298   6.736   2.384
 4213SOL     OW13537   0.720   6.943   1.006
 4213SOL    HW113538   0.668   0.008   0.998
 4213SOL    HW213539   0.694   6.897   1.091
 4214SOL     OW13540   2.864   5.572   4.495
 4214SOL    HW113541   2.876   5.597   4.591
 4214SOL    HW213542   2.833   5.477   4.489
 4215SOL     OW13543   1.263   5.917   6.180
 4215SOL    HW113544   1.280   6.009   6.214
 4215SOL    HW213545   1.168   5.892   6.195
 4216SOL     OW13546   2.782   3.006   5.303
 4216SOL    HW113547   2.685   3.003   5.282
 4216SOL    HW213548   2.811   2.917   5.339
 4217SOL     OW13549   6.765   0.918   4.294
 4217SOL    HW113550   6.810   0.992   4.244
 4217SOL    HW213551   6.745   0.948   4.387
 4218SOL     OW13552   3.251   5.580   2.581
 4218SOL    HW113553   3.295   5.492   2.563
 4218SOL    HW213554   3.187   5.601   2.508
 4219SOL     OW13555   5.672   0.202   2.906
 4219SOL    HW113556   5.764   0.235   2.888
 4219SOL    HW213557   5.605   0.269   2.873
 4220SOL     OW13558   0.214   4.416   3.687
 4220SOL    HW113559   0.231   4.347   3.616
 4220SOL    HW213560   0.128   4.395   3.733
 4221SOL     OW13561   5.516   6.341   5.726
 4221SOL    HW113562   5.534   6.270   5.658
 4221SOL    HW213563   5.476   6.420   5.681
 4222SOL     OW13564   2.411   2.974   0.567
 4222SOL    HW113565   2.474   3.050   0.582
 4222SOL    HW213566   2.462   2.890   0.549
 4223SOL     OW13567   3.163   4.001   2.709
 4223SOL    HW113568   3.069   3.968   2.697
 4223SOL    HW213569   3.183   4.010   2.807
 4224SOL     OW13570   3.857   1.763   5.806
 4224SOL    HW113571   3.768   1.746   5.848
 4224SOL    HW213572   3.918   1.806   5.873
 4225SOL     OW13573   4.897   0.305   4.550
 4225SOL    HW113574   4.858   0.361   4.477
 4225SOL    HW213575   4.961   0.239   4.511
 4226SOL     OW13576   1.925   1.543   2.506
 4226SOL    HW113577   1.984   1.605   2.454
 4226SOL    HW213578   1.848   1.595   2.545
 4227SOL     OW13579   5.414   3.789   6.501
 4227SOL    HW113580   5.317   3.767   6.510
 4227SOL    HW213581   5.426   3.864   6.436
 4228SOL     OW13582   4.807   4.625   3.081
 4228SOL    HW113583   4.830   4.688   3.156
 4228SOL    HW213584   4.787   4.677   2.998
 4229SOL     OW13585   4.289   4.947   5.240
 4229SOL    HW113586   4.284   4.879   5.166
 4229SOL    HW213587   4.218   5.016   5.226
 4230SOL     OW13588   2.941   1.256   6.308
 4230SOL    HW113589   2.846   1.265   6.339
 4230SOL    HW213590   2.974   1.164   6.328
 4231SOL     OW13591   3.814   6.252   6.159
 4231SOL    HW113592   3.865   6.176   6.118
 4231SOL    HW213593   3.760   6.297   6.087
 4232SOL     OW13594   2.046   4.167   1.420
 4232SOL    HW113595   1.958   4.170   1.373
 4232SOL    HW213596   2.058   4.251   1.474
 4233SOL     OW13597   5.428   5.476   1.245
 4233SOL    HW113598   5.448   5.383   1.213
 4233SOL    HW213599   5.483   5.542   1.194
 4234SOL     OW13600   3.731   3.198   5.586
 4234SOL    HW113601   3.692   3.290   5.587
 4234SOL    HW213602   3.830   3.204   5.600
 4235SOL     OW13603   0.402   4.357   4.808
 4235SOL    HW113604   0.452   4.358   4.721
 4235SOL    HW213605   0.463   4.387   4.881
 4236SOL     OW13606   0.616   3.628   4.759
 4236SOL    HW113607   0.621   3.537   4.718
 4236SOL    HW213608   0.599   3.620   4.857
 4237SOL     OW13609   6.888   4.081   5.433
 4237SOL    HW113610   6.870   4.133   5.517
 4237SOL    HW213611   6.971   4.115   5.389
 4238SOL     OW13612   5.154   4.779   4.525
 4238SOL    HW113613   5.221   4.805   4.455
 4238SOL    HW213614   5.166   4.836   4.606
 4239SOL     OW13615   5.222   5.895   5.373
 4239SOL    HW113616   5.307   5.879   5.323
 4239SOL    HW213617   5.144   5.876   5.313
 4240SOL     OW13618   2.600   4.836   6.751
 4240SOL    HW113619   2.600   4.928   6.712
 4240SOL    HW213620   2.588   4.768   6.678
 4241SOL     OW13621   3.560   2.112   1.388
 4241SOL    HW113622   3.534   2.050   1.314
 4241SOL    HW213623   3.584   2.058   1.469
 4242SOL     OW13624   2.457   0.346   2.209
 4242SOL    HW113625   2.467   0.307   2.118
 4242SOL    HW213626   2.361   0.340   2.238
 4243SOL     OW13627   1.458   2.850   2.665
 4243SOL    HW113628   1.502   2.814   2.582
 4243SOL    HW213629   1.370   2.804   2.678
 4244SOL     OW13630   3.159   0.682   0.930
 4244SOL    HW113631   3.212   0.724   0.856
 4244SOL    HW213632   3.211   0.606   0.969
 4245SOL     OW13633   6.932   1.902   0.934
 4245SOL    HW113634   6.835   1.890   0.912
 4245SOL    HW213635   6.977   1.954   0.861
 4246SOL     OW13636   4.810   2.955   4.179
 4246SOL    HW113637   4.867   2.904   4.115
 4246SOL    HW213638   4.790   3.045   4.141
 4247SOL     OW13639   2.348   5.398   0.078
 4247SOL    HW113640   2.382   5.461   0.008
 4247SOL    HW213641   2.250   5.384   0.065
 4248SOL     OW13642   2.333   0.164   3.373
 4248SOL    HW113643   2.339   0.082   3.315
 4248SOL    HW213644   2.285   0.236   3.323
 4249SOL     OW13645   5.904   1.084   5.673
 4249SOL    HW113646   5.818   1.064   5.626
 4249SOL    HW213647   5.979   1.083   5.606
 4250SOL     OW13648   0.348   5.367   4.835
 4250SOL    HW113649   0.336   5.451   4.782
 4250SOL    HW213650   0.259   5.334   4.866
 4251SOL     OW13651   4.714   2.033   5.743
 4251SOL    HW113652   4.690   2.121   5.702
 4251SOL    HW213653   4.759   2.047   5.831
 4252SOL     OW13654   0.166   0.247   6.385
 4252SOL    HW113655   0.105   0.205   6.317
 4252SOL    HW213656   0.169   0.189   6.466
 4253SOL     OW13657   3.937   6.895   2.817
 4253SOL    HW113658   3.868   6.823   2.807
 4253SOL    HW213659   3.914   6.951   2.896
 4254SOL     OW13660   1.266   2.224   5.419
 4254SOL    HW113661   1.211   2.265   5.346
 4254SOL    HW213662   1.211   2.215   5.501
 4255SOL     OW13663   1.064   2.735   3.387
 4255SOL    HW113664   0.967   2.726   3.364
 4255SOL    HW213665   1.105   2.644   3.394
 4256SOL     OW13666   6.051   6.039   0.559
 4256SOL    HW113667   6.090   6.128   0.584
 4256SOL    HW213668   6.124   5.971   0.556
 4257SOL     OW13669   6.763   0.959   2.745
 4257SOL    HW113670   6.814   1.044   2.757
 4257SOL    HW213671   6.823   0.881   2.760
 4258SOL     OW13672   2.758   6.027   1.074
 4258SOL    HW113673   2.711   5.944   1.102
 4258SOL    HW213674   2.728   6.054   0.983
 4259SOL     OW13675   0.515   6.822   0.005
 4259SOL    HW113676   0.608   6.848   7.001
 4259SOL    HW213677   0.488   6.871   0.088
 4260SOL     OW13678   6.512   6.881   5.182
 4260SOL    HW113679   6.605   6.917   5.178
 4260SOL    HW213680   6.462   6.905   5.099
 4261SOL     OW13681   2.450   6.395   3.478
 4261SOL    HW113682   2.364   6.349   3.499
 4261SOL    HW213683   2.525   6.328   3.486
 4262SOL     OW13684   1.477   4.512   4.954
 4262SOL    HW113685   1.504   4.431   5.006
 4262SOL    HW213686   1.422   4.572   5.012
 4263SOL     OW13687   3.330   1.290   2.279
 4263SOL    HW113688   3.242   1.268   2.237
 4263SOL    HW213689   3.383   1.349   2.218
 4264SOL     OW13690   4.509   1.919   6.637
 4264SOL    HW113691   4.457   1.978   6.698
 4264SOL    HW213692   4.607   1.931   6.653
 4265SOL     OW13693   3.411   6.336   6.937
 4265SOL    HW113694   3.360   6.390   7.005
 4265SOL    HW213695   3.476   6.395   6.890
 4266SOL     OW13696   1.266   4.798   1.548
 4266SOL    HW113697   1.334   4.793   1.622
 4266SOL    HW213698   1.279   4.883   1.497
 4267SOL     OW13699   1.231   3.899   4.273
 4267SOL    HW113700   1.133   3.885   4.287
 4267SOL    HW213701   1.246   3.954   4.191
 4268SOL     OW13702   1.413   4.283   6.242
 4268SOL    HW113703   1.427   4.382   6.234
 4268SOL    HW213704   1.447   4.238   6.159
 4269SOL     OW13705   2.809   1.504   3.891
 4269SOL    HW113706   2.792   1.478   3.986
 4269SOL    HW213707   2.755   1.445   3.831
 4270SOL     OW13708   4.250   3.994   1.063
 4270SOL    HW113709   4.185   3.958   0.996
 4270SOL    HW213710   4.246   3.939   1.146
 4271SOL     OW13711   6.387   0.456   0.536
 4271SOL    HW113712   6.465   0.401   0.564
 4271SOL    HW213713   6.419   0.534   0.482
 4272SOL     OW13714   6.684   1.742   5.174
 4272SOL    HW113715   6.635   1.680   5.235
 4272SOL    HW213716   6.632   1.828   5.165
 4273SOL     OW13717   3.227   5.651   3.748
 4273SOL    HW113718   3.277   5.737   3.752
 4273SOL    HW213719   3.278   5.585   3.693
 4274SOL     OW13720   0.088   0.871   1.159
 4274SOL    HW113721   0.045   0.781   1.160
 4274SOL    HW213722   0.111   0.899   1.252
 4275SOL     OW13723   6.838   1.943   3.971
 4275SOL    HW113724   6.876   1.976   4.057
 4275SOL    HW213725   6.760   2.001   3.945
 4276SOL     OW13726   1.163   6.741   2.590
 4276SOL    HW113727   1.230   6.804   2.630
 4276SOL    HW213728   1.090   6.723   2.656
 4277SOL     OW13729   6.324   5.919   2.730
 4277SOL    HW113730   6.296   5.938   2.635
 4277SOL    HW213731   6.275   5.838   2.763
 4278SOL     OW13732   0.345   7.021   0.850
 4278SOL    HW113733   0.438   0.010   0.813
 4278SOL    HW213734   0.279   0.008   0.775
 4279SOL     OW13735   0.805   3.028   3.004
 4279SOL    HW113736   0.798   3.073   2.916
 4279SOL    HW213737   0.894   3.048   3.045
 4280SOL     OW13738   2.965   6.230   6.850
 4280SOL    HW113739   3.013   6.296   6.793
 4280SOL    HW213740   2.885   6.195   6.800
 4281SOL     OW13741   0.016   6.254   2.713
 4281SOL    HW113742   0.073   6.313   2.656
 4281SOL    HW213743   7.020   6.168   2.665
 4282SOL     OW13744   5.126   4.805   1.723
 4282SOL    HW113745   5.206   4.847   1.767
 4282SOL    HW213746   5.148   4.784   1.628
 4283SOL     OW13747   5.869   1.129   4.562
 4283SOL    HW113748   5.803   1.123   4.487
 4283SOL    HW213749   5.825   1.099   4.647
 4284SOL     OW13750   4.687   6.199   6.501
 4284SOL    HW113751   4.609   6.187   6.440
 4284SOL    HW213752   4.658   6.182   6.596
 4285SOL     OW13753   3.199   1.419   6.583
 4285SOL    HW113754   3.114   1.367   6.592
 4285SOL    HW213755   3.276   1.356   6.583
 4286SOL     OW13756   4.853   6.411   0.049
 4286SOL    HW113757   4.898   6.337   0.099
 4286SOL    HW213758   4.880   6.499   0.088
 4287SOL     OW13759   3.677   0.840   1.251
 4287SOL    HW113760   3.594   0.804   1.208
 4287SOL    HW213761   3.656   0.927   1.295
 4288SOL     OW13762   0.122   6.374   2.497
 4288SOL    HW113763   0.087   6.291   2.455
 4288SOL    HW213764   0.081   6.454   2.453
 4289SOL     OW13765   0.299   4.281   5.593
 4289SOL    HW113766   0.236   4.334   5.650
 4289SOL    HW213767   0.275   4.184   5.598
 4290SOL     OW13768   6.762   1.599   3.393
 4290SOL    HW113769   6.779   1.645   3.306
 4290SOL    HW213770   6.709   1.516   3.377
 4291SOL     OW13771   4.232   5.143   6.706
 4291SOL    HW113772   4.321   5.162   6.665
 4291SOL    HW213773   4.241   5.066   6.770
 4292SOL     OW13774   6.840   0.303   0.932
 4292SOL    HW113775   6.813   0.207   0.926
 4292SOL    HW213776   6.771   0.360   0.887
 4293SOL     OW13777   3.872   2.986   6.537
 4293SOL    HW113778   3.951   2.927   6.520
 4293SOL    HW213779   3.884   3.073   6.488
 4294SOL     OW13780   2.708   2.074   0.156
 4294SOL    HW113781   2.619   2.088   0.112
 4294SOL    HW213782   2.781   2.094   0.091
 4295SOL     OW13783   4.594   6.974   2.536
 4295SOL    HW113784   4.578   6.945   2.631
 4295SOL    HW213785   4.526   6.930   2.477
 4296SOL     OW13786   1.784   5.497   2.599
 4296SOL    HW113787   1.859   5.513   2.663
 4296SOL    HW213788   1.805   5.541   2.511
 4297SOL     OW13789   4.933   4.765   0.072
 4297SOL    HW113790   4.995   4.794   7.021
 4297SOL    HW213791   4.957   4.673   0.102
 4298SOL     OW13792   1.713   0.091   0.495
 4298SOL    HW113793   1.662   0.171   0.465
 4298SOL    HW213794   1.670   0.008   0.459
 4299SOL     OW13795   0.014   3.020   5.996
 4299SOL    HW113796   0.058   3.087   5.935
 4299SOL    HW213797   0.072   3.006   6.077
 4300SOL     OW13798   3.265   0.763   1.828
 4300SOL    HW113799   3.284   0.833   1.759
 4300SOL    HW213800   3.172   0.774   1.862
 4301SOL     OW13801   2.244   6.066   4.822
 4301SOL    HW113802   2.295   6.078   4.907
 4301SOL    HW213803   2.148   6.049   4.843
 4302SOL     OW13804   3.870   5.177   0.199
 4302SOL    HW113805   3.776   5.146   0.212
 4302SOL    HW213806   3.932   5.120   0.254
 4303SOL     OW13807   4.086   5.453   3.735
 4303SOL    HW113808   4.066   5.437   3.638
 4303SOL    HW213809   4.051   5.542   3.762
 4304SOL     OW13810   2.984   4.216   1.763
 4304SOL    HW113811   2.949   4.308   1.783
 4304SOL    HW213812   2.990   4.203   1.664
 4305SOL     OW13813   0.669   6.711   6.051
 4305SOL    HW113814   0.767   6.697   6.034
 4305SOL    HW213815   0.629   6.762   5.975
 4306SOL     OW13816   5.790   3.401   5.240
 4306SOL    HW113817   5.859   3.348   5.190
 4306SOL    HW213818   5.744   3.463   5.177
 4307SOL     OW13819   6.973   1.445   5.441
 4307SOL    HW113820   6.922   1.378   5.387
 4307SOL    HW213821   0.019   1.492   5.383
 4308SOL     OW13822   4.146   5.835   5.757
 4308SOL    HW113823   4.133   5.749   5.806
 4308SOL    HW213824   4.243   5.852   5.743
 4309SOL     OW13825   2.950   2.016   0.956
 4309SOL    HW113826   2.927   1.947   0.887
 4309SOL    HW213827   2.888   2.094   0.946
 4310SOL     OW13828   6.665   2.153   3.881
 4310SOL    HW113829   6.603   2.212   3.933
 4310SOL    HW213830   6.724   2.209   3.824
 4311SOL     OW13831   0.620   6.280   1.174
 4311SOL    HW113832   0.708   6.312   1.207
 4311SOL    HW213833   0.634   6.226   1.090
 4312SOL     OW13834   0.198   4.087   2.447
 4312SOL    HW113835   0.198   4.115   2.351
 4312SOL    HW213836   0.109   4.049   2.470
 4313SOL     OW13837   0.781   3.501   0.659
 4313SOL    HW113838   0.828   3.453   0.586
 4313SOL    HW213839   0.682   3.491   0.648
 4314SOL     OW13840   1.562   1.754   5.821
 4314SOL    HW113841   1.645   1.809   5.826
 4314SOL    HW213842   1.575   1.668   5.870
 4315SOL     OW13843   2.781   2.342   5.182
 4315SOL    HW113844   2.737   2.385   5.103
 4315SOL    HW213845   2.727   2.264   5.212
 4316SOL     OW13846   4.370   5.306   1.599
 4316SOL    HW113847   4.461   5.337   1.627
 4316SOL    HW213848   4.339   5.359   1.520
 4317SOL     OW13849   5.038   0.356   4.219
 4317SOL    HW113850   5.056   0.454   4.215
 4317SOL    HW213851   5.054   0.322   4.312
 4318SOL     OW13852   1.470   5.875   3.530
 4318SOL    HW113853   1.549   5.897   3.586
 4318SOL    HW213854   1.492   5.796   3.471
 4319SOL     OW13855   1.840   4.979   1.803
 4319SOL    HW113856   1.808   4.903   1.860
 4319SOL    HW213857   1.934   5.002   1.829
 4320SOL     OW13858   3.481   0.750   1.558
 4320SOL    HW113859   3.518   0.757   1.465
 4320SOL    HW213860   3.550   0.781   1.624
 4321SOL     OW13861   6.451   5.679   2.980
 4321SOL    HW113862   6.371   5.736   3.000
 4321SOL    HW213863   6.426   5.608   2.915
 4322SOL     OW13864   2.766   2.330   4.163
 4322SOL    HW113865   2.861   2.312   4.138
 4322SOL    HW213866   2.725   2.392   4.096
 4323SOL     OW13867   5.441   4.342   1.415
 4323SOL    HW113868   5.380   4.312   1.489
 4323SOL    HW213869   5.410   4.303   1.328
 4324SOL     OW13870   6.924   4.057   5.722
 4324SOL    HW113871   6.895   4.133   5.781
 4324SOL    HW213872   6.883   3.972   5.755
 4325SOL     OW13873   1.324   0.756   1.025
 4325SOL    HW113874   1.264   0.811   0.966
 4325SOL    HW213875   1.272   0.682   1.066
 4326SOL     OW13876   4.744   2.892   3.380
 4326SOL    HW113877   4.715   2.824   3.312
 4326SOL    HW213878   4.740   2.983   3.340
 4327SOL     OW13879   3.009   6.505   3.747
 4327SOL    HW113880   3.037   6.589   3.794
 4327SOL    HW213881   2.918   6.517   3.709
 4328SOL     OW13882   6.402   0.086   2.833
 4328SOL    HW113883   6.341   0.110   2.758
 4328SOL    HW213884   6.483   0.041   2.797
 4329SOL     OW13885   6.082   4.054   0.290
 4329SOL    HW113886   6.024   4.069   0.370
 4329SOL    HW213887   6.084   4.138   0.235
 4330SOL     OW13888   2.604   5.546   5.147
 4330SOL    HW113889   2.677   5.578   5.208
 4330SOL    HW213890   2.543   5.484   5.196
 4331SOL     OW13891   5.820   1.943   2.823
 4331SOL    HW113892   5.857   1.954   2.915
 4331SOL    HW213893   5.836   1.849   2.791
 4332SOL     OW13894   6.595   5.763   1.277
 4332SOL    HW113895   6.671   5.713   1.320
 4332SOL    HW213896   6.529   5.697   1.241
 4333SOL     OW13897   3.371   2.626   6.265
 4333SOL    HW113898   3.297   2.559   6.264
 4333SOL    HW213899   3.442   2.598   6.201
 4334SOL     OW13900   0.552   2.502   3.747
 4334SOL    HW113901   0.649   2.478   3.748
 4334SOL    HW213902   0.499   2.425   3.711
 4335SOL     OW13903   2.193   3.801   1.769
 4335SOL    HW113904   2.121   3.735   1.787
 4335SOL    HW213905   2.274   3.779   1.825
 4336SOL     OW13906   2.656   5.238   5.635
 4336SOL    HW113907   2.659   5.192   5.724
 4336SOL    HW213908   2.636   5.171   5.563
 4337SOL     OW13909   6.773   4.671   4.084
 4337SOL    HW113910   6.761   4.757   4.133
 4337SOL    HW213911   6.824   4.688   3.999
 4338SOL     OW13912   2.856   2.699   5.932
 4338SOL    HW113913   2.829   2.627   5.868
 4338SOL    HW213914   2.876   2.783   5.882
 4339SOL     OW13915   4.265   4.241   5.450
 4339SOL    HW113916   4.356   4.264   5.415
 4339SOL    HW213917   4.203   4.317   5.433
 4340SOL     OW13918   0.221   3.851   0.466
 4340SOL    HW113919   0.265   3.791   0.398
 4340SOL    HW213920   0.130   3.816   0.487
 4341SOL     OW13921   6.016   5.677   0.782
 4341SOL    HW113922   6.102   5.692   0.732
 4341SOL    HW213923   6.004   5.579   0.798
 4342SOL     OW13924   5.468   3.305   2.332
 4342SOL    HW113925   5.381   3.317   2.379
 4342SOL    HW213926   5.458   3.236   2.261
 4343SOL     OW13927   4.384   0.451   6.556
 4343SOL    HW113928   4.297   0.500   6.551
 4343SOL    HW213929   4.371   0.357   6.524
 4344SOL     OW13930   1.219   3.998   2.031
 4344SOL    HW113931   1.288   3.932   2.001
 4344SOL    HW213932   1.139   3.993   1.971
 4345SOL     OW13933   3.850   3.449   2.525
 4345SOL    HW113934   3.808   3.426   2.437
 4345SOL    HW213935   3.927   3.387   2.542
 4346SOL     OW13936   0.712   3.929   2.581
 4346SOL    HW113937   0.620   3.926   2.540
 4346SOL    HW213938   0.775   3.975   2.519
 4347SOL     OW13939   6.314   5.374   0.257
 4347SOL    HW113940   6.258   5.454   0.234
 4347SOL    HW213941   6.379   5.399   0.329
 4348SOL     OW13942   6.519   3.970   6.079
 4348SOL    HW113943   6.558   3.955   6.170
 4348SOL    HW213944   6.467   3.888   6.052
 4349SOL     OW13945   1.283   4.110   4.094
 4349SOL    HW113946   1.215   4.181   4.111
 4349SOL    HW213947   1.361   4.123   4.157
 4350SOL     OW13948   5.090   0.183   3.818
 4350SOL    HW113949   4.995   0.209   3.803
 4350SOL    HW213950   5.146   0.216   3.742
 4351SOL     OW13951   0.100   5.506   1.133
 4351SOL    HW113952   0.095   5.476   1.229
 4351SOL    HW213953   0.062   5.435   1.074
 4352SOL     OW13954   3.522   4.197   1.569
 4352SOL    HW113955   3.545   4.287   1.604
 4352SOL    HW213956   3.431   4.170   1.602
 4353SOL     OW13957   2.561   4.033   0.131
 4353SOL    HW113958   2.634   3.980   0.175
 4353SOL    HW213959   2.516   4.091   0.200
 4354SOL     OW13960   5.307   5.253   2.445
 4354SOL    HW113961   5.232   5.267   2.510
 4354SOL    HW213962   5.272   5.207   2.363
 4355SOL     OW13963   1.850   4.946   2.942
 4355SOL    HW113964   1.864   4.864   2.887
 4355SOL    HW213965   1.839   5.025   2.882
 4356SOL     OW13966   5.981   2.387   5.484
 4356SOL    HW113967   6.066   2.335   5.480
 4356SOL    HW213968   5.995   2.471   5.535
 4357SOL     OW13969   5.173   5.693   2.638
 4357SOL    HW113970   5.203   5.642   2.718
 4357SOL    HW213971   5.249   5.748   2.603
 4358SOL     OW13972   2.585   0.492   0.773
 4358SOL    HW113973   2.591   0.419   0.705
 4358SOL    HW213974   2.491   0.522   0.783
 4359SOL     OW13975   2.421   2.236   1.401
 4359SOL    HW113976   2.436   2.299   1.325
 4359SOL    HW213977   2.449   2.279   1.487
 4360SOL     OW13978   2.928   5.983   3.645
 4360SOL    HW113979   3.023   5.989   3.673
 4360SOL    HW213980   2.911   6.046   3.569
 4361SOL     OW13981   1.659   1.417   6.872
 4361SOL    HW113982   1.668   1.471   6.788
 4361SOL    HW213983   1.652   1.320   6.849
 4362SOL     OW13984   0.344   5.528   2.729
 4362SOL    HW113985   0.316   5.500   2.637
 4362SOL    HW213986   0.431   5.486   2.752
 4363SOL     OW13987   3.702   0.852   2.085
 4363SOL    HW113988   3.633   0.810   2.026
 4363SOL    HW213989   3.659   0.923   2.141
 4364SOL     OW13990   3.036   3.908   3.211
 4364SOL    HW113991   3.025   3.815   3.244
 4364SOL    HW213992   3.093   3.960   3.276
 4365SOL     OW13993   2.466   1.327   0.525
 4365SOL    HW113994   2.517   1.241   0.525
 4365SOL    HW213995   2.453   1.358   0.431
 4366SOL     OW13996   5.308   5.803   4.856
 4366SOL    HW113997   5.240   5.761   4.916
 4366SOL    HW213998   5.287   5.782   4.761
 4367SOL     OW13999   2.586   6.711   1.933
 4367SOL    HW114000   2.589   6.612   1.919
 4367SOL    HW214001   2.538   6.731   2.018
 4368SOL     OW14002   4.913   4.195   4.024
 4368SOL    HW114003   4.977   4.224   4.095
 4368SOL    HW214004   4.827   4.243   4.035
 4369SOL     OW14005   5.828   4.455   3.661
 4369SOL    HW114006   5.928   4.454   3.666
 4369SOL    HW214007   5.791   4.456   3.754
 4370SOL     OW14008   4.321   4.905   0.855
 4370SOL    HW114009   4.284   4.958   0.931
 4370SOL    HW214010   4.305   4.808   0.870
 4371SOL     OW14011   3.410   1.536   2.967
 4371SOL    HW114012   3.395   1.634   2.984
 4371SOL    HW214013   3.379   1.483   3.046
 4372SOL     OW14014   1.777   4.456   4.684
 4372SOL    HW114015   1.778   4.404   4.769
 4372SOL    HW214016   1.766   4.394   4.606
 4373SOL     OW14017   4.556   0.369   0.502
 4373SOL    HW114018   4.481   0.329   0.553
 4373SOL    HW214019   4.615   0.421   0.564
 4374SOL     OW14020   2.398   6.449   0.290
 4374SOL    HW114021   2.461   6.526   0.302
 4374SOL    HW214022   2.352   6.430   0.377
 4375SOL     OW14023   4.283   1.267   5.699
 4375SOL    HW114024   4.305   1.329   5.774
 4375SOL    HW214025   4.299   1.313   5.612
 4376SOL     OW14026   2.922   5.231   0.147
 4376SOL    HW114027   2.850   5.299   0.162
 4376SOL    HW214028   2.948   5.192   0.235
 4377SOL     OW14029   5.212   5.848   6.501
 4377SOL    HW114030   5.161   5.928   6.532
 4377SOL    HW214031   5.185   5.768   6.555
 4378SOL     OW14032   3.429   5.355   1.877
 4378SOL    HW114033   3.409   5.307   1.962
 4378SOL    HW214034   3.522   5.331   1.847
 4379SOL     OW14035   6.926   6.265   0.561
 4379SOL    HW114036   6.860   6.340   0.563
 4379SOL    HW214037   6.877   6.178   0.556
 4380SOL     OW14038   2.159   5.431   4.334
 4380SOL    HW114039   2.165   5.518   4.286
 4380SOL    HW214040   2.130   5.359   4.270
 4381SOL     OW14041   4.085   5.839   4.741
 4381SOL    HW114042   4.036   5.864   4.824
 4381SOL    HW214043   4.030   5.865   4.661
 4382SOL     OW14044   5.246   4.480   2.631
 4382SOL    HW114045   5.187   4.557   2.655
 4382SOL    HW214046   5.288   4.444   2.713
 4383SOL     OW14047   1.433   0.664   0.678
 4383SOL    HW114048   1.430   0.698   0.584
 4383SOL    HW214049   1.355   0.701   0.729
 4384SOL     OW14050   3.730   0.377   2.025
 4384SOL    HW114051   3.663   0.398   1.954
 4384SOL    HW214052   3.755   0.280   2.019
 4385SOL     OW14053   6.727   2.692   3.603
 4385SOL    HW114054   6.791   2.652   3.539
 4385SOL    HW214055   6.659   2.746   3.553
 4386SOL     OW14056   1.533   4.426   6.852
 4386SOL    HW114057   1.434   4.412   6.860
 4386SOL    HW214058   1.553   4.524   6.858
 4387SOL     OW14059   6.265   1.649   1.407
 4387SOL    HW114060   6.355   1.683   1.434
 4387SOL    HW214061   6.250   1.559   1.448
 4388SOL     OW14062   4.020   1.275   5.772
 4388SOL    HW114063   4.108   1.245   5.734
 4388SOL    HW214064   4.022   1.269   5.871
 4389SOL     OW14065   6.707   2.566   2.754
 4389SOL    HW114066   6.627   2.557   2.695
 4389SOL    HW214067   6.683   2.624   2.832
 4390SOL     OW14068   4.150   3.363   1.030
 4390SOL    HW114069   4.066   3.342   1.080
 4390SOL    HW214070   4.166   3.293   0.960
 4391SOL     OW14071   1.230   6.371   0.366
 4391SOL    HW114072   1.157   6.409   0.308
 4391SOL    HW214073   1.307   6.344   0.309
 4392SOL     OW14074   5.392   4.993   4.917
 4392SOL    HW114075   5.397   4.989   5.017
 4392SOL    HW214076   5.369   5.087   4.889
 4393SOL     OW14077   5.263   6.611   2.809
 4393SOL    HW114078   5.354   6.652   2.814
 4393SOL    HW214079   5.200   6.665   2.864
 4394SOL     OW14080   4.647   0.173   2.272
 4394SOL    HW114081   4.661   0.095   2.211
 4394SOL    HW214082   4.563   0.160   2.325
 4395SOL     OW14083   4.954   2.224   1.085
 4395SOL    HW114084   4.992   2.131   1.079
 4395SOL    HW214085   4.861   2.219   1.120
 4396SOL     OW14086   1.399   1.533   3.023
 4396SOL    HW114087   1.376   1.484   2.940
 4396SOL    HW214088   1.315   1.562   3.069
 4397SOL     OW14089   4.629   0.629   6.693
 4397SOL    HW114090   4.549   0.620   6.634
 4397SOL    HW214091   4.699   0.562   6.666
 4398SOL     OW14092   0.075   5.333   4.844
 4398SOL    HW114093   0.083   5.394   4.924
 4398SOL    HW214094   0.015   5.257   4.867
 4399SOL     OW14095   3.181   0.677   2.661
 4399SOL    HW114096   3.132   0.757   2.696
 4399SOL    HW214097   3.223   0.700   2.573
 4400SOL     OW14098   3.822   5.151   3.033
 4400SOL    HW114099   3.858   5.183   2.945
 4400SOL    HW214100   3.808   5.053   3.029
 4401SOL     OW14101   5.717   5.847   4.637
 4401SOL    HW114102   5.777   5.780   4.680
 4401SOL    HW214103   5.772   5.913   4.585
 4402SOL     OW14104   6.733   6.342   1.537
 4402SOL    HW114105   6.781   6.263   1.574
 4402SOL    HW214106   6.654   6.363   1.594
 4403SOL     OW14107   6.342   1.118   2.281
 4403SOL    HW114108   6.324   1.060   2.360
 4403SOL    HW214109   6.256   1.151   2.243
 4404SOL     OW14110   2.166   4.172   2.508
 4404SOL    HW114111   2.077   4.153   2.467
 4404SOL    HW214112   2.227   4.211   2.439
 4405SOL     OW14113   2.888   3.900   5.926
 4405SOL    HW114114   2.814   3.915   5.992
 4405SOL    HW214115   2.878   3.964   5.850
 4406SOL     OW14116   6.446   2.951   2.219
 4406SOL    HW114117   6.535   2.918   2.249
 4406SOL    HW214118   6.454   3.044   2.185
 4407SOL     OW14119   1.168   0.798   0.291
 4407SOL    HW114120   1.145   0.701   0.292
 4407SOL    HW214121   1.098   0.848   0.238
 4408SOL     OW14122   3.980   6.313   1.245
 4408SOL    HW114123   4.037   6.383   1.288
 4408SOL    HW214124   4.026   6.224   1.251
 4409SOL     OW14125   3.102   1.864   2.539
 4409SOL    HW114126   3.067   1.794   2.601
 4409SOL    HW214127   3.040   1.943   2.538
 4410SOL     OW14128   1.810   5.916   1.440
 4410SOL    HW114129   1.887   5.853   1.433
 4410SOL    HW214130   1.844   6.009   1.453
 4411SOL     OW14131   4.014   3.061   2.207
 4411SOL    HW114132   4.110   3.046   2.228
 4411SOL    HW214133   4.000   3.156   2.179
 4412SOL     OW14134   4.070   1.303   6.086
 4412SOL    HW114135   4.043   1.285   6.181
 4412SOL    HW214136   4.035   1.392   6.058
 4413SOL     OW14137   4.314   5.334   4.016
 4413SOL    HW114138   4.295   5.271   3.940
 4413SOL    HW214139   4.408   5.318   4.049
 4414SOL     OW14140   3.493   4.897   2.188
 4414SOL    HW114141   3.535   4.861   2.105
 4414SOL    HW214142   3.394   4.896   2.178
 4415SOL     OW14143   4.683   1.803   1.285
 4415SOL    HW114144   4.756   1.871   1.290
 4415SOL    HW214145   4.619   1.818   1.361
 4416SOL     OW14146   2.755   1.976   4.447
 4416SOL    HW114147   2.706   1.936   4.370
 4416SOL    HW214148   2.766   2.074   4.432
 4417SOL     OW14149   6.442   6.638   1.318
 4417SOL    HW114150   6.521   6.615   1.260
 4417SOL    HW214151   6.380   6.698   1.267
 4418SOL     OW14152   5.084   1.042   3.227
 4418SOL    HW114153   5.088   1.122   3.287
 4418SOL    HW214154   5.131   1.063   3.141
 4419SOL     OW14155   6.021   5.309   6.175
 4419SOL    HW114156   5.925   5.314   6.203
 4419SOL    HW214157   6.028   5.334   6.079
 4420SOL     OW14158   4.891   0.855   0.726
 4420SOL    HW114159   4.941   0.772   0.748
 4420SOL    HW214160   4.952   0.921   0.683
 4421SOL     OW14161   0.560   1.657   3.294
 4421SOL    HW114162   0.562   1.557   3.295
 4421SOL    HW214163   0.625   1.692   3.362
 4422SOL     OW14164   1.518   4.171   6.006
 4422SOL    HW114165   1.612   4.200   6.024
 4422SOL    HW214166   1.508   4.145   5.910
 4423SOL     OW14167   6.891   1.656   5.952
 4423SOL    HW114168   6.874   1.592   5.877
 4423SOL    HW214169   6.988   1.654   5.977
 4424SOL     OW14170   1.876   5.258   3.801
 4424SOL    HW114171   1.796   5.304   3.763
 4424SOL    HW214172   1.851   5.165   3.829
 4425SOL     OW14173   5.147   3.985   1.575
 4425SOL    HW114174   5.210   4.059   1.600
 4425SOL    HW214175   5.171   3.902   1.626
 4426SOL     OW14176   0.686   0.417   6.917
 4426SOL    HW114177   0.693   0.397   6.819
 4426SOL    HW214178   0.615   0.359   6.958
 4427SOL     OW14179   0.884   5.613   3.919
 4427SOL    HW114180   0.936   5.534   3.887
 4427SOL    HW214181   0.824   5.585   3.994
 4428SOL     OW14182   1.150   6.483   2.844
 4428SOL    HW114183   1.223   6.551   2.834
 4428SOL    HW214184   1.181   6.395   2.808
 4429SOL     OW14185   3.147   0.764   3.378
 4429SOL    HW114186   3.125   0.708   3.298
 4429SOL    HW214187   3.091   0.736   3.455
 4430SOL     OW14188   1.649   0.857   2.064
 4430SOL    HW114189   1.558   0.841   2.026
 4430SOL    HW214190   1.641   0.887   2.159
 4431SOL     OW14191   2.167   2.187   3.492
 4431SOL    HW114192   2.190   2.183   3.395
 4431SOL    HW214193   2.080   2.140   3.508
 4432SOL     OW14194   3.060   3.736   4.141
 4432SOL    HW114195   3.136   3.799   4.127
 4432SOL    HW214196   3.004   3.733   4.058
 4433SOL     OW14197   6.410   0.700   2.710
 4433SOL    HW114198   6.449   0.703   2.802
 4433SOL    HW214199   6.437   0.782   2.660
 4434SOL     OW14200   5.371   2.310   5.109
 4434SOL    HW114201   5.465   2.291   5.139
 4434SOL    HW214202   5.335   2.388   5.161
 4435SOL     OW14203   3.604   3.310   1.913
 4435SOL    HW114204   3.590   3.284   2.008
 4435SOL    HW214205   3.575   3.405   1.900
 4436SOL     OW14206   5.628   0.456   0.303
 4436SOL    HW114207   5.701   0.506   0.350
 4436SOL    HW214208   5.605   0.502   0.218
 4437SOL     OW14209   3.425   6.972   5.713
 4437SOL    HW114210   3.363   6.904   5.675
 4437SOL    HW214211   3.378   0.039   5.719
 4438SOL     OW14212   3.625   2.942   6.649
 4438SOL    HW114213   3.717   2.938   6.611
 4438SOL    HW214214   3.584   2.851   6.646
 4439SOL     OW14215   1.770   4.169   3.003
 4439SOL    HW114216   1.857   4.192   2.960
 4439SOL    HW214217   1.738   4.246   3.058
 4440SOL     OW14218   6.539   1.534   0.492
 4440SOL    HW114219   6.514   1.471   0.565
 4440SOL    HW214220   6.516   1.492   0.404
 4441SOL     OW14221   6.584   0.339   3.539
 4441SOL    HW114222   6.558   0.393   3.619
 4441SOL    HW214223   6.669   0.376   3.500
 4442SOL     OW14224   1.663   5.778   2.205
 4442SOL    HW114225   1.689   5.874   2.192
 4442SOL    HW214226   1.565   5.773   2.225
 4443SOL     OW14227   2.694   1.509   0.792
 4443SOL    HW114228   2.704   1.526   0.890
 4443SOL    HW214229   2.631   1.575   0.752
 4444SOL     OW14230   5.008   1.519   3.155
 4444SOL    HW114231   5.000   1.603   3.101
 4444SOL    HW214232   4.933   1.458   3.133
 4445SOL     OW14233   0.912   1.063   6.333
 4445SOL    HW114234   0.954   1.105   6.253
 4445SOL    HW214235   0.983   1.018   6.388
 4446SOL     OW14236   5.733   4.434   3.911
 4446SOL    HW114237   5.655   4.404   3.965
 4446SOL    HW214238   5.785   4.502   3.962
 4447SOL     OW14239   4.850   3.743   5.292
 4447SOL    HW114240   4.806   3.696   5.216
 4447SOL    HW214241   4.948   3.723   5.292
 4448SOL     OW14242   2.431   3.442   6.561
 4448SOL    HW114243   2.332   3.455   6.563
 4448SOL    HW214244   2.471   3.496   6.487
 4449SOL     OW14245   0.544   1.259   5.760
 4449SOL    HW114246   0.504   1.346   5.787
 4449SOL    HW214247   0.542   1.251   5.660
 4450SOL     OW14248   3.605   3.743   2.765
 4450SOL    HW114249   3.670   3.676   2.803
 4450SOL    HW214250   3.516   3.730   2.808
 4451SOL     OW14251   0.199   4.552   0.837
 4451SOL    HW114252   0.222   4.592   0.748
 4451SOL    HW214253   0.162   4.461   0.823
 4452SOL     OW14254   6.742   3.079   6.046
 4452SOL    HW114255   6.688   3.142   5.990
 4452SOL    HW214256   6.798   3.021   5.987
 4453SOL     OW14257   5.165   0.754   0.482
 4453SOL    HW114258   5.154   0.849   0.511
 4453SOL    HW214259   5.096   0.697   0.527
 4454SOL     OW14260   5.310   2.733   1.469
 4454SOL    HW114261   5.220   2.705   1.501
 4454SOL    HW214262   5.363   2.652   1.443
 4455SOL     OW14263   4.367   2.373   2.848
 4455SOL    HW114264   4.277   2.332   2.863
 4455SOL    HW214265   4.367   2.421   2.760
 4456SOL     OW14266   0.402   5.609   2.377
 4456SOL    HW114267   0.310   5.571   2.388
 4456SOL    HW214268   0.416   5.636   2.282
 4457SOL     OW14269   4.275   2.303   0.164
 4457SOL    HW114270   4.336   2.343   0.232
 4457SOL    HW214271   4.267   2.364   0.085
 4458SOL     OW14272   4.328   1.501   1.106
 4458SOL    HW114273   4.410   1.555   1.091
 4458SOL    HW214274   4.318   1.433   1.034
 4459SOL     OW14275   5.600   6.108   5.554
 4459SOL    HW114276   5.684   6.144   5.594
 4459SOL    HW214277   5.588   6.145   5.462
 4460SOL     OW14278   1.279   1.274   6.859
 4460SOL    HW114279   1.366   1.253   6.814
 4460SOL    HW214280   1.285   1.363   6.904
 4461SOL     OW14281   1.831   6.869   2.819
 4461SOL    HW114282   1.840   6.919   2.905
 4461SOL    HW214283   1.819   6.935   2.744
 4462SOL     OW14284   6.687   3.779   0.557
 4462SOL    HW114285   6.598   3.772   0.512
 4462SOL    HW214286   6.687   3.857   0.620
 4463SOL     OW14287   1.038   4.424   6.998
 4463SOL    HW114288   0.995   4.470   6.920
 4463SOL    HW214289   1.136   4.414   6.981
 4464SOL     OW14290   6.252   2.548   6.939
 4464SOL    HW114291   6.176   2.516   6.994
 4464SOL    HW214292   6.269   2.645   6.959
 4465SOL     OW14293   6.654   5.543   0.704
 4465SOL    HW114294   6.686   5.453   0.733
 4465SOL    HW214295   6.568   5.565   0.750
 4466SOL     OW14296   7.017   2.912   3.258
 4466SOL    HW114297   6.953   2.850   3.212
 4466SOL    HW214298   6.994   3.006   3.235
 4467SOL     OW14299   1.148   0.594   3.635
 4467SOL    HW114300   1.117   0.550   3.719
 4467SOL    HW214301   1.175   0.524   3.569
 4468SOL     OW14302   1.539   2.076   0.553
 4468SOL    HW114303   1.579   2.040   0.469
 4468SOL    HW214304   1.503   2.001   0.608
 4469SOL     OW14305   4.913   6.998   0.912
 4469SOL    HW114306   4.827   0.028   0.913
 4469SOL    HW214307   4.923   6.947   0.997
 4470SOL     OW14308   4.911   4.642   1.448
 4470SOL    HW114309   4.856   4.558   1.454
 4470SOL    HW214310   4.925   4.665   1.352
 4471SOL     OW14311   6.059   3.217   1.674
 4471SOL    HW114312   5.994   3.170   1.735
 4471SOL    HW214313   6.100   3.294   1.723
 4472SOL     OW14314   2.561   5.205   1.497
 4472SOL    HW114315   2.534   5.128   1.555
 4472SOL    HW214316   2.634   5.256   1.543
 4473SOL     OW14317   6.380   0.483   0.058
 4473SOL    HW114318   6.431   0.548   0.001
 4473SOL    HW214319   6.414   0.391   0.041
 4474SOL     OW14320   6.269   0.753   4.302
 4474SOL    HW114321   6.229   0.669   4.338
 4474SOL    HW214322   6.289   0.815   4.378
 4475SOL     OW14323   1.368   3.378   0.508
 4475SOL    HW114324   1.380   3.383   0.608
 4475SOL    HW214325   1.335   3.466   0.475
 4476SOL     OW14326   4.373   6.616   2.978
 4476SOL    HW114327   4.460   6.658   2.952
 4476SOL    HW214328   4.297   6.676   2.951
 4477SOL     OW14329   1.388   2.173   0.764
 4477SOL    HW114330   1.428   2.126   0.685
 4477SOL    HW214331   1.409   2.271   0.759
 4478SOL     OW14332   1.320   5.085   1.090
 4478SOL    HW114333   1.260   5.048   1.019
 4478SOL    HW214334   1.265   5.135   1.157
 4479SOL     OW14335   1.394   0.236   6.119
 4479SOL    HW114336   1.446   0.319   6.104
 4479SOL    HW214337   1.400   0.210   6.215
 4480SOL     OW14338   0.055   4.229   3.347
 4480SOL    HW114339   7.005   4.216   3.278
 4480SOL    HW214340   0.145   4.214   3.306
 4481SOL     OW14341   0.449   0.829   4.094
 4481SOL    HW114342   0.434   0.924   4.064
 4481SOL    HW214343   0.528   0.827   4.156
 4482SOL     OW14344   1.257   4.089   2.832
 4482SOL    HW114345   1.339   4.044   2.866
 4482SOL    HW214346   1.176   4.037   2.858
 4483SOL     OW14347   5.797   3.472   0.611
 4483SOL    HW114348   5.746   3.495   0.694
 4483SOL    HW214349   5.733   3.443   0.540
 4484SOL     OW14350   3.255   3.263   6.394
 4484SOL    HW114351   3.156   3.249   6.388
 4484SOL    HW214352   3.298   3.185   6.438
 4485SOL     OW14353   4.933   0.049   6.332
 4485SOL    HW114354   4.987   6.987   6.320
 4485SOL    HW214355   4.844   0.026   6.371
 4486SOL     OW14356   6.036   3.602   3.854
 4486SOL    HW114357   6.069   3.554   3.936
 4486SOL    HW214358   6.065   3.553   3.772
 4487SOL     OW14359   2.618   3.076   5.751
 4487SOL    HW114360   2.691   3.071   5.682
 4487SOL    HW214361   2.658   3.063   5.842
 4488SOL     OW14362   6.972   1.824   6.277
 4488SOL    HW114363   0.012   1.766   6.224
 4488SOL    HW214364   6.885   1.776   6.292
 4489SOL     OW14365   1.219   0.961   2.320
 4489SOL    HW114366   1.183   1.054   2.325
 4489SOL    HW214367   1.230   0.935   2.224
 4490SOL     OW14368   6.912   2.236   4.123
 4490SOL    HW114369   6.875   2.326   4.098
 4490SOL    HW214370   6.867   2.203   4.206
 4491SOL     OW14371   1.882   4.195   2.324
 4491SOL    HW114372   1.864   4.280   2.374
 4491SOL    HW214373   1.873   4.212   2.226
 4492SOL     OW14374   4.872   4.227   6.131
 4492SOL    HW114375   4.916   4.305   6.087
 4492SOL    HW214376   4.812   4.259   6.204
 4493SOL     OW14377   6.044   4.420   3.512
 4493SOL    HW114378   5.953   4.438   3.476
 4493SOL    HW214379   6.049   4.326   3.545
 4494SOL     OW14380   5.957   2.126   2.637
 4494SOL    HW114381   5.858   2.130   2.628
 4494SOL    HW214382   5.981   2.106   2.732
 4495SOL     OW14383   4.945   6.033   2.125
 4495SOL    HW114384   4.908   6.002   2.213
 4495SOL    HW214385   4.887   6.107   2.089
 4496SOL     OW14386   6.306   3.792   5.633
 4496SOL    HW114387   6.357   3.863   5.679
 4496SOL    HW214388   6.320   3.704   5.679
 4497SOL     OW14389   6.531   5.820   0.594
 4497SOL    HW114390   6.475   5.879   0.536
 4497SOL    HW214391   6.623   5.811   0.554
 4498SOL     OW14392   0.780   4.133   6.855
 4498SOL    HW114393   0.853   4.067   6.838
 4498SOL    HW214394   0.779   4.201   6.782
 4499SOL     OW14395   5.236   3.422   6.856
 4499SOL    HW114396   5.169   3.379   6.918
 4499SOL    HW214397   5.267   3.354   6.790
 4500SOL     OW14398   3.708   3.997   2.747
 4500SOL    HW114399   3.667   3.906   2.747
 4500SOL    HW214400   3.773   4.004   2.671
 4501SOL     OW14401   1.309   4.765   4.849
 4501SOL    HW114402   1.332   4.762   4.946
 4501SOL    HW214403   1.267   4.678   4.822
 4502SOL     OW14404   5.636   2.594   0.153
 4502SOL    HW114405   5.621   2.657   0.230
 4502SOL    HW214406   5.659   2.647   0.071
 4503SOL     OW14407   1.494   3.274   2.907
 4503SOL    HW114408   1.505   3.234   2.816
 4503SOL    HW214409   1.413   3.333   2.908
 4504SOL     OW14410   4.735   2.726   4.304
 4504SOL    HW114411   4.735   2.818   4.267
 4504SOL    HW214412   4.648   2.681   4.282
 4505SOL     OW14413   1.932   5.297   0.675
 4505SOL    HW114414   1.960   5.236   0.749
 4505SOL    HW214415   2.003   5.366   0.661
 4506SOL     OW14416   3.817   0.198   5.746
 4506SOL    HW114417   3.893   0.233   5.801
 4506SOL    HW214418   3.783   0.270   5.685
 4507SOL     OW14419   6.580   3.837   2.534
 4507SOL    HW114420   6.522   3.771   2.486
 4507SOL    HW214421   6.624   3.897   2.467
 4508SOL     OW14422   1.844   3.679   0.291
 4508SOL    HW114423   1.828   3.609   0.361
 4508SOL    HW214424   1.774   3.750   0.298
 4509SOL     OW14425   0.562   2.198   3.013
 4509SOL    HW114426   0.608   2.252   3.084
 4509SOL    HW214427   0.625   2.183   2.937
 4510SOL     OW14428   3.040   6.185   6.106
 4510SOL    HW114429   3.019   6.155   6.199
 4510SOL    HW214430   3.136   6.169   6.086
 4511SOL     OW14431   6.969   1.793   6.966
 4511SOL    HW114432   6.916   1.864   7.012
 4511SOL    HW214433   0.027   1.768   0.002
 4512SOL     OW14434   2.492   4.086   6.870
 4512SOL    HW114435   2.560   4.105   6.940
 4512SOL    HW214436   2.538   4.066   6.783
 4513SOL     OW14437   6.078   1.320   2.545
 4513SOL    HW114438   6.043   1.363   2.462
 4513SOL    HW214439   6.014   1.337   2.620
 4514SOL     OW14440   3.020   0.753   5.616
 4514SOL    HW114441   3.068   0.825   5.666
 4514SOL    HW214442   2.926   0.783   5.597
 4515SOL     OW14443   6.566   4.868   7.015
 4515SOL    HW114444   6.584   4.946   6.955
 4515SOL    HW214445   6.626   4.793   6.989
 4516SOL     OW14446   0.828   0.305   3.601
 4516SOL    HW114447   0.843   0.324   3.698
 4516SOL    HW214448   0.770   0.224   3.592
 4517SOL     OW14449   3.132   0.539   0.163
 4517SOL    HW114450   3.132   0.639   0.160
 4517SOL    HW214451   3.066   0.504   0.097
 4518SOL     OW14452   1.586   6.801   3.868
 4518SOL    HW114453   1.560   6.898   3.871
 4518SOL    HW214454   1.568   6.760   3.957
 4519SOL     OW14455   6.281   2.551   5.191
 4519SOL    HW114456   6.298   2.597   5.279
 4519SOL    HW214457   6.187   2.567   5.162
 4520SOL     OW14458   0.203   3.884   2.906
 4520SOL    HW114459   0.285   3.835   2.876
 4520SOL    HW214460   0.216   3.918   2.999
 4521SOL     OW14461   5.033   1.373   6.373
 4521SOL    HW114462   5.073   1.282   6.382
 4521SOL    HW214463   5.104   1.438   6.344
 4522SOL     OW14464   5.813   6.921   3.482
 4522SOL    HW114465   5.744   6.934   3.411
 4522SOL    HW214466   5.904   6.917   3.440
 4523SOL     OW14467   4.983   2.464   5.714
 4523SOL    HW114468   5.003   2.527   5.639
 4523SOL    HW214469   4.886   2.439   5.711
 4524SOL     OW14470   6.115   0.385   5.168
 4524SOL    HW114471   6.204   0.416   5.200
 4524SOL    HW214472   6.108   0.397   5.069
 4525SOL     OW14473   6.290   1.243   4.304
 4525SOL    HW114474   6.202   1.201   4.279
 4525SOL    HW214475   6.348   1.174   4.347
 4526SOL     OW14476   3.490   1.456   1.583
 4526SOL    HW114477   3.393   1.448   1.605
 4526SOL    HW214478   3.508   1.546   1.542
 4527SOL     OW14479   4.221   6.392   4.312
 4527SOL    HW114480   4.196   6.463   4.378
 4527SOL    HW214481   4.191   6.420   4.221
 4528SOL     OW14482   5.210   0.494   5.914
 4528SOL    HW114483   5.136   0.542   5.866
 4528SOL    HW214484   5.183   0.479   6.009
 4529SOL     OW14485   3.451   0.154   4.004
 4529SOL    HW114486   3.450   0.195   3.912
 4529SOL    HW214487   3.545   0.127   4.026
 4530SOL     OW14488   0.168   2.664   4.529
 4530SOL    HW114489   0.219   2.629   4.451
 4530SOL    HW214490   0.081   2.702   4.498
 4531SOL     OW14491   0.533   4.153   3.893
 4531SOL    HW114492   0.433   4.161   3.887
 4531SOL    HW214493   0.559   4.127   3.986
 4532SOL     OW14494   0.626   2.133   0.445
 4532SOL    HW114495   0.544   2.076   0.442
 4532SOL    HW214496   0.600   2.228   0.463
 4533SOL     OW14497   3.261   5.919   2.248
 4533SOL    HW114498   3.198   5.875   2.311
 4533SOL    HW214499   3.209   5.961   2.173
 4534SOL     OW14500   0.130   4.408   5.789
 4534SOL    HW114501   0.059   4.443   5.728
 4534SOL    HW214502   0.090   4.389   5.879
 4535SOL     OW14503   5.109   2.488   3.224
 4535SOL    HW114504   5.088   2.462   3.318
 4535SOL    HW214505   5.030   2.467   3.165
 4536SOL     OW14506   7.005   0.569   3.812
 4536SOL    HW114507   6.936   0.501   3.834
 4536SOL    HW214508   0.053   0.570   3.885
 4537SOL     OW14509   4.770   3.645   6.780
 4537SOL    HW114510   4.697   3.601   6.729
 4537SOL    HW214511   4.826   3.576   6.825
 4538SOL     OW14512   3.742   2.447   1.345
 4538SOL    HW114513   3.755   2.458   1.443
 4538SOL    HW214514   3.782   2.360   1.315
 4539SOL     OW14515   2.463   2.448   1.963
 4539SOL    HW114516   2.448   2.523   2.027
 4539SOL    HW214517   2.525   2.381   2.003
 4540SOL     OW14518   3.511   3.243   5.071
 4540SOL    HW114519   3.502   3.145   5.089
 4540SOL    HW214520   3.607   3.269   5.077
 4541SOL     OW14521   6.159   0.922   1.593
 4541SOL    HW114522   6.097   0.995   1.620
 4541SOL    HW214523   6.207   0.888   1.674
 4542SOL     OW14524   5.058   6.792   3.228
 4542SOL    HW114525   5.149   6.771   3.261
 4542SOL    HW214526   5.041   6.891   3.236
 4543SOL     OW14527   5.725   2.574   2.291
 4543SOL    HW114528   5.633   2.611   2.279
 4543SOL    HW214529   5.787   2.615   2.224
 4544SOL     OW14530   4.999   5.193   6.099
 4544SOL    HW114531   4.996   5.097   6.073
 4544SOL    HW214532   5.092   5.216   6.128
 4545SOL     OW14533   3.774   3.974   6.062
 4545SOL    HW114534   3.751   4.001   6.155
 4545SOL    HW214535   3.770   4.054   6.002
 4546SOL     OW14536   0.595   6.171   7.021
 4546SOL    HW114537   0.608   6.266   0.028
 4546SOL    HW214538   0.568   6.168   6.925
 4547SOL     OW14539   4.832   1.708   2.330
 4547SOL    HW114540   4.926   1.678   2.346
 4547SOL    HW214541   4.798   1.668   2.245
 4548SOL     OW14542   1.084   3.621   4.139
 4548SOL    HW114543   1.126   3.710   4.159
 4548SOL    HW214544   1.026   3.628   4.058
 4549SOL     OW14545   5.666   1.836   2.352
 4549SOL    HW114546   5.655   1.865   2.447
 4549SOL    HW214547   5.577   1.810   2.314
 4550SOL     OW14548   2.279   5.693   4.675
 4550SOL    HW114549   2.196   5.734   4.636
 4550SOL    HW214550   2.271   5.689   4.774
 4551SOL     OW14551   6.695   3.249   0.681
 4551SOL    HW114552   6.748   3.164   0.682
 4551SOL    HW214553   6.751   3.324   0.714
 4552SOL     OW14554   6.895   3.122   4.676
 4552SOL    HW114555   6.954   3.202   4.670
 4552SOL    HW214556   6.950   3.041   4.691
 4553SOL     OW14557   4.939   4.819   6.645
 4553SOL    HW114558   4.998   4.839   6.724
 4553SOL    HW214559   4.995   4.806   6.564
 4554SOL     OW14560   6.615   0.169   3.925
 4554SOL    HW114561   6.645   0.258   3.959
 4554SOL    HW214562   6.556   0.182   3.846
 4555SOL     OW14563   3.881   3.188   0.111
 4555SOL    HW114564   3.814   3.132   0.061
 4555SOL    HW214565   3.911   3.139   0.193
 4556SOL     OW14566   4.586   0.116   4.972
 4556SOL    HW114567   4.588   0.161   4.883
 4556SOL    HW214568   4.642   0.169   5.037
 4557SOL     OW14569   5.362   0.800   4.814
 4557SOL    HW114570   5.376   0.867   4.741
 4557SOL    HW214571   5.284   0.828   4.869
 4558SOL     OW14572   6.424   2.774   5.772
 4558SOL    HW114573   6.346   2.810   5.823
 4558SOL    HW214574   6.425   2.814   5.680
 4559SOL     OW14575   0.888   6.170   1.515
 4559SOL    HW114576   0.912   6.114   1.436
 4559SOL    HW214577   0.789   6.188   1.514
 4560SOL     OW14578   5.664   2.782   2.834
 4560SOL    HW114579   5.688   2.729   2.753
 4560SOL    HW214580   5.737   2.776   2.901
 4561SOL     OW14581   3.665   0.034   6.465
 4561SOL    HW114582   3.570   0.008   6.482
 4561SOL    HW214583   3.688   0.114   6.521
 4562SOL     OW14584   2.720   4.686   5.609
 4562SOL    HW114585   2.620   4.694   5.615
 4562SOL    HW214586   2.744   4.626   5.533
 4563SOL     OW14587   5.921   2.208   6.820
 4563SOL    HW114588   6.014   2.238   6.840
 4563SOL    HW214589   5.924   2.123   6.768
 4564SOL     OW14590   1.010   5.113   0.273
 4564SOL    HW114591   0.936   5.180   0.273
 4564SOL    HW214592   0.984   5.035   0.329
 4565SOL     OW14593   2.605   1.137   3.805
 4565SOL    HW114594   2.637   1.130   3.899
 4565SOL    HW214595   2.549   1.219   3.794
 4566SOL     OW14596   1.541   1.020   0.809
 4566SOL    HW114597   1.581   0.960   0.878
 4566SOL    HW214598   1.606   1.035   0.735
 4567SOL     OW14599   5.513   1.376   0.900
 4567SOL    HW114600   5.499   1.452   0.963
 4567SOL    HW214601   5.509   1.290   0.951
 4568SOL     OW14602   4.355   4.687   4.046
 4568SOL    HW114603   4.265   4.731   4.040
 4568SOL    HW214604   4.389   4.667   3.954
 4569SOL     OW14605   0.674   1.762   2.959
 4569SOL    HW114606   0.618   1.680   2.962
 4569SOL    HW214607   0.648   1.823   3.034
 4570SOL     OW14608   5.429   5.775   4.409
 4570SOL    HW114609   5.502   5.795   4.474
 4570SOL    HW214610   5.340   5.793   4.452
 4571SOL     OW14611   3.740   2.913   4.088
 4571SOL    HW114612   3.689   2.908   4.174
 4571SOL    HW214613   3.835   2.936   4.107
 4572SOL     OW14614   1.933   5.257   1.650
 4572SOL    HW114615   2.018   5.219   1.614
 4572SOL    HW214616   1.856   5.200   1.621
 4573SOL     OW14617   5.320   0.448   0.939
 4573SOL    HW114618   5.304   0.508   0.861
 4573SOL    HW214619   5.388   0.378   0.914
 4574SOL     OW14620   6.949   4.440   1.327
 4574SOL    HW114621   6.934   4.344   1.351
 4574SOL    HW214622   6.861   4.481   1.301
 4575SOL     OW14623   6.449   6.196   2.043
 4575SOL    HW114624   6.393   6.247   2.109
 4575SOL    HW214625   6.498   6.260   1.984
 4576SOL     OW14626   3.170   6.237   4.117
 4576SOL    HW114627   3.219   6.292   4.049
 4576SOL    HW214628   3.089   6.197   4.076
 4577SOL     OW14629   1.776   2.876   3.851
 4577SOL    HW114630   1.737   2.857   3.761
 4577SOL    HW214631   1.714   2.841   3.922
 4578SOL     OW14632   6.934   5.611   4.046
 4578SOL    HW114633   6.904   5.530   3.995
 4578SOL    HW214634   0.006   5.634   4.021
 4579SOL     OW14635   5.505   2.227   4.290
 4579SOL    HW114636   5.423   2.214   4.345
 4579SOL    HW214637   5.495   2.309   4.234
 4580SOL     OW14638   0.459   5.296   6.961
 4580SOL    HW114639   0.406   5.215   6.987
 4580SOL    HW214640   0.416   5.377   7.000
 4581SOL     OW14641   3.258   6.122   4.701
 4581SOL    HW114642   3.310   6.079   4.774
 4581SOL    HW214643   3.161   6.125   4.725
 4582SOL     OW14644   5.053   0.039   3.243
 4582SOL    HW114645   5.113   0.114   3.269
 4582SOL    HW214646   4.969   0.076   3.201
 4583SOL     OW14647   3.642   0.752   5.369
 4583SOL    HW114648   3.580   0.823   5.333
 4583SOL    HW214649   3.625   0.667   5.320
 4584SOL     OW14650   0.817   4.680   5.896
 4584SOL    HW114651   0.809   4.590   5.855
 4584SOL    HW214652   0.777   4.749   5.836
 4585SOL     OW14653   3.150   6.175   2.417
 4585SOL    HW114654   3.075   6.232   2.385
 4585SOL    HW214655   3.172   6.107   2.347
 4586SOL     OW14656   2.793   6.287   1.698
 4586SOL    HW114657   2.759   6.216   1.636
 4586SOL    HW214658   2.743   6.372   1.682
 4587SOL     OW14659   3.296   4.639   0.842
 4587SOL    HW114660   3.320   4.628   0.745
 4587SOL    HW214661   3.364   4.697   0.887
 4588SOL     OW14662   3.583   3.975   5.163
 4588SOL    HW114663   3.545   3.883   5.153
 4588SOL    HW214664   3.573   4.005   5.257
 4589SOL     OW14665   1.250   1.891   3.059
 4589SOL    HW114666   1.263   1.961   3.129
 4589SOL    HW214667   1.339   1.866   3.020
 4590SOL     OW14668   4.189   6.368   3.118
 4590SOL    HW114669   4.268   6.328   3.164
 4590SOL    HW214670   4.122   6.398   3.187
 4591SOL     OW14671   5.888   6.377   5.105
 4591SOL    HW114672   5.860   6.287   5.072
 4591SOL    HW214673   5.961   6.367   5.172
 4592SOL     OW14674   3.402   1.791   5.795
 4592SOL    HW114675   3.440   1.850   5.724
 4592SOL    HW214676   3.376   1.703   5.754
 4593SOL     OW14677   5.178   6.617   1.650
 4593SOL    HW114678   5.096   6.607   1.706
 4593SOL    HW214679   5.219   6.528   1.633
 4594SOL     OW14680   3.917   1.701   2.364
 4594SOL    HW114681   3.860   1.783   2.375
 4594SOL    HW214682   3.861   1.626   2.329
 4595SOL     OW14683   4.713   3.287   5.911
 4595SOL    HW114684   4.727   3.376   5.954
 4595SOL    HW214685   4.653   3.297   5.831
 4596SOL     OW14686   5.330   0.232   2.401
 4596SOL    HW114687   5.263   0.214   2.474
 4596SOL    HW214688   5.284   0.229   2.312
 4597SOL     OW14689   6.463   4.207   5.618
 4597SOL    HW114690   6.385   4.265   5.638
 4597SOL    HW214691   6.547   4.254   5.646
 4598SOL     OW14692   2.753   3.868   0.226
 4598SOL    HW114693   2.694   3.787   0.233
 4598SOL    HW214694   2.846   3.839   0.203
 4599SOL     OW14695   3.009   5.572   0.311
 4599SOL    HW114696   3.081   5.503   0.310
 4599SOL    HW214697   2.976   5.587   0.218
 4600SOL     OW14698   3.259   4.020   1.265
 4600SOL    HW114699   3.341   3.994   1.215
 4600SOL    HW214700   3.258   4.119   1.278
 4601SOL     OW14701   1.920   5.460   4.116
 4601SOL    HW114702   1.879   5.445   4.026
 4601SOL    HW214703   1.862   5.420   4.187
 4602SOL     OW14704   1.661   0.628   1.409
 4602SOL    HW114705   1.628   0.704   1.465
 4602SOL    HW214706   1.668   0.657   1.314
 4603SOL     OW14707   3.068   1.553   1.838
 4603SOL    HW114708   3.046   1.563   1.741
 4603SOL    HW214709   3.006   1.487   1.879
 4604SOL     OW14710   1.187   0.900   2.896
 4604SOL    HW114711   1.191   0.855   2.807
 4604SOL    HW214712   1.277   0.936   2.920
 4605SOL     OW14713   5.144   5.724   5.626
 4605SOL    HW114714   5.166   5.786   5.550
 4605SOL    HW214715   5.045   5.715   5.634
 4606SOL     OW14716   6.524   6.163   4.675
 4606SOL    HW114717   6.555   6.070   4.659
 4606SOL    HW214718   6.482   6.199   4.591
 4607SOL     OW14719   2.469   2.925   0.923
 4607SOL    HW114720   2.515   2.891   0.841
 4607SOL    HW214721   2.513   3.011   0.952
 4608SOL     OW14722   1.554   3.343   5.339
 4608SOL    HW114723   1.608   3.357   5.255
 4608SOL    HW214724   1.537   3.246   5.352
 4609SOL     OW14725   3.013   0.337   0.802
 4609SOL    HW114726   2.930   0.304   0.757
 4609SOL    HW214727   3.080   0.364   0.732
 4610SOL     OW14728   6.444   3.293   6.597
 4610SOL    HW114729   6.485   3.268   6.509
 4610SOL    HW214730   6.507   3.353   6.647
 4611SOL     OW14731   1.452   4.308   6.604
 4611SOL    HW114732   1.388   4.359   6.547
 4611SOL    HW214733   1.473   4.361   6.686
 4612SOL     OW14734   2.239   0.470   6.357
 4612SOL    HW114735   2.222   0.480   6.455
 4612SOL    HW214736   2.334   0.441   6.343
 4613SOL     OW14737   3.507   4.800   1.625
 4613SOL    HW114738   3.534   4.734   1.695
 4613SOL    HW214739   3.455   4.874   1.668
 4614SOL     OW14740   2.410   5.148   6.915
 4614SOL    HW114741   2.428   5.119   7.009
 4614SOL    HW214742   2.368   5.073   6.865
 4615SOL     OW14743   6.317   3.175   6.351
 4615SOL    HW114744   6.289   3.238   6.423
 4615SOL    HW214745   6.270   3.088   6.362
 4616SOL     OW14746   5.625   0.542   0.034
 4616SOL    HW114747   5.683   0.481   7.001
 4616SOL    HW214748   5.638   0.636   0.003
 4617SOL     OW14749   6.884   3.968   1.615
 4617SOL    HW114750   6.810   3.902   1.628
 4617SOL    HW214751   6.946   3.935   1.544
 4618SOL     OW14752   0.387   2.766   6.499
 4618SOL    HW114753   0.380   2.667   6.508
 4618SOL    HW214754   0.295   2.806   6.502
 4619SOL     OW14755   3.931   0.081   3.660
 4619SOL    HW114756   3.886   0.002   3.619
 4619SOL    HW214757   3.969   0.055   3.749
 4620SOL     OW14758   2.336   5.888   6.933
 4620SOL    HW114759   2.237   5.899   6.937
 4620SOL    HW214760   2.365   5.817   6.998
 4621SOL     OW14761   6.891   0.594   6.276
 4621SOL    HW114762   6.802   0.601   6.320
 4621SOL    HW214763   6.888   0.638   6.187
 4622SOL     OW14764   1.928   3.679   0.619
 4622SOL    HW114765   2.026   3.657   0.614
 4622SOL    HW214766   1.876   3.608   0.572
 4623SOL     OW14767   5.649   4.028   2.507
 4623SOL    HW114768   5.563   4.061   2.470
 4623SOL    HW214769   5.645   3.929   2.520
 4624SOL     OW14770   4.735   0.001   6.023
 4624SOL    HW114771   4.712   7.020   6.120
 4624SOL    HW214772   4.793   0.081   6.005
 4625SOL     OW14773   0.960   3.931   5.985
 4625SOL    HW114774   0.959   3.865   5.911
 4625SOL    HW214775   1.007   3.892   6.064
 4626SOL     OW14776   5.485   5.005   1.654
 4626SOL    HW114777   5.408   5.068   1.647
 4626SOL    HW214778   5.525   4.990   1.564
 4627SOL     OW14779   1.697   6.955   5.473
 4627SOL    HW114780   1.778   6.899   5.455
 4627SOL    HW214781   1.646   6.918   5.550
 4628SOL     OW14782   6.159   2.730   1.747
 4628SOL    HW114783   6.214   2.808   1.777
 4628SOL    HW214784   6.207   2.682   1.674
 4629SOL     OW14785   4.539   5.120   4.287
 4629SOL    HW114786   4.536   5.185   4.211
 4629SOL    HW214787   4.608   5.050   4.268
 4630SOL     OW14788   1.848   6.336   2.745
 4630SOL    HW114789   1.901   6.334   2.660
 4630SOL    HW214790   1.845   6.244   2.784
 4631SOL     OW14791   1.719   0.495   2.898
 4631SOL    HW114792   1.732   0.406   2.941
 4631SOL    HW214793   1.800   0.551   2.912
 4632SOL     OW14794   5.872   5.695   3.817
 4632SOL    HW114795   5.786   5.741   3.839
 4632SOL    HW214796   5.910   5.655   3.900
 4633SOL     OW14797   5.654   2.376   5.835
 4633SOL    HW114798   5.660   2.448   5.767
 4633SOL    HW214799   5.739   2.323   5.836
 4634SOL     OW14800   2.816   4.404   0.366
 4634SOL    HW114801   2.787   4.310   0.345
 4634SOL    HW214802   2.911   4.416   0.340
 4635SOL     OW14803   5.017   3.146   1.500
 4635SOL    HW114804   5.019   3.155   1.599
 4635SOL    HW214805   5.107   3.165   1.462
 4636SOL     OW14806   0.742   5.881   1.684
 4636SOL    HW114807   0.725   5.907   1.589
 4636SOL    HW214808   0.836   5.905   1.708
 4637SOL     OW14809   1.192   0.843   4.732
 4637SOL    HW114810   1.254   0.796   4.669
 4637SOL    HW214811   1.144   0.916   4.685
 4638SOL     OW14812   4.336   4.728   5.625
 4638SOL    HW114813   4.302   4.648   5.674
 4638SOL    HW214814   4.436   4.727   5.626
 4639SOL     OW14815   0.082   1.888   5.048
 4639SOL    HW114816   0.123   1.933   5.127
 4639SOL    HW214817   0.043   1.956   4.987
 4640SOL     OW14818   6.061   5.083   2.698
 4640SOL    HW114819   6.005   5.045   2.771
 4640SOL    HW214820   6.158   5.075   2.723
 4641SOL     OW14821   2.778   3.161   5.542
 4641SOL    HW114822   2.726   3.245   5.523
 4641SOL    HW214823   2.770   3.099   5.465
 4642SOL     OW14824   6.182   5.921   3.768
 4642SOL    HW114825   6.279   5.912   3.748
 4642SOL    HW214826   6.139   5.982   3.702
 4643SOL     OW14827   4.497   3.113   1.517
 4643SOL    HW114828   4.575   3.051   1.515
 4643SOL    HW214829   4.470   3.136   1.423
 4644SOL     OW14830   3.806   4.547   5.533
 4644SOL    HW114831   3.879   4.585   5.476
 4644SOL    HW214832   3.726   4.529   5.477
 4645SOL     OW14833   1.851   6.157   5.058
 4645SOL    HW114834   1.888   6.249   5.072
 4645SOL    HW214835   1.904   6.111   4.987
 4646SOL     OW14836   3.223   0.089   1.069
 4646SOL    HW114837   3.211   0.147   1.150
 4646SOL    HW214838   3.194   7.016   1.090
 4647SOL     OW14839   6.688   0.795   5.065
 4647SOL    HW114840   6.589   0.810   5.071
 4647SOL    HW214841   6.725   0.780   5.157
 4648SOL     OW14842   1.965   5.751   3.509
 4648SOL    HW114843   2.050   5.699   3.518
 4648SOL    HW214844   1.985   5.841   3.470
 4649SOL     OW14845   5.677   6.766   5.894
 4649SOL    HW114846   5.716   6.754   5.803
 4649SOL    HW214847   5.727   6.839   5.942
 4650SOL     OW14848   6.594   4.448   1.183
 4650SOL    HW114849   6.582   4.375   1.116
 4650SOL    HW214850   6.561   4.417   1.272
 4651SOL     OW14851   6.246   2.286   1.915
 4651SOL    HW114852   6.283   2.212   1.971
 4651SOL    HW214853   6.219   2.362   1.974
 4652SOL     OW14854   0.386   6.384   5.387
 4652SOL    HW114855   0.462   6.444   5.364
 4652SOL    HW214856   0.421   6.305   5.438
 4653SOL     OW14857   0.446   4.917   6.514
 4653SOL    HW114858   0.476   4.941   6.421
 4653SOL    HW214859   0.439   4.999   6.569
 4654SOL     OW14860   1.238   1.755   6.534
 4654SOL    HW114861   1.235   1.809   6.618
 4654SOL    HW214862   1.288   1.804   6.463
 4655SOL     OW14863   0.086   5.457   3.462
 4655SOL    HW114864   0.059   5.452   3.559
 4655SOL    HW214865   0.179   5.491   3.456
 4656SOL     OW14866   2.296   6.697   3.127
 4656SOL    HW114867   2.216   6.651   3.089
 4656SOL    HW214868   2.327   6.648   3.208
 4657SOL     OW14869   5.894   0.654   6.110
 4657SOL    HW114870   5.848   0.743   6.109
 4657SOL    HW214871   5.870   0.605   6.194
 4658SOL     OW14872   4.603   0.924   3.942
 4658SOL    HW114873   4.691   0.877   3.943
 4658SOL    HW214874   4.574   0.945   4.035
 4659SOL     OW14875   1.677   2.565   4.454
 4659SOL    HW114876   1.677   2.485   4.515
 4659SOL    HW214877   1.695   2.647   4.508
 4660SOL     OW14878   6.169   1.802   5.126
 4660SOL    HW114879   6.173   1.842   5.035
 4660SOL    HW214880   6.138   1.871   5.192
 4661SOL     OW14881   3.962   3.176   2.876
 4661SOL    HW114882   3.995   3.101   2.819
 4661SOL    HW214883   4.032   3.247   2.882
 4662SOL     OW14884   6.171   0.126   3.783
 4662SOL    HW114885   6.170   0.027   3.765
 4662SOL    HW214886   6.088   0.151   3.834
 4663SOL     OW14887   0.665   2.812   1.959
 4663SOL    HW114888   0.667   2.748   1.882
 4663SOL    HW214889   0.573   2.813   1.997
 4664SOL     OW14890   3.212   4.048   0.556
 4664SOL    HW114891   3.192   3.951   0.557
 4664SOL    HW214892   3.267   4.070   0.475
 4665SOL     OW14893   5.587   0.445   6.287
 4665SOL    HW114894   5.567   0.459   6.190
 4665SOL    HW214895   5.675   0.399   6.297
 4666SOL     OW14896   1.932   1.779   0.609
 4666SOL    HW114897   1.931   1.835   0.693
 4666SOL    HW214898   1.928   1.839   0.530
 4667SOL     OW14899   0.525   5.274   4.342
 4667SOL    HW114900   0.566   5.333   4.411
 4667SOL    HW214901   0.558   5.300   4.251
 4668SOL     OW14902   5.104   0.667   5.479
 4668SOL    HW114903   5.201   0.693   5.483
 4668SOL    HW214904   5.056   0.727   5.415
 4669SOL     OW14905   2.230   1.534   2.225
 4669SOL    HW114906   2.291   1.495   2.294
 4669SOL    HW214907   2.158   1.586   2.270
 4670SOL     OW14908   2.768   1.401   4.146
 4670SOL    HW114909   2.730   1.440   4.230
 4670SOL    HW214910   2.710   1.324   4.116
 4671SOL     OW14911   6.150   1.986   2.504
 4671SOL    HW114912   6.085   2.026   2.568
 4671SOL    HW214913   6.111   1.985   2.412
 4672SOL     OW14914   2.550   2.817   5.329
 4672SOL    HW114915   2.548   2.907   5.287
 4672SOL    HW214916   2.541   2.826   5.429
 4673SOL     OW14917   4.656   0.708   2.259
 4673SOL    HW114918   4.590   0.644   2.298
 4673SOL    HW214919   4.634   0.801   2.290
 4674SOL     OW14920   4.979   6.572   5.101
 4674SOL    HW114921   5.002   6.475   5.111
 4674SOL    HW214922   5.037   6.626   5.162
 4675SOL     OW14923   0.899   4.556   0.156
 4675SOL    HW114924   0.932   4.650   0.156
 4675SOL    HW214925   0.942   4.506   0.081
 4676SOL     OW14926   0.865   4.691   3.981
 4676SOL    HW114927   0.935   4.626   3.954
 4676SOL    HW214928   0.907   4.766   4.032
 4677SOL     OW14929   1.564   3.309   0.345
 4677SOL    HW114930   1.478   3.328   0.393
 4677SOL    HW214931   1.554   3.225   0.291
 4678SOL     OW14932   0.805   4.337   1.563
 4678SOL    HW114933   0.795   4.238   1.556
 4678SOL    HW214934   0.885   4.366   1.511
 4679SOL     OW14935   4.120   0.057   2.346
 4679SOL    HW114936   4.067   0.006   2.414
 4679SOL    HW214937   4.152   7.015   2.275
 4680SOL     OW14938   1.918   0.417   6.603
 4680SOL    HW114939   1.865   0.499   6.580
 4680SOL    HW214940   1.862   0.336   6.586
 4681SOL     OW14941   5.102   5.564   2.233
 4681SOL    HW114942   5.094   5.658   2.201
 4681SOL    HW214943   5.191   5.552   2.278
 4682SOL     OW14944   3.668   3.724   6.106
 4682SOL    HW114945   3.709   3.644   6.061
 4682SOL    HW214946   3.720   3.806   6.080
 4683SOL     OW14947   6.612   4.922   3.514
 4683SOL    HW114948   6.711   4.907   3.519
 4683SOL    HW214949   6.570   4.894   3.601
 4684SOL     OW14950   5.353   6.910   6.104
 4684SOL    HW114951   5.377   6.895   6.008
 4684SOL    HW214952   5.427   6.959   6.150
 4685SOL     OW14953   2.909   3.507   4.582
 4685SOL    HW114954   2.933   3.535   4.489
 4685SOL    HW214955   2.811   3.488   4.587
 4686SOL     OW14956   1.820   0.029   6.921
 4686SOL    HW114957   1.845   0.052   7.015
 4686SOL    HW214958   1.722   0.043   6.908
 4687SOL     OW14959   1.751   0.849   2.757
 4687SOL    HW114960   1.797   0.767   2.722
 4687SOL    HW214961   1.653   0.842   2.736
 4688SOL     OW14962   4.976   2.658   5.519
 4688SOL    HW114963   4.878   2.680   5.520
 4688SOL    HW214964   5.027   2.736   5.554
 4689SOL     OW14965   6.742   1.250   0.592
 4689SOL    HW114966   6.722   1.348   0.597
 4689SOL    HW214967   6.825   1.236   0.538
 4690SOL     OW14968   2.791   2.867   0.923
 4690SOL    HW114969   2.748   2.838   0.837
 4690SOL    HW214970   2.815   2.786   0.976
 4691SOL     OW14971   6.512   3.501   1.769
 4691SOL    HW114972   6.521   3.432   1.841
 4691SOL    HW214973   6.421   3.542   1.773
 4692SOL     OW14974   4.945   2.847   2.447
 4692SOL    HW114975   4.883   2.824   2.372
 4692SOL    HW214976   5.017   2.908   2.414
 4693SOL     OW14977   0.633   0.065   2.515
 4693SOL    HW114978   0.668   0.144   2.465
 4693SOL    HW214979   0.708   0.002   2.535
 4694SOL     OW14980   2.335   0.053   6.292
 4694SOL    HW114981   2.434   0.037   6.291
 4694SOL    HW214982   2.314   0.138   6.244
 4695SOL     OW14983   2.108   4.734   2.318
 4695SOL    HW114984   2.067   4.804   2.261
 4695SOL    HW214985   2.088   4.644   2.280
 4696SOL     OW14986   1.464   6.359   6.178
 4696SOL    HW114987   1.492   6.387   6.086
 4696SOL    HW214988   1.516   6.278   6.205
 4697SOL     OW14989   4.581   5.565   1.569
 4697SOL    HW114990   4.618   5.523   1.652
 4697SOL    HW214991   4.651   5.623   1.527
 4698SOL     OW14992   5.739   1.006   4.756
 4698SOL    HW114993   5.678   0.958   4.693
 4698SOL    HW214994   5.688   1.076   4.806
 4699SOL     OW14995   0.805   0.713   2.408
 4699SOL    HW114996   0.745   0.782   2.368
 4699SOL    HW214997   0.881   0.694   2.345
 4700SOL     OW14998   6.312   1.523   2.939
 4700SOL    HW114999   6.295   1.553   2.845
 4700SOL    HW215000   6.253   1.444   2.960
 4701SOL     OW15001   3.145   2.537   1.703
 4701SOL    HW115002   3.084   2.506   1.777
 4701SOL    HW215003   3.174   2.631   1.721
 4702SOL     OW15004   6.089   5.267   0.404
 4702SOL    HW115005   6.161   5.300   0.343
 4702SOL    HW215006   6.095   5.168   0.413
 4703SOL     OW15007   0.771   5.240   4.068
 4703SOL    HW115008   0.750   5.338   4.061
 4703SOL    HW215009   0.688   5.187   4.048
 4704SOL     OW15010   1.882   4.696   4.387
 4704SOL    HW115011   1.950   4.750   4.336
 4704SOL    HW215012   1.891   4.715   4.485
 4705SOL     OW15013   3.462   2.131   1.847
 4705SOL    HW115014   3.528   2.134   1.922
 4705SOL    HW215015   3.471   2.213   1.790
 4706SOL     OW15016   2.342   0.871   0.810
 4706SOL    HW115017   2.427   0.899   0.856
 4706SOL    HW215018   2.264   0.897   0.867
 4707SOL     OW15019   1.542   5.336   1.961
 4707SOL    HW115020   1.558   5.247   1.918
 4707SOL    HW215021   1.450   5.367   1.938
 4708SOL     OW15022   2.026   3.267   5.847
 4708SOL    HW115023   2.087   3.222   5.782
 4708SOL    HW215024   2.080   3.307   5.921
 4709SOL     OW15025   6.012   4.110   5.706
 4709SOL    HW115026   6.037   4.134   5.613
 4709SOL    HW215027   5.950   4.179   5.744
 4710SOL     OW15028   6.316   5.742   4.989
 4710SOL    HW115029   6.360   5.831   5.003
 4710SOL    HW215030   6.257   5.722   5.067
 4711SOL     OW15031   4.994   4.205   2.444
 4711SOL    HW115032   4.978   4.165   2.354
 4711SOL    HW215033   5.093   4.220   2.456
 4712SOL     OW15034   3.828   4.208   5.957
 4712SOL    HW115035   3.787   4.238   5.871
 4712SOL    HW215036   3.910   4.261   5.975
 4713SOL     OW15037   5.589   4.171   0.618
 4713SOL    HW115038   5.551   4.251   0.664
 4713SOL    HW215039   5.553   4.088   0.660
 4714SOL     OW15040   4.254   2.219   6.725
 4714SOL    HW115041   4.251   2.120   6.713
 4714SOL    HW215042   4.226   2.243   6.818
 4715SOL     OW15043   6.496   1.301   2.028
 4715SOL    HW115044   6.505   1.205   2.000
 4715SOL    HW215045   6.512   1.307   2.127
 4716SOL     OW15046   3.569   4.462   5.703
 4716SOL    HW115047   3.614   4.381   5.666
 4716SOL    HW215048   3.623   4.543   5.682
 4717SOL     OW15049   2.025   4.814   5.456
 4717SOL    HW115050   1.932   4.778   5.466
 4717SOL    HW215051   2.072   4.808   5.543
 4718SOL     OW15052   4.852   4.115   1.673
 4718SOL    HW115053   4.852   4.181   1.748
 4718SOL    HW215054   4.862   4.023   1.710
 4719SOL     OW15055   6.371   4.666   3.731
 4719SOL    HW115056   6.342   4.595   3.666
 4719SOL    HW215057   6.463   4.645   3.763
 4720SOL     OW15058   2.270   2.679   6.517
 4720SOL    HW115059   2.364   2.659   6.545
 4720SOL    HW215060   2.266   2.772   6.479
 4721SOL     OW15061   0.578   2.899   3.114
 4721SOL    HW115062   0.653   2.940   3.062
 4721SOL    HW215063   0.552   2.960   3.189
 4722SOL     OW15064   1.061   5.295   6.755
 4722SOL    HW115065   0.975   5.289   6.806
 4722SOL    HW215066   1.041   5.314   6.659
 4723SOL     OW15067   3.036   4.920   6.897
 4723SOL    HW115068   2.952   4.971   6.914
 4723SOL    HW215069   3.015   4.836   6.847
 4724SOL     OW15070   0.743   0.062   4.105
 4724SOL    HW115071   0.723   0.113   4.021
 4724SOL    HW215072   0.661   0.014   4.135
 4725SOL     OW15073   6.173   4.814   1.321
 4725SOL    HW115074   6.247   4.882   1.326
 4725SOL    HW215075   6.211   4.722   1.332
 4726SOL     OW15076   2.119   3.058   5.631
 4726SOL    HW115077   2.029   3.046   5.588
 4726SOL    HW215078   2.190   3.024   5.569
 4727SOL     OW15079   6.426   4.898   1.303
 4727SOL    HW115080   6.432   4.930   1.208
 4727SOL    HW215081   6.424   4.798   1.305
 4728SOL     OW15082   5.388   1.443   3.712
 4728SOL    HW115083   5.408   1.532   3.671
 4728SOL    HW215084   5.417   1.371   3.649
 4729SOL     OW15085   5.673   1.169   1.991
 4729SOL    HW115086   5.664   1.072   2.017
 4729SOL    HW215087   5.712   1.220   2.068
 4730SOL     OW15088   4.055   0.623   3.161
 4730SOL    HW115089   4.112   0.660   3.235
 4730SOL    HW215090   4.049   0.523   3.171
 4731SOL     OW15091   3.166   6.999   1.456
 4731SOL    HW115092   3.195   6.909   1.422
 4731SOL    HW215093   3.090   0.012   1.401
 4732SOL     OW15094   0.009   5.018   5.098
 4732SOL    HW115095   6.944   5.005   5.147
 4732SOL    HW215096   7.011   5.029   5.000
 4733SOL     OW15097   1.507   4.220   2.298
 4733SOL    HW115098   1.490   4.189   2.392
 4733SOL    HW215099   1.506   4.141   2.237
 4734SOL     OW15100   4.792   4.142   6.914
 4734SOL    HW115101   4.817   4.195   6.833
 4734SOL    HW215102   4.802   4.045   6.894
 4735SOL     OW15103   0.195   0.468   4.715
 4735SOL    HW115104   0.166   0.551   4.666
 4735SOL    HW215105   0.120   0.436   4.773
 4736SOL     OW15106   6.265   1.039   4.036
 4736SOL    HW115107   6.236   1.110   3.971
 4736SOL    HW215108   6.360   1.055   4.063
 4737SOL     OW15109   2.047   4.990   0.505
 4737SOL    HW115110   2.091   5.074   0.536
 4737SOL    HW215111   2.068   4.916   0.570
 4738SOL     OW15112   0.555   5.699   4.219
 4738SOL    HW115113   0.620   5.762   4.175
 4738SOL    HW215114   0.528   5.736   4.308
 4739SOL     OW15115   6.110   3.577   3.033
 4739SOL    HW115116   6.035   3.511   3.032
 4739SOL    HW215117   6.128   3.608   2.940
 4740SOL     OW15118   1.516   6.682   0.588
 4740SOL    HW115119   1.537   6.687   0.686
 4740SOL    HW215120   1.471   6.595   0.568
 4741SOL     OW15121   5.677   4.608   0.890
 4741SOL    HW115122   5.602   4.574   0.946
 4741SOL    HW215123   5.652   4.601   0.793
 4742SOL     OW15124   2.417   5.602   2.582
 4742SOL    HW115125   2.474   5.643   2.653
 4742SOL    HW215126   2.407   5.504   2.599
 4743SOL     OW15127   2.315   3.810   0.723
 4743SOL    HW115128   2.380   3.884   0.704
 4743SOL    HW215129   2.356   3.746   0.788
 4744SOL     OW15130   2.616   2.133   5.242
 4744SOL    HW115131   2.535   2.180   5.207
 4744SOL    HW215132   2.634   2.052   5.187
 4745SOL     OW15133   4.117   5.562   4.793
 4745SOL    HW115134   4.194   5.521   4.744
 4745SOL    HW215135   4.109   5.658   4.768
 4746SOL     OW15136   5.523   1.084   1.651
 4746SOL    HW115137   5.519   1.173   1.697
 4746SOL    HW215138   5.617   1.063   1.626
 4747SOL     OW15139   0.615   2.935   2.451
 4747SOL    HW115140   0.643   2.999   2.380
 4747SOL    HW215141   0.574   2.854   2.410
 4748SOL     OW15142   2.145   0.022   0.815
 4748SOL    HW115143   2.165   0.112   0.777
 4748SOL    HW215144   2.146   6.974   0.743
 4749SOL     OW15145   3.527   0.466   0.597
 4749SOL    HW115146   3.507   0.530   0.672
 4749SOL    HW215147   3.464   0.388   0.604
 4750SOL     OW15148   0.859   1.693   4.531
 4750SOL    HW115149   0.786   1.757   4.557
 4750SOL    HW215150   0.916   1.735   4.461
 4751SOL     OW15151   1.051   3.634   6.061
 4751SOL    HW115152   1.130   3.640   6.001
 4751SOL    HW215153   1.056   3.550   6.115
 4752SOL     OW15154   2.504   6.168   1.451
 4752SOL    HW115155   2.459   6.165   1.541
 4752SOL    HW215156   2.563   6.087   1.441
 4753SOL     OW15157   0.449   0.189   6.280
 4753SOL    HW115158   0.350   0.176   6.278
 4753SOL    HW215159   0.494   0.105   6.249
 4754SOL     OW15160   0.755   0.881   6.030
 4754SOL    HW115161   0.693   0.900   5.954
 4754SOL    HW215162   0.850   0.884   5.997
 4755SOL     OW15163   2.700   7.010   2.213
 4755SOL    HW115164   2.714   6.916   2.244
 4755SOL    HW215165   2.609   0.021   2.241
 4756SOL     OW15166   5.533   2.095   1.581
 4756SOL    HW115167   5.476   2.045   1.647
 4756SOL    HW215168   5.628   2.093   1.611
 4757SOL     OW15169   2.579   2.001   0.906
 4757SOL    HW115170   2.531   1.917   0.880
 4757SOL    HW215171   2.623   1.988   0.994
 4758SOL     OW15172   5.928   3.503   5.866
 4758SOL    HW115173   5.933   3.593   5.909
 4758SOL    HW215174   5.969   3.435   5.927
 4759SOL     OW15175   6.078   4.154   6.420
 4759SOL    HW115176   6.147   4.132   6.350
 4759SOL    HW215177   6.001   4.091   6.411
 4760SOL     OW15178   2.213   2.772   0.304
 4760SOL    HW115179   2.172   2.682   0.314
 4760SOL    HW215180   2.286   2.783   0.371
 4761SOL     OW15181   1.687   5.774   6.250
 4761SOL    HW115182   1.630   5.810   6.176
 4761SOL    HW215183   1.772   5.826   6.255
 4762SOL     OW15184   3.592   6.834   2.366
 4762SOL    HW115185   3.528   6.902   2.401
 4762SOL    HW215186   3.586   6.831   2.266
 4763SOL     OW15187   5.772   5.581   5.281
 4763SOL    HW115188   5.738   5.663   5.327
 4763SOL    HW215189   5.794   5.603   5.187
 4764SOL     OW15190   3.964   3.429   4.182
 4764SOL    HW115191   4.010   3.517   4.167
 4764SOL    HW215192   3.901   3.411   4.108
 4765SOL     OW15193   6.298   5.191   6.188
 4765SOL    HW115194   6.209   5.226   6.219
 4765SOL    HW215195   6.355   5.169   6.268
 4766SOL     OW15196   3.438   0.640   3.104
 4766SOL    HW115197   3.393   0.698   3.036
 4766SOL    HW215198   3.472   0.697   3.179
 4767SOL     OW15199   4.090   0.042   7.016
 4767SOL    HW115200   4.104   0.123   0.052
 4767SOL    HW215201   4.095   0.067   6.919
 4768SOL     OW15202   1.559   0.945   5.296
 4768SOL    HW115203   1.627   0.922   5.227
 4768SOL    HW215204   1.602   0.947   5.386
 4769SOL     OW15205   4.452   0.939   1.960
 4769SOL    HW115206   4.464   0.842   1.985
 4769SOL    HW215207   4.405   0.987   2.034
 4770SOL     OW15208   2.117   0.649   3.972
 4770SOL    HW115209   2.117   0.709   3.892
 4770SOL    HW215210   2.079   0.699   4.051
 4771SOL     OW15211   4.123   4.051   5.305
 4771SOL    HW115212   4.164   4.123   5.361
 4771SOL    HW215213   4.184   3.971   5.305
 4772SOL     OW15214   2.397   2.737   0.078
 4772SOL    HW115215   2.336   2.746   0.156
 4772SOL    HW215216   2.345   2.707   7.018
 4773SOL     OW15217   0.175   5.164   4.633
 4773SOL    HW115218   0.100   5.117   4.587
 4773SOL    HW215219   0.139   5.220   4.707
 4774SOL     OW15220   1.444   3.992   6.834
 4774SOL    HW115221   1.424   3.894   6.831
 4774SOL    HW215222   1.432   4.031   6.742
 4775SOL     OW15223   1.996   2.224   2.201
 4775SOL    HW115224   2.018   2.241   2.297
 4775SOL    HW215225   2.070   2.261   2.143
 4776SOL     OW15226   4.301   4.669   2.358
 4776SOL    HW115227   4.207   4.645   2.332
 4776SOL    HW215228   4.356   4.679   2.275
 4777SOL     OW15229   2.525   3.799   1.642
 4777SOL    HW115230   2.622   3.819   1.650
 4777SOL    HW215231   2.490   3.839   1.557
 4778SOL     OW15232   4.885   3.370   2.971
 4778SOL    HW115233   4.912   3.407   2.881
 4778SOL    HW215234   4.909   3.435   3.042
 4779SOL     OW15235   4.676   1.364   2.832
 4779SOL    HW115236   4.724   1.395   2.914
 4779SOL    HW215237   4.587   1.409   2.826
 4780SOL     OW15238   1.932   1.026   5.600
 4780SOL    HW115239   1.986   1.104   5.567
 4780SOL    HW215240   1.846   1.022   5.549
 4781SOL     OW15241   2.010   5.466   2.763
 4781SOL    HW115242   2.062   5.551   2.771
 4781SOL    HW215243   2.003   5.423   2.853
 4782SOL     OW15244   6.124   5.841   0.174
 4782SOL    HW115245   6.070   5.921   0.199
 4782SOL    HW215246   6.170   5.857   0.087
 4783SOL     OW15247   6.261   4.220   2.757
 4783SOL    HW115248   6.353   4.255   2.743
 4783SOL    HW215249   6.262   4.120   2.748
 4784SOL     OW15250   5.206   4.665   5.422
 4784SOL    HW115251   5.282   4.662   5.487
 4784SOL    HW215252   5.237   4.630   5.334
 4785SOL     OW15253   5.763   6.644   0.571
 4785SOL    HW115254   5.862   6.628   0.567
 4785SOL    HW215255   5.721   6.619   0.484
 4786SOL     OW15256   1.142   3.388   2.341
 4786SOL    HW115257   1.067   3.453   2.348
 4786SOL    HW215258   1.215   3.427   2.285
 4787SOL     OW15259   4.532   2.089   3.303
 4787SOL    HW115260   4.570   2.055   3.217
 4787SOL    HW215261   4.508   2.185   3.294
 4788SOL     OW15262   2.455   0.008   5.090
 4788SOL    HW115263   2.363   0.040   5.066
 4788SOL    HW215264   2.510   7.018   5.008
 4789SOL     OW15265   5.209   6.091   0.468
 4789SOL    HW115266   5.259   6.024   0.522
 4789SOL    HW215267   5.270   6.128   0.397
 4790SOL     OW15268   5.241   6.826   6.648
 4790SOL    HW115269   5.168   6.765   6.619
 4790SOL    HW215270   5.304   6.776   6.707
 4791SOL     OW15271   4.895   1.894   3.825
 4791SOL    HW115272   4.896   1.825   3.752
 4791SOL    HW215273   4.953   1.863   3.900
 4792SOL     OW15274   2.864   2.634   1.034
 4792SOL    HW115275   2.947   2.630   1.089
 4792SOL    HW215276   2.785   2.611   1.091
 4793SOL     OW15277   0.797   0.115   6.824
 4793SOL    HW115278   0.791   0.177   6.902
 4793SOL    HW215279   0.835   0.164   6.745
 4794SOL     OW15280   4.899   1.227   1.873
 4794SOL    HW115281   4.836   1.162   1.830
 4794SOL    HW215282   4.992   1.192   1.865
 4795SOL     OW15283   6.249   3.173   4.248
 4795SOL    HW115284   6.300   3.252   4.214
 4795SOL    HW215285   6.311   3.113   4.298
 4796SOL     OW15286   5.725   3.671   0.817
 4796SOL    HW115287   5.760   3.739   0.882
 4796SOL    HW215288   5.701   3.716   0.731
 4797SOL     OW15289   1.000   5.254   4.540
 4797SOL    HW115290   1.025   5.163   4.506
 4797SOL    HW215291   0.909   5.250   4.581
 4798SOL     OW15292   6.686   5.030   5.906
 4798SOL    HW115293   6.714   5.118   5.944
 4798SOL    HW215294   6.659   4.969   5.981
 4799SOL     OW15295   4.554   1.284   4.771
 4799SOL    HW115296   4.535   1.186   4.779
 4799SOL    HW215297   4.482   1.329   4.718
 4800SOL     OW15298   1.917   3.097   3.891
 4800SOL    HW115299   1.860   3.015   3.887
 4800SOL    HW215300   2.008   3.076   3.855
 4801SOL     OW15301   0.177   2.608   0.703
 4801SOL    HW115302   0.153   2.689   0.756
 4801SOL    HW215303   0.261   2.626   0.651
 4802SOL     OW15304   1.974   0.121   2.181
 4802SOL    HW115305   1.892   0.175   2.161
 4802SOL    HW215306   1.990   0.056   2.106
 4803SOL     OW15307   1.541   0.612   0.912
 4803SOL    HW115308   1.471   0.658   0.967
 4803SOL    HW215309   1.530   0.638   0.816
 4804SOL     OW15310   4.496   5.992   6.927
 4804SOL    HW115311   4.455   5.905   6.954
 4804SOL    HW215312   4.580   6.007   6.980
 4805SOL     OW15313   0.107   0.513   1.349
 4805SOL    HW115314   0.084   0.418   1.372
 4805SOL    HW215315   0.202   0.517   1.319
 4806SOL     OW15316   0.217   2.342   3.844
 4806SOL    HW115317   0.137   2.362   3.787
 4806SOL    HW215318   0.299   2.345   3.787
 4807SOL     OW15319   0.956   6.771   2.327
 4807SOL    HW115320   0.962   6.682   2.372
 4807SOL    HW215321   0.877   6.772   2.266
 4808SOL     OW15322   5.511   2.772   0.328
 4808SOL    HW115323   5.434   2.798   0.270
 4808SOL    HW215324   5.477   2.722   0.408
 4809SOL     OW15325   4.845   6.572   0.539
 4809SOL    HW115326   4.815   6.635   0.467
 4809SOL    HW215327   4.909   6.506   0.501
 4810SOL     OW15328   1.968   6.577   1.173
 4810SOL    HW115329   1.934   6.534   1.257
 4810SOL    HW215330   2.021   6.658   1.197
 4811SOL     OW15331   5.289   3.954   3.690
 4811SOL    HW115332   5.256   4.037   3.645
 4811SOL    HW215333   5.292   3.879   3.624
 4812SOL     OW15334   6.140   4.958   4.222
 4812SOL    HW115335   6.196   5.001   4.150
 4812SOL    HW215336   6.200   4.920   4.292
 4813SOL     OW15337   5.784   3.128   3.110
 4813SOL    HW115338   5.702   3.108   3.057
 4813SOL    HW215339   5.843   3.047   3.112
 4814SOL     OW15340   6.391   2.987   0.798
 4814SOL    HW115341   6.385   2.893   0.766
 4814SOL    HW215342   6.487   3.011   0.814
 4815SOL     OW15343   4.821   0.994   3.203
 4815SOL    HW115344   4.914   1.024   3.227
 4815SOL    HW215345   4.755   1.062   3.236
 4816SOL     OW15346   5.101   5.248   3.498
 4816SOL    HW115347   5.021   5.189   3.504
 4816SOL    HW215348   5.184   5.191   3.501
 4817SOL     OW15349   6.195   1.469   0.005
 4817SOL    HW115350   6.238   1.381   7.008
 4817SOL    HW215351   6.103   1.454   0.042
 4818SOL     OW15352   0.356   5.769   3.637
 4818SOL    HW115353   0.410   5.785   3.719
 4818SOL    HW215354   0.331   5.857   3.597
 4819SOL     OW15355   2.274   3.376   0.574
 4819SOL    HW115356   2.225   3.292   0.595
 4819SOL    HW215357   2.370   3.367   0.601
 4820SOL     OW15358   0.015   3.246   2.478
 4820SOL    HW115359   0.042   3.309   2.405
 4820SOL    HW215360   0.001   3.155   2.441
 4821SOL     OW15361   0.487   5.954   3.916
 4821SOL    HW115362   0.401   5.910   3.944
 4821SOL    HW215363   0.563   5.913   3.965
 4822SOL     OW15364   2.653   4.921   4.282
 4822SOL    HW115365   2.692   4.834   4.313
 4822SOL    HW215366   2.600   4.962   4.357
 4823SOL     OW15367   1.621   2.884   0.648
 4823SOL    HW115368   1.614   2.982   0.665
 4823SOL    HW215369   1.679   2.868   0.568
 4824SOL     OW15370   6.307   1.720   0.532
 4824SOL    HW115371   6.326   1.740   0.628
 4824SOL    HW215372   6.383   1.668   0.493
 4825SOL     OW15373   1.204   6.492   3.963
 4825SOL    HW115374   1.210   6.402   3.921
 4825SOL    HW215375   1.223   6.562   3.894
 4826SOL     OW15376   4.353   6.323   1.047
 4826SOL    HW115377   4.351   6.337   0.948
 4826SOL    HW215378   4.342   6.226   1.068
 4827SOL     OW15379   6.206   1.137   1.045
 4827SOL    HW115380   6.204   1.178   1.136
 4827SOL    HW215381   6.291   1.087   1.032
 4828SOL     OW15382   5.132   0.904   5.975
 4828SOL    HW115383   5.231   0.921   5.978
 4828SOL    HW215384   5.095   0.905   6.068
 4829SOL     OW15385   4.192   6.227   5.395
 4829SOL    HW115386   4.282   6.259   5.425
 4829SOL    HW215387   4.167   6.145   5.445
 4830SOL     OW15388   1.834   6.674   3.849
 4830SOL    HW115389   1.769   6.748   3.831
 4830SOL    HW215390   1.791   6.586   3.829
 4831SOL     OW15391   3.945   4.541   5.985
 4831SOL    HW115392   3.984   4.622   6.029
 4831SOL    HW215393   3.845   4.549   5.986
 4832SOL     OW15394   4.056   3.723   4.904
 4832SOL    HW115395   4.128   3.658   4.927
 4832SOL    HW215396   3.979   3.674   4.864
 4833SOL     OW15397   6.247   2.631   5.475
 4833SOL    HW115398   6.152   2.646   5.504
 4833SOL    HW215399   6.304   2.707   5.506
 4834SOL     OW15400   0.288   5.694   1.442
 4834SOL    HW115401   0.273   5.595   1.429
 4834SOL    HW215402   0.304   5.713   1.539
 4835SOL     OW15403   6.953   3.463   6.012
 4835SOL    HW115404   6.922   3.450   6.106
 4835SOL    HW215405   0.032   3.461   6.009
 4836SOL     OW15406   4.502   1.793   5.863
 4836SOL    HW115407   4.470   1.715   5.810
 4836SOL    HW215408   4.529   1.867   5.802
 4837SOL     OW15409   1.164   3.597   4.564
 4837SOL    HW115410   1.090   3.562   4.507
 4837SOL    HW215411   1.182   3.534   4.639
 4838SOL     OW15412   1.564   3.922   6.144
 4838SOL    HW115413   1.586   4.018   6.130
 4838SOL    HW215414   1.571   3.873   6.057
 4839SOL     OW15415   2.854   1.346   1.945
 4839SOL    HW115416   2.782   1.350   1.875
 4839SOL    HW215417   2.824   1.397   2.026
 4840SOL     OW15418   5.216   3.049   4.922
 4840SOL    HW115419   5.130   3.001   4.907
 4840SOL    HW215420   5.282   2.986   4.962
 4841SOL     OW15421   2.888   5.984   3.255
 4841SOL    HW115422   2.917   6.050   3.324
 4841SOL    HW215423   2.902   6.022   3.164
 4842SOL     OW15424   4.170   5.848   3.733
 4842SOL    HW115425   4.236   5.790   3.782
 4842SOL    HW215426   4.078   5.815   3.749
 4843SOL     OW15427   6.276   1.203   1.296
 4843SOL    HW115428   6.370   1.170   1.294
 4843SOL    HW215429   6.262   1.260   1.377
 4844SOL     OW15430   1.675   4.701   6.872
 4844SOL    HW115431   1.693   4.774   6.937
 4844SOL    HW215432   1.641   4.740   6.786
 4845SOL     OW15433   4.942   3.901   4.961
 4845SOL    HW115434   4.958   3.910   4.863
 4845SOL    HW215435   4.881   3.824   4.979
 4846SOL     OW15436   6.777   3.844   4.955
 4846SOL    HW115437   6.835   3.883   4.883
 4846SOL    HW215438   6.747   3.918   5.016
 4847SOL     OW15439   3.338   6.831   0.539
 4847SOL    HW115440   3.344   6.862   0.634
 4847SOL    HW215441   3.428   6.837   0.496
 4848SOL     OW15442   4.863   1.771   4.167
 4848SOL    HW115443   4.909   1.856   4.195
 4848SOL    HW215444   4.930   1.698   4.156
 4849SOL     OW15445   1.722   6.045   2.204
 4849SOL    HW115446   1.784   6.048   2.283
 4849SOL    HW215447   1.657   6.121   2.211
 4850SOL     OW15448   3.204   6.360   2.023
 4850SOL    HW115449   3.198   6.329   1.929
 4850SOL    HW215450   3.248   6.450   2.026
 4851SOL     OW15451   4.259   4.844   6.838
 4851SOL    HW115452   4.349   4.880   6.863
 4851SOL    HW215453   4.271   4.757   6.789
 4852SOL     OW15454   4.985   4.386   5.785
 4852SOL    HW115455   4.984   4.479   5.747
 4852SOL    HW215456   4.964   4.389   5.882
 4853SOL     OW15457   4.146   0.414   2.845
 4853SOL    HW115458   4.229   0.456   2.810
 4853SOL    HW215459   4.075   0.416   2.775
 4854SOL     OW15460   4.388   6.801   2.431
 4854SOL    HW115461   4.444   6.724   2.399
 4854SOL    HW215462   4.300   6.800   2.384
 4855SOL     OW15463   4.620   4.750   5.636
 4855SOL    HW115464   4.634   4.839   5.591
 4855SOL    HW215465   4.696   4.689   5.613
 4856SOL     OW15466   0.634   2.374   2.688
 4856SOL    HW115467   0.685   2.458   2.709
 4856SOL    HW215468   0.684   2.295   2.722
 4857SOL     OW15469   1.549   2.039   5.627
 4857SOL    HW115470   1.497   2.015   5.545
 4857SOL    HW215471   1.490   2.033   5.708
 4858SOL     OW15472   1.592   5.616   4.740
 4858SOL    HW115473   1.673   5.608   4.682
 4858SOL    HW215474   1.557   5.525   4.762
 4859SOL     OW15475   6.770   5.329   3.466
 4859SOL    HW115476   6.845   5.318   3.400
 4859SOL    HW215477   6.684   5.305   3.421
 4860SOL     OW15478   4.198   5.427   1.279
 4860SOL    HW115479   4.228   5.349   1.225
 4860SOL    HW215480   4.145   5.395   1.358
 4861SOL     OW15481   6.453   4.844   5.469
 4861SOL    HW115482   6.354   4.848   5.481
 4861SOL    HW215483   6.498   4.864   5.557
 4862SOL     OW15484   1.965   5.753   4.468
 4862SOL    HW115485   2.018   5.827   4.508
 4862SOL    HW215486   2.004   5.728   4.380
 4863SOL     OW15487   5.455   1.371   2.156
 4863SOL    HW115488   5.553   1.378   2.140
 4863SOL    HW215489   5.406   1.396   2.072
 4864SOL     OW15490   2.008   3.119   1.474
 4864SOL    HW115491   2.090   3.137   1.528
 4864SOL    HW215492   2.017   3.162   1.384
 4865SOL     OW15493   3.748   6.664   5.144
 4865SOL    HW115494   3.753   6.736   5.075
 4865SOL    HW215495   3.822   6.675   5.210
 4866SOL     OW15496   0.069   5.407   1.647
 4866SOL    HW115497   0.068   5.380   1.743
 4866SOL    HW215498   0.000   5.477   1.631
 4867SOL     OW15499   5.849   5.100   5.101
 4867SOL    HW115500   5.945   5.078   5.087
 4867SOL    HW215501   5.798   5.017   5.126
 4868SOL     OW15502   1.702   5.972   1.935
 4868SOL    HW115503   1.659   5.989   2.024
 4868SOL    HW215504   1.785   5.917   1.948
 4869SOL     OW15505   6.785   1.407   2.136
 4869SOL    HW115506   6.759   1.377   2.044
 4869SOL    HW215507   6.737   1.351   2.204
 4870SOL     OW15508   6.562   0.595   0.955
 4870SOL    HW115509   6.602   0.539   0.883
 4870SOL    HW215510   6.463   0.599   0.944
 4871SOL     OW15511   1.824   3.463   4.373
 4871SOL    HW115512   1.892   3.535   4.386
 4871SOL    HW215513   1.863   3.390   4.317
 4872SOL     OW15514   1.486   2.016   2.861
 4872SOL    HW115515   1.524   1.945   2.920
 4872SOL    HW215516   1.404   1.981   2.816
 4873SOL     OW15517   0.977   6.799   5.017
 4873SOL    HW115518   1.059   6.840   5.057
 4873SOL    HW215519   1.004   6.724   4.956
 4874SOL     OW15520   6.365   2.457   3.875
 4874SOL    HW115521   6.410   2.423   3.958
 4874SOL    HW215522   6.392   2.401   3.797
 4875SOL     OW15523   0.123   2.799   6.949
 4875SOL    HW115524   0.206   2.752   6.919
 4875SOL    HW215525   0.085   2.853   6.874
 4876SOL     OW15526   6.560   1.364   6.808
 4876SOL    HW115527   6.557   1.326   6.900
 4876SOL    HW215528   6.648   1.345   6.766
 4877SOL     OW15529   4.782   2.123   1.471
 4877SOL    HW115530   4.713   2.069   1.521
 4877SOL    HW215531   4.812   2.200   1.528
 4878SOL     OW15532   1.194   3.052   1.766
 4878SOL    HW115533   1.203   2.954   1.750
 4878SOL    HW215534   1.285   3.094   1.767
 4879SOL     OW15535   3.985   5.927   4.231
 4879SOL    HW115536   4.048   5.996   4.265
 4879SOL    HW215537   3.990   5.846   4.290
 4880SOL     OW15538   6.126   1.536   5.490
 4880SOL    HW115539   6.171   1.446   5.484
 4880SOL    HW215540   6.053   1.532   5.558
 4881SOL     OW15541   2.469   5.637   5.989
 4881SOL    HW115542   2.472   5.542   5.955
 4881SOL    HW215543   2.374   5.662   6.007
 4882SOL     OW15544   5.519   5.985   6.648
 4882SOL    HW115545   5.495   6.071   6.603
 4882SOL    HW215546   5.446   5.960   6.712
 4883SOL     OW15547   5.930   5.570   6.846
 4883SOL    HW115548   5.842   5.553   6.891
 4883SOL    HW215549   5.915   5.582   6.748
 4884SOL     OW15550   3.762   6.588   2.009
 4884SOL    HW115551   3.700   6.514   1.986
 4884SOL    HW215552   3.835   6.593   1.941
 4885SOL     OW15553   1.439   0.537   2.198
 4885SOL    HW115554   1.476   0.444   2.187
 4885SOL    HW215555   1.351   0.533   2.244
 4886SOL     OW15556   5.993   0.710   5.566
 4886SOL    HW115557   5.911   0.766   5.559
 4886SOL    HW215558   5.980   0.625   5.513
 4887SOL     OW15559   0.797   1.666   5.278
 4887SOL    HW115560   0.767   1.745   5.224
 4887SOL    HW215561   0.726   1.595   5.274
 4888SOL     OW15562   4.000   6.181   1.672
 4888SOL    HW115563   4.065   6.257   1.675
 4888SOL    HW215564   3.997   6.144   1.579
 4889SOL     OW15565   1.499   3.252   6.640
 4889SOL    HW115566   1.414   3.226   6.595
 4889SOL    HW215567   1.577   3.223   6.584
 4890SOL     OW15568   0.283   0.323   4.401
 4890SOL    HW115569   0.297   0.351   4.496
 4890SOL    HW215570   0.251   0.402   4.348
 4891SOL     OW15571   1.202   4.321   0.434
 4891SOL    HW115572   1.228   4.341   0.528
 4891SOL    HW215573   1.108   4.351   0.418
 4892SOL     OW15574   1.838   5.672   2.383
 4892SOL    HW115575   1.910   5.637   2.324
 4892SOL    HW215576   1.770   5.720   2.328
 4893SOL     OW15577   0.326   3.570   6.294
 4893SOL    HW115578   0.289   3.477   6.293
 4893SOL    HW215579   0.267   3.628   6.350
 4894SOL     OW15580   1.004   6.727   3.648
 4894SOL    HW115581   0.964   6.803   3.597
 4894SOL    HW215582   1.007   6.645   3.591
 4895SOL     OW15583   6.548   3.631   6.901
 4895SOL    HW115584   6.520   3.725   6.920
 4895SOL    HW215585   6.590   3.627   6.810
 4896SOL     OW15586   4.078   6.687   4.394
 4896SOL    HW115587   4.066   6.656   4.300
 4896SOL    HW215588   3.989   6.712   4.432
 4897SOL     OW15589   2.713   6.054   6.409
 4897SOL    HW115590   2.642   5.994   6.373
 4897SOL    HW215591   2.799   6.004   6.416
 4898SOL     OW15592   5.681   2.580   4.792
 4898SOL    HW115593   5.733   2.538   4.718
 4898SOL    HW215594   5.645   2.668   4.762
 4899SOL     OW15595   5.781   4.371   4.287
 4899SOL    HW115596   5.866   4.318   4.288
 4899SOL    HW215597   5.803   4.468   4.277
 4900SOL     OW15598   1.006   6.864   4.714
 4900SOL    HW115599   1.087   6.921   4.727
 4900SOL    HW215600   0.953   6.861   4.799
 4901SOL     OW15601   6.609   6.538   3.257
 4901SOL    HW115602   6.558   6.619   3.287
 4901SOL    HW215603   6.547   6.476   3.209
 4902SOL     OW15604   3.538   5.094   0.918
 4902SOL    HW115605   3.599   5.035   0.866
 4902SOL    HW215606   3.573   5.188   0.916
 4903SOL     OW15607   6.216   5.079   5.702
 4903SOL    HW115608   6.316   5.067   5.702
 4903SOL    HW215609   6.183   5.088   5.796
 4904SOL     OW15610   2.775   0.720   3.254
 4904SOL    HW115611   2.715   0.732   3.175
 4904SOL    HW215612   2.737   0.650   3.314
 4905SOL     OW15613   6.697   3.667   3.026
 4905SOL    HW115614   6.790   3.649   2.996
 4905SOL    HW215615   6.698   3.731   3.103
 4906SOL     OW15616   5.288   0.536   1.433
 4906SOL    HW115617   5.320   0.522   1.526
 4906SOL    HW215618   5.321   0.461   1.375
 4907SOL     OW15619   2.513   1.972   1.394
 4907SOL    HW115620   2.471   2.062   1.391
 4907SOL    HW215621   2.463   1.910   1.333
 4908SOL     OW15622   4.629   5.733   0.030
 4908SOL    HW115623   4.641   5.804   0.099
 4908SOL    HW215624   4.717   5.711   7.009
 4909SOL     OW15625   6.342   6.697   5.746
 4909SOL    HW115626   6.408   6.646   5.802
 4909SOL    HW215627   6.349   6.794   5.767
 4910SOL     OW15628   5.195   6.380   5.856
 4910SOL    HW115629   5.197   6.309   5.927
 4910SOL    HW215630   5.181   6.469   5.899
 4911SOL     OW15631   0.608   3.812   6.818
 4911SOL    HW115632   0.538   3.818   6.747
 4911SOL    HW215633   0.581   3.868   6.896
 4912SOL     OW15634   2.315   2.568   1.560
 4912SOL    HW115635   2.218   2.584   1.573
 4912SOL    HW215636   2.350   2.629   1.488
 4913SOL     OW15637   2.624   2.975   1.638
 4913SOL    HW115638   2.567   2.908   1.685
 4913SOL    HW215639   2.683   2.928   1.572
 4914SOL     OW15640   1.640   6.520   2.729
 4914SOL    HW115641   1.610   6.533   2.635
 4914SOL    HW215642   1.705   6.444   2.733
 4915SOL     OW15643   3.477   6.363   3.745
 4915SOL    HW115644   3.459   6.364   3.647
 4915SOL    HW215645   3.539   6.437   3.769
 4916SOL     OW15646   1.043   1.489   1.691
 4916SOL    HW115647   1.096   1.474   1.607
 4916SOL    HW215648   1.103   1.475   1.770
 4917SOL     OW15649   1.783   3.741   6.247
 4917SOL    HW115650   1.721   3.809   6.208
 4917SOL    HW215651   1.837   3.781   6.320
 4918SOL     OW15652   2.301   0.380   3.746
 4918SOL    HW115653   2.211   0.412   3.717
 4918SOL    HW215654   2.298   0.359   3.844
 4919SOL     OW15655   2.471   3.095   1.426
 4919SOL    HW115656   2.480   3.195   1.428
 4919SOL    HW215657   2.534   3.055   1.493
 4920SOL     OW15658   3.450   0.907   0.428
 4920SOL    HW115659   3.504   0.992   0.430
 4920SOL    HW215660   3.504   0.834   0.386
 4921SOL     OW15661   6.576   5.236   1.970
 4921SOL    HW115662   6.667   5.196   1.978
 4921SOL    HW215663   6.507   5.164   1.979
 4922SOL     OW15664   0.936   2.879   5.717
 4922SOL    HW115665   0.889   2.957   5.758
 4922SOL    HW215666   0.876   2.838   5.647
 4923SOL     OW15667   2.501   2.256   6.409
 4923SOL    HW115668   2.433   2.276   6.338
 4923SOL    HW215669   2.549   2.340   6.434
 4924SOL     OW15670   0.565   3.031   4.178
 4924SOL    HW115671   0.600   3.107   4.232
 4924SOL    HW215672   0.639   2.990   4.126
 4925SOL     OW15673   4.518   5.378   5.549
 4925SOL    HW115674   4.503   5.422   5.460
 4925SOL    HW215675   4.606   5.332   5.549
 4926SOL     OW15676   4.271   3.422   0.709
 4926SOL    HW115677   4.264   3.323   0.722
 4926SOL    HW215678   4.215   3.469   0.777
 4927SOL     OW15679   3.082   4.048   2.182
 4927SOL    HW115680   3.032   4.133   2.201
 4927SOL    HW215681   3.180   4.063   2.196
 4928SOL     OW15682   0.417   0.655   6.926
 4928SOL    HW115683   0.430   0.744   6.970
 4928SOL    HW215684   0.469   0.585   6.975
 4929SOL     OW15685   0.935   4.672   4.403
 4929SOL    HW115686   1.021   4.692   4.449
 4929SOL    HW215687   0.874   4.622   4.465
 4930SOL     OW15688   0.316   3.186   0.361
 4930SOL    HW115689   0.258   3.260   0.327
 4930SOL    HW215690   0.259   3.106   0.380
 4931SOL     OW15691   5.698   6.795   1.202
 4931SOL    HW115692   5.640   6.772   1.123
 4931SOL    HW215693   5.750   6.878   1.182
 4932SOL     OW15694   3.510   1.568   1.184
 4932SOL    HW115695   3.497   1.503   1.259
 4932SOL    HW215696   3.455   1.541   1.106
 4933SOL     OW15697   3.066   0.080   4.647
 4933SOL    HW115698   3.095   0.053   4.555
 4933SOL    HW215699   3.124   0.034   4.715
 4934SOL     OW15700   1.940   5.903   5.185
 4934SOL    HW115701   2.019   5.954   5.218
 4934SOL    HW215702   1.897   5.954   5.110
 4935SOL     OW15703   2.038   2.351   0.893
 4935SOL    HW115704   1.966   2.363   0.961
 4935SOL    HW215705   2.107   2.422   0.903
 4936SOL     OW15706   6.266   4.225   1.519
 4936SOL    HW115707   6.300   4.162   1.449
 4936SOL    HW215708   6.337   4.292   1.541
 4937SOL     OW15709   0.851   3.261   4.652
 4937SOL    HW115710   0.758   3.296   4.664
 4937SOL    HW215711   0.859   3.171   4.696
 4938SOL     OW15712   3.598   4.304   1.283
 4938SOL    HW115713   3.673   4.363   1.316
 4938SOL    HW215714   3.588   4.226   1.345
 4939SOL     OW15715   1.433   1.023   1.288
 4939SOL    HW115716   1.420   1.022   1.188
 4939SOL    HW215717   1.354   1.067   1.331
 4940SOL     OW15718   0.981   1.815   5.433
 4940SOL    HW115719   1.005   1.871   5.354
 4940SOL    HW215720   0.899   1.761   5.412
 4941SOL     OW15721   3.970   2.104   5.755
 4941SOL    HW115722   3.972   2.049   5.672
 4941SOL    HW215723   3.977   2.044   5.835
 4942SOL     OW15724   6.534   1.119   2.878
 4942SOL    HW115725   6.633   1.134   2.884
 4942SOL    HW215726   6.516   1.052   2.806
 4943SOL     OW15727   4.522   2.283   6.560
 4943SOL    HW115728   4.545   2.376   6.586
 4943SOL    HW215729   4.429   2.262   6.590
 4944SOL     OW15730   0.991   4.908   0.443
 4944SOL    HW115731   0.983   4.825   0.498
 4944SOL    HW215732   1.029   4.981   0.499
 4945SOL     OW15733   2.862   0.587   5.361
 4945SOL    HW115734   2.791   0.601   5.292
 4945SOL    HW215735   2.948   0.563   5.316
 4946SOL     OW15736   2.744   6.214   0.499
 4946SOL    HW115737   2.832   6.169   0.513
 4946SOL    HW215738   2.718   6.206   0.403
 4947SOL     OW15739   0.944   0.336   1.449
 4947SOL    HW115740   0.941   0.371   1.356
 4947SOL    HW215741   0.869   0.375   1.502
 4948SOL     OW15742   1.297   2.480   2.041
 4948SOL    HW115743   1.204   2.486   2.075
 4948SOL    HW215744   1.313   2.554   1.975
 4949SOL     OW15745   6.282   4.466   5.703
 4949SOL    HW115746   6.247   4.416   5.783
 4949SOL    HW215747   6.294   4.562   5.727
 4950SOL     OW15748   3.931   4.230   5.217
 4950SOL    HW115749   3.991   4.150   5.215
 4950SOL    HW215750   3.969   4.300   5.277
 4951SOL     OW15751   4.669   5.127   3.209
 4951SOL    HW115752   4.658   5.225   3.192
 4951SOL    HW215753   4.666   5.109   3.307
 4952SOL     OW15754   0.983   0.999   6.914
 4952SOL    HW115755   0.888   1.007   6.885
 4952SOL    HW215756   1.044   1.024   6.838
 4953SOL     OW15757   1.323   2.099   5.783
 4953SOL    HW115758   1.304   2.002   5.769
 4953SOL    HW215759   1.251   2.154   5.740
 4954SOL     OW15760   3.393   3.507   5.422
 4954SOL    HW115761   3.377   3.473   5.330
 4954SOL    HW215762   3.383   3.606   5.424
 4955SOL     OW15763   4.183   5.912   0.346
 4955SOL    HW115764   4.094   5.868   0.361
 4955SOL    HW215765   4.214   5.892   0.253
 4956SOL     OW15766   2.682   0.631   5.166
 4956SOL    HW115767   2.677   0.557   5.099
 4956SOL    HW215768   2.591   0.648   5.204
 4957SOL     OW15769   5.719   5.311   0.033
 4957SOL    HW115770   5.672   5.368   0.101
 4957SOL    HW215771   5.661   5.301   6.973
 4958SOL     OW15772   3.492   5.685   6.956
 4958SOL    HW115773   3.399   5.720   6.941
 4958SOL    HW215774   3.538   5.742   0.003
 4959SOL     OW15775   6.644   2.390   3.003
 4959SOL    HW115776   6.673   2.416   2.911
 4959SOL    HW215777   6.563   2.332   2.997
 4960SOL     OW15778   5.097   4.335   4.216
 4960SOL    HW115779   5.133   4.348   4.308
 4960SOL    HW215780   5.138   4.252   4.177
 4961SOL     OW15781   3.557   2.791   2.178
 4961SOL    HW115782   3.646   2.836   2.183
 4961SOL    HW215783   3.557   2.710   2.238
 4962SOL     OW15784   1.406   2.264   6.890
 4962SOL    HW115785   1.442   2.355   6.911
 4962SOL    HW215786   1.448   2.196   6.950
 4963SOL     OW15787   0.349   4.125   6.405
 4963SOL    HW115788   0.324   4.183   6.483
 4963SOL    HW215789   0.435   4.079   6.425
 4964SOL     OW15790   1.663   4.747   4.011
 4964SOL    HW115791   1.640   4.650   4.020
 4964SOL    HW215792   1.762   4.758   4.018
 4965SOL     OW15793   1.960   0.150   2.885
 4965SOL    HW115794   1.866   0.182   2.872
 4965SOL    HW215795   1.963   0.086   2.961
 4966SOL     OW15796   4.365   7.004   5.071
 4966SOL    HW115797   4.358   7.007   5.171
 4966SOL    HW215798   4.454   0.020   5.043
 4967SOL     OW15799   4.779   4.368   3.690
 4967SOL    HW115800   4.876   4.391   3.695
 4967SOL    HW215801   4.750   4.365   3.594
 4968SOL     OW15802   6.630   3.259   4.480
 4968SOL    HW115803   6.624   3.283   4.383
 4968SOL    HW215804   6.723   3.277   4.513
 4969SOL     OW15805   0.224   5.988   4.623
 4969SOL    HW115806   0.130   5.978   4.591
 4969SOL    HW215807   0.287   5.977   4.546
 4970SOL     OW15808   2.223   1.392   1.599
 4970SOL    HW115809   2.184   1.451   1.528
 4970SOL    HW215810   2.150   1.363   1.662
 4971SOL     OW15811   0.014   5.716   1.446
 4971SOL    HW115812   7.000   5.762   1.527
 4971SOL    HW215813   0.112   5.701   1.456
 4972SOL     OW15814   0.130   4.020   6.946
 4972SOL    HW115815   0.188   3.977   6.877
 4972SOL    HW215816   0.044   4.050   6.904
 4973SOL     OW15817   5.532   1.966   6.617
 4973SOL    HW115818   5.445   1.988   6.661
 4973SOL    HW215819   5.535   1.867   6.599
 4974SOL     OW15820   3.675   7.006   5.612
 4974SOL    HW115821   3.582   6.991   5.647
 4974SOL    HW215822   3.722   0.051   5.670
 4975SOL     OW15823   5.633   4.160   1.528
 4975SOL    HW115824   5.581   4.240   1.500
 4975SOL    HW215825   5.592   4.120   1.610
 4976SOL     OW15826   0.492   0.383   3.853
 4976SOL    HW115827   0.548   0.301   3.867
 4976SOL    HW215828   0.482   0.432   3.940
 4977SOL     OW15829   1.450   4.003   5.519
 4977SOL    HW115830   1.362   4.000   5.568
 4977SOL    HW215831   1.438   4.055   5.434
 4978SOL     OW15832   6.360   5.108   4.469
 4978SOL    HW115833   6.330   5.181   4.408
 4978SOL    HW215834   6.357   5.140   4.563
 4979SOL     OW15835   2.816   6.843   6.461
 4979SOL    HW115836   2.773   6.827   6.549
 4979SOL    HW215837   2.880   6.768   6.441
 4980SOL     OW15838   6.145   3.003   3.932
 4980SOL    HW115839   6.134   2.920   3.877
 4980SOL    HW215840   6.055   3.036   3.960
 4981SOL     OW15841   3.501   6.078   3.527
 4981SOL    HW115842   3.581   6.077   3.586
 4981SOL    HW215843   3.452   5.991   3.536
 4982SOL     OW15844   4.342   2.008   4.780
 4982SOL    HW115845   4.254   1.962   4.770
 4982SOL    HW215846   4.355   2.035   4.875
 4983SOL     OW15847   6.163   3.266   2.905
 4983SOL    HW115848   6.178   3.294   2.810
 4983SOL    HW215849   6.096   3.326   2.948
 4984SOL     OW15850   4.892   3.715   4.737
 4984SOL    HW115851   4.889   3.628   4.688
 4984SOL    HW215852   4.858   3.702   4.830
 4985SOL     OW15853   5.543   0.423   2.313
 4985SOL    HW115854   5.470   0.399   2.377
 4985SOL    HW215855   5.624   0.453   2.364
 4986SOL     OW15856   1.577   5.079   1.374
 4986SOL    HW115857   1.599   4.987   1.340
 4986SOL    HW215858   1.510   5.121   1.313
 4987SOL     OW15859   1.994   3.173   2.597
 4987SOL    HW115860   2.062   3.183   2.524
 4987SOL    HW215861   2.040   3.158   2.684
 4988SOL     OW15862   6.234   5.392   4.030
 4988SOL    HW115863   6.277   5.367   3.943
 4988SOL    HW215864   6.159   5.457   4.013
 4989SOL     OW15865   7.016   6.997   3.338
 4989SOL    HW115866   6.947   6.979   3.269
 4989SOL    HW215867   6.971   7.018   3.425
 4990SOL     OW15868   5.033   1.662   6.651
 4990SOL    HW115869   5.050   1.719   6.571
 4990SOL    HW215870   5.061   1.568   6.632
 4991SOL     OW15871   1.956   5.849   6.202
 4991SOL    HW115872   1.932   5.900   6.119
 4991SOL    HW215873   2.054   5.855   6.217
 4992SOL     OW15874   1.561   3.749   4.163
 4992SOL    HW115875   1.609   3.661   4.163
 4992SOL    HW215876   1.476   3.741   4.216
 4993SOL     OW15877   2.213   6.080   4.072
 4993SOL    HW115878   2.301   6.031   4.074
 4993SOL    HW215879   2.139   6.016   4.094
 4994SOL     OW15880   3.091   5.378   5.563
 4994SOL    HW115881   3.062   5.409   5.473
 4994SOL    HW215882   3.182   5.337   5.557
 4995SOL     OW15883   0.409   0.995   6.176
 4995SOL    HW115884   0.313   1.022   6.176
 4995SOL    HW215885   0.458   1.045   6.104
 4996SOL     OW15886   6.860   0.759   3.647
 4996SOL    HW115887   6.937   0.694   3.654
 4996SOL    HW215888   6.847   0.784   3.551
 4997SOL     OW15889   4.490   1.662   0.374
 4997SOL    HW115890   4.532   1.571   0.374
 4997SOL    HW215891   4.516   1.711   0.291
 4998SOL     OW15892   0.820   4.080   3.885
 4998SOL    HW115893   0.889   4.058   3.815
 4998SOL    HW215894   0.731   4.090   3.842
 4999SOL     OW15895   0.747   2.990   3.973
 4999SOL    HW115896   0.731   3.027   3.882
 4999SOL    HW215897   0.840   3.012   4.002
 5000SOL     OW15898   2.580   6.539   3.243
 5000SOL    HW115899   2.521   6.481   3.298
 5000SOL    HW215900   2.576   6.509   3.147
 5001SOL     OW15901   0.497   5.585   3.122
 5001SOL    HW115902   0.437   5.523   3.071
 5001SOL    HW215903   0.458   5.604   3.212
 5002SOL     OW15904   1.495   5.073   3.546
 5002SOL    HW115905   1.483   5.109   3.454
 5002SOL    HW215906   1.545   4.987   3.543
 5003SOL     OW15907   3.505   0.680   1.941
 5003SOL    HW115908   3.474   0.585   1.945
 5003SOL    HW215909   3.435   0.736   1.896
 5004SOL     OW15910   4.150   6.461   0.472
 5004SOL    HW115911   4.117   6.427   0.384
 5004SOL    HW215912   4.221   6.401   0.507
 5005SOL     OW15913   3.318   2.912   0.577
 5005SOL    HW115914   3.409   2.948   0.598
 5005SOL    HW215915   3.260   2.920   0.658
 5006SOL     OW15916   5.156   0.571   2.177
 5006SOL    HW115917   5.196   0.574   2.268
 5006SOL    HW215918   5.058   0.591   2.183
 5007SOL     OW15919   6.090   5.519   2.493
 5007SOL    HW115920   6.174   5.469   2.473
 5007SOL    HW215921   6.038   5.470   2.563
 5008SOL     OW15922   5.036   0.452   3.464
 5008SOL    HW115923   5.001   0.468   3.556
 5008SOL    HW215924   5.114   0.513   3.447
 5009SOL     OW15925   0.478   1.502   0.235
 5009SOL    HW115926   0.555   1.551   0.275
 5009SOL    HW215927   0.506   1.409   0.212
 5010SOL     OW15928   5.003   3.627   1.093
 5010SOL    HW115929   4.963   3.686   1.023
 5010SOL    HW215930   5.100   3.647   1.101
 5011SOL     OW15931   1.952   2.305   6.100
 5011SOL    HW115932   2.024   2.374   6.101
 5011SOL    HW215933   1.908   2.303   6.011
 5012SOL     OW15934   6.231   1.558   6.067
 5012SOL    HW115935   6.262   1.629   6.130
 5012SOL    HW215936   6.212   1.598   5.978
 5013SOL     OW15937   5.203   0.271   5.599
 5013SOL    HW115938   5.138   0.294   5.672
 5013SOL    HW215939   5.194   0.174   5.577
 5014SOL     OW15940   6.279   3.556   1.137
 5014SOL    HW115941   6.258   3.623   1.209
 5014SOL    HW215942   6.272   3.464   1.174
 5015SOL     OW15943   5.823   5.620   4.250
 5015SOL    HW115944   5.764   5.540   4.240
 5015SOL    HW215945   5.901   5.598   4.309
 5016SOL     OW15946   1.607   2.744   6.472
 5016SOL    HW115947   1.656   2.666   6.432
 5016SOL    HW215948   1.531   2.769   6.412
 5017SOL     OW15949   0.083   2.342   2.031
 5017SOL    HW115950   7.008   2.320   2.051
 5017SOL    HW215951   0.107   2.428   2.078
 5018SOL     OW15952   1.201   0.715   6.994
 5018SOL    HW115953   1.186   0.813   6.992
 5018SOL    HW215954   1.299   0.695   7.001
 5019SOL     OW15955   1.519   4.503   4.024
 5019SOL    HW115956   1.445   4.476   4.085
 5019SOL    HW215957   1.531   4.433   3.954
 5020SOL     OW15958   1.790   0.301   4.359
 5020SOL    HW115959   1.852   0.379   4.349
 5020SOL    HW215960   1.818   0.228   4.296
 5021SOL     OW15961   2.897   0.343   1.486
 5021SOL    HW115962   2.954   0.380   1.559
 5021SOL    HW215963   2.867   0.417   1.426
 5022SOL     OW15964   6.612   2.633   0.958
 5022SOL    HW115965   6.609   2.625   1.058
 5022SOL    HW215966   6.618   2.542   0.918
 5023SOL     OW15967   0.258   3.511   2.868
 5023SOL    HW115968   0.200   3.516   2.949
 5023SOL    HW215969   0.351   3.538   2.892
 5024SOL     OW15970   5.173   4.079   0.206
 5024SOL    HW115971   5.118   4.155   0.241
 5024SOL    HW215972   5.142   4.055   0.114
 5025SOL     OW15973   4.920   2.217   4.745
 5025SOL    HW115974   4.827   2.223   4.782
 5025SOL    HW215975   4.935   2.292   4.681
 5026SOL     OW15976   5.562   6.019   5.071
 5026SOL    HW115977   5.480   6.050   5.118
 5026SOL    HW215978   5.550   5.925   5.040
 5027SOL     OW15979   5.365   6.493   0.747
 5027SOL    HW115980   5.307   6.414   0.727
 5027SOL    HW215981   5.380   6.500   0.845
 5028SOL     OW15982   6.350   1.785   2.476
 5028SOL    HW115983   6.273   1.848   2.483
 5028SOL    HW215984   6.430   1.825   2.520
 5029SOL     OW15985   4.958   2.434   2.651
 5029SOL    HW115986   4.878   2.401   2.701
 5029SOL    HW215987   5.025   2.471   2.716
 5030SOL     OW15988   0.096   3.363   0.311
 5030SOL    HW115989   7.018   3.348   0.317
 5030SOL    HW215990   0.114   3.461   0.304
 5031SOL     OW15991   6.592   0.142   6.039
 5031SOL    HW115992   6.581   0.222   6.097
 5031SOL    HW215993   6.502   0.111   6.006
 5032SOL     OW15994   2.535   4.538   5.954
 5032SOL    HW115995   2.572   4.533   6.046
 5032SOL    HW215996   2.588   4.603   5.900
 5033SOL     OW15997   2.434   6.941   5.974
 5033SOL    HW115998   2.396   6.870   6.034
 5033SOL    HW215999   2.484   6.897   5.899
 5034SOL     OW16000   4.585   5.991   4.367
 5034SOL    HW116001   4.537   5.919   4.417
 5034SOL    HW216002   4.532   6.075   4.370
 5035SOL     OW16003   1.904   3.874   3.510
 5035SOL    HW116004   2.003   3.879   3.495
 5035SOL    HW216005   1.881   3.788   3.555
 5036SOL     OW16006   1.304   2.874   4.937
 5036SOL    HW116007   1.292   2.948   5.004
 5036SOL    HW216008   1.287   2.787   4.982
 5037SOL     OW16009   4.982   4.767   1.226
 5037SOL    HW116010   4.991   4.772   1.127
 5037SOL    HW216011   5.067   4.801   1.269
 5038SOL     OW16012   3.226   3.692   3.552
 5038SOL    HW116013   3.323   3.712   3.560
 5038SOL    HW216014   3.208   3.598   3.580
 5039SOL     OW16015   0.884   3.664   0.129
 5039SOL    HW116016   0.877   3.636   0.225
 5039SOL    HW216017   0.858   3.761   0.121
 5040SOL     OW16018   0.241   1.324   5.228
 5040SOL    HW116019   0.257   1.410   5.276
 5040SOL    HW216020   0.264   1.335   5.131
 5041SOL     OW16021   6.861   1.996   1.406
 5041SOL    HW116022   6.957   2.004   1.379
 5041SOL    HW216023   6.820   1.916   1.360
 5042SOL     OW16024   1.066   2.247   5.598
 5042SOL    HW116025   0.998   2.175   5.585
 5042SOL    HW216026   1.030   2.315   5.662
 5043SOL     OW16027   3.247   6.484   2.333
 5043SOL    HW116028   3.274   6.543   2.257
 5043SOL    HW216029   3.182   6.416   2.300
 5044SOL     OW16030   0.026   5.514   0.119
 5044SOL    HW116031   0.022   5.547   0.025
 5044SOL    HW216032   7.007   5.582   0.181
 5045SOL     OW16033   5.884   2.487   0.847
 5045SOL    HW116034   5.855   2.582   0.857
 5045SOL    HW216035   5.871   2.439   0.933
 5046SOL     OW16036   3.763   2.970   2.140
 5046SOL    HW116037   3.772   3.002   2.046
 5046SOL    HW216038   3.851   2.981   2.188
 5047SOL     OW16039   1.706   3.937   3.302
 5047SOL    HW116040   1.785   3.911   3.357
 5047SOL    HW216041   1.736   3.961   3.210
 5048SOL     OW16042   2.811   0.540   6.526
 5048SOL    HW116043   2.838   0.461   6.471
 5048SOL    HW216044   2.728   0.520   6.577
 5049SOL     OW16045   4.104   1.801   6.565
 5049SOL    HW116046   4.147   1.716   6.536
 5049SOL    HW216047   4.169   1.855   6.619
 5050SOL     OW16048   1.879   0.665   0.703
 5050SOL    HW116049   1.860   0.702   0.794
 5050SOL    HW216050   1.945   0.724   0.656
 5051SOL     OW16051   4.696   4.654   1.223
 5051SOL    HW116052   4.621   4.672   1.286
 5051SOL    HW216053   4.769   4.721   1.237
 5052SOL     OW16054   2.129   2.590   4.557
 5052SOL    HW116055   2.220   2.631   4.556
 5052SOL    HW216056   2.121   2.529   4.635
 5053SOL     OW16057   6.788   0.747   0.954
 5053SOL    HW116058   6.811   0.785   1.043
 5053SOL    HW216059   6.695   0.709   0.956
 5054SOL     OW16060   3.876   5.288   3.848
 5054SOL    HW116061   3.800   5.274   3.785
 5054SOL    HW216062   3.954   5.326   3.798
 5055SOL     OW16063   0.222   3.442   5.273
 5055SOL    HW116064   0.215   3.526   5.218
 5055SOL    HW216065   0.236   3.466   5.369
 5056SOL     OW16066   6.358   3.994   3.825
 5056SOL    HW116067   6.276   3.941   3.846
 5056SOL    HW216068   6.339   4.092   3.837
 5057SOL     OW16069   6.957   5.870   2.235
 5057SOL    HW116070   6.924   5.802   2.301
 5057SOL    HW216071   6.912   5.958   2.252
 5058SOL     OW16072   2.556   5.652   6.261
 5058SOL    HW116073   2.582   5.737   6.306
 5058SOL    HW216074   2.539   5.669   6.164
 5059SOL     OW16075   6.769   0.453   2.590
 5059SOL    HW116076   6.814   0.425   2.504
 5059SOL    HW216077   6.803   0.395   2.665
 5060SOL     OW16078   6.914   2.132   6.161
 5060SOL    HW116079   6.948   2.040   6.139
 5060SOL    HW216080   6.972   2.172   6.232
 5061SOL     OW16081   5.344   3.711   0.763
 5061SOL    HW116082   5.339   3.650   0.683
 5061SOL    HW216083   5.252   3.737   0.790
 5062SOL     OW16084   6.385   0.115   0.675
 5062SOL    HW116085   6.293   0.084   0.701
 5062SOL    HW216086   6.389   0.126   0.575
 5063SOL     OW16087   1.266   6.280   2.706
 5063SOL    HW116088   1.364   6.282   2.725
 5063SOL    HW216089   1.241   6.191   2.669
 5064SOL     OW16090   5.168   3.852   0.034
 5064SOL    HW116091   5.190   3.943   7.019
 5064SOL    HW216092   5.069   3.842   0.041
 5065SOL     OW16093   2.971   6.495   6.143
 5065SOL    HW116094   2.985   6.464   6.237
 5065SOL    HW216095   2.886   6.455   6.107
 5066SOL     OW16096   4.582   4.943   1.301
 5066SOL    HW116097   4.577   4.974   1.206
 5066SOL    HW216098   4.678   4.930   1.326
 5067SOL     OW16099   5.019   1.342   6.712
 5067SOL    HW116100   4.969   1.337   6.798
 5067SOL    HW216101   5.085   1.267   6.708
 5068SOL     OW16102   3.812   4.770   1.000
 5068SOL    HW116103   3.794   4.673   0.984
 5068SOL    HW216104   3.813   4.819   0.913
 5069SOL     OW16105   6.832   5.340   3.157
 5069SOL    HW116106   6.815   5.258   3.103
 5069SOL    HW216107   6.749   5.396   3.161
 5070SOL     OW16108   4.844   3.208   4.077
 5070SOL    HW116109   4.838   3.278   4.006
 5070SOL    HW216110   4.883   3.249   4.160
 5071SOL     OW16111   4.575   0.711   0.076
 5071SOL    HW116112   4.650   0.644   0.070
 5071SOL    HW216113   4.492   0.664   0.106
 5072SOL     OW16114   0.591   4.100   1.193
 5072SOL    HW116115   0.582   4.180   1.133
 5072SOL    HW216116   0.505   4.086   1.243
 5073SOL     OW16117   4.303   2.347   3.900
 5073SOL    HW116118   4.265   2.312   3.985
 5073SOL    HW216119   4.378   2.410   3.920
 5074SOL     OW16120   4.266   4.790   5.050
 5074SOL    HW116121   4.242   4.811   4.955
 5074SOL    HW216122   4.298   4.695   5.056
 5075SOL     OW16123   6.767   6.597   3.932
 5075SOL    HW116124   6.687   6.653   3.951
 5075SOL    HW216125   6.805   6.622   3.843
 5076SOL     OW16126   4.447   0.377   1.068
 5076SOL    HW116127   4.415   0.293   1.112
 5076SOL    HW216128   4.537   0.362   1.029
 5077SOL     OW16129   6.693   2.845   2.270
 5077SOL    HW116130   6.725   2.776   2.335
 5077SOL    HW216131   6.768   2.868   2.208
 5078SOL     OW16132   0.118   0.879   4.125
 5078SOL    HW116133   0.063   0.797   4.141
 5078SOL    HW216134   0.203   0.873   4.176
 5079SOL     OW16135   4.548   5.008   4.844
 5079SOL    HW116136   4.498   5.095   4.835
 5079SOL    HW216137   4.485   4.932   4.829
 5080SOL     OW16138   5.954   0.470   5.900
 5080SOL    HW116139   6.039   0.417   5.902
 5080SOL    HW216140   5.959   0.544   5.967
 5081SOL     OW16141   3.476   3.155   2.938
 5081SOL    HW116142   3.474   3.140   2.839
 5081SOL    HW216143   3.488   3.067   2.985
 5082SOL     OW16144   0.700   0.624   6.099
 5082SOL    HW116145   0.693   0.723   6.086
 5082SOL    HW216146   0.617   0.590   6.145
 5083SOL     OW16147   0.929   4.770   2.147
 5083SOL    HW116148   0.907   4.704   2.075
 5083SOL    HW216149   1.011   4.821   2.122
 5084SOL     OW16150   1.061   5.667   2.236
 5084SOL    HW116151   1.150   5.673   2.192
 5084SOL    HW216152   1.003   5.742   2.205
 5085SOL     OW16153   6.524   3.058   6.725
 5085SOL    HW116154   6.543   3.136   6.666
 5085SOL    HW216155   6.464   2.994   6.677
 5086SOL     OW16156   6.442   5.442   4.655
 5086SOL    HW116157   6.495   5.518   4.693
 5086SOL    HW216158   6.444   5.446   4.555
 5087SOL     OW16159   6.256   5.494   4.872
 5087SOL    HW116160   6.283   5.581   4.914
 5087SOL    HW216161   6.305   5.482   4.786
 5088SOL     OW16162   6.090   0.812   0.190
 5088SOL    HW116163   6.116   0.717   0.173
 5088SOL    HW216164   5.993   0.818   0.211
 5089SOL     OW16165   5.748   2.371   4.425
 5089SOL    HW116166   5.674   2.353   4.490
 5089SOL    HW216167   5.715   2.356   4.332
 5090SOL     OW16168   1.106   5.430   0.400
 5090SOL    HW116169   1.185   5.369   0.394
 5090SOL    HW216170   1.021   5.376   0.395
 5091SOL     OW16171   0.850   6.397   3.624
 5091SOL    HW116172   0.890   6.411   3.534
 5091SOL    HW216173   0.865   6.302   3.652
 5092SOL     OW16174   3.266   3.096   1.132
 5092SOL    HW116175   3.266   3.003   1.168
 5092SOL    HW216176   3.179   3.114   1.086
 5093SOL     OW16177   1.073   1.896   1.244
 5093SOL    HW116178   1.038   1.954   1.170
 5093SOL    HW216179   1.148   1.943   1.291
 5094SOL     OW16180   0.166   0.054   6.584
 5094SOL    HW116181   0.255   0.008   6.593
 5094SOL    HW216182   0.093   7.010   6.608
 5095SOL     OW16183   3.054   7.003   5.453
 5095SOL    HW116184   3.079   0.005   5.547
 5095SOL    HW216185   2.982   6.933   5.454
 5096SOL     OW16186   3.875   6.299   3.128
 5096SOL    HW116187   3.918   6.390   3.125
 5096SOL    HW216188   3.897   6.249   3.044
 5097SOL     OW16189   0.961   1.644   6.590
 5097SOL    HW116190   1.050   1.663   6.549
 5097SOL    HW216191   0.905   1.728   6.589
 5098SOL     OW16192   6.705   2.519   3.232
 5098SOL    HW116193   6.675   2.469   3.151
 5098SOL    HW216194   6.668   2.612   3.229
 5099SOL     OW16195   0.802   1.236   4.172
 5099SOL    HW116196   0.760   1.202   4.088
 5099SOL    HW216197   0.791   1.335   4.177
 5100SOL     OW16198   4.739   5.269   5.680
 5100SOL    HW116199   4.704   5.304   5.767
 5100SOL    HW216200   4.813   5.204   5.698
 5101SOL     OW16201   4.991   5.809   0.544
 5101SOL    HW116202   4.937   5.763   0.615
 5101SOL    HW216203   4.979   5.908   0.553
 5102SOL     OW16204   3.636   5.217   4.259
 5102SOL    HW116205   3.629   5.280   4.337
 5102SOL    HW216206   3.732   5.199   4.239
 5103SOL     OW16207   1.252   1.896   4.163
 5103SOL    HW116208   1.203   1.936   4.086
 5103SOL    HW216209   1.185   1.856   4.227
 5104SOL     OW16210   0.520   0.810   0.970
 5104SOL    HW116211   0.432   0.765   0.989
 5104SOL    HW216212   0.568   0.827   1.056
 5105SOL     OW16213   1.399   2.663   6.179
 5105SOL    HW116214   1.359   2.734   6.236
 5105SOL    HW216215   1.455   2.705   6.107
 5106SOL     OW16216   2.452   6.757   2.166
 5106SOL    HW116217   2.405   6.688   2.220
 5106SOL    HW216218   2.485   6.830   2.226
 5107SOL     OW16219   2.307   0.005   6.561
 5107SOL    HW116220   2.308   0.012   6.461
 5107SOL    HW216221   2.222   0.043   6.596
 5108SOL     OW16222   3.395   4.185   4.386
 5108SOL    HW116223   3.395   4.229   4.476
 5108SOL    HW216224   3.474   4.124   4.379
 5109SOL     OW16225   6.523   2.205   2.594
 5109SOL    HW116226   6.616   2.179   2.569
 5109SOL    HW216227   6.507   2.182   2.690
 5110SOL     OW16228   1.972   6.074   5.485
 5110SOL    HW116229   2.043   6.004   5.489
 5110SOL    HW216230   2.013   6.160   5.453
 5111SOL     OW16231   1.974   0.654   6.905
 5111SOL    HW116232   2.022   0.741   6.915
 5111SOL    HW216233   1.981   0.602   6.990
 5112SOL     OW16234   0.377   6.452   3.210
 5112SOL    HW116235   0.440   6.385   3.249
 5112SOL    HW216236   0.380   6.536   3.264
 5113SOL     OW16237   0.473   0.572   6.211
 5113SOL    HW116238   0.462   0.505   6.138
 5113SOL    HW216239   0.449   0.531   6.298
 5114SOL     OW16240   4.243   5.770   6.527
 5114SOL    HW116241   4.280   5.834   6.594
 5114SOL    HW216242   4.194   5.697   6.574
 5115SOL     OW16243   2.369   3.819   5.339
 5115SOL    HW116244   2.269   3.811   5.345
 5115SOL    HW216245   2.393   3.888   5.271
 5116SOL     OW16246   6.604   3.854   1.211
 5116SOL    HW116247   6.574   3.765   1.176
 5116SOL    HW216248   6.704   3.858   1.209
 5117SOL     OW16249   2.617   5.138   2.351
 5117SOL    HW116250   2.651   5.113   2.442
 5117SOL    HW216251   2.517   5.139   2.352
 5118SOL     OW16252   4.136   6.801   1.567
 5118SOL    HW116253   4.094   6.879   1.520
 5118SOL    HW216254   4.064   6.740   1.600
 5119SOL     OW16255   6.258   0.033   2.392
 5119SOL    HW116256   6.163   0.049   2.365
 5119SOL    HW216257   6.270   0.054   2.489
 5120SOL     OW16258   3.312   1.437   1.858
 5120SOL    HW116259   3.309   1.338   1.840
 5120SOL    HW216260   3.223   1.477   1.838
 5121SOL     OW16261   0.762   3.841   4.129
 5121SOL    HW116262   0.687   3.896   4.165
 5121SOL    HW216263   0.758   3.841   4.029
 5122SOL     OW16264   2.106   5.253   3.503
 5122SOL    HW116265   2.077   5.174   3.558
 5122SOL    HW216266   2.179   5.302   3.550
 5123SOL     OW16267   6.409   3.238   2.404
 5123SOL    HW116268   6.467   3.163   2.436
 5123SOL    HW216269   6.457   3.290   2.333
 5124SOL     OW16270   2.685   6.372   1.146
 5124SOL    HW116271   2.587   6.371   1.127
 5124SOL    HW216272   2.726   6.285   1.118
 5125SOL     OW16273   0.437   1.925   5.942
 5125SOL    HW116274   0.427   1.986   5.864
 5125SOL    HW216275   0.347   1.908   5.984
 5126SOL     OW16276   4.029   1.858   0.045
 5126SOL    HW116277   3.964   1.784   0.030
 5126SOL    HW216278   4.080   1.843   0.129
 5127SOL     OW16279   4.861   3.151   6.468
 5127SOL    HW116280   4.857   3.101   6.382
 5127SOL    HW216281   4.925   3.106   6.531
 5128SOL     OW16282   6.880   6.973   6.222
 5128SOL    HW116283   6.938   0.032   6.202
 5128SOL    HW216284   6.846   6.980   6.316
 5129SOL     OW16285   4.892   3.084   3.791
 5129SOL    HW116286   4.952   3.133   3.728
 5129SOL    HW216287   4.891   3.130   3.879
 5130SOL     OW16288   1.891   6.417   5.104
 5130SOL    HW116289   1.879   6.452   5.197
 5130SOL    HW216290   1.870   6.489   5.038
 5131SOL     OW16291   4.026   4.786   3.151
 5131SOL    HW116292   4.043   4.718   3.080
 5131SOL    HW216293   4.079   4.764   3.233
 5132SOL     OW16294   3.753   2.242   6.447
 5132SOL    HW116295   3.673   2.216   6.502
 5132SOL    HW216296   3.734   2.328   6.399
 5133SOL     OW16297   4.482   4.849   6.533
 5133SOL    HW116298   4.419   4.818   6.461
 5133SOL    HW216299   4.441   4.831   6.622
 5134SOL     OW16300   5.503   5.765   0.127
 5134SOL    HW116301   5.462   5.843   0.079
 5134SOL    HW216302   5.477   5.769   0.224
 5135SOL     OW16303   6.956   2.885   2.162
 5135SOL    HW116304   6.979   2.934   2.078
 5135SOL    HW216305   6.924   2.793   2.139
 5136SOL     OW16306   0.380   0.781   4.521
 5136SOL    HW116307   0.469   0.826   4.530
 5136SOL    HW216308   0.331   0.787   4.608
 5137SOL     OW16309   5.545   0.528   3.139
 5137SOL    HW116310   5.446   0.540   3.139
 5137SOL    HW216311   5.587   0.595   3.200
 5138SOL     OW16312   2.969   3.592   2.491
 5138SOL    HW116313   2.944   3.504   2.450
 5138SOL    HW216314   2.984   3.659   2.419
 5139SOL     OW16315   4.609   0.110   4.636
 5139SOL    HW116316   4.699   0.110   4.678
 5139SOL    HW216317   4.552   0.181   4.678
 5140SOL     OW16318   3.451   3.640   6.582
 5140SOL    HW116319   3.523   3.661   6.517
 5140SOL    HW216320   3.362   3.647   6.537
 5141SOL     OW16321   1.062   3.431   1.329
 5141SOL    HW116322   1.094   3.518   1.367
 5141SOL    HW216323   1.136   3.365   1.330
 5142SOL     OW16324   0.391   6.759   2.945
 5142SOL    HW116325   0.457   6.795   3.011
 5142SOL    HW216326   0.409   6.662   2.929
 5143SOL     OW16327   6.886   6.130   2.180
 5143SOL    HW116328   6.850   6.215   2.217
 5143SOL    HW216329   6.863   6.122   2.083
 5144SOL     OW16330   1.854   3.245   4.808
 5144SOL    HW116331   1.890   3.198   4.727
 5144SOL    HW216332   1.905   3.330   4.823
 5145SOL     OW16333   2.164   5.902   5.446
 5145SOL    HW116334   2.145   5.805   5.460
 5145SOL    HW216335   2.244   5.928   5.499
 5146SOL     OW16336   5.979   5.585   6.322
 5146SOL    HW116337   5.910   5.613   6.255
 5146SOL    HW216338   6.024   5.501   6.290
 5147SOL     OW16339   5.775   1.952   3.878
 5147SOL    HW116340   5.685   1.970   3.837
 5147SOL    HW216341   5.767   1.954   3.977
 5148SOL     OW16342   5.992   1.493   0.447
 5148SOL    HW116343   6.031   1.584   0.459
 5148SOL    HW216344   6.044   1.427   0.501
 5149SOL     OW16345   3.703   5.695   4.075
 5149SOL    HW116346   3.638   5.659   4.008
 5149SOL    HW216347   3.768   5.755   4.028
 5150SOL     OW16348   6.859   0.900   3.096
 5150SOL    HW116349   6.851   0.914   3.195
 5150SOL    HW216350   6.838   0.805   3.074
 5151SOL     OW16351   5.244   5.149   1.632
 5151SOL    HW116352   5.234   5.135   1.730
 5151SOL    HW216353   5.204   5.072   1.582
 5152SOL     OW16354   2.179   2.227   0.508
 5152SOL    HW116355   2.128   2.303   0.548
 5152SOL    HW216356   2.149   2.212   0.413
 5153SOL     OW16357   2.002   2.698   0.669
 5153SOL    HW116358   2.084   2.734   0.714
 5153SOL    HW216359   1.926   2.697   0.734
 5154SOL     OW16360   0.593   2.432   0.412
 5154SOL    HW116361   0.524   2.469   0.475
 5154SOL    HW216362   0.589   2.481   0.325
 5155SOL     OW16363   1.593   0.826   0.245
 5155SOL    HW116364   1.547   0.915   0.241
 5155SOL    HW216365   1.680   0.831   0.197
 5156SOL     OW16366   4.968   5.338   5.867
 5156SOL    HW116367   4.943   5.323   5.963
 5156SOL    HW216368   5.032   5.267   5.837
 5157SOL     OW16369   3.475   1.090   1.982
 5157SOL    HW116370   3.564   1.135   1.983
 5157SOL    HW216371   3.461   1.044   2.070
 5158SOL     OW16372   1.425   2.241   2.150
 5158SOL    HW116373   1.362   2.317   2.133
 5158SOL    HW216374   1.477   2.221   2.066
 5159SOL     OW16375   6.526   3.105   5.293
 5159SOL    HW116376   6.574   3.191   5.277
 5159SOL    HW216377   6.558   3.036   5.227
 5160SOL     OW16378   7.008   6.894   2.993
 5160SOL    HW116379   6.995   6.816   3.054
 5160SOL    HW216380   7.016   6.862   2.899
 5161SOL     OW16381   0.976   1.793   6.009
 5161SOL    HW116382   0.936   1.851   6.080
 5161SOL    HW216383   0.903   1.742   5.963
 5162SOL     OW16384   0.528   6.851   5.326
 5162SOL    HW116385   0.570   6.795   5.255
 5162SOL    HW216386   0.428   6.846   5.318
 5163SOL     OW16387   3.124   0.552   1.682
 5163SOL    HW116388   3.171   0.614   1.745
 5163SOL    HW216389   3.168   0.462   1.684
 5164SOL     OW16390   2.794   3.570   0.019
 5164SOL    HW116391   2.864   3.622   6.991
 5164SOL    HW216392   2.820   3.474   0.021
 5165SOL     OW16393   1.563   4.786   5.749
 5165SOL    HW116394   1.621   4.740   5.815
 5165SOL    HW216395   1.573   4.885   5.759
 5166SOL     OW16396   6.901   5.969   5.448
 5166SOL    HW116397   6.855   5.903   5.508
 5166SOL    HW216398   6.873   5.954   5.353
 5167SOL     OW16399   6.096   3.894   5.832
 5167SOL    HW116400   6.173   3.861   5.775
 5167SOL    HW216401   6.062   3.980   5.794
 5168SOL     OW16402   4.844   1.811   3.550
 5168SOL    HW116403   4.823   1.905   3.524
 5168SOL    HW216404   4.941   1.793   3.538
 5169SOL     OW16405   5.078   5.701   4.166
 5169SOL    HW116406   5.022   5.784   4.175
 5169SOL    HW216407   5.163   5.724   4.119
 5170SOL     OW16408   1.786   4.234   6.073
 5170SOL    HW116409   1.812   4.306   6.009
 5170SOL    HW216410   1.867   4.181   6.098
 5171SOL     OW16411   2.688   6.599   6.337
 5171SOL    HW116412   2.661   6.625   6.430
 5171SOL    HW216413   2.731   6.508   6.340
 5172SOL     OW16414   5.635   5.591   6.267
 5172SOL    HW116415   5.613   5.685   6.293
 5172SOL    HW216416   5.671   5.590   6.174
 5173SOL     OW16417   3.943   5.549   4.476
 5173SOL    HW116418   3.909   5.553   4.382
 5173SOL    HW216419   4.043   5.543   4.474
 5174SOL     OW16420   0.892   6.201   3.009
 5174SOL    HW116421   0.984   6.173   3.037
 5174SOL    HW216422   0.828   6.127   3.028
 5175SOL     OW16423   2.450   1.741   6.582
 5175SOL    HW116424   2.430   1.651   6.544
 5175SOL    HW216425   2.536   1.737   6.633
 5176SOL     OW16426   6.293   6.259   6.355
 5176SOL    HW116427   6.225   6.190   6.329
 5176SOL    HW216428   6.253   6.320   6.423
 5177SOL     OW16429   5.326   5.538   0.850
 5177SOL    HW116430   5.249   5.582   0.896
 5177SOL    HW216431   5.313   5.543   0.751
 5178SOL     OW16432   0.284   3.951   1.250
 5178SOL    HW116433   0.286   3.999   1.163
 5178SOL    HW216434   0.338   3.868   1.245
 5179SOL     OW16435   4.847   5.067   2.992
 5179SOL    HW116436   4.773   5.049   3.058
 5179SOL    HW216437   4.931   5.024   3.024
 5180SOL     OW16438   1.793   4.777   1.998
 5180SOL    HW116439   1.852   4.841   2.048
 5180SOL    HW216440   1.715   4.752   2.055
 5181SOL     OW16441   6.833   1.098   5.505
 5181SOL    HW116442   6.911   1.156   5.482
 5181SOL    HW216443   6.794   1.059   5.421
 5182SOL     OW16444   2.105   6.539   2.097
 5182SOL    HW116445   2.159   6.567   2.018
 5182SOL    HW216446   2.165   6.505   2.169
 5183SOL     OW16447   4.944   2.272   3.480
 5183SOL    HW116448   4.913   2.201   3.417
 5183SOL    HW216449   4.865   2.321   3.516
 5184SOL     OW16450   2.449   1.770   2.688
 5184SOL    HW116451   2.456   1.791   2.591
 5184SOL    HW216452   2.536   1.790   2.733
 5185SOL     OW16453   6.482   6.939   1.910
 5185SOL    HW116454   6.418   7.013   1.889
 5185SOL    HW216455   6.442   6.878   1.978
 5186SOL     OW16456   6.167   2.319   6.793
 5186SOL    HW116457   6.188   2.405   6.840
 5186SOL    HW216458   6.244   2.292   6.736
 5187SOL     OW16459   1.399   4.908   5.212
 5187SOL    HW116460   1.438   4.900   5.304
 5187SOL    HW216461   1.461   4.962   5.155
 5188SOL     OW16462   0.125   0.221   1.286
 5188SOL    HW116463   0.080   0.132   1.295
 5188SOL    HW216464   0.137   0.243   1.189
 5189SOL     OW16465   5.067   6.042   6.682
 5189SOL    HW116466   5.039   6.120   6.739
 5189SOL    HW216467   5.027   6.052   6.591
 5190SOL     OW16468   1.760   4.716   0.524
 5190SOL    HW116469   1.776   4.790   0.588
 5190SOL    HW216470   1.662   4.692   0.524
 5191SOL     OW16471   2.602   4.057   1.529
 5191SOL    HW116472   2.632   4.067   1.434
 5191SOL    HW216473   2.667   4.000   1.579
 5192SOL     OW16474   0.556   4.637   3.318
 5192SOL    HW116475   0.466   4.643   3.362
 5192SOL    HW216476   0.617   4.583   3.376
 5193SOL     OW16477   4.190   0.823   5.150
 5193SOL    HW116478   4.169   0.770   5.067
 5193SOL    HW216479   4.106   0.864   5.185
 5194SOL     OW16480   4.485   1.497   5.137
 5194SOL    HW116481   4.410   1.448   5.093
 5194SOL    HW216482   4.458   1.592   5.153
 5195SOL     OW16483   1.391   0.955   5.831
 5195SOL    HW116484   1.368   0.950   5.928
 5195SOL    HW216485   1.484   0.922   5.817
 5196SOL     OW16486   5.827   6.500   3.351
 5196SOL    HW116487   5.816   6.404   3.376
 5196SOL    HW216488   5.740   6.548   3.362
 5197SOL     OW16489   1.614   3.502   4.569
 5197SOL    HW116490   1.575   3.594   4.572
 5197SOL    HW216491   1.679   3.495   4.494
 5198SOL     OW16492   6.149   5.328   3.483
 5198SOL    HW116493   6.107   5.360   3.568
 5198SOL    HW216494   6.144   5.228   3.479
 5199SOL     OW16495   0.228   4.877   1.125
 5199SOL    HW116496   0.308   4.883   1.064
 5199SOL    HW216497   0.246   4.928   1.209
 5200SOL     OW16498   6.554   3.745   5.215
 5200SOL    HW116499   6.474   3.759   5.158
 5200SOL    HW216500   6.599   3.833   5.233
 5201SOL     OW16501   1.203   6.351   4.662
 5201SOL    HW116502   1.270   6.290   4.619
 5201SOL    HW216503   1.112   6.333   4.624
 5202SOL     OW16504   6.738   4.642   1.532
 5202SOL    HW116505   6.644   4.645   1.566
 5202SOL    HW216506   6.747   4.701   1.452
 5203SOL     OW16507   6.142   3.073   0.022
 5203SOL    HW116508   6.069   3.095   6.978
 5203SOL    HW216509   6.230   3.103   7.006
 5204SOL     OW16510   5.429   5.421   6.123
 5204SOL    HW116511   5.453   5.502   6.176
 5204SOL    HW216512   5.392   5.351   6.184
 5205SOL     OW16513   2.830   6.359   0.230
 5205SOL    HW116514   2.867   6.419   0.301
 5205SOL    HW216515   2.905   6.321   0.177
 5206SOL     OW16516   0.082   4.683   4.822
 5206SOL    HW116517   0.119   4.674   4.915
 5206SOL    HW216518   0.155   4.707   4.759
 5207SOL     OW16519   1.509   4.706   2.637
 5207SOL    HW116520   1.506   4.607   2.625
 5207SOL    HW216521   1.465   4.751   2.559
 5208SOL     OW16522   5.188   1.674   0.421
 5208SOL    HW116523   5.223   1.613   0.350
 5208SOL    HW216524   5.215   1.639   0.511
 5209SOL     OW16525   5.666   5.161   3.137
 5209SOL    HW116526   5.752   5.114   3.119
 5209SOL    HW216527   5.681   5.236   3.201
 5210SOL     OW16528   4.836   3.881   2.840
 5210SOL    HW116529   4.751   3.920   2.804
 5210SOL    HW216530   4.845   3.907   2.937
 5211SOL     OW16531   2.946   3.844   2.324
 5211SOL    HW116532   2.998   3.918   2.281
 5211SOL    HW216533   2.862   3.881   2.364
 5212SOL     OW16534   0.875   0.078   6.508
 5212SOL    HW116535   0.836   0.159   6.463
 5212SOL    HW216536   0.960   0.104   6.553
 5213SOL     OW16537   4.240   2.208   6.112
 5213SOL    HW116538   4.190   2.290   6.083
 5213SOL    HW216539   4.311   2.187   6.044
 5214SOL     OW16540   4.365   2.015   0.204
 5214SOL    HW116541   4.386   2.073   0.125
 5214SOL    HW216542   4.409   2.052   0.285
 5215SOL     OW16543   5.869   5.164   3.623
 5215SOL    HW116544   5.804   5.092   3.647
 5215SOL    HW216545   5.820   5.248   3.599
 5216SOL     OW16546   4.450   5.823   1.593
 5216SOL    HW116547   4.369   5.812   1.536
 5216SOL    HW216548   4.511   5.745   1.581
 5217SOL     OW16549   2.714   5.077   3.402
 5217SOL    HW116550   2.659   5.135   3.462
 5217SOL    HW216551   2.760   5.007   3.457
 5218SOL     OW16552   1.652   0.368   4.131
 5218SOL    HW116553   1.737   0.365   4.078
 5218SOL    HW216554   1.672   0.346   4.226
 5219SOL     OW16555   2.679   0.492   1.022
 5219SOL    HW116556   2.779   0.486   1.022
 5219SOL    HW216557   2.646   0.493   0.928
 5220SOL     OW16558   1.154   6.722   1.947
 5220SOL    HW116559   1.149   6.776   2.032
 5220SOL    HW216560   1.066   6.726   1.900
 5221SOL     OW16561   4.218   1.054   0.017
 5221SOL    HW116562   4.245   1.141   6.996
 5221SOL    HW216563   4.259   0.978   6.988
 5222SOL     OW16564   0.775   6.492   2.625
 5222SOL    HW116565   0.830   6.421   2.669
 5222SOL    HW216566   0.680   6.485   2.655
 5223SOL     OW16567   4.568   6.671   0.920
 5223SOL    HW116568   4.544   6.612   0.842
 5223SOL    HW216569   4.649   6.725   0.897
 5224SOL     OW16570   5.629   1.219   3.625
 5224SOL    HW116571   5.530   1.216   3.609
 5224SOL    HW216572   5.676   1.168   3.554
 5225SOL     OW16573   0.041   6.962   5.498
 5225SOL    HW116574   0.129   7.007   5.512
 5225SOL    HW216575   7.011   6.960   5.584
 5226SOL     OW16576   2.566   6.984   4.128
 5226SOL    HW116577   2.518   7.006   4.042
 5226SOL    HW216578   2.525   0.015   4.203
 5227SOL     OW16579   5.247   3.669   3.978
 5227SOL    HW116580   5.172   3.733   3.963
 5227SOL    HW216581   5.334   3.718   3.975
 5228SOL     OW16582   5.380   0.928   1.481
 5228SOL    HW116583   5.437   0.966   1.554
 5228SOL    HW216584   5.301   0.882   1.522
 5229SOL     OW16585   1.299   4.544   3.396
 5229SOL    HW116586   1.360   4.472   3.428
 5229SOL    HW216587   1.291   4.540   3.296
 5230SOL     OW16588   1.380   0.760   6.311
 5230SOL    HW116589   1.395   0.728   6.404
 5230SOL    HW216590   1.377   0.682   6.249
 5231SOL     OW16591   3.159   3.106   3.247
 5231SOL    HW116592   3.224   3.180   3.232
 5231SOL    HW216593   3.143   3.058   3.161
 5232SOL     OW16594   5.400   2.870   4.999
 5232SOL    HW116595   5.460   2.836   5.071
 5232SOL    HW216596   5.438   2.845   4.910
 5233SOL     OW16597   1.053   0.198   3.128
 5233SOL    HW116598   1.033   0.282   3.078
 5233SOL    HW216599   1.025   0.208   3.223
 5234SOL     OW16600   4.016   5.305   1.479
 5234SOL    HW116601   3.951   5.243   1.434
 5234SOL    HW216602   4.026   5.278   1.575
 5235SOL     OW16603   0.876   3.375   1.546
 5235SOL    HW116604   0.936   3.402   1.471
 5235SOL    HW216605   0.845   3.281   1.532
 5236SOL     OW16606   6.376   3.458   0.267
 5236SOL    HW116607   6.438   3.416   0.333
 5236SOL    HW216608   6.414   3.450   0.175
 5237SOL     OW16609   2.062   1.384   3.216
 5237SOL    HW116610   2.060   1.434   3.130
 5237SOL    HW216611   1.989   1.417   3.276
 5238SOL     OW16612   1.902   3.459   1.098
 5238SOL    HW116613   1.905   3.553   1.065
 5238SOL    HW216614   1.833   3.408   1.047
 5239SOL     OW16615   3.048   3.396   4.799
 5239SOL    HW116616   3.144   3.389   4.773
 5239SOL    HW216617   2.994   3.421   4.719
 5240SOL     OW16618   3.453   1.968   4.767
 5240SOL    HW116619   3.458   2.040   4.836
 5240SOL    HW216620   3.358   1.954   4.738
 5241SOL     OW16621   2.770   5.475   5.581
 5241SOL    HW116622   2.739   5.529   5.660
 5241SOL    HW216623   2.744   5.379   5.594
 5242SOL     OW16624   4.570   0.130   5.309
 5242SOL    HW116625   4.576   0.225   5.337
 5242SOL    HW216626   4.657   0.084   5.326
 5243SOL     OW16627   0.489   4.294   0.320
 5243SOL    HW116628   0.519   4.273   0.227
 5243SOL    HW216629   0.509   4.390   0.341
 5244SOL     OW16630   5.708   3.319   6.682
 5244SOL    HW116631   5.656   3.260   6.743
 5244SOL    HW216632   5.646   3.386   6.640
 5245SOL     OW16633   4.741   5.012   6.332
 5245SOL    HW116634   4.758   4.943   6.262
 5245SOL    HW216635   4.756   4.972   6.423
 5246SOL     OW16636   1.383   3.883   3.083
 5246SOL    HW116637   1.325   3.818   3.035
 5246SOL    HW216638   1.328   3.961   3.114
 5247SOL     OW16639   0.032   4.766   0.275
 5247SOL    HW116640   0.003   4.699   0.343
 5247SOL    HW216641   7.008   4.854   0.294
 5248SOL     OW16642   5.073   1.045   0.333
 5248SOL    HW116643   5.014   1.030   0.254
 5248SOL    HW216644   5.169   1.028   0.308
 5249SOL     OW16645   1.444   5.818   6.812
 5249SOL    HW116646   1.514   5.880   6.776
 5249SOL    HW216647   1.371   5.808   6.745
 5250SOL     OW16648   1.077   1.494   5.731
 5250SOL    HW116649   0.999   1.450   5.687
 5250SOL    HW216650   1.114   1.564   5.670
 5251SOL     OW16651   0.525   3.147   0.954
 5251SOL    HW116652   0.525   3.190   0.864
 5251SOL    HW216653   0.594   3.074   0.956
 5252SOL     OW16654   5.181   6.754   1.164
 5252SOL    HW116655   5.187   6.849   1.196
 5252SOL    HW216656   5.133   6.699   1.233
 5253SOL     OW16657   5.989   2.793   3.799
 5253SOL    HW116658   5.904   2.843   3.781
 5253SOL    HW216659   5.968   2.697   3.820
 5254SOL     OW16660   5.381   0.276   4.377
 5254SOL    HW116661   5.338   0.200   4.425
 5254SOL    HW216662   5.325   0.358   4.388
 5255SOL     OW16663   2.611   5.781   3.985
 5255SOL    HW116664   2.523   5.780   3.938
 5255SOL    HW216665   2.685   5.790   3.918
 5256SOL     OW16666   4.947   6.608   1.796
 5256SOL    HW116667   4.922   6.701   1.820
 5256SOL    HW216668   4.954   6.553   1.880
 5257SOL     OW16669   3.010   1.534   3.359
 5257SOL    HW116670   3.029   1.491   3.270
 5257SOL    HW216671   3.037   1.472   3.432
 5258SOL     OW16672   6.109   1.936   2.220
 5258SOL    HW116673   6.013   1.931   2.193
 5258SOL    HW216674   6.147   1.843   2.225
 5259SOL     OW16675   5.578   4.561   1.361
 5259SOL    HW116676   5.625   4.522   1.282
 5259SOL    HW216677   5.512   4.495   1.395
 5260SOL     OW16678   5.024   2.835   1.677
 5260SOL    HW116679   4.982   2.787   1.755
 5260SOL    HW216680   4.974   2.920   1.659
 5261SOL     OW16681   2.636   2.431   4.968
 5261SOL    HW116682   2.629   2.467   4.875
 5261SOL    HW216683   2.597   2.496   5.032
 5262SOL     OW16684   1.582   0.209   1.720
 5262SOL    HW116685   1.620   0.264   1.646
 5262SOL    HW216686   1.597   0.256   1.807
 5263SOL     OW16687   1.058   6.825   6.697
 5263SOL    HW116688   1.077   6.729   6.676
 5263SOL    HW216689   0.970   6.832   6.744
 5264SOL     OW16690   1.028   1.489   1.101
 5264SOL    HW116691   1.058   1.568   1.155
 5264SOL    HW216692   0.942   1.453   1.138
 5265SOL     OW16693   5.390   4.846   3.848
 5265SOL    HW116694   5.422   4.753   3.831
 5265SOL    HW216695   5.464   4.901   3.887
 5266SOL     OW16696   1.493   7.000   1.364
 5266SOL    HW116697   1.555   0.002   1.439
 5266SOL    HW216698   1.400   6.987   1.400
 5267SOL     OW16699   4.294   3.833   5.350
 5267SOL    HW116700   4.385   3.791   5.346
 5267SOL    HW216701   4.226   3.769   5.315
 5268SOL     OW16702   5.200   5.219   5.809
 5268SOL    HW116703   5.217   5.311   5.774
 5268SOL    HW216704   5.202   5.154   5.734
 5269SOL     OW16705   1.704   4.659   5.985
 5269SOL    HW116706   1.700   4.687   6.081
 5269SOL    HW216707   1.726   4.562   5.980
 5270SOL     OW16708   6.922   2.567   3.450
 5270SOL    HW116709   6.855   2.531   3.385
 5270SOL    HW216710   6.972   2.491   3.492
 5271SOL     OW16711   5.433   3.718   5.694
 5271SOL    HW116712   5.387   3.667   5.767
 5271SOL    HW216713   5.516   3.670   5.668
 5272SOL     OW16714   2.231   1.312   3.648
 5272SOL    HW116715   2.218   1.216   3.620
 5272SOL    HW216716   2.168   1.370   3.597
 5273SOL     OW16717   6.785   0.364   5.101
 5273SOL    HW116718   6.836   0.307   5.166
 5273SOL    HW216719   6.694   0.383   5.137
 5274SOL     OW16720   0.659   5.695   4.797
 5274SOL    HW116721   0.643   5.757   4.874
 5274SOL    HW216722   0.571   5.663   4.762
 5275SOL     OW16723   1.882   6.598   6.567
 5275SOL    HW116724   1.866   6.644   6.654
 5275SOL    HW216725   1.912   6.665   6.499
 5276SOL     OW16726   0.340   6.872   0.486
 5276SOL    HW116727   0.348   6.794   0.548
 5276SOL    HW216728   0.304   6.951   0.536
 5277SOL     OW16729   0.412   0.872   2.386
 5277SOL    HW116730   0.350   0.821   2.327
 5277SOL    HW216731   0.413   0.831   2.477
 5278SOL     OW16732   0.718   3.615   5.985
 5278SOL    HW116733   0.634   3.665   6.009
 5278SOL    HW216734   0.798   3.669   6.010
 5279SOL     OW16735   3.236   6.701   7.017
 5279SOL    HW116736   3.170   6.762   6.974
 5279SOL    HW216737   3.307   6.755   0.042
 5280SOL     OW16738   4.695   6.605   5.134
 5280SOL    HW116739   4.689   6.598   5.233
 5280SOL    HW216740   4.790   6.592   5.105
 5281SOL     OW16741   2.899   6.693   4.894
 5281SOL    HW116742   2.893   6.791   4.915
 5281SOL    HW216743   2.957   6.648   4.962
 5282SOL     OW16744   0.335   6.416   0.220
 5282SOL    HW116745   0.388   6.442   0.139
 5282SOL    HW216746   0.393   6.423   0.301
 5283SOL     OW16747   1.302   0.843   3.926
 5283SOL    HW116748   1.335   0.835   3.832
 5283SOL    HW216749   1.356   0.912   3.974
 5284SOL     OW16750   4.953   3.169   2.008
 5284SOL    HW116751   4.966   3.159   1.909
 5284SOL    HW216752   4.884   3.104   2.039
 5285SOL     OW16753   1.401   2.306   4.091
 5285SOL    HW116754   1.419   2.223   4.143
 5285SOL    HW216755   1.320   2.352   4.130
 5286SOL     OW16756   6.527   2.871   1.392
 5286SOL    HW116757   6.594   2.889   1.320
 5286SOL    HW216758   6.435   2.881   1.356
 5287SOL     OW16759   1.080   5.360   1.986
 5287SOL    HW116760   1.063   5.265   1.962
 5287SOL    HW216761   1.009   5.418   1.946
 5288SOL     OW16762   4.184   0.715   1.649
 5288SOL    HW116763   4.120   0.784   1.616
 5288SOL    HW216764   4.162   0.692   1.744
 5289SOL     OW16765   2.858   4.790   5.843
 5289SOL    HW116766   2.795   4.763   5.917
 5289SOL    HW216767   2.824   4.753   5.757
 5290SOL     OW16768   1.937   2.777   4.678
 5290SOL    HW116769   1.975   2.702   4.624
 5290SOL    HW216770   2.003   2.806   4.746
 5291SOL     OW16771   3.270   4.891   4.563
 5291SOL    HW116772   3.224   4.932   4.642
 5291SOL    HW216773   3.203   4.872   4.492
 5292SOL     OW16774   0.333   4.074   4.817
 5292SOL    HW116775   0.384   4.160   4.814
 5292SOL    HW216776   0.243   4.087   4.774
 5293SOL     OW16777   2.531   0.529   4.340
 5293SOL    HW116778   2.522   0.508   4.243
 5293SOL    HW216779   2.487   0.457   4.394
 5294SOL     OW16780   5.171   6.564   4.695
 5294SOL    HW116781   5.239   6.630   4.726
 5294SOL    HW216782   5.088   6.573   4.751
 5295SOL     OW16783   2.170   0.750   1.925
 5295SOL    HW116784   2.193   0.779   2.018
 5295SOL    HW216785   2.080   0.706   1.925
 5296SOL     OW16786   4.776   4.723   2.026
 5296SOL    HW116787   4.750   4.819   2.024
 5296SOL    HW216788   4.872   4.715   2.054
 5297SOL     OW16789   2.740   5.414   6.327
 5297SOL    HW116790   2.798   5.414   6.408
 5297SOL    HW216791   2.713   5.508   6.305
 5298SOL     OW16792   2.429   2.327   0.531
 5298SOL    HW116793   2.346   2.271   0.534
 5298SOL    HW216794   2.506   2.270   0.503
 5299SOL     OW16795   2.476   0.776   1.594
 5299SOL    HW116796   2.529   0.695   1.569
 5299SOL    HW216797   2.476   0.841   1.518
 5300SOL     OW16798   3.334   4.943   6.837
 5300SOL    HW116799   3.321   5.038   6.864
 5300SOL    HW216800   3.250   4.891   6.855
 5301SOL     OW16801   5.545   0.097   6.187
 5301SOL    HW116802   5.505   0.162   6.123
 5301SOL    HW216803   5.521   0.124   6.281
 5302SOL     OW16804   4.968   6.010   2.746
 5302SOL    HW116805   5.049   5.952   2.740
 5302SOL    HW216806   4.939   6.018   2.841
 5303SOL     OW16807   1.498   5.524   5.480
 5303SOL    HW116808   1.564   5.558   5.414
 5303SOL    HW216809   1.546   5.492   5.562
 5304SOL     OW16810   0.270   0.860   3.228
 5304SOL    HW116811   0.370   0.860   3.223
 5304SOL    HW216812   0.232   0.821   3.145
 5305SOL     OW16813   7.015   5.507   4.616
 5305SOL    HW116814   0.074   5.533   4.562
 5305SOL    HW216815   0.020   5.438   4.683
 5306SOL     OW16816   0.829   1.937   5.812
 5306SOL    HW116817   0.766   1.997   5.859
 5306SOL    HW216818   0.912   1.925   5.867
 5307SOL     OW16819   0.096   1.222   1.455
 5307SOL    HW116820   0.078   1.314   1.491
 5307SOL    HW216821   0.096   1.225   1.355
 5308SOL     OW16822   1.753   3.984   2.589
 5308SOL    HW116823   1.804   3.975   2.503
 5308SOL    HW216824   1.766   4.076   2.626
 5309SOL     OW16825   5.714   5.671   3.289
 5309SOL    HW116826   5.779   5.671   3.365
 5309SOL    HW216827   5.640   5.735   3.309
 5310SOL     OW16828   6.351   2.576   3.486
 5310SOL    HW116829   6.439   2.617   3.464
 5310SOL    HW216830   6.302   2.634   3.550
 5311SOL     OW16831   6.122   0.213   0.048
 5311SOL    HW116832   6.069   0.283   7.021
 5311SOL    HW216833   6.082   0.198   0.138
 5312SOL     OW16834   6.133   6.267   0.183
 5312SOL    HW116835   6.134   6.348   0.243
 5312SOL    HW216836   6.100   6.188   0.235
 5313SOL     OW16837   0.915   6.938   5.868
 5313SOL    HW116838   0.936   7.015   5.928
 5313SOL    HW216839   0.932   6.963   5.773
 5314SOL     OW16840   5.884   1.414   1.978
 5314SOL    HW116841   5.843   1.505   1.967
 5314SOL    HW216842   5.978   1.416   1.943
 5315SOL     OW16843   4.495   2.242   3.615
 5315SOL    HW116844   4.487   2.148   3.648
 5315SOL    HW216845   4.556   2.294   3.675
 5316SOL     OW16846   0.489   2.454   4.760
 5316SOL    HW116847   0.405   2.400   4.752
 5316SOL    HW216848   0.560   2.397   4.801
 5317SOL     OW16849   5.666   2.647   6.711
 5317SOL    HW116850   5.757   2.606   6.704
 5317SOL    HW216851   5.607   2.609   6.640
 5318SOL     OW16852   0.113   3.977   6.337
 5318SOL    HW116853   0.183   4.042   6.367
 5318SOL    HW216854   0.026   3.999   6.383
 5319SOL     OW16855   3.834   5.972   2.290
 5319SOL    HW116856   3.816   6.066   2.262
 5319SOL    HW216857   3.757   5.939   2.345
 5320SOL     OW16858   4.118   5.903   0.989
 5320SOL    HW116859   4.127   5.805   1.007
 5320SOL    HW216860   4.024   5.931   1.009
 5321SOL     OW16861   1.384   4.495   5.342
 5321SOL    HW116862   1.481   4.518   5.339
 5321SOL    HW216863   1.373   4.402   5.377
 5322SOL     OW16864   4.197   6.986   2.087
 5322SOL    HW116865   4.128   6.914   2.085
 5322SOL    HW216866   4.208   0.004   1.996
 5323SOL     OW16867   4.144   0.620   6.251
 5323SOL    HW116868   4.090   0.545   6.288
 5323SOL    HW216869   4.162   0.603   6.154
 5324SOL     OW16870   1.643   2.254   1.342
 5324SOL    HW116871   1.593   2.167   1.336
 5324SOL    HW216872   1.696   2.256   1.427
 5325SOL     OW16873   2.062   2.608   4.960
 5325SOL    HW116874   2.085   2.557   4.877
 5325SOL    HW216875   2.080   2.550   5.040
 5326SOL     OW16876   6.428   0.090   1.346
 5326SOL    HW116877   6.476   0.131   1.424
 5326SOL    HW216878   6.340   0.134   1.334
 5327SOL     OW16879   0.075   2.478   5.630
 5327SOL    HW116880   0.015   2.399   5.616
 5327SOL    HW216881   0.041   2.556   5.578
 5328SOL     OW16882   4.992   5.378   0.333
 5328SOL    HW116883   5.059   5.392   0.405
 5328SOL    HW216884   5.015   5.297   0.280
 5329SOL     OW16885   2.106   6.902   6.175
 5329SOL    HW116886   2.142   6.993   6.197
 5329SOL    HW216887   2.075   6.900   6.080
 5330SOL     OW16888   2.428   4.771   1.434
 5330SOL    HW116889   2.480   4.716   1.500
 5330SOL    HW216890   2.368   4.833   1.483
 5331SOL     OW16891   6.462   0.961   6.418
 5331SOL    HW116892   6.493   1.037   6.361
 5331SOL    HW216893   6.541   0.907   6.448
 5332SOL     OW16894   7.003   5.111   1.826
 5332SOL    HW116895   6.989   5.181   1.896
 5332SOL    HW216896   0.080   5.100   1.809
 5333SOL     OW16897   1.062   5.995   4.680
 5333SOL    HW116898   1.094   5.912   4.726
 5333SOL    HW216899   1.133   6.029   4.618
 5334SOL     OW16900   3.777   0.528   4.684
 5334SOL    HW116901   3.719   0.606   4.707
 5334SOL    HW216902   3.758   0.499   4.590
 5335SOL     OW16903   0.303   5.496   0.034
 5335SOL    HW116904   0.318   5.563   6.981
 5335SOL    HW216905   0.213   5.512   0.075
 5336SOL     OW16906   1.163   4.371   1.209
 5336SOL    HW116907   1.255   4.369   1.168
 5336SOL    HW216908   1.116   4.285   1.188
 5337SOL     OW16909   5.445   3.758   1.411
 5337SOL    HW116910   5.388   3.681   1.441
 5337SOL    HW216911   5.521   3.770   1.475
 5338SOL     OW16912   5.942   1.912   0.288
 5338SOL    HW116913   5.900   2.001   0.309
 5338SOL    HW216914   5.871   1.841   0.290
 5339SOL     OW16915   6.761   0.295   1.794
 5339SOL    HW116916   6.818   0.346   1.859
 5339SOL    HW216917   6.792   0.312   1.701
 5340SOL     OW16918   5.598   2.267   6.103
 5340SOL    HW116919   5.603   2.305   6.196
 5340SOL    HW216920   5.624   2.336   6.037
 5341SOL     OW16921   4.298   0.471   0.838
 5341SOL    HW116922   4.339   0.454   0.928
 5341SOL    HW216923   4.320   0.564   0.808
 5342SOL     OW16924   2.430   1.026   6.266
 5342SOL    HW116925   2.496   1.020   6.191
 5342SOL    HW216926   2.389   1.118   6.268
 5343SOL     OW16927   3.804   3.789   1.942
 5343SOL    HW116928   3.783   3.789   2.040
 5343SOL    HW216929   3.722   3.813   1.890
 5344SOL     OW16930   2.008   2.543   2.565
 5344SOL    HW116931   2.010   2.622   2.627
 5344SOL    HW216932   1.985   2.461   2.617
 5345SOL     OW16933   5.126   0.231   2.596
 5345SOL    HW116934   5.101   0.279   2.680
 5345SOL    HW216935   5.045   0.218   2.539
 5346SOL     OW16936   2.563   6.761   3.373
 5346SOL    HW116937   2.568   6.672   3.328
 5346SOL    HW216938   2.573   6.833   3.304
 5347SOL     OW16939   6.982   1.741   1.990
 5347SOL    HW116940   0.052   1.759   1.953
 5347SOL    HW216941   6.914   1.758   1.919
 5348SOL     OW16942   0.047   0.746   0.694
 5348SOL    HW116943   6.986   0.800   0.679
 5348SOL    HW216944   0.031   0.682   0.769
 5349SOL     OW16945   6.236   0.266   1.350
 5349SOL    HW116946   6.315   0.327   1.359
 5349SOL    HW216947   6.158   0.318   1.314
 5350SOL     OW16948   2.707   0.507   0.243
 5350SOL    HW116949   2.615   0.491   0.208
 5350SOL    HW216950   2.705   0.581   0.310
 5351SOL     OW16951   4.014   0.485   1.669
 5351SOL    HW116952   3.932   0.535   1.642
 5351SOL    HW216953   4.040   0.512   1.762
 5352SOL     OW16954   3.395   6.324   3.485
 5352SOL    HW116955   3.418   6.227   3.485
 5352SOL    HW216956   3.298   6.336   3.508
 5353SOL     OW16957   5.741   0.425   5.711
 5353SOL    HW116958   5.804   0.385   5.778
 5353SOL    HW216959   5.648   0.421   5.745
 5354SOL     OW16960   1.207   3.637   1.440
 5354SOL    HW116961   1.303   3.663   1.428
 5354SOL    HW216962   1.177   3.665   1.531
 5355SOL     OW16963   4.074   1.646   5.077
 5355SOL    HW116964   4.091   1.741   5.054
 5355SOL    HW216965   4.148   1.611   5.136
 5356SOL     OW16966   5.670   3.340   0.376
 5356SOL    HW116967   5.760   3.298   0.380
 5356SOL    HW216968   5.603   3.281   0.420
 5357SOL     OW16969   3.744   6.273   0.674
 5357SOL    HW116970   3.803   6.196   0.698
 5357SOL    HW216971   3.648   6.244   0.678
 5358SOL     OW16972   4.987   3.631   1.584
 5358SOL    HW116973   4.963   3.535   1.568
 5358SOL    HW216974   4.904   3.687   1.583
 5359SOL     OW16975   3.013   6.951   0.148
 5359SOL    HW116976   2.927   6.906   0.172
 5359SOL    HW216977   3.068   6.964   0.231
 5360SOL     OW16978   4.205   0.328   6.911
 5360SOL    HW116979   4.201   0.427   6.926
 5360SOL    HW216980   4.128   0.284   6.958
 5361SOL     OW16981   1.637   0.697   6.101
 5361SOL    HW116982   1.657   0.679   6.005
 5361SOL    HW216983   1.568   0.632   6.134
 5362SOL     OW16984   3.616   5.567   3.659
 5362SOL    HW116985   3.594   5.472   3.679
 5362SOL    HW216986   3.597   5.624   3.739
 5363SOL     OW16987   0.619   5.394   4.842
 5363SOL    HW116988   0.524   5.369   4.827
 5363SOL    HW216989   0.624   5.474   4.902
 5364SOL     OW16990   1.077   6.282   6.512
 5364SOL    HW116991   0.980   6.270   6.489
 5364SOL    HW216992   1.101   6.219   6.586
 5365SOL     OW16993   3.621   1.676   6.320
 5365SOL    HW116994   3.537   1.628   6.344
 5365SOL    HW216995   3.659   1.720   6.401
 5366SOL     OW16996   3.448   4.395   6.528
 5366SOL    HW116997   3.444   4.388   6.628
 5366SOL    HW216998   3.413   4.485   6.500
 5367SOL     OW16999   0.311   4.669   0.620
 5367SOL    HW117000   0.259   4.742   0.576
 5367SOL    HW217001   0.401   4.703   0.646
 5368SOL     OW17002   6.795   0.840   3.918
 5368SOL    HW117003   6.849   0.820   3.836
 5368SOL    HW217004   6.706   0.794   3.911
 5369SOL     OW17005   1.765   3.669   2.598
 5369SOL    HW117006   1.722   3.604   2.660
 5369SOL    HW217007   1.806   3.744   2.650
 5370SOL     OW17008   3.973   2.798   1.266
 5370SOL    HW117009   4.003   2.889   1.294
 5370SOL    HW217010   3.985   2.734   1.342
 5371SOL     OW17011   1.649   4.030   4.893
 5371SOL    HW117012   1.654   4.079   4.805
 5371SOL    HW217013   1.742   4.017   4.929
 5372SOL     OW17014   2.568   5.970   3.259
 5372SOL    HW117015   2.526   6.032   3.193
 5372SOL    HW217016   2.665   5.994   3.271
 5373SOL     OW17017   2.077   4.867   4.265
 5373SOL    HW117018   2.063   4.957   4.307
 5373SOL    HW217019   2.172   4.839   4.277
 5374SOL     OW17020   3.047   2.766   0.481
 5374SOL    HW117021   3.137   2.773   0.524
 5374SOL    HW217022   3.018   2.670   0.480
 5375SOL     OW17023   1.276   3.705   4.930
 5375SOL    HW117024   1.339   3.742   4.862
 5375SOL    HW217025   1.190   3.756   4.926
 5376SOL     OW17026   3.054   4.006   6.700
 5376SOL    HW117027   3.090   3.939   6.635
 5376SOL    HW217028   3.128   4.067   6.728
 5377SOL     OW17029   0.840   1.704   1.652
 5377SOL    HW117030   0.914   1.643   1.680
 5377SOL    HW217031   0.801   1.748   1.733
 5378SOL     OW17032   5.138   6.748   0.348
 5378SOL    HW117033   5.153   6.846   0.336
 5378SOL    HW217034   5.144   6.725   0.446
 5379SOL     OW17035   0.105   6.637   0.947
 5379SOL    HW117036   0.083   6.558   1.005
 5379SOL    HW217037   0.034   6.707   0.957
 5380SOL     OW17038   2.620   1.150   4.097
 5380SOL    HW117039   2.621   1.050   4.089
 5380SOL    HW217040   2.531   1.179   4.134
 5381SOL     OW17041   5.677   3.732   1.560
 5381SOL    HW117042   5.751   3.777   1.609
 5381SOL    HW217043   5.711   3.650   1.513
 5382SOL     OW17044   1.811   0.296   1.877
 5382SOL    HW117045   1.829   0.211   1.829
 5382SOL    HW217046   1.860   0.371   1.832
 5383SOL     OW17047   1.920   2.376   4.796
 5383SOL    HW117048   1.899   2.334   4.884
 5383SOL    HW217049   2.018   2.369   4.778
 5384SOL     OW17050   5.461   6.758   4.523
 5384SOL    HW117051   5.547   6.784   4.480
 5384SOL    HW217052   5.476   6.678   4.583
 5385SOL     OW17053   3.170   3.977   2.986
 5385SOL    HW117054   3.232   4.052   3.011
 5385SOL    HW217055   3.122   3.945   3.067
 5386SOL     OW17056   5.607   0.105   5.630
 5386SOL    HW117057   5.694   0.073   5.668
 5386SOL    HW217058   5.553   0.148   5.702
 5387SOL     OW17059   3.274   5.092   1.410
 5387SOL    HW117060   3.321   5.118   1.325
 5387SOL    HW217061   3.201   5.027   1.389
 5388SOL     OW17062   6.132   6.286   3.046
 5388SOL    HW117063   6.218   6.263   3.001
 5388SOL    HW217064   6.056   6.269   2.984
 5389SOL     OW17065   5.468   2.366   1.113
 5389SOL    HW117066   5.400   2.343   1.044
 5389SOL    HW217067   5.495   2.283   1.162
 5390SOL     OW17068   6.242   4.814   6.089
 5390SOL    HW117069   6.309   4.809   6.163
 5390SOL    HW217070   6.182   4.734   6.093
 5391SOL     OW17071   2.996   3.232   6.888
 5391SOL    HW117072   3.003   3.195   6.795
 5391SOL    HW217073   3.087   3.229   6.931
 5392SOL     OW17074   6.458   2.824   2.655
 5392SOL    HW117075   6.380   2.815   2.718
 5392SOL    HW217076   6.488   2.733   2.626
 5393SOL     OW17077   6.437   6.487   6.291
 5393SOL    HW117078   6.392   6.567   6.331
 5393SOL    HW217079   6.385   6.404   6.315
 5394SOL     OW17080   1.995   4.028   5.418
 5394SOL    HW117081   2.054   4.012   5.339
 5394SOL    HW217082   1.941   4.110   5.403
 5395SOL     OW17083   4.517   0.826   0.997
 5395SOL    HW117084   4.617   0.818   0.996
 5395SOL    HW217085   4.479   0.753   1.054
 5396SOL     OW17086   4.704   2.557   2.041
 5396SOL    HW117087   4.782   2.614   2.015
 5396SOL    HW217088   4.678   2.578   2.136
 5397SOL     OW17089   0.847   2.688   1.582
 5397SOL    HW117090   0.917   2.759   1.591
 5397SOL    HW217091   0.891   2.599   1.576
 5398SOL     OW17092   3.260   3.230   2.191
 5398SOL    HW117093   3.296   3.166   2.259
 5398SOL    HW217094   3.198   3.181   2.129
 5399SOL     OW17095   0.742   5.401   6.892
 5399SOL    HW117096   0.767   5.478   6.950
 5399SOL    HW217097   0.687   5.336   6.944
 5400SOL     OW17098   2.298   3.806   6.831
 5400SOL    HW117099   2.350   3.721   6.837
 5400SOL    HW217100   2.200   3.786   6.827
 5401SOL     OW17101   6.349   1.926   1.187
 5401SOL    HW117102   6.251   1.935   1.171
 5401SOL    HW217103   6.399   1.986   1.124
 5402SOL     OW17104   1.381   5.813   2.765
 5402SOL    HW117105   1.355   5.726   2.806
 5402SOL    HW217106   1.480   5.826   2.771
 5403SOL     OW17107   6.226   3.406   6.758
 5403SOL    HW117108   6.296   3.379   6.692
 5403SOL    HW217109   6.140   3.425   6.711
 5404SOL     OW17110   1.257   3.066   3.169
 5404SOL    HW117111   1.245   2.972   3.136
 5404SOL    HW217112   1.354   3.082   3.188
 5405SOL     OW17113   0.185   3.832   5.372
 5405SOL    HW117114   0.115   3.772   5.411
 5405SOL    HW217115   0.228   3.787   5.294
 5406SOL     OW17116   1.433   0.378   4.338
 5406SOL    HW117117   1.475   0.351   4.424
 5406SOL    HW217118   1.498   0.367   4.263
 5407SOL     OW17119   4.280   3.218   6.981
 5407SOL    HW117120   4.198   3.275   6.974
 5407SOL    HW217121   4.265   3.145   0.027
 5408SOL     OW17122   3.764   1.154   0.091
 5408SOL    HW117123   3.858   1.148   0.126
 5408SOL    HW217124   3.732   1.248   0.100
 5409SOL     OW17125   4.165   0.645   2.653
 5409SOL    HW117126   4.092   0.576   2.664
 5409SOL    HW217127   4.198   0.644   2.559
 5410SOL     OW17128   1.459   2.497   3.137
 5410SOL    HW117129   1.556   2.482   3.119
 5410SOL    HW217130   1.404   2.450   3.068
 5411SOL     OW17131   1.817   4.813   4.645
 5411SOL    HW117132   1.900   4.864   4.669
 5411SOL    HW217133   1.749   4.824   4.717
 5412SOL     OW17134   6.441   2.041   2.312
 5412SOL    HW117135   6.382   2.065   2.389
 5412SOL    HW217136   6.418   2.097   2.233
 5413SOL     OW17137   2.288   6.863   2.505
 5413SOL    HW117138   2.277   6.835   2.600
 5413SOL    HW217139   2.209   6.918   2.477
 5414SOL     OW17140   4.402   0.714   5.275
 5414SOL    HW117141   4.386   0.681   5.368
 5414SOL    HW217142   4.323   0.766   5.244
 5415SOL     OW17143   6.308   3.990   2.513
 5415SOL    HW117144   6.319   3.966   2.609
 5415SOL    HW217145   6.363   3.927   2.457
 5416SOL     OW17146   4.248   5.494   4.426
 5416SOL    HW117147   4.318   5.503   4.355
 5416SOL    HW217148   4.218   5.399   4.432
 5417SOL     OW17149   3.119   6.883   5.974
 5417SOL    HW117150   3.020   6.878   5.979
 5417SOL    HW217151   3.147   6.946   5.902
 5418SOL     OW17152   4.031   0.873   3.469
 5418SOL    HW117153   4.105   0.811   3.497
 5418SOL    HW217154   3.946   0.846   3.515
 5419SOL     OW17155   3.485   4.243   0.094
 5419SOL    HW117156   3.580   4.249   0.065
 5419SOL    HW217157   3.445   4.157   0.063
 5420SOL     OW17158   0.753   2.628   2.685
 5420SOL    HW117159   0.660   2.636   2.721
 5420SOL    HW217160   0.816   2.679   2.744
 5421SOL     OW17161   1.313   2.756   0.937
 5421SOL    HW117162   1.321   2.745   0.838
 5421SOL    HW217163   1.390   2.712   0.982
 5422SOL     OW17164   1.187   3.859   0.070
 5422SOL    HW117165   1.217   3.952   0.091
 5422SOL    HW217166   1.217   3.797   0.142
 5423SOL     OW17167   5.444   3.193   5.912
 5423SOL    HW117168   5.533   3.148   5.912
 5423SOL    HW217169   5.434   3.246   5.996
 5424SOL     OW17170   5.507   3.691   5.287
 5424SOL    HW117171   5.591   3.689   5.341
 5424SOL    HW217172   5.459   3.777   5.302
 5425SOL     OW17173   5.206   0.410   4.779
 5425SOL    HW117174   5.231   0.319   4.812
 5425SOL    HW217175   5.160   0.401   4.691
 5426SOL     OW17176   0.229   6.692   4.579
 5426SOL    HW117177   0.190   6.635   4.652
 5426SOL    HW217178   0.309   6.740   4.614
 5427SOL     OW17179   4.223   6.661   6.904
 5427SOL    HW117180   4.134   6.639   6.863
 5427SOL    HW217181   4.209   6.720   6.984
 5428SOL     OW17182   2.258   0.773   6.901
 5428SOL    HW117183   2.208   0.838   6.958
 5428SOL    HW217184   2.302   0.822   6.826
 5429SOL     OW17185   1.208   1.903   6.059
 5429SOL    HW117186   1.117   1.867   6.040
 5429SOL    HW217187   1.273   1.869   5.990
 5430SOL     OW17188   2.118   2.172   5.188
 5430SOL    HW117189   2.100   2.080   5.156
 5430SOL    HW217190   2.215   2.182   5.210
 5431SOL     OW17191   3.645   5.901   4.377
 5431SOL    HW117192   3.691   5.862   4.298
 5431SOL    HW217193   3.551   5.926   4.352
 5432SOL     OW17194   5.366   5.711   1.432
 5432SOL    HW117195   5.352   5.700   1.531
 5432SOL    HW217196   5.363   5.621   1.388
 5433SOL     OW17197   0.236   1.948   4.097
 5433SOL    HW117198   0.167   2.006   4.054
 5433SOL    HW217199   0.326   1.965   4.055
 5434SOL     OW17200   2.581   6.949   5.322
 5434SOL    HW117201   2.543   6.970   5.232
 5434SOL    HW217202   2.527   6.877   5.365
 5435SOL     OW17203   4.824   1.326   2.150
 5435SOL    HW117204   4.891   1.260   2.116
 5435SOL    HW217205   4.733   1.285   2.150
 5436SOL     OW17206   4.881   3.891   2.415
 5436SOL    HW117207   4.841   3.957   2.479
 5436SOL    HW217208   4.899   3.936   2.327
 5437SOL     OW17209   3.384   4.387   6.897
 5437SOL    HW117210   3.435   4.468   6.868
 5437SOL    HW217211   3.425   4.349   6.979
 5438SOL     OW17212   6.733   0.990   1.136
 5438SOL    HW117213   6.823   1.029   1.154
 5438SOL    HW217214   6.695   0.953   1.221
 5439SOL     OW17215   1.173   2.981   1.374
 5439SOL    HW117216   1.138   2.945   1.288
 5439SOL    HW217217   1.201   3.077   1.362
 5440SOL     OW17218   1.338   1.052   1.012
 5440SOL    HW117219   1.318   1.149   1.017
 5440SOL    HW217220   1.416   1.037   0.952
 5441SOL     OW17221   3.749   2.082   3.998
 5441SOL    HW117222   3.685   2.090   3.921
 5441SOL    HW217223   3.704   2.113   4.082
 5442SOL     OW17224   3.179   0.617   2.259
 5442SOL    HW117225   3.228   0.530   2.270
 5442SOL    HW217226   3.099   0.618   2.320
 5443SOL     OW17227   2.837   6.915   5.970
 5443SOL    HW117228   2.791   6.836   6.011
 5443SOL    HW217229   2.804   6.999   6.015
 5444SOL     OW17230   0.325   0.587   3.492
 5444SOL    HW117231   0.330   0.493   3.525
 5444SOL    HW217232   0.364   0.593   3.400
 5445SOL     OW17233   5.868   3.479   1.899
 5445SOL    HW117234   5.815   3.395   1.902
 5445SOL    HW217235   5.932   3.481   1.976
 5446SOL     OW17236   6.895   5.654   6.043
 5446SOL    HW117237   6.846   5.739   6.063
 5446SOL    HW217238   6.915   5.606   6.128
 5447SOL     OW17239   2.837   2.254   0.899
 5447SOL    HW117240   2.795   2.294   0.981
 5447SOL    HW217241   2.877   2.326   0.843
 5448SOL     OW17242   5.590   1.807   6.271
 5448SOL    HW117243   5.529   1.754   6.212
 5448SOL    HW217244   5.615   1.892   6.224
 5449SOL     OW17245   0.055   2.939   6.571
 5449SOL    HW117246   6.990   2.964   6.526
 5449SOL    HW217247   0.081   3.010   6.636
 5450SOL     OW17248   2.254   6.138   0.924
 5450SOL    HW117249   2.184   6.115   0.992
 5450SOL    HW217250   2.316   6.060   0.912
 5451SOL     OW17251   1.692   0.207   2.828
 5451SOL    HW117252   1.678   0.266   2.748
 5451SOL    HW217253   1.605   0.190   2.873
 5452SOL     OW17254   2.576   3.663   5.386
 5452SOL    HW117255   2.655   3.715   5.353
 5452SOL    HW217256   2.492   3.706   5.352
 5453SOL     OW17257   0.271   5.019   6.233
 5453SOL    HW117258   0.339   4.956   6.196
 5453SOL    HW217259   0.205   4.969   6.288
 5454SOL     OW17260   0.348   4.093   5.108
 5454SOL    HW117261   0.259   4.102   5.154
 5454SOL    HW217262   0.334   4.063   5.014
 5455SOL     OW17263   0.018   2.781   0.532
 5455SOL    HW117264   0.059   2.691   0.513
 5455SOL    HW217265   6.961   2.795   0.471
 5456SOL     OW17266   3.191   6.662   1.809
 5456SOL    HW117267   3.206   6.748   1.760
 5456SOL    HW217268   3.208   6.585   1.747
 5457SOL     OW17269   6.627   3.817   0.230
 5457SOL    HW117270   6.547   3.780   0.278
 5457SOL    HW217271   6.696   3.846   0.298
 5458SOL     OW17272   2.013   4.484   6.105
 5458SOL    HW117273   2.057   4.474   6.194
 5458SOL    HW217274   2.070   4.443   6.034
 5459SOL     OW17275   2.325   4.720   6.027
 5459SOL    HW117276   2.394   4.774   6.075
 5459SOL    HW217277   2.366   4.635   5.993
 5460SOL     OW17278   4.011   7.004   3.253
 5460SOL    HW117279   3.957   6.923   3.274
 5460SOL    HW217280   3.971   0.031   3.175
 5461SOL     OW17281   4.611   6.431   4.776
 5461SOL    HW117282   4.684   6.368   4.800
 5461SOL    HW217283   4.537   6.381   4.730
 5462SOL     OW17284   0.908   0.663   1.487
 5462SOL    HW117285   0.885   0.602   1.563
 5462SOL    HW217286   0.865   0.629   1.403
 5463SOL     OW17287   6.925   3.568   0.838
 5463SOL    HW117288   6.931   3.570   0.938
 5463SOL    HW217289   6.919   3.473   0.807
 5464SOL     OW17290   2.032   6.566   4.394
 5464SOL    HW117291   2.083   6.496   4.343
 5464SOL    HW217292   2.055   6.559   4.492
 5465SOL     OW17293   2.340   5.960   6.613
 5465SOL    HW117294   2.387   5.962   6.525
 5465SOL    HW217295   2.406   5.936   6.685
 5466SOL     OW17296   5.121   4.900   4.784
 5466SOL    HW117297   5.183   4.966   4.827
 5466SOL    HW217298   5.103   4.825   4.848
 5467SOL     OW17299   5.298   1.562   2.279
 5467SOL    HW117300   5.360   1.484   2.267
 5467SOL    HW217301   5.219   1.552   2.218
 5468SOL     OW17302   4.365   1.658   5.655
 5468SOL    HW117303   4.333   1.744   5.614
 5468SOL    HW217304   4.289   1.610   5.697
 5469SOL     OW17305   4.735   4.258   1.217
 5469SOL    HW117306   4.700   4.176   1.173
 5469SOL    HW217307   4.735   4.334   1.153
 5470SOL     OW17308   0.355   5.392   3.342
 5470SOL    HW117309   0.351   5.320   3.412
 5470SOL    HW217310   0.336   5.352   3.253
 5471SOL     OW17311   6.189   4.778   2.223
 5471SOL    HW117312   6.245   4.704   2.187
 5471SOL    HW217313   6.199   4.782   2.323
 5472SOL     OW17314   3.658   5.420   5.599
 5472SOL    HW117315   3.689   5.325   5.601
 5472SOL    HW217316   3.622   5.445   5.690
 5473SOL     OW17317   1.441   4.341   3.546
 5473SOL    HW117318   1.366   4.296   3.594
 5473SOL    HW217319   1.512   4.273   3.525
 5474SOL     OW17320   1.140   6.233   3.586
 5474SOL    HW117321   1.161   6.328   3.608
 5474SOL    HW217322   1.098   6.229   3.495
 5475SOL     OW17323   3.136   2.859   1.546
 5475SOL    HW117324   3.172   2.950   1.527
 5475SOL    HW217325   3.140   2.841   1.644
 5476SOL     OW17326   1.899   3.097   6.862
 5476SOL    HW117327   1.971   3.052   6.914
 5476SOL    HW217328   1.895   3.057   6.770
 5477SOL     OW17329   1.750   2.692   2.201
 5477SOL    HW117330   1.728   2.722   2.108
 5477SOL    HW217331   1.847   2.670   2.207
 5478SOL     OW17332   0.260   5.831   6.067
 5478SOL    HW117333   0.205   5.894   6.121
 5478SOL    HW217334   0.209   5.746   6.052
 5479SOL     OW17335   4.749   6.915   4.947
 5479SOL    HW117336   4.701   6.832   4.974
 5479SOL    HW217337   4.685   6.992   4.944
 5480SOL     OW17338   1.115   2.626   5.395
 5480SOL    HW117339   1.137   2.722   5.416
 5480SOL    HW217340   1.024   2.604   5.432
 5481SOL     OW17341   4.732   6.454   3.672
 5481SOL    HW117342   4.726   6.475   3.574
 5481SOL    HW217343   4.757   6.536   3.722
 5482SOL     OW17344   1.944   5.288   2.247
 5482SOL    HW117345   2.032   5.312   2.288
 5482SOL    HW217346   1.955   5.273   2.149
 5483SOL     OW17347   0.516   2.509   5.996
 5483SOL    HW117348   0.465   2.575   6.051
 5483SOL    HW217349   0.456   2.433   5.970
 5484SOL     OW17350   5.080   0.136   4.428
 5484SOL    HW117351   5.141   0.074   4.477
 5484SOL    HW217352   5.029   0.084   4.359
 5485SOL     OW17353   3.821   0.472   4.961
 5485SOL    HW117354   3.827   0.487   4.862
 5485SOL    HW217355   3.798   0.377   4.979
 5486SOL     OW17356   3.028   4.982   3.762
 5486SOL    HW117357   3.003   4.937   3.676
 5486SOL    HW217358   3.001   4.924   3.839
 5487SOL     OW17359   2.979   5.318   5.799
 5487SOL    HW117360   3.032   5.245   5.843
 5487SOL    HW217361   3.015   5.332   5.706
 5488SOL     OW17362   4.845   1.616   6.846
 5488SOL    HW117363   4.912   1.613   6.772
 5488SOL    HW217364   4.853   1.702   6.896
 5489SOL     OW17365   0.649   3.466   4.121
 5489SOL    HW117366   0.652   3.525   4.202
 5489SOL    HW217367   0.603   3.514   4.046
 5490SOL     OW17368   0.993   5.351   2.820
 5490SOL    HW117369   0.915   5.345   2.757
 5490SOL    HW217370   1.071   5.390   2.772
 5491SOL     OW17371   6.441   3.702   0.411
 5491SOL    HW117372   6.371   3.762   0.372
 5491SOL    HW217373   6.403   3.611   0.425
 5492SOL     OW17374   7.012   1.379   6.222
 5492SOL    HW117375   7.016   1.479   6.217
 5492SOL    HW217376   6.984   1.352   6.314
 5493SOL     OW17377   4.631   3.982   0.334
 5493SOL    HW117378   4.598   3.890   0.314
 5493SOL    HW217379   4.588   4.015   0.419
 5494SOL     OW17380   6.180   2.919   5.827
 5494SOL    HW117381   6.171   2.978   5.747
 5494SOL    HW217382   6.101   2.858   5.833
 5495SOL     OW17383   5.703   0.211   6.923
 5495SOL    HW117384   5.605   0.209   6.943
 5495SOL    HW217385   5.734   0.306   6.918
 5496SOL     OW17386   4.024   0.043   5.621
 5496SOL    HW117387   4.105   0.095   5.649
 5496SOL    HW217388   3.942   0.090   5.653
 5497SOL     OW17389   0.728   0.690   5.114
 5497SOL    HW117390   0.822   0.654   5.111
 5497SOL    HW217391   0.688   0.669   5.203
 5498SOL     OW17392   0.443   5.105   1.297
 5498SOL    HW117393   0.389   5.157   1.230
 5498SOL    HW217394   0.526   5.155   1.320
 5499SOL     OW17395   1.969   0.399   3.955
 5499SOL    HW117396   2.018   0.486   3.956
 5499SOL    HW217397   1.926   0.386   3.865
 5500SOL     OW17398   2.125   6.782   1.245
 5500SOL    HW117399   2.141   6.872   1.205
 5500SOL    HW217400   2.182   6.771   1.326
 5501SOL     OW17401   4.485   3.218   6.468
 5501SOL    HW117402   4.404   3.256   6.512
 5501SOL    HW217403   4.458   3.139   6.412
 5502SOL     OW17404   4.844   3.624   6.368
 5502SOL    HW117405   4.745   3.617   6.362
 5502SOL    HW217406   4.873   3.716   6.342
 5503SOL     OW17407   6.049   3.208   0.923
 5503SOL    HW117408   6.019   3.258   0.841
 5503SOL    HW217409   6.033   3.265   1.004
 5504SOL     OW17410   3.653   1.863   6.893
 5504SOL    HW117411   3.701   1.788   6.938
 5504SOL    HW217412   3.597   1.828   6.818
 5505SOL     OW17413   3.019   4.916   2.449
 5505SOL    HW117414   2.945   4.940   2.511
 5505SOL    HW217415   2.996   4.832   2.399
 5506SOL     OW17416   6.512   2.385   6.308
 5506SOL    HW117417   6.475   2.331   6.384
 5506SOL    HW217418   6.472   2.353   6.222
 5507SOL     OW17419   3.813   6.780   0.606
 5507SOL    HW117420   3.846   6.874   0.612
 5507SOL    HW217421   3.890   6.717   0.611
 5508SOL     OW17422   0.668   1.438   6.309
 5508SOL    HW117423   0.740   1.450   6.377
 5508SOL    HW217424   0.608   1.363   6.337
 5509SOL     OW17425   6.231   3.835   7.004
 5509SOL    HW117426   6.277   3.848   0.071
 5509SOL    HW217427   6.188   3.745   7.003
 5510SOL     OW17428   5.219   5.465   6.545
 5510SOL    HW117429   5.201   5.449   6.642
 5510SOL    HW217430   5.304   5.516   6.534
 5511SOL     OW17431   0.784   2.554   5.951
 5511SOL    HW117432   0.829   2.573   6.038
 5511SOL    HW217433   0.685   2.553   5.963
 5512SOL     OW17434   2.012   0.044   2.616
 5512SOL    HW117435   2.056   0.081   2.699
 5512SOL    HW217436   1.913   0.051   2.625
 5513SOL     OW17437   3.750   4.521   6.990
 5513SOL    HW117438   3.830   4.562   0.014
 5513SOL    HW217439   3.759   4.421   6.992
 5514SOL     OW17440   3.479   1.295   0.512
 5514SOL    HW117441   3.572   1.327   0.496
 5514SOL    HW217442   3.416   1.373   0.515
 5515SOL     OW17443   3.436   5.346   2.504
 5515SOL    HW117444   3.515   5.364   2.446
 5515SOL    HW217445   3.462   5.282   2.577
 5516SOL     OW17446   1.788   2.217   5.620
 5516SOL    HW117447   1.726   2.140   5.634
 5516SOL    HW217448   1.820   2.218   5.526
 5517SOL     OW17449   1.128   2.119   3.571
 5517SOL    HW117450   1.107   2.037   3.517
 5517SOL    HW217451   1.199   2.097   3.638
 5518SOL     OW17452   4.480   5.303   6.183
 5518SOL    HW117453   4.453   5.363   6.107
 5518SOL    HW217454   4.576   5.321   6.206
 5519SOL     OW17455   5.385   2.440   5.844
 5519SOL    HW117456   5.483   2.422   5.847
 5519SOL    HW217457   5.350   2.421   5.752
 5520SOL     OW17458   5.059   6.393   1.066
 5520SOL    HW117459   5.047   6.473   1.124
 5520SOL    HW217460   5.031   6.311   1.115
 5521SOL     OW17461   4.640   6.878   2.157
 5521SOL    HW117462   4.693   6.834   2.229
 5521SOL    HW217463   4.550   6.836   2.150
 5522SOL     OW17464   5.179   6.331   0.162
 5522SOL    HW117465   5.189   6.397   0.087
 5522SOL    HW217466   5.121   6.255   0.132
 5523SOL     OW17467   5.200   2.269   0.873
 5523SOL    HW117468   5.203   2.198   0.803
 5523SOL    HW217469   5.162   2.231   0.958
 5524SOL     OW17470   2.675   1.351   3.385
 5524SOL    HW117471   2.682   1.267   3.332
 5524SOL    HW217472   2.669   1.429   3.324
 5525SOL     OW17473   0.113   1.710   1.252
 5525SOL    HW117474   0.085   1.795   1.208
 5525SOL    HW217475   0.034   1.667   1.296
 5526SOL     OW17476   5.508   4.364   4.037
 5526SOL    HW117477   5.524   4.391   4.132
 5526SOL    HW217478   5.481   4.268   4.034
 5527SOL     OW17479   6.311   0.468   2.617
 5527SOL    HW117480   6.335   0.561   2.644
 5527SOL    HW217481   6.394   0.418   2.592
 5528SOL     OW17482   1.334   1.497   6.672
 5528SOL    HW117483   1.293   1.525   6.758
 5528SOL    HW217484   1.386   1.573   6.632
 5529SOL     OW17485   3.014   0.801   1.929
 5529SOL    HW117486   2.978   0.814   2.021
 5529SOL    HW217487   2.951   0.841   1.862
 5530SOL     OW17488   0.588   2.143   0.943
 5530SOL    HW117489   0.504   2.180   0.984
 5530SOL    HW217490   0.667   2.175   0.995
 5531SOL     OW17491   1.632   4.432   1.272
 5531SOL    HW117492   1.695   4.490   1.222
 5531SOL    HW217493   1.677   4.394   1.353
 5532SOL     OW17494   0.517   3.738   6.128
 5532SOL    HW117495   0.447   3.674   6.159
 5532SOL    HW217496   0.476   3.829   6.115
 5533SOL     OW17497   3.737   1.373   2.734
 5533SOL    HW117498   3.695   1.443   2.675
 5533SOL    HW217499   3.697   1.380   2.826
 5534SOL     OW17500   1.596   0.207   4.548
 5534SOL    HW117501   1.606   0.115   4.587
 5534SOL    HW217502   1.682   0.236   4.507
 5535SOL     OW17503   6.857   1.956   2.599
 5535SOL    HW117504   6.879   2.054   2.591
 5535SOL    HW217505   6.886   1.909   2.516
 5536SOL     OW17506   4.525   6.970   4.429
 5536SOL    HW117507   4.427   6.950   4.423
 5536SOL    HW217508   4.540   0.026   4.491
 5537SOL     OW17509   2.853   2.251   3.016
 5537SOL    HW117510   2.856   2.264   3.115
 5537SOL    HW217511   2.762   2.273   2.982
 5538SOL     OW17512   4.480   5.550   4.262
 5538SOL    HW117513   4.538   5.554   4.180
 5538SOL    HW217514   4.518   5.485   4.327
 5539SOL     OW17515   2.074   4.326   6.811
 5539SOL    HW117516   2.089   4.228   6.800
 5539SOL    HW217517   2.152   4.366   6.859
 5540SOL     OW17518   4.078   5.557   1.563
 5540SOL    HW117519   4.038   5.469   1.538
 5540SOL    HW217520   4.082   5.564   1.663
 5541SOL     OW17521   4.387   0.734   6.007
 5541SOL    HW117522   4.447   0.703   6.081
 5541SOL    HW217523   4.442   0.748   5.924
 5542SOL     OW17524   5.144   4.782   6.432
 5542SOL    HW117525   5.167   4.685   6.435
 5542SOL    HW217526   5.130   4.811   6.337
 5543SOL     OW17527   0.702   1.765   4.897
 5543SOL    HW117528   0.762   1.835   4.936
 5543SOL    HW217529   0.630   1.809   4.843
 5544SOL     OW17530   5.465   0.877   0.113
 5544SOL    HW117531   5.438   0.842   0.023
 5544SOL    HW217532   5.564   0.893   0.114
 5545SOL     OW17533   2.441   2.163   1.768
 5545SOL    HW117534   2.469   2.248   1.725
 5545SOL    HW217535   2.519   2.120   1.813
 5546SOL     OW17536   3.898   5.565   5.645
 5546SOL    HW117537   3.822   5.509   5.610
 5546SOL    HW217538   3.970   5.569   5.576
 5547SOL     OW17539   3.465   5.585   4.259
 5547SOL    HW117540   3.546   5.573   4.201
 5547SOL    HW217541   3.393   5.630   4.207
 5548SOL     OW17542   0.154   1.849   4.776
 5548SOL    HW117543   0.172   1.759   4.816
 5548SOL    HW217544   0.057   1.871   4.786
 5549SOL     OW17545   3.315   5.215   6.912
 5549SOL    HW117546   3.219   5.242   6.926
 5549SOL    HW217547   3.347   5.250   6.824
 5550SOL     OW17548   2.637   6.255   2.985
 5550SOL    HW117549   2.615   6.352   2.968
 5550SOL    HW217550   2.702   6.248   3.060
 5551SOL     OW17551   0.429   1.256   2.489
 5551SOL    HW117552   0.464   1.194   2.419
 5551SOL    HW217553   0.362   1.319   2.449
 5552SOL     OW17554   1.636   2.456   2.584
 5552SOL    HW117555   1.617   2.380   2.646
 5552SOL    HW217556   1.552   2.480   2.535
 5553SOL     OW17557   4.495   6.143   5.908
 5553SOL    HW117558   4.587   6.171   5.881
 5553SOL    HW217559   4.434   6.223   5.902
 5554SOL     OW17560   3.262   1.117   4.603
 5554SOL    HW117561   3.270   1.194   4.666
 5554SOL    HW217562   3.276   1.031   4.653
 5555SOL     OW17563   0.638   6.236   1.483
 5555SOL    HW117564   0.666   6.306   1.417
 5555SOL    HW217565   0.576   6.172   1.440
 5556SOL     OW17566   0.125   1.028   5.342
 5556SOL    HW117567   0.124   1.111   5.287
 5556SOL    HW217568   0.054   0.965   5.309
 5557SOL     OW17569   3.404   0.035   2.688
 5557SOL    HW117570   3.399   0.123   2.735
 5557SOL    HW217571   3.372   6.984   2.748
 5558SOL     OW17572   5.069   2.048   5.898
 5558SOL    HW117573   5.112   2.137   5.889
 5558SOL    HW217574   4.974   2.060   5.928
 5559SOL     OW17575   2.725   0.751   0.683
 5559SOL    HW117576   2.816   0.730   0.719
 5559SOL    HW217577   2.662   0.677   0.706
 5560SOL     OW17578   0.127   1.091   5.044
 5560SOL    HW117579   0.101   1.091   4.947
 5560SOL    HW217580   0.100   1.004   5.085
 5561SOL     OW17581   1.456   4.597   1.578
 5561SOL    HW117582   1.401   4.525   1.536
 5561SOL    HW217583   1.407   4.635   1.656
 5562SOL     OW17584   3.724   2.159   6.842
 5562SOL    HW117585   3.802   2.217   6.868
 5562SOL    HW217586   3.758   2.071   6.811
 5563SOL     OW17587   3.994   4.383   1.091
 5563SOL    HW117588   3.900   4.414   1.077
 5563SOL    HW217589   4.008   4.361   1.188
 5564SOL     OW17590   5.964   1.457   2.315
 5564SOL    HW117591   5.919   1.522   2.377
 5564SOL    HW217592   6.032   1.504   2.260
 5565SOL     OW17593   1.976   2.837   5.239
 5565SOL    HW117594   2.071   2.807   5.244
 5565SOL    HW217595   1.926   2.778   5.176
 5566SOL     OW17596   2.543   3.771   0.468
 5566SOL    HW117597   2.498   3.860   0.478
 5566SOL    HW217598   2.580   3.743   0.556
 5567SOL     OW17599   1.646   5.376   3.658
 5567SOL    HW117600   1.627   5.460   3.607
 5567SOL    HW217601   1.642   5.297   3.596
 5568SOL     OW17602   3.897   2.664   6.581
 5568SOL    HW117603   3.811   2.646   6.628
 5568SOL    HW217604   3.879   2.693   6.487
 5569SOL     OW17605   4.187   1.799   0.273
 5569SOL    HW117606   4.193   1.794   0.373
 5569SOL    HW217607   4.258   1.860   0.238
 5570SOL     OW17608   1.821   3.081   5.883
 5570SOL    HW117609   1.902   3.140   5.885
 5570SOL    HW217610   1.775   3.090   5.795
 5571SOL     OW17611   0.239   4.226   6.618
 5571SOL    HW117612   0.190   4.293   6.563
 5571SOL    HW217613   0.291   4.273   6.689
 5572SOL     OW17614   0.427   3.035   6.113
 5572SOL    HW117615   0.511   3.040   6.168
 5572SOL    HW217616   0.419   3.119   6.059
 5573SOL     OW17617   6.581   3.605   6.614
 5573SOL    HW117618   6.490   3.632   6.584
 5573SOL    HW217619   6.643   3.683   6.605
 5574SOL     OW17620   1.665   6.532   4.387
 5574SOL    HW117621   1.630   6.465   4.453
 5574SOL    HW217622   1.735   6.489   4.330
 5575SOL     OW17623   0.998   1.238   2.692
 5575SOL    HW117624   1.088   1.231   2.649
 5575SOL    HW217625   0.929   1.256   2.623
 5576SOL     OW17626   5.780   6.317   5.544
 5576SOL    HW117627   5.721   6.391   5.512
 5576SOL    HW217628   5.800   6.330   5.641
 5577SOL     OW17629   1.663   4.293   4.378
 5577SOL    HW117630   1.589   4.230   4.356
 5577SOL    HW217631   1.671   4.362   4.306
 5578SOL     OW17632   3.619   1.763   6.064
 5578SOL    HW117633   3.638   1.747   6.160
 5578SOL    HW217634   3.590   1.858   6.051
 5579SOL     OW17635   4.889   4.463   2.183
 5579SOL    HW117636   4.863   4.402   2.108
 5579SOL    HW217637   4.856   4.426   2.269
 5580SOL     OW17638   5.594   1.685   1.602
 5580SOL    HW117639   5.533   1.761   1.628
 5580SOL    HW217640   5.559   1.600   1.641
 5581SOL     OW17641   2.827   2.947   0.558
 5581SOL    HW117642   2.860   3.040   0.539
 5581SOL    HW217643   2.906   2.885   0.563
 5582SOL     OW17644   3.020   3.217   3.649
 5582SOL    HW117645   3.095   3.283   3.643
 5582SOL    HW217646   3.057   3.127   3.671
 5583SOL     OW17647   3.827   0.539   6.722
 5583SOL    HW117648   3.882   0.586   6.792
 5583SOL    HW217649   3.855   0.572   6.631
 5584SOL     OW17650   5.139   3.274   4.013
 5584SOL    HW117651   5.141   3.352   4.075
 5584SOL    HW217652   5.153   3.190   4.065
 5585SOL     OW17653   0.548   0.182   3.487
 5585SOL    HW117654   0.477   0.231   3.538
 5585SOL    HW217655   0.518   0.168   3.393
 5586SOL     OW17656   2.441   0.727   0.113
 5586SOL    HW117657   2.484   0.718   0.024
 5586SOL    HW217658   2.361   0.667   0.118
 5587SOL     OW17659   3.875   6.319   3.400
 5587SOL    HW117660   3.853   6.230   3.438
 5587SOL    HW217661   3.893   6.311   3.302
 5588SOL     OW17662   5.056   6.623   6.592
 5588SOL    HW117663   5.015   6.632   6.501
 5588SOL    HW217664   4.993   6.575   6.653
 5589SOL     OW17665   1.921   3.744   0.016
 5589SOL    HW117666   1.904   3.710   0.109
 5589SOL    HW217667   1.945   3.841   0.020
 5590SOL     OW17668   6.631   0.547   3.278
 5590SOL    HW117669   6.701   0.487   3.315
 5590SOL    HW217670   6.666   0.594   3.197
 5591SOL     OW17671   5.442   0.226   6.900
 5591SOL    HW117672   5.410   0.142   6.857
 5591SOL    HW217673   5.364   0.275   6.941
 5592SOL     OW17674   1.217   2.701   2.713
 5592SOL    HW117675   1.135   2.687   2.656
 5592SOL    HW217676   1.211   2.642   2.794
 5593SOL     OW17677   2.153   4.105   4.754
 5593SOL    HW117678   2.075   4.058   4.797
 5593SOL    HW217679   2.233   4.099   4.813
 5594SOL     OW17680   2.840   1.388   6.082
 5594SOL    HW117681   2.888   1.475   6.075
 5594SOL    HW217682   2.879   1.334   6.156
 5595SOL     OW17683   0.443   3.135   6.723
 5595SOL    HW117684   0.481   3.096   6.639
 5595SOL    HW217685   0.460   3.074   6.800
 5596SOL     OW17686   5.027   3.605   4.391
 5596SOL    HW117687   5.126   3.616   4.399
 5596SOL    HW217688   5.007   3.536   4.321
 5597SOL     OW17689   0.046   1.980   6.489
 5597SOL    HW117690   0.078   2.059   6.438
 5597SOL    HW217691   0.007   1.913   6.425
 5598SOL     OW17692   6.202   0.763   4.018
 5598SOL    HW117693   6.214   0.740   4.115
 5598SOL    HW217694   6.243   0.853   4.000
 5599SOL     OW17695   5.648   3.454   2.929
 5599SOL    HW117696   5.609   3.500   3.009
 5599SOL    HW217697   5.581   3.391   2.891
 5600SOL     OW17698   1.680   3.054   2.116
 5600SOL    HW117699   1.598   3.007   2.084
 5600SOL    HW217700   1.703   3.023   2.208
 5601SOL     OW17701   6.210   2.495   6.474
 5601SOL    HW117702   6.279   2.550   6.521
 5601SOL    HW217703   6.200   2.529   6.380
 5602SOL     OW17704   6.406   1.944   2.981
 5602SOL    HW117705   6.360   1.885   2.915
 5602SOL    HW217706   6.340   2.006   3.023
 5603SOL     OW17707   3.385   1.508   6.222
 5603SOL    HW117708   3.302   1.472   6.263
 5603SOL    HW217709   3.393   1.476   6.128
 5604SOL     OW17710   1.467   4.976   3.251
 5604SOL    HW117711   1.418   5.034   3.186
 5604SOL    HW217712   1.561   4.963   3.219
 5605SOL     OW17713   3.441   6.630   4.704
 5605SOL    HW117714   3.386   6.550   4.678
 5605SOL    HW217715   3.538   6.610   4.689
 5606SOL     OW17716   4.421   3.677   1.118
 5606SOL    HW117717   4.511   3.657   1.159
 5606SOL    HW217718   4.363   3.722   1.185
 5607SOL     OW17719   0.899   2.069   2.368
 5607SOL    HW117720   0.952   2.001   2.419
 5607SOL    HW217721   0.929   2.161   2.395
 5608SOL     OW17722   6.604   7.009   3.609
 5608SOL    HW117723   6.517   0.010   3.653
 5608SOL    HW217724   6.671   0.060   3.630
 5609SOL     OW17725   6.580   0.805   0.211
 5609SOL    HW117726   6.587   0.754   0.297
 5609SOL    HW217727   6.601   0.743   0.135
 5610SOL     OW17728   5.824   6.635   6.148
 5610SOL    HW117729   5.805   6.671   6.056
 5610SOL    HW217730   5.923   6.629   6.161
 5611SOL     OW17731   6.486   4.033   1.459
 5611SOL    HW117732   6.582   4.023   1.433
 5611SOL    HW217733   6.480   4.099   1.535
 5612SOL     OW17734   4.790   2.520   1.386
 5612SOL    HW117735   4.705   2.555   1.426
 5612SOL    HW217736   4.814   2.573   1.305
 5613SOL     OW17737   6.706   5.057   5.485
 5613SOL    HW117738   6.688   4.979   5.545
 5613SOL    HW217739   6.740   5.133   5.539
 5614SOL     OW17740   5.342   2.512   4.766
 5614SOL    HW117741   5.430   2.467   4.780
 5614SOL    HW217742   5.282   2.491   4.844
 5615SOL     OW17743   0.355   3.478   2.449
 5615SOL    HW117744   0.345   3.405   2.382
 5615SOL    HW217745   0.300   3.458   2.530
 5616SOL     OW17746   1.381   3.367   1.634
 5616SOL    HW117747   1.409   3.442   1.575
 5616SOL    HW217748   1.410   3.386   1.728
 5617SOL     OW17749   0.624   5.383   5.379
 5617SOL    HW117750   0.719   5.384   5.347
 5617SOL    HW217751   0.577   5.465   5.347
 5618SOL     OW17752   4.753   0.905   2.689
 5618SOL    HW117753   4.729   0.997   2.657
 5618SOL    HW217754   4.688   0.876   2.759
 5619SOL     OW17755   3.091   3.865   3.716
 5619SOL    HW117756   3.151   3.942   3.740
 5619SOL    HW217757   3.137   3.806   3.650
 5620SOL     OW17758   4.757   5.217   5.177
 5620SOL    HW117759   4.780   5.125   5.209
 5620SOL    HW217760   4.804   5.285   5.233
 5621SOL     OW17761   1.066   3.376   6.152
 5621SOL    HW117762   1.102   3.290   6.118
 5621SOL    HW217763   1.037   3.364   6.247
 5622SOL     OW17764   5.887   5.740   2.957
 5622SOL    HW117765   5.791   5.713   2.971
 5622SOL    HW217766   5.935   5.741   3.045
 5623SOL     OW17767   4.597   5.103   3.517
 5623SOL    HW117768   4.522   5.040   3.498
 5623SOL    HW217769   4.672   5.054   3.561
 5624SOL     OW17770   4.926   3.981   3.854
 5624SOL    HW117771   4.937   3.891   3.895
 5624SOL    HW217772   4.930   4.051   3.926
 5625SOL     OW17773   3.101   6.835   6.338
 5625SOL    HW117774   3.094   6.923   6.384
 5625SOL    HW217775   3.034   6.830   6.264
 5626SOL     OW17776   1.770   4.582   6.256
 5626SOL    HW117777   1.844   4.552   6.197
 5626SOL    HW217778   1.802   4.584   6.351
 5627SOL     OW17779   1.205   5.477   0.921
 5627SOL    HW117780   1.145   5.528   0.982
 5627SOL    HW217781   1.252   5.404   0.971
 5628SOL     OW17782   1.280   2.822   0.076
 5628SOL    HW117783   1.368   2.785   0.106
 5628SOL    HW217784   1.227   2.751   0.030
 5629SOL     OW17785   6.662   3.431   4.127
 5629SOL    HW117786   6.724   3.353   4.130
 5629SOL    HW217787   6.576   3.404   4.083
 5630SOL     OW17788   1.310   4.105   0.050
 5630SOL    HW117789   1.386   4.075   7.014
 5630SOL    HW217790   1.247   4.161   7.017
 5631SOL     OW17791   3.941   0.917   2.707
 5631SOL    HW117792   3.881   0.845   2.671
 5631SOL    HW217793   3.963   0.898   2.802
 5632SOL     OW17794   3.553   6.735   6.602
 5632SOL    HW117795   3.527   6.752   6.697
 5632SOL    HW217796   3.603   6.649   6.596
 5633SOL     OW17797   1.627   5.378   5.648
 5633SOL    HW117798   1.602   5.284   5.671
 5633SOL    HW217799   1.719   5.397   5.682
 5634SOL     OW17800   2.827   6.804   2.015
 5634SOL    HW117801   2.853   6.899   1.998
 5634SOL    HW217802   2.729   6.792   1.997
 5635SOL     OW17803   3.397   0.358   2.361
 5635SOL    HW117804   3.340   0.328   2.284
 5635SOL    HW217805   3.485   0.311   2.358
 5636SOL     OW17806   5.351   0.238   4.932
 5636SOL    HW117807   5.330   0.271   5.025
 5636SOL    HW217808   5.313   0.147   4.919
 5637SOL     OW17809   5.215   6.911   5.138
 5637SOL    HW117810   5.179   6.901   5.045
 5637SOL    HW217811   5.222   7.008   5.161
 5638SOL     OW17812   0.681   5.545   0.111
 5638SOL    HW117813   0.615   5.515   0.180
 5638SOL    HW217814   0.664   5.640   0.088
 5639SOL     OW17815   3.044   6.736   2.246
 5639SOL    HW117816   2.989   6.748   2.163
 5639SOL    HW217817   3.032   6.642   2.280
 5640SOL     OW17818   3.529   6.893   3.888
 5640SOL    HW117819   3.528   6.982   3.844
 5640SOL    HW217820   3.600   6.891   3.959
 5641SOL     OW17821   6.468   4.848   3.260
 5641SOL    HW117822   6.518   4.888   3.337
 5641SOL    HW217823   6.398   4.912   3.230
 5642SOL     OW17824   2.329   1.896   6.375
 5642SOL    HW117825   2.355   1.859   6.464
 5642SOL    HW217826   2.354   1.993   6.371
 5643SOL     OW17827   5.593   3.041   3.576
 5643SOL    HW117828   5.600   3.075   3.482
 5643SOL    HW217829   5.507   2.991   3.588
 5644SOL     OW17830   3.385   0.722   6.008
 5644SOL    HW117831   3.472   0.772   6.010
 5644SOL    HW217832   3.376   0.676   5.919
 5645SOL     OW17833   6.150   0.188   3.230
 5645SOL    HW117834   6.195   0.102   3.253
 5645SOL    HW217835   6.127   0.238   3.314
 5646SOL     OW17836   6.757   0.646   3.033
 5646SOL    HW117837   6.744   0.550   3.010
 5646SOL    HW217838   6.670   0.694   3.026
 5647SOL     OW17839   6.344   3.758   5.974
 5647SOL    HW117840   6.313   3.675   5.927
 5647SOL    HW217841   6.269   3.793   6.031
 5648SOL     OW17842   1.674   1.400   4.190
 5648SOL    HW117843   1.757   1.344   4.192
 5648SOL    HW217844   1.686   1.480   4.249
 5649SOL     OW17845   0.421   0.559   4.868
 5649SOL    HW117846   0.421   0.653   4.903
 5649SOL    HW217847   0.331   0.537   4.831
 5650SOL     OW17848   6.363   5.233   5.027
 5650SOL    HW117849   6.328   5.327   5.019
 5650SOL    HW217850   6.295   5.176   5.072
 5651SOL     OW17851   6.037   0.436   2.619
 5651SOL    HW117852   6.130   0.465   2.644
 5651SOL    HW217853   5.980   0.516   2.603
 5652SOL     OW17854   5.234   4.649   0.218
 5652SOL    HW117855   5.286   4.700   0.150
 5652SOL    HW217856   5.208   4.560   0.181
 5653SOL     OW17857   1.787   6.112   6.716
 5653SOL    HW117858   1.852   6.087   6.788
 5653SOL    HW217859   1.777   6.211   6.714
 5654SOL     OW17860   2.189   0.150   7.010
 5654SOL    HW117861   2.288   0.156   6.999
 5654SOL    HW217862   2.156   0.063   6.972
 5655SOL     OW17863   6.236   5.855   3.008
 5655SOL    HW117864   6.185   5.937   2.983
 5655SOL    HW217865   6.179   5.797   3.067
 5656SOL     OW17866   3.848   5.353   5.867
 5656SOL    HW117867   3.839   5.431   5.806
 5656SOL    HW217868   3.767   5.347   5.926
 5657SOL     OW17869   4.972   5.186   2.313
 5657SOL    HW117870   4.917   5.102   2.301
 5657SOL    HW217871   5.064   5.171   2.278
 5658SOL     OW17872   4.598   6.778   6.037
 5658SOL    HW117873   4.499   6.763   6.030
 5658SOL    HW217874   4.620   6.870   6.005
 5659SOL     OW17875   3.540   4.154   2.845
 5659SOL    HW117876   3.592   4.227   2.890
 5659SOL    HW217877   3.602   4.093   2.796
 5660SOL     OW17878   6.980   6.064   1.849
 5660SOL    HW117879   0.047   6.106   1.867
 5660SOL    HW217880   6.986   5.966   1.867
 5661SOL     OW17881   6.266   6.063   4.486
 5661SOL    HW117882   6.172   6.098   4.475
 5661SOL    HW217883   6.330   6.140   4.478
 5662SOL     OW17884   1.875   4.449   4.258
 5662SOL    HW117885   1.891   4.495   4.170
 5662SOL    HW217886   1.850   4.518   4.326
 5663SOL     OW17887   2.516   3.783   1.062
 5663SOL    HW117888   2.472   3.700   1.029
 5663SOL    HW217889   2.459   3.862   1.039
 5664SOL     OW17890   6.546   6.547   2.079
 5664SOL    HW117891   6.470   6.497   2.119
 5664SOL    HW217892   6.602   6.587   2.153
 5665SOL     OW17893   1.754   1.381   5.757
 5665SOL    HW117894   1.699   1.378   5.673
 5665SOL    HW217895   1.700   1.423   5.830
 5666SOL     OW17896   5.610   5.573   6.819
 5666SOL    HW117897   5.554   5.502   6.862
 5666SOL    HW217898   5.583   5.584   6.723
 5667SOL     OW17899   5.471   4.660   2.525
 5667SOL    HW117900   5.435   4.677   2.617
 5667SOL    HW217901   5.475   4.562   2.509
 5668SOL     OW17902   0.054   2.320   6.590
 5668SOL    HW117903   6.982   2.294   6.561
 5668SOL    HW217904   0.048   2.380   6.669
 5669SOL     OW17905   0.033   2.408   4.556
 5669SOL    HW117906   0.093   2.364   4.489
 5669SOL    HW217907   0.066   2.501   4.574
 5670SOL     OW17908   1.391   3.488   2.300
 5670SOL    HW117909   1.479   3.496   2.252
 5670SOL    HW217910   1.395   3.414   2.366
 5671SOL     OW17911   1.006   0.750   5.433
 5671SOL    HW117912   0.997   0.731   5.531
 5671SOL    HW217913   1.005   0.849   5.418
 5672SOL     OW17914   4.543   4.189   5.421
 5672SOL    HW117915   4.538   4.091   5.444
 5672SOL    HW217916   4.526   4.201   5.323
 5673SOL     OW17917   1.677   6.782   1.083
 5673SOL    HW117918   1.753   6.717   1.073
 5673SOL    HW217919   1.652   6.789   1.180
 5674SOL     OW17920   0.380   3.295   1.641
 5674SOL    HW117921   0.469   3.319   1.603
 5674SOL    HW217922   0.368   3.340   1.730
 5675SOL     OW17923   3.890   1.107   5.554
 5675SOL    HW117924   3.914   1.162   5.474
 5675SOL    HW217925   3.922   1.153   5.637
 5676SOL     OW17926   2.273   6.369   2.324
 5676SOL    HW117927   2.370   6.351   2.312
 5676SOL    HW217928   2.259   6.428   2.404
 5677SOL     OW17929   6.422   0.349   2.893
 5677SOL    HW117930   6.423   0.252   2.872
 5677SOL    HW217931   6.385   0.399   2.815
 5678SOL     OW17932   0.875   5.146   2.992
 5678SOL    HW117933   0.827   5.149   3.079
 5678SOL    HW217934   0.905   5.238   2.966
 5679SOL     OW17935   3.460   5.707   5.755
 5679SOL    HW117936   3.465   5.625   5.811
 5679SOL    HW217937   3.552   5.747   5.746
 5680SOL     OW17938   2.038   6.794   6.431
 5680SOL    HW117939   2.035   6.860   6.356
 5680SOL    HW217940   2.117   6.813   6.489
 5681SOL     OW17941   3.207   3.866   6.482
 5681SOL    HW117942   3.175   3.778   6.445
 5681SOL    HW217943   3.237   3.925   6.407
 5682SOL     OW17944   1.939   3.391   3.858
 5682SOL    HW117945   1.849   3.429   3.837
 5682SOL    HW217946   1.932   3.291   3.865
 5683SOL     OW17947   3.967   2.976   5.364
 5683SOL    HW117948   4.043   3.040   5.360
 5683SOL    HW217949   3.884   3.020   5.329
 5684SOL     OW17950   2.992   3.692   3.360
 5684SOL    HW117951   3.054   3.720   3.433
 5684SOL    HW217952   2.903   3.670   3.398
 5685SOL     OW17953   0.355   6.324   1.566
 5685SOL    HW117954   0.427   6.383   1.603
 5685SOL    HW217955   0.397   6.252   1.510
 5686SOL     OW17956   3.294   4.654   0.034
 5686SOL    HW117957   3.314   4.585   0.105
 5686SOL    HW217958   3.367   4.651   6.986
 5687SOL     OW17959   4.291   5.978   6.718
 5687SOL    HW117960   4.370   5.975   6.779
 5687SOL    HW217961   4.292   6.063   6.666
 5688SOL     OW17962   5.278   1.579   2.705
 5688SOL    HW117963   5.314   1.662   2.662
 5688SOL    HW217964   5.210   1.537   2.645
 5689SOL     OW17965   4.232   3.350   5.844
 5689SOL    HW117966   4.176   3.387   5.918
 5689SOL    HW217967   4.200   3.387   5.757
 5690SOL     OW17968   3.856   0.031   3.018
 5690SOL    HW117969   3.830   0.127   3.033
 5690SOL    HW217970   3.778   6.993   3.040
 5691SOL     OW17971   3.395   0.378   4.166
 5691SOL    HW117972   3.457   0.453   4.144
 5691SOL    HW217973   3.429   0.293   4.126
 5692SOL     OW17974   5.783   2.364   7.021
 5692SOL    HW117975   5.773   2.341   6.924
 5692SOL    HW217976   5.707   2.422   0.028
 5693SOL     OW17977   5.035   2.589   2.327
 5693SOL    HW117978   5.044   2.598   2.228
 5693SOL    HW217979   4.966   2.518   2.347
 5694SOL     OW17980   1.597   2.100   4.745
 5694SOL    HW117981   1.524   2.145   4.694
 5694SOL    HW217982   1.658   2.168   4.785
 5695SOL     OW17983   1.981   4.155   3.530
 5695SOL    HW117984   2.010   4.204   3.613
 5695SOL    HW217985   1.937   4.069   3.555
 5696SOL     OW17986   2.673   0.897   6.573
 5696SOL    HW117987   2.722   0.912   6.487
 5696SOL    HW217988   2.604   0.825   6.561
 5697SOL     OW17989   6.931   3.738   0.204
 5697SOL    HW117990   6.852   3.679   0.220
 5697SOL    HW217991   6.903   3.818   0.151
 5698SOL     OW17992   1.575   4.528   3.701
 5698SOL    HW117993   1.521   4.611   3.692
 5698SOL    HW217994   1.540   4.459   3.637
 5699SOL     OW17995   0.621   2.155   5.179
 5699SOL    HW117996   0.554   2.224   5.207
 5699SOL    HW217997   0.582   2.100   5.105
 5700SOL     OW17998   1.602   5.151   4.064
 5700SOL    HW117999   1.672   5.114   4.003
 5700SOL    HW218000   1.569   5.078   4.124
 5701SOL     OW18001   4.920   3.548   3.173
 5701SOL    HW118002   4.888   3.615   3.240
 5701SOL    HW218003   4.981   3.593   3.108
 5702SOL     OW18004   3.432   0.127   0.229
 5702SOL    HW118005   3.398   0.211   0.189
 5702SOL    HW218006   3.532   0.125   0.222
 5703SOL     OW18007   4.839   4.279   1.876
 5703SOL    HW118008   4.770   4.309   1.811
 5703SOL    HW218009   4.796   4.259   1.964
 5704SOL     OW18010   4.884   4.371   3.150
 5704SOL    HW118011   4.886   4.471   3.138
 5704SOL    HW218012   4.796   4.344   3.189
 5705SOL     OW18013   6.532   1.362   3.851
 5705SOL    HW118014   6.462   1.417   3.896
 5705SOL    HW218015   6.621   1.385   3.889
 5706SOL     OW18016   2.213   1.223   6.822
 5706SOL    HW118017   2.176   1.167   6.748
 5706SOL    HW218018   2.197   1.319   6.803
 5707SOL     OW18019   3.815   1.701   0.114
 5707SOL    HW118020   3.745   1.633   0.093
 5707SOL    HW218021   3.783   1.762   0.186
 5708SOL     OW18022   6.986   7.017   0.478
 5708SOL    HW118023   7.007   6.920   0.465
 5708SOL    HW218024   6.958   0.036   0.391
 5709SOL     OW18025   1.098   2.633   1.132
 5709SOL    HW118026   1.151   2.591   1.058
 5709SOL    HW218027   1.133   2.725   1.150
 5710SOL     OW18028   3.651   4.476   0.250
 5710SOL    HW118029   3.710   4.494   0.171
 5710SOL    HW218030   3.556   4.467   0.219
 5711SOL     OW18031   5.195   1.741   5.369
 5711SOL    HW118032   5.194   1.672   5.441
 5711SOL    HW218033   5.169   1.699   5.282
 5712SOL     OW18034   6.473   6.599   6.663
 5712SOL    HW118035   6.500   6.526   6.600
 5712SOL    HW218036   6.410   6.562   6.732
 5713SOL     OW18037   0.473   2.662   2.699
 5713SOL    HW118038   0.435   2.687   2.788
 5713SOL    HW218039   0.400   2.662   2.631
 5714SOL     OW18040   2.315   0.522   6.852
 5714SOL    HW118041   2.269   0.516   6.763
 5714SOL    HW218042   2.295   0.611   6.894
 5715SOL     OW18043   1.222   0.411   3.451
 5715SOL    HW118044   1.249   0.450   3.364
 5715SOL    HW218045   1.133   0.367   3.441
 5716SOL     OW18046   2.110   2.462   5.193
 5716SOL    HW118047   2.063   2.499   5.273
 5716SOL    HW218048   2.149   2.373   5.215
 5717SOL     OW18049   0.784   3.173   5.754
 5717SOL    HW118050   0.847   3.240   5.794
 5717SOL    HW218051   0.715   3.221   5.699
 5718SOL     OW18052   2.759   5.353   6.041
 5718SOL    HW118053   2.745   5.369   6.139
 5718SOL    HW218054   2.812   5.428   6.002
 5719SOL     OW18055   2.111   0.849   0.569
 5719SOL    HW118056   2.204   0.813   0.578
 5719SOL    HW218057   2.101   0.932   0.624
 5720SOL     OW18058   1.618   5.927   3.772
 5720SOL    HW118059   1.716   5.926   3.750
 5720SOL    HW218060   1.592   5.841   3.815
 5721SOL     OW18061   6.690   3.936   6.989
 5721SOL    HW118062   6.749   4.008   0.004
 5721SOL    HW218063   6.634   3.899   0.042
 5722SOL     OW18064   5.537   1.132   4.553
 5722SOL    HW118065   5.563   1.130   4.456
 5722SOL    HW218066   5.587   1.205   4.599
 5723SOL     OW18067   0.421   4.461   0.982
 5723SOL    HW118068   0.426   4.506   1.071
 5723SOL    HW218069   0.355   4.509   0.925
 5724SOL     OW18070   5.283   2.961   5.810
 5724SOL    HW118071   5.318   2.868   5.816
 5724SOL    HW218072   5.335   3.020   5.871
 5725SOL     OW18073   5.737   6.643   5.646
 5725SOL    HW118074   5.810   6.680   5.588
 5725SOL    HW218075   5.650   6.646   5.597
 5726SOL     OW18076   4.150   4.834   5.442
 5726SOL    HW118077   4.208   4.826   5.523
 5726SOL    HW218078   4.201   4.877   5.368
 5727SOL     OW18079   6.012   2.727   4.232
 5727SOL    HW118080   6.000   2.826   4.225
 5727SOL    HW218081   6.087   2.706   4.294
 5728SOL     OW18082   4.248   0.696   4.772
 5728SOL    HW118083   4.328   0.648   4.807
 5728SOL    HW218084   4.277   0.770   4.712
 5729SOL     OW18085   1.575   2.882   4.118
 5729SOL    HW118086   1.521   2.966   4.123
 5729SOL    HW218087   1.538   2.814   4.181
 5730SOL     OW18088   3.912   4.649   0.152
 5730SOL    HW118089   3.941   4.616   0.241
 5730SOL    HW218090   3.983   4.708   0.113
 5731SOL     OW18091   4.115   1.344   4.688
 5731SOL    HW118092   4.181   1.372   4.618
 5731SOL    HW218093   4.146   1.376   4.777
 5732SOL     OW18094   5.303   4.624   4.719
 5732SOL    HW118095   5.223   4.595   4.667
 5732SOL    HW218096   5.325   4.719   4.695
 5733SOL     OW18097   2.613   7.002   1.820
 5733SOL    HW118098   2.646   0.018   1.734
 5733SOL    HW218099   2.616   6.902   1.818
 5734SOL     OW18100   1.561   6.935   5.922
 5734SOL    HW118101   1.625   6.899   5.989
 5734SOL    HW218102   1.467   6.919   5.953
 5735SOL     OW18103   5.368   0.937   0.936
 5735SOL    HW118104   5.452   0.979   0.970
 5735SOL    HW218105   5.320   0.892   1.011
 5736SOL     OW18106   5.113   3.783   6.567
 5736SOL    HW118107   5.039   3.717   6.560
 5736SOL    HW218108   5.147   3.785   6.661
 5737SOL     OW18109   4.974   5.690   2.450
 5737SOL    HW118110   5.041   5.707   2.522
 5737SOL    HW218111   5.016   5.634   2.378
 5738SOL     OW18112   2.781   0.780   1.439
 5738SOL    HW118113   2.726   0.828   1.371
 5738SOL    HW218114   2.742   0.689   1.456
 5739SOL     OW18115   2.054   0.486   5.221
 5739SOL    HW118116   2.152   0.496   5.206
 5739SOL    HW218117   2.004   0.513   5.138
 5740SOL     OW18118   4.988   3.425   2.710
 5740SOL    HW118119   4.962   3.394   2.619
 5740SOL    HW218120   4.972   3.524   2.717
 5741SOL     OW18121   1.413   3.115   4.123
 5741SOL    HW118122   1.490   3.164   4.164
 5741SOL    HW218123   1.378   3.167   4.045
 5742SOL     OW18124   5.493   5.610   2.096
 5742SOL    HW118125   5.463   5.574   2.184
 5742SOL    HW218126   5.488   5.537   2.027
 5743SOL     OW18127   4.249   6.178   6.971
 5743SOL    HW118128   4.302   6.093   6.970
 5743SOL    HW218129   4.306   6.253   6.939
 5744SOL     OW18130   5.155   6.061   3.351
 5744SOL    HW118131   5.128   6.149   3.392
 5744SOL    HW218132   5.111   6.051   3.262
 5745SOL     OW18133   0.714   3.458   2.698
 5745SOL    HW118134   0.748   3.365   2.713
 5745SOL    HW218135   0.642   3.478   2.763
 5746SOL     OW18136   5.249   0.540   3.142
 5746SOL    HW118137   5.185   0.583   3.078
 5746SOL    HW218138   5.249   0.441   3.127
 5747SOL     OW18139   2.144   6.915   1.560
 5747SOL    HW118140   2.074   6.943   1.494
 5747SOL    HW218141   2.116   6.830   1.604
 5748SOL     OW18142   6.313   6.576   6.892
 5748SOL    HW118143   6.394   6.522   6.918
 5748SOL    HW218144   6.231   6.535   6.932
 5749SOL     OW18145   2.401   5.930   6.348
 5749SOL    HW118146   2.342   5.852   6.327
 5749SOL    HW218147   2.451   5.958   6.266
 5750SOL     OW18148   6.620   2.563   4.509
 5750SOL    HW118149   6.568   2.632   4.460
 5750SOL    HW218150   6.630   2.590   4.605
 5751SOL     OW18151   0.315   3.766   4.133
 5751SOL    HW118152   0.226   3.809   4.143
 5751SOL    HW218153   0.332   3.746   4.036
 5752SOL     OW18154   5.851   0.823   0.359
 5752SOL    HW118155   5.834   0.727   0.384
 5752SOL    HW218156   5.841   0.881   0.440
 5753SOL     OW18157   3.726   3.776   4.286
 5753SOL    HW118158   3.758   3.747   4.196
 5753SOL    HW218159   3.628   3.759   4.293
 5754SOL     OW18160   5.976   6.123   0.908
 5754SOL    HW118161   5.930   6.170   0.832
 5754SOL    HW218162   6.046   6.183   0.946
 5755SOL     OW18163   1.308   2.910   6.376
 5755SOL    HW118164   1.321   3.001   6.416
 5755SOL    HW218165   1.218   2.875   6.401
 5756SOL     OW18166   6.488   6.343   1.647
 5756SOL    HW118167   6.515   6.336   1.743
 5756SOL    HW218168   6.439   6.260   1.620
 5757SOL     OW18169   0.882   1.460   3.675
 5757SOL    HW118170   0.976   1.475   3.706
 5757SOL    HW218171   0.868   1.363   3.656
 5758SOL     OW18172   6.298   6.975   3.260
 5758SOL    HW118173   6.341   0.040   3.289
 5758SOL    HW218174   6.330   6.951   3.168
 5759SOL     OW18175   2.018   6.596   3.105
 5759SOL    HW118176   1.952   6.631   3.039
 5759SOL    HW218177   1.972   6.577   3.191
 5760SOL     OW18178   0.418   2.261   6.928
 5760SOL    HW118179   0.445   2.167   6.907
 5760SOL    HW218180   0.334   2.283   6.879
 5761SOL     OW18181   6.496   6.482   4.936
 5761SOL    HW118182   6.553   6.524   5.007
 5761SOL    HW218183   6.531   6.508   4.846
 5762SOL     OW18184   0.986   5.419   5.776
 5762SOL    HW118185   0.935   5.482   5.718
 5762SOL    HW218186   0.944   5.328   5.771
 5763SOL     OW18187   4.989   0.286   0.233
 5763SOL    HW118188   5.035   0.375   0.241
 5763SOL    HW218189   4.923   0.277   0.307
 5764SOL     OW18190   4.392   6.345   4.590
 5764SOL    HW118191   4.340   6.431   4.589
 5764SOL    HW218192   4.427   6.327   4.498
 5765SOL     OW18193   0.135   5.943   2.539
 5765SOL    HW118194   0.069   5.892   2.593
 5765SOL    HW218195   0.225   5.939   2.583
 5766SOL     OW18196   0.498   1.461   3.980
 5766SOL    HW118197   0.563   1.411   3.923
 5766SOL    HW218198   0.503   1.427   4.074
 5767SOL     OW18199   4.962   6.651   0.135
 5767SOL    HW118200   5.045   6.683   0.180
 5767SOL    HW218201   4.952   6.697   0.047
 5768SOL     OW18202   1.364   0.915   4.947
 5768SOL    HW118203   1.287   0.912   4.883
 5768SOL    HW218204   1.328   0.915   5.041
 5769SOL     OW18205   0.727   2.781   5.553
 5769SOL    HW118206   0.641   2.748   5.593
 5769SOL    HW218207   0.778   2.703   5.516
 5770SOL     OW18208   1.850   4.446   2.390
 5770SOL    HW118209   1.776   4.442   2.324
 5770SOL    HW218210   1.824   4.505   2.467
 5771SOL     OW18211   2.910   5.493   3.047
 5771SOL    HW118212   2.934   5.532   2.959
 5771SOL    HW218213   2.911   5.565   3.117
 5772SOL     OW18214   2.640   0.258   3.222
 5772SOL    HW118215   2.642   0.223   3.316
 5772SOL    HW218216   2.729   0.296   3.199
 5773SOL     OW18217   5.698   0.607   3.869
 5773SOL    HW118218   5.757   0.650   3.938
 5773SOL    HW218219   5.615   0.661   3.857
 5774SOL     OW18220   1.223   6.706   3.828
 5774SOL    HW118221   1.145   6.704   3.766
 5774SOL    HW218222   1.212   6.782   3.892
 5775SOL     OW18223   6.206   5.067   2.452
 5775SOL    HW118224   6.251   5.095   2.367
 5775SOL    HW218225   6.157   5.145   2.491
 5776SOL     OW18226   3.071   1.292   3.846
 5776SOL    HW118227   3.041   1.324   3.935
 5776SOL    HW218228   3.006   1.224   3.811
 5777SOL     OW18229   1.172   0.462   1.577
 5777SOL    HW118230   1.203   0.369   1.596
 5777SOL    HW218231   1.078   0.459   1.542
 5778SOL     OW18232   0.123   0.085   0.241
 5778SOL    HW118233   0.048   0.133   0.196
 5778SOL    HW218234   0.176   0.149   0.297
 5779SOL     OW18235   5.786   1.693   0.702
 5779SOL    HW118236   5.774   1.716   0.798
 5779SOL    HW218237   5.876   1.725   0.671
 5780SOL     OW18238   5.153   5.138   4.040
 5780SOL    HW118239   5.064   5.177   4.063
 5780SOL    HW218240   5.224   5.206   4.055
 5781SOL     OW18241   1.511   5.214   6.406
 5781SOL    HW118242   1.535   5.249   6.496
 5781SOL    HW218243   1.575   5.142   6.380
 5782SOL     OW18244   7.008   0.659   0.164
 5782SOL    HW118245   0.018   0.739   0.215
 5782SOL    HW218246   0.057   0.631   0.098
 5783SOL     OW18247   2.531   2.751   6.636
 5783SOL    HW118248   2.587   2.676   6.673
 5783SOL    HW218249   2.473   2.788   6.709
 5784SOL     OW18250   0.220   6.124   6.761
 5784SOL    HW118251   0.211   6.064   6.840
 5784SOL    HW218252   0.204   6.219   6.789
 5785SOL     OW18253   1.643   1.549   1.232
 5785SOL    HW118254   1.742   1.538   1.247
 5785SOL    HW218255   1.627   1.623   1.167
 5786SOL     OW18256   6.159   5.628   1.480
 5786SOL    HW118257   6.060   5.643   1.485
 5786SOL    HW218258   6.200   5.703   1.427
 5787SOL     OW18259   2.108   3.437   6.046
 5787SOL    HW118260   2.198   3.474   6.070
 5787SOL    HW218261   2.037   3.500   6.079
 5788SOL     OW18262   3.455   0.632   3.568
 5788SOL    HW118263   3.473   0.682   3.484
 5788SOL    HW218264   3.448   0.696   3.644
 5789SOL     OW18265   3.823   5.089   6.058
 5789SOL    HW118266   3.870   5.177   6.071
 5789SOL    HW218267   3.885   5.025   6.014
 5790SOL     OW18268   1.186   3.950   3.848
 5790SOL    HW118269   1.207   4.039   3.889
 5790SOL    HW218270   1.264   3.889   3.857
 5791SOL     OW18271   1.599   0.291   3.120
 5791SOL    HW118272   1.587   0.217   3.186
 5791SOL    HW218273   1.602   0.378   3.168
 5792SOL     OW18274   7.000   2.284   2.704
 5792SOL    HW118275   0.001   2.368   2.754
 5792SOL    HW218276   0.064   2.238   2.677
 5793SOL     OW18277   6.264   0.639   4.820
 5793SOL    HW118278   6.295   0.560   4.872
 5793SOL    HW218279   6.167   0.630   4.800
 5794SOL     OW18280   6.315   4.182   6.580
 5794SOL    HW118281   6.386   4.143   6.522
 5794SOL    HW218282   6.225   4.156   6.545
 5795SOL     OW18283   5.882   4.348   6.362
 5795SOL    HW118284   5.933   4.400   6.294
 5795SOL    HW218285   5.946   4.297   6.420
 5796SOL     OW18286   2.927   2.499   0.800
 5796SOL    HW118287   2.935   2.564   0.876
 5796SOL    HW218288   2.843   2.516   0.750
 5797SOL     OW18289   2.864   2.753   5.418
 5797SOL    HW118290   2.790   2.744   5.486
 5797SOL    HW218291   2.887   2.662   5.383
 5798SOL     OW18292   6.288   5.100   4.035
 5798SOL    HW118293   6.261   5.092   3.938
 5798SOL    HW218294   6.322   5.192   4.053
 5799SOL     OW18295   5.259   1.073   4.054
 5799SOL    HW118296   5.255   1.169   4.082
 5799SOL    HW218297   5.180   1.051   3.997
 5800SOL     OW18298   6.381   5.749   6.727
 5800SOL    HW118299   6.393   5.788   6.636
 5800SOL    HW218300   6.398   5.651   6.724
 5801SOL     OW18301   2.169   0.840   2.703
 5801SOL    HW118302   2.232   0.826   2.779
 5801SOL    HW218303   2.156   0.939   2.689
 5802SOL     OW18304   0.577   2.720   4.782
 5802SOL    HW118305   0.547   2.624   4.782
 5802SOL    HW218306   0.642   2.734   4.857
 5803SOL     OW18307   1.581   5.043   1.054
 5803SOL    HW118308   1.482   5.057   1.058
 5803SOL    HW218309   1.614   5.012   1.143
 5804SOL     OW18310   0.231   2.574   6.134
 5804SOL    HW118311   0.220   2.532   6.224
 5804SOL    HW218312   0.175   2.525   6.067
 5805SOL     OW18313   5.963   3.412   6.643
 5805SOL    HW118314   5.872   3.379   6.671
 5805SOL    HW218315   5.953   3.473   6.565
 5806SOL     OW18316   6.631   0.015   6.825
 5806SOL    HW118317   6.710   6.981   6.849
 5806SOL    HW218318   6.584   6.995   6.747
 5807SOL     OW18319   2.177   3.527   1.604
 5807SOL    HW118320   2.186   3.533   1.703
 5807SOL    HW218321   2.093   3.477   1.581
 5808SOL     OW18322   6.203   1.603   3.559
 5808SOL    HW118323   6.208   1.701   3.580
 5808SOL    HW218324   6.278   1.579   3.498
 5809SOL     OW18325   0.177   2.743   4.137
 5809SOL    HW118326   0.228   2.683   4.199
 5809SOL    HW218327   0.237   2.818   4.107
 5810SOL     OW18328   2.478   2.257   2.606
 5810SOL    HW118329   2.566   2.213   2.587
 5810SOL    HW218330   2.436   2.285   2.519
 5811SOL     OW18331   3.346   0.266   2.834
 5811SOL    HW118332   3.327   0.319   2.752
 5811SOL    HW218333   3.262   0.257   2.888
 5812SOL     OW18334   4.480   0.544   4.870
 5812SOL    HW118335   4.440   0.525   4.960
 5812SOL    HW218336   4.579   0.539   4.876
 5813SOL     OW18337   1.417   1.158   5.182
 5813SOL    HW118338   1.457   1.074   5.219
 5813SOL    HW218339   1.489   1.228   5.173
 5814SOL     OW18340   6.719   5.300   0.807
 5814SOL    HW118341   6.686   5.298   0.902
 5814SOL    HW218342   6.785   5.226   0.793
 5815SOL     OW18343   3.806   0.737   3.628
 5815SOL    HW118344   3.795   0.669   3.701
 5815SOL    HW218345   3.754   0.819   3.650
 5816SOL     OW18346   5.188   6.672   0.605
 5816SOL    HW118347   5.097   6.664   0.647
 5816SOL    HW218348   5.246   6.597   0.636
 5817SOL     OW18349   5.987   2.379   6.088
 5817SOL    HW118350   6.079   2.356   6.118
 5817SOL    HW218351   5.924   2.375   6.166
 5818SOL     OW18352   6.327   6.035   5.894
 5818SOL    HW118353   6.353   6.115   5.839
 5818SOL    HW218354   6.233   6.010   5.873
 5819SOL     OW18355   5.834   0.079   0.464
 5819SOL    HW118356   5.827   0.146   0.538
 5819SOL    HW218357   5.867   7.013   0.501
 5820SOL     OW18358   5.511   5.223   2.131
 5820SOL    HW118359   5.591   5.220   2.071
 5820SOL    HW218360   5.540   5.252   2.223
 5821SOL     OW18361   3.216   6.743   2.885
 5821SOL    HW118362   3.193   6.807   2.958
 5821SOL    HW218363   3.165   6.767   2.802
 5822SOL     OW18364   0.982   0.985   2.025
 5822SOL    HW118365   0.940   1.019   1.941
 5822SOL    HW218366   1.081   0.978   2.012
 5823SOL     OW18367   1.981   2.846   4.096
 5823SOL    HW118368   1.889   2.862   4.060
 5823SOL    HW218369   1.974   2.802   4.186
 5824SOL     OW18370   4.369   0.313   3.507
 5824SOL    HW118371   4.429   0.277   3.579
 5824SOL    HW218372   4.295   0.248   3.490
 5825SOL     OW18373   3.579   1.081   1.397
 5825SOL    HW118374   3.604   1.059   1.491
 5825SOL    HW218375   3.616   1.171   1.373
 5826SOL     OW18376   0.225   6.701   3.575
 5826SOL    HW118377   0.243   6.602   3.573
 5826SOL    HW218378   0.306   6.748   3.611
 5827SOL     OW18379   1.639   4.517   5.371
 5827SOL    HW118380   1.676   4.588   5.430
 5827SOL    HW218381   1.694   4.511   5.287
 5828SOL     OW18382   6.753   2.063   1.652
 5828SOL    HW118383   6.780   2.016   1.568
 5828SOL    HW218384   6.712   1.998   1.716
 5829SOL     OW18385   1.295   1.452   1.592
 5829SOL    HW118386   1.372   1.443   1.529
 5829SOL    HW218387   1.324   1.426   1.684
 5830SOL     OW18388   2.090   0.909   5.313
 5830SOL    HW118389   2.029   0.862   5.377
 5830SOL    HW218390   2.165   0.953   5.363
 5831SOL     OW18391   5.980   5.988   2.928
 5831SOL    HW118392   5.958   5.891   2.923
 5831SOL    HW218393   5.907   6.037   2.975
 5832SOL     OW18394   3.404   3.229   4.331
 5832SOL    HW118395   3.339   3.159   4.301
 5832SOL    HW218396   3.390   3.312   4.277
 5833SOL     OW18397   3.341   3.435   5.160
 5833SOL    HW118398   3.410   3.371   5.125
 5833SOL    HW218399   3.252   3.413   5.120
 5834SOL     OW18400   6.326   0.630   0.310
 5834SOL    HW118401   6.298   0.726   0.306
 5834SOL    HW218402   6.342   0.596   0.217
 5835SOL     OW18403   5.568   3.164   4.434
 5835SOL    HW118404   5.472   3.187   4.451
 5835SOL    HW218405   5.585   3.070   4.464
 5836SOL     OW18406   3.617   6.898   3.030
 5836SOL    HW118407   3.564   6.972   3.072
 5836SOL    HW218408   3.573   6.810   3.051
 5837SOL     OW18409   4.293   4.689   6.406
 5837SOL    HW118410   4.230   4.657   6.476
 5837SOL    HW218411   4.311   4.616   6.341
 5838SOL     OW18412   0.972   1.020   5.772
 5838SOL    HW118413   1.049   1.083   5.757
 5838SOL    HW218414   0.889   1.073   5.785
 5839SOL     OW18415   0.278   2.394   2.403
 5839SOL    HW118416   0.248   2.313   2.453
 5839SOL    HW218417   0.378   2.394   2.396
 5840SOL     OW18418   3.194   5.373   0.290
 5840SOL    HW118419   3.174   5.277   0.312
 5840SOL    HW218420   3.288   5.380   0.256
 5841SOL     OW18421   6.290   2.414   3.277
 5841SOL    HW118422   6.311   2.471   3.357
 5841SOL    HW218423   6.326   2.322   3.292
 5842SOL     OW18424   3.607   2.686   0.355
 5842SOL    HW118425   3.574   2.681   0.449
 5842SOL    HW218426   3.529   2.682   0.292
 5843SOL     OW18427   0.557   3.396   1.107
 5843SOL    HW118428   0.655   3.392   1.124
 5843SOL    HW218429   0.535   3.346   1.023
 5844SOL     OW18430   1.843   6.337   0.004
 5844SOL    HW118431   1.865   6.240   0.015
 5844SOL    HW218432   1.926   6.387   7.004
 5845SOL     OW18433   1.118   2.415   4.691
 5845SOL    HW118434   1.051   2.352   4.653
 5845SOL    HW218435   1.158   2.470   4.617
 5846SOL     OW18436   0.284   3.332   6.573
 5846SOL    HW118437   0.318   3.417   6.612
 5846SOL    HW218438   0.328   3.255   6.618
 5847SOL     OW18439   1.463   2.218   3.814
 5847SOL    HW118440   1.423   2.219   3.906
 5847SOL    HW218441   1.434   2.301   3.765
 5848SOL     OW18442   1.089   4.939   3.455
 5848SOL    HW118443   1.184   4.910   3.461
 5848SOL    HW218444   1.084   5.033   3.421
 5849SOL     OW18445   3.153   6.605   5.983
 5849SOL    HW118446   3.149   6.705   5.990
 5849SOL    HW218447   3.089   6.565   6.049
 5850SOL     OW18448   0.780   4.581   3.538
 5850SOL    HW118449   0.876   4.593   3.513
 5850SOL    HW218450   0.753   4.652   3.604
 5851SOL     OW18451   5.668   2.857   1.588
 5851SOL    HW118452   5.724   2.844   1.669
 5851SOL    HW218453   5.706   2.806   1.511
 5852SOL     OW18454   4.182   6.136   2.952
 5852SOL    HW118455   4.088   6.101   2.952
 5852SOL    HW218456   4.184   6.226   2.994
 5853SOL     OW18457   4.845   3.812   5.582
 5853SOL    HW118458   4.816   3.791   5.488
 5853SOL    HW218459   4.809   3.901   5.608
 5854SOL     OW18460   1.079   1.022   6.596
 5854SOL    HW118461   1.174   0.995   6.615
 5854SOL    HW218462   1.062   1.112   6.635
 5855SOL     OW18463   1.721   1.507   4.945
 5855SOL    HW118464   1.750   1.412   4.936
 5855SOL    HW218465   1.792   1.567   4.909
 5856SOL     OW18466   1.704   5.247   3.081
 5856SOL    HW118467   1.769   5.181   3.118
 5856SOL    HW218468   1.753   5.328   3.050
 5857SOL     OW18469   0.461   2.369   5.311
 5857SOL    HW118470   0.407   2.323   5.381
 5857SOL    HW218471   0.480   2.463   5.340
 5858SOL     OW18472   3.845   6.705   3.575
 5858SOL    HW118473   3.757   6.752   3.583
 5858SOL    HW218474   3.842   6.621   3.630
 5859SOL     OW18475   6.322   5.999   1.901
 5859SOL    HW118476   6.366   6.064   1.962
 5859SOL    HW218477   6.322   5.908   1.943
 5860SOL     OW18478   0.098   3.958   1.030
 5860SOL    HW118479   0.086   3.918   1.121
 5860SOL    HW218480   0.096   3.885   0.962
 5861SOL     OW18481   6.009   1.531   3.960
 5861SOL    HW118482   6.057   1.619   3.961
 5861SOL    HW218483   6.074   1.457   3.973
 5862SOL     OW18484   4.771   4.978   3.704
 5862SOL    HW118485   4.749   4.931   3.790
 5862SOL    HW218486   4.862   4.951   3.674
 5863SOL     OW18487   1.936   1.504   1.262
 5863SOL    HW118488   2.029   1.513   1.297
 5863SOL    HW218489   1.937   1.514   1.162
 5864SOL     OW18490   4.281   5.525   0.550
 5864SOL    HW118491   4.198   5.500   0.600
 5864SOL    HW218492   4.324   5.604   0.592
 5865SOL     OW18493   4.494   0.761   3.688
 5865SOL    HW118494   4.421   0.781   3.623
 5865SOL    HW218495   4.479   0.811   3.773
 5866SOL     OW18496   3.342   1.839   0.154
 5866SOL    HW118497   3.405   1.914   0.135
 5866SOL    HW218498   3.279   1.829   0.076
 5867SOL     OW18499   6.717   2.641   1.338
 5867SOL    HW118500   6.651   2.712   1.315
 5867SOL    HW218501   6.781   2.629   1.262
 5868SOL     OW18502   1.149   6.645   4.563
 5868SOL    HW118503   1.096   6.611   4.486
 5868SOL    HW218504   1.101   6.721   4.606
 5869SOL     OW18505   3.216   4.894   4.175
 5869SOL    HW118506   3.314   4.914   4.170
 5869SOL    HW218507   3.180   4.921   4.265
 5870SOL     OW18508   4.900   5.539   3.891
 5870SOL    HW118509   4.835   5.513   3.819
 5870SOL    HW218510   4.991   5.506   3.867
 5871SOL     OW18511   2.779   3.433   0.337
 5871SOL    HW118512   2.685   3.403   0.354
 5871SOL    HW218513   2.784   3.474   0.246
 5872SOL     OW18514   4.048   5.371   4.079
 5872SOL    HW118515   4.002   5.342   3.996
 5872SOL    HW218516   4.147   5.367   4.066
 5873SOL     OW18517   1.937   2.897   0.066
 5873SOL    HW118518   1.849   2.907   0.114
 5873SOL    HW218519   1.993   2.978   0.083
 5874SOL     OW18520   0.958   4.412   6.434
 5874SOL    HW118521   0.930   4.487   6.493
 5874SOL    HW218522   1.007   4.344   6.488
 5875SOL     OW18523   3.371   2.381   0.790
 5875SOL    HW118524   3.471   2.388   0.785
 5875SOL    HW218525   3.340   2.414   0.879
 5876SOL     OW18526   4.339   4.308   6.556
 5876SOL    HW118527   4.325   4.280   6.461
 5876SOL    HW218528   4.260   4.281   6.610
 5877SOL     OW18529   5.984   0.008   2.382
 5877SOL    HW118530   5.902   7.019   2.438
 5877SOL    HW218531   5.971   0.083   2.317
 5878SOL     OW18532   4.916   4.070   2.221
 5878SOL    HW118533   4.987   4.072   2.151
 5878SOL    HW218534   4.833   4.113   2.185
 5879SOL     OW18535   3.103   4.260   5.243
 5879SOL    HW118536   3.034   4.328   5.217
 5879SOL    HW218537   3.086   4.175   5.194
 5880SOL     OW18538   5.825   2.394   0.311
 5880SOL    HW118539   5.791   2.391   0.217
 5880SOL    HW218540   5.761   2.445   0.368
 5881SOL     OW18541   1.586   6.152   2.770
 5881SOL    HW118542   1.679   6.117   2.783
 5881SOL    HW218543   1.527   6.119   2.843
 5882SOL     OW18544   1.508   4.925   5.522
 5882SOL    HW118545   1.441   4.999   5.512
 5882SOL    HW218546   1.482   4.866   5.598
 5883SOL     OW18547   6.754   5.377   0.272
 5883SOL    HW118548   6.765   5.379   0.371
 5883SOL    HW218549   6.822   5.315   0.232
 5884SOL     OW18550   6.287   0.840   2.446
 5884SOL    HW118551   6.203   0.878   2.485
 5884SOL    HW218552   6.265   0.790   2.363
 5885SOL     OW18553   0.251   5.435   1.438
 5885SOL    HW118554   0.263   5.364   1.368
 5885SOL    HW218555   0.180   5.407   1.501
 5886SOL     OW18556   1.960   4.532   3.574
 5886SOL    HW118557   2.017   4.568   3.500
 5886SOL    HW218558   2.016   4.473   3.632
 5887SOL     OW18559   2.835   3.088   0.201
 5887SOL    HW118560   2.880   3.153   0.263
 5887SOL    HW218561   2.894   3.009   0.188
 5888SOL     OW18562   2.350   6.108   1.661
 5888SOL    HW118563   2.414   6.053   1.715
 5888SOL    HW218564   2.269   6.127   1.715
 5889SOL     OW18565   5.474   1.809   2.776
 5889SOL    HW118566   5.512   1.887   2.726
 5889SOL    HW218567   5.404   1.842   2.840
 5890SOL     OW18568   2.426   4.982   3.409
 5890SOL    HW118569   2.468   4.892   3.398
 5890SOL    HW218570   2.494   5.047   3.442
 5891SOL     OW18571   2.651   3.264   6.470
 5891SOL    HW118572   2.601   3.180   6.492
 5891SOL    HW218573   2.587   3.341   6.465
 5892SOL     OW18574   1.191   2.823   0.516
 5892SOL    HW118575   1.245   2.904   0.496
 5892SOL    HW218576   1.136   2.798   0.437
 5893SOL     OW18577   0.662   6.280   1.771
 5893SOL    HW118578   0.671   6.240   1.680
 5893SOL    HW218579   0.733   6.244   1.831
 5894SOL     OW18580   2.122   5.672   6.920
 5894SOL    HW118581   2.221   5.659   6.916
 5894SOL    HW218582   2.077   5.607   6.858
 5895SOL     OW18583   5.958   3.988   3.698
 5895SOL    HW118584   6.000   3.965   3.786
 5895SOL    HW218585   6.009   4.064   3.656
 5896SOL     OW18586   5.443   2.656   2.262
 5896SOL    HW118587   5.422   2.671   2.165
 5896SOL    HW218588   5.487   2.738   2.300
 5897SOL     OW18589   3.378   2.172   0.194
 5897SOL    HW118590   3.421   2.189   0.105
 5897SOL    HW218591   3.359   2.260   0.239
 5898SOL     OW18592   2.591   0.490   6.700
 5898SOL    HW118593   2.615   0.563   6.764
 5898SOL    HW218594   2.498   0.505   6.666
 5899SOL     OW18595   0.270   6.629   6.960
 5899SOL    HW118596   0.313   6.709   7.002
 5899SOL    HW218597   0.172   6.646   6.949
 5900SOL     OW18598   6.010   6.708   2.158
 5900SOL    HW118599   6.081   6.713   2.228
 5900SOL    HW218600   5.947   6.784   2.169
 5901SOL     OW18601   2.323   0.478   5.211
 5901SOL    HW118602   2.353   0.557   5.264
 5901SOL    HW218603   2.346   0.394   5.260
 5902SOL     OW18604   4.111   4.185   5.701
 5902SOL    HW118605   4.025   4.227   5.673
 5902SOL    HW218606   4.178   4.196   5.628
 5903SOL     OW18607   6.426   2.141   4.939
 5903SOL    HW118608   6.407   2.212   5.007
 5903SOL    HW218609   6.484   2.179   4.866
 5904SOL     OW18610   6.922   5.056   1.304
 5904SOL    HW118611   6.971   5.092   1.383
 5904SOL    HW218612   6.860   4.983   1.334
 5905SOL     OW18613   6.126   2.573   4.773
 5905SOL    HW118614   6.131   2.494   4.834
 5905SOL    HW218615   6.110   2.541   4.679
 5906SOL     OW18616   4.703   0.982   5.964
 5906SOL    HW118617   4.657   1.071   5.955
 5906SOL    HW218618   4.640   0.909   5.937
 5907SOL     OW18619   1.519   3.272   5.791
 5907SOL    HW118620   1.477   3.217   5.863
 5907SOL    HW218621   1.600   3.225   5.757
 5908SOL     OW18622   4.334   3.945   6.689
 5908SOL    HW118623   4.252   3.983   6.731
 5908SOL    HW218624   4.330   3.960   6.590
 5909SOL     OW18625   5.931   4.876   3.799
 5909SOL    HW118626   5.918   4.902   3.895
 5909SOL    HW218627   5.858   4.914   3.743
 5910SOL     OW18628   3.149   4.646   1.310
 5910SOL    HW118629   3.147   4.672   1.214
 5910SOL    HW218630   3.079   4.697   1.360
 5911SOL     OW18631   6.308   0.243   6.169
 5911SOL    HW118632   6.287   0.151   6.203
 5911SOL    HW218633   6.397   0.272   6.204
 5912SOL     OW18634   0.461   3.253   5.893
 5912SOL    HW118635   0.540   3.302   5.931
 5912SOL    HW218636   0.484   3.219   5.801
 5913SOL     OW18637   2.074   2.454   4.297
 5913SOL    HW118638   1.977   2.428   4.290
 5913SOL    HW218639   2.082   2.532   4.360
 5914SOL     OW18640   1.477   5.962   0.846
 5914SOL    HW118641   1.571   5.970   0.879
 5914SOL    HW218642   1.425   6.044   0.871
 5915SOL     OW18643   5.835   3.341   3.795
 5915SOL    HW118644   5.924   3.297   3.807
 5915SOL    HW218645   5.848   3.439   3.780
 5916SOL     OW18646   3.191   0.424   6.421
 5916SOL    HW118647   3.163   0.519   6.427
 5916SOL    HW218648   3.268   0.407   6.484
 5917SOL     OW18649   3.899   3.976   2.165
 5917SOL    HW118650   3.918   3.893   2.217
 5917SOL    HW218651   3.959   4.049   2.195
 5918SOL     OW18652   2.304   1.843   4.050
 5918SOL    HW118653   2.252   1.808   4.128
 5918SOL    HW218654   2.345   1.766   4.000
 5919SOL     OW18655   1.677   1.720   6.985
 5919SOL    HW118656   1.603   1.778   7.016
 5919SOL    HW218657   1.640   1.640   6.938
 5920SOL     OW18658   2.820   5.081   6.959
 5920SOL    HW118659   2.857   5.140   0.010
 5920SOL    HW218660   2.744   5.027   6.996
 5921SOL     OW18661   4.001   5.311   5.374
 5921SOL    HW118662   4.062   5.253   5.428
 5921SOL    HW218663   4.003   5.404   5.410
 5922SOL     OW18664   6.266   4.878   1.683
 5922SOL    HW118665   6.279   4.913   1.775
 5922SOL    HW218666   6.190   4.813   1.682
 5923SOL     OW18667   0.647   0.771   3.435
 5923SOL    HW118668   0.581   0.841   3.460
 5923SOL    HW218669   0.714   0.760   3.508
 5924SOL     OW18670   6.008   1.698   4.311
 5924SOL    HW118671   6.009   1.700   4.411
 5924SOL    HW218672   6.074   1.630   4.278
 5925SOL     OW18673   6.301   5.859   0.375
 5925SOL    HW118674   6.308   5.957   0.390
 5925SOL    HW218675   6.232   5.840   0.305
 5926SOL     OW18676   3.608   5.966   1.730
 5926SOL    HW118677   3.618   5.973   1.829
 5926SOL    HW218678   3.629   6.055   1.689
 5927SOL     OW18679   2.435   5.075   1.711
 5927SOL    HW118680   2.348   5.035   1.684
 5927SOL    HW218681   2.421   5.139   1.787
 5928SOL     OW18682   0.618   6.084   0.959
 5928SOL    HW118683   0.603   6.166   0.904
 5928SOL    HW218684   0.568   6.007   0.918
 5929SOL     OW18685   0.396   6.741   5.628
 5929SOL    HW118686   0.485   6.753   5.584
 5929SOL    HW218687   0.327   6.719   5.560
 5930SOL     OW18688   6.279   1.149   5.265
 5930SOL    HW118689   6.189   1.193   5.272
 5930SOL    HW218690   6.269   1.050   5.279
 5931SOL     OW18691   6.086   4.981   0.542
 5931SOL    HW118692   6.106   5.004   0.637
 5931SOL    HW218693   5.987   4.983   0.526
 5932SOL     OW18694   2.170   0.261   0.244
 5932SOL    HW118695   2.149   0.219   0.156
 5932SOL    HW218696   2.095   0.243   0.309
 5933SOL     OW18697   6.417   3.285   3.059
 5933SOL    HW118698   6.324   3.278   3.022
 5933SOL    HW218699   6.483   3.282   2.983
 5934SOL     OW18700   3.944   3.728   2.292
 5934SOL    HW118701   4.012   3.658   2.269
 5934SOL    HW218702   3.853   3.695   2.267
 5935SOL     OW18703   4.130   3.444   3.070
 5935SOL    HW118704   4.159   3.529   3.114
 5935SOL    HW218705   4.085   3.465   2.984
 5936SOL     OW18706   6.766   6.148   6.636
 5936SOL    HW118707   6.838   6.211   6.605
 5936SOL    HW218708   6.807   6.076   6.693
 5937SOL     OW18709   1.132   4.196   6.891
 5937SOL    HW118710   1.067   4.272   6.895
 5937SOL    HW218711   1.081   4.109   6.891
 5938SOL     OW18712   2.517   4.632   0.595
 5938SOL    HW118713   2.439   4.653   0.536
 5938SOL    HW218714   2.488   4.632   0.691
 5939SOL     OW18715   1.532   1.307   2.127
 5939SOL    HW118716   1.495   1.392   2.163
 5939SOL    HW218717   1.622   1.325   2.086
 5940SOL     OW18718   3.872   4.836   3.842
 5940SOL    HW118719   3.772   4.837   3.853
 5940SOL    HW218720   3.897   4.899   3.768
 5941SOL     OW18721   6.713   2.824   3.203
 5941SOL    HW118722   6.760   2.829   3.115
 5941SOL    HW218723   6.713   2.914   3.247
 5942SOL     OW18724   6.922   1.236   4.548
 5942SOL    HW118725   6.848   1.299   4.522
 5942SOL    HW218726   6.921   1.224   4.647
 5943SOL     OW18727   1.348   5.037   0.596
 5943SOL    HW118728   1.421   5.051   0.662
 5943SOL    HW218729   1.370   4.959   0.537
 5944SOL     OW18730   5.172   2.524   2.809
 5944SOL    HW118731   5.149   2.592   2.880
 5944SOL    HW218732   5.261   2.548   2.769
 5945SOL     OW18733   6.611   5.493   6.232
 5945SOL    HW118734   6.638   5.441   6.151
 5945SOL    HW218735   6.569   5.579   6.204
 5946SOL     OW18736   3.461   2.735   5.463
 5946SOL    HW118737   3.421   2.826   5.469
 5946SOL    HW218738   3.411   2.680   5.396
 5947SOL     OW18739   4.887   3.869   1.820
 5947SOL    HW118740   4.852   3.802   1.755
 5947SOL    HW218741   4.977   3.839   1.853
 5948SOL     OW18742   2.952   5.233   3.150
 5948SOL    HW118743   2.891   5.218   3.228
 5948SOL    HW218744   2.944   5.327   3.118
 5949SOL     OW18745   4.509   4.518   3.028
 5949SOL    HW118746   4.436   4.586   3.031
 5949SOL    HW218747   4.583   4.545   3.090
 5950SOL     OW18748   6.166   2.803   4.618
 5950SOL    HW118749   6.149   2.727   4.681
 5950SOL    HW218750   6.231   2.775   4.548
 5951SOL     OW18751   2.085   0.441   4.316
 5951SOL    HW118752   2.117   0.375   4.248
 5951SOL    HW218753   2.017   0.502   4.273
 5952SOL     OW18754   0.577   5.862   4.995
 5952SOL    HW118755   0.494   5.883   4.944
 5952SOL    HW218756   0.559   5.873   5.093
 5953SOL     OW18757   1.142   3.104   6.024
 5953SOL    HW118758   1.103   3.107   5.932
 5953SOL    HW218759   1.242   3.096   6.017
 5954SOL     OW18760   1.356   4.950   6.605
 5954SOL    HW118761   1.385   5.022   6.667
 5954SOL    HW218762   1.264   4.971   6.570
 5955SOL     OW18763   5.140   4.966   2.854
 5955SOL    HW118764   5.067   4.985   2.788
 5955SOL    HW218765   5.228   4.993   2.815
 5956SOL     OW18766   0.197   1.943   6.840
 5956SOL    HW118767   0.125   2.000   6.801
 5956SOL    HW218768   0.201   1.957   6.939
 5957SOL     OW18769   4.549   6.581   5.378
 5957SOL    HW118770   4.468   6.523   5.378
 5957SOL    HW218771   4.525   6.673   5.405
 5958SOL     OW18772   1.122   5.710   2.495
 5958SOL    HW118773   1.130   5.698   2.396
 5958SOL    HW218774   1.175   5.639   2.541
 5959SOL     OW18775   1.305   0.895   6.665
 5959SOL    HW118776   1.334   0.800   6.652
 5959SOL    HW218777   1.361   0.955   6.607
 5960SOL     OW18778   3.367   6.484   5.644
 5960SOL    HW118779   3.283   6.458   5.596
 5960SOL    HW218780   3.362   6.581   5.668
 5961SOL     OW18781   2.584   1.152   5.407
 5961SOL    HW118782   2.677   1.117   5.406
 5961SOL    HW218783   2.573   1.221   5.336
 5962SOL     OW18784   5.400   3.869   2.205
 5962SOL    HW118785   5.413   3.771   2.220
 5962SOL    HW218786   5.404   3.917   2.293
 5963SOL     OW18787   4.187   4.009   1.780
 5963SOL    HW118788   4.108   3.992   1.839
 5963SOL    HW218789   4.237   4.089   1.814
 5964SOL     OW18790   1.622   3.820   5.652
 5964SOL    HW118791   1.611   3.724   5.626
 5964SOL    HW218792   1.581   3.878   5.581
 5965SOL     OW18793   2.189   1.669   3.798
 5965SOL    HW118794   2.172   1.768   3.800
 5965SOL    HW218795   2.222   1.643   3.707
 5966SOL     OW18796   2.013   5.705   4.209
 5966SOL    HW118797   1.977   5.622   4.167
 5966SOL    HW218798   2.030   5.774   4.139
 5967SOL     OW18799   4.537   6.080   2.451
 5967SOL    HW118800   4.611   6.082   2.518
 5967SOL    HW218801   4.490   5.992   2.454
 5968SOL     OW18802   0.418   1.697   3.785
 5968SOL    HW118803   0.399   1.639   3.706
 5968SOL    HW218804   0.453   1.641   3.860
 5969SOL     OW18805   5.851   2.595   2.945
 5969SOL    HW118806   5.897   2.558   3.026
 5969SOL    HW218807   5.920   2.618   2.875
 5970SOL     OW18808   2.100   3.575   3.471
 5970SOL    HW118809   2.154   3.659   3.467
 5970SOL    HW218810   2.010   3.591   3.430
 5971SOL     OW18811   2.868   6.370   3.264
 5971SOL    HW118812   2.797   6.439   3.254
 5971SOL    HW218813   2.955   6.414   3.287
 5972SOL     OW18814   5.421   0.050   1.887
 5972SOL    HW118815   5.376   0.138   1.870
 5972SOL    HW218816   5.498   0.040   1.825
 5973SOL     OW18817   1.644   4.365   3.171
 5973SOL    HW118818   1.628   4.338   3.266
 5973SOL    HW218819   1.680   4.458   3.168
 5974SOL     OW18820   1.084   3.828   6.252
 5974SOL    HW118821   1.180   3.819   6.281
 5974SOL    HW218822   1.057   3.747   6.200
 5975SOL     OW18823   2.143   2.449   6.398
 5975SOL    HW118824   2.132   2.531   6.341
 5975SOL    HW218825   2.204   2.469   6.474
 5976SOL     OW18826   3.496   2.962   4.630
 5976SOL    HW118827   3.477   2.951   4.728
 5976SOL    HW218828   3.594   2.948   4.614
 5977SOL     OW18829   0.435   3.425   3.283
 5977SOL    HW118830   0.371   3.445   3.209
 5977SOL    HW218831   0.527   3.454   3.257
 5978SOL     OW18832   4.893   5.404   2.162
 5978SOL    HW118833   4.960   5.479   2.166
 5978SOL    HW218834   4.934   5.321   2.199
 5979SOL     OW18835   0.953   1.224   1.606
 5979SOL    HW118836   0.858   1.244   1.585
 5979SOL    HW218837   1.003   1.310   1.620
 5980SOL     OW18838   6.139   2.942   6.296
 5980SOL    HW118839   6.140   2.912   6.391
 5980SOL    HW218840   6.099   2.871   6.239
 5981SOL     OW18841   4.162   2.342   0.702
 5981SOL    HW118842   4.148   2.248   0.733
 5981SOL    HW218843   4.144   2.348   0.604
 5982SOL     OW18844   6.050   2.087   0.066
 5982SOL    HW118845   5.971   2.136   0.030
 5982SOL    HW218846   6.020   2.006   0.115
 5983SOL     OW18847   1.236   0.466   4.623
 5983SOL    HW118848   1.171   0.541   4.611
 5983SOL    HW218849   1.192   0.380   4.599
 5984SOL     OW18850   0.621   6.951   5.899
 5984SOL    HW118851   0.718   6.925   5.897
 5984SOL    HW218852   0.603   7.015   5.825
 5985SOL     OW18853   5.590   3.464   4.122
 5985SOL    HW118854   5.572   3.375   4.080
 5985SOL    HW218855   5.674   3.503   4.082
 5986SOL     OW18856   3.071   3.138   2.772
 5986SOL    HW118857   3.092   3.201   2.847
 5986SOL    HW218858   3.054   3.047   2.809
 5987SOL     OW18859   4.990   0.331   5.771
 5987SOL    HW118860   4.919   0.265   5.747
 5987SOL    HW218861   5.045   0.295   5.847
 5988SOL     OW18862   3.522   0.497   5.713
 5988SOL    HW118863   3.591   0.464   5.649
 5988SOL    HW218864   3.539   0.458   5.803
 5989SOL     OW18865   2.805   1.836   6.955
 5989SOL    HW118866   2.770   1.892   6.880
 5989SOL    HW218867   2.792   1.885   0.020
 5990SOL     OW18868   3.599   5.101   2.655
 5990SOL    HW118869   3.689   5.083   2.695
 5990SOL    HW218870   3.571   5.022   2.600
 5991SOL     OW18871   2.534   5.212   3.556
 5991SOL    HW118872   2.546   5.306   3.524
 5991SOL    HW218873   2.558   5.206   3.652
 5992SOL     OW18874   4.349   2.005   3.961
 5992SOL    HW118875   4.394   2.030   3.876
 5992SOL    HW218876   4.331   2.088   4.015
 5993SOL     OW18877   2.769   5.486   3.788
 5993SOL    HW118878   2.708   5.543   3.734
 5993SOL    HW218879   2.715   5.431   3.853
 5994SOL     OW18880   6.432   1.861   1.446
 5994SOL    HW118881   6.424   1.864   1.346
 5994SOL    HW218882   6.426   1.953   1.483
 5995SOL     OW18883   1.101   4.695   1.311
 5995SOL    HW118884   1.020   4.638   1.322
 5995SOL    HW218885   1.119   4.743   1.397
 5996SOL     OW18886   1.026   5.986   5.798
 5996SOL    HW118887   1.107   6.026   5.842
 5996SOL    HW218888   0.991   6.049   5.728
 5997SOL     OW18889   0.517   0.644   1.547
 5997SOL    HW118890   0.528   0.684   1.638
 5997SOL    HW218891   0.468   0.709   1.488
 5998SOL     OW18892   4.468   2.487   3.492
 5998SOL    HW118893   4.539   2.545   3.532
 5998SOL    HW218894   4.480   2.393   3.523
 5999SOL     OW18895   2.554   2.577   3.232
 5999SOL    HW118896   2.565   2.676   3.246
 5999SOL    HW218897   2.479   2.544   3.288
 6000SOL     OW18898   4.996   0.780   3.338
 6000SOL    HW118899   5.025   0.847   3.271
 6000SOL    HW218900   4.970   0.827   3.423
 6001SOL     OW18901   6.662   1.779   0.329
 6001SOL    HW118902   6.682   1.732   0.243
 6001SOL    HW218903   6.587   1.732   0.376
 6002SOL     OW18904   1.753   0.288   2.130
 6002SOL    HW118905   1.781   0.287   2.034
 6002SOL    HW218906   1.656   0.265   2.138
 6003SOL     OW18907   5.493   4.470   3.741
 6003SOL    HW118908   5.562   4.484   3.813
 6003SOL    HW218909   5.459   4.376   3.746
 6004SOL     OW18910   6.776   3.434   2.038
 6004SOL    HW118911   6.855   3.491   2.060
 6004SOL    HW218912   6.796   3.379   1.957
 6005SOL     OW18913   1.857   6.029   2.437
 6005SOL    HW118914   1.911   6.113   2.445
 6005SOL    HW218915   1.884   5.964   2.508
 6006SOL     OW18916   2.428   5.772   0.360
 6006SOL    HW118917   2.448   5.864   0.396
 6006SOL    HW218918   2.431   5.706   0.435
 6007SOL     OW18919   5.153   3.507   4.757
 6007SOL    HW118920   5.074   3.503   4.695
 6007SOL    HW218921   5.122   3.527   4.850
 6008SOL     OW18922   4.619   3.963   1.235
 6008SOL    HW118923   4.619   3.983   1.333
 6008SOL    HW218924   4.635   3.865   1.220
 6009SOL     OW18925   4.417   1.761   5.119
 6009SOL    HW118926   4.499   1.816   5.137
 6009SOL    HW218927   4.337   1.821   5.118
 6010SOL     OW18928   1.326   4.167   3.121
 6010SOL    HW118929   1.237   4.202   3.091
 6010SOL    HW218930   1.397   4.234   3.100
 6011SOL     OW18931   6.596   2.335   2.005
 6011SOL    HW118932   6.632   2.244   1.983
 6011SOL    HW218933   6.520   2.357   1.944
 6012SOL     OW18934   0.269   3.070   1.840
 6012SOL    HW118935   0.247   3.138   1.770
 6012SOL    HW218936   0.368   3.060   1.847
 6013SOL     OW18937   5.582   0.496   2.585
 6013SOL    HW118938   5.633   0.552   2.650
 6013SOL    HW218939   5.484   0.513   2.595
 6014SOL     OW18940   6.228   0.389   1.094
 6014SOL    HW118941   6.277   0.400   1.181
 6014SOL    HW218942   6.236   0.473   1.041
 6015SOL     OW18943   5.613   0.536   4.207
 6015SOL    HW118944   5.541   0.524   4.139
 6015SOL    HW218945   5.682   0.464   4.194
 6016SOL     OW18946   2.085   0.038   5.386
 6016SOL    HW118947   2.063   0.125   5.429
 6016SOL    HW218948   2.028   0.026   5.305
 6017SOL     OW18949   6.990   3.695   2.449
 6017SOL    HW118950   6.968   3.791   2.462
 6017SOL    HW218951   0.030   3.664   2.522
 6018SOL     OW18952   2.744   5.317   1.764
 6018SOL    HW118953   2.822   5.263   1.731
 6018SOL    HW218954   2.776   5.405   1.798
 6019SOL     OW18955   5.842   6.118   3.319
 6019SOL    HW118956   5.938   6.090   3.312
 6019SOL    HW218957   5.832   6.185   3.393
 6020SOL     OW18958   2.485   6.750   2.911
 6020SOL    HW118959   2.470   6.843   2.875
 6020SOL    HW218960   2.413   6.728   2.976
 6021SOL     OW18961   4.033   0.497   3.977
 6021SOL    HW118962   3.999   0.403   3.982
 6021SOL    HW218963   4.031   0.538   4.068
 6022SOL     OW18964   4.576   0.874   5.141
 6022SOL    HW118965   4.644   0.826   5.086
 6022SOL    HW218966   4.508   0.809   5.175
 6023SOL     OW18967   0.154   2.156   2.493
 6023SOL    HW118968   0.138   2.066   2.535
 6023SOL    HW218969   0.085   2.171   2.422
 6024SOL     OW18970   6.853   6.005   2.587
 6024SOL    HW118971   6.776   6.039   2.642
 6024SOL    HW218972   6.889   5.922   2.629
 6025SOL     OW18973   3.952   2.222   2.611
 6025SOL    HW118974   3.855   2.211   2.588
 6025SOL    HW218975   4.003   2.244   2.528
 6026SOL     OW18976   0.467   4.671   5.679
 6026SOL    HW118977   0.559   4.656   5.642
 6026SOL    HW218978   0.411   4.716   5.610
 6027SOL     OW18979   3.865   3.236   0.444
 6027SOL    HW118980   3.901   3.321   0.404
 6027SOL    HW218981   3.765   3.241   0.447
 6028SOL     OW18982   0.793   4.164   0.328
 6028SOL    HW118983   0.866   4.228   0.351
 6028SOL    HW218984   0.712   4.215   0.298
 6029SOL     OW18985   0.855   4.887   1.540
 6029SOL    HW118986   0.759   4.904   1.517
 6029SOL    HW218987   0.875   4.790   1.527
 6030SOL     OW18988   1.675   6.592   1.713
 6030SOL    HW118989   1.580   6.559   1.707
 6030SOL    HW218990   1.675   6.686   1.748
 6031SOL     OW18991   5.178   0.787   4.419
 6031SOL    HW118992   5.080   0.769   4.418
 6031SOL    HW218993   5.210   0.804   4.325
 6032SOL     OW18994   0.493   3.269   2.099
 6032SOL    HW118995   0.422   3.222   2.046
 6032SOL    HW218996   0.574   3.212   2.105
 6033SOL     OW18997   0.475   6.808   4.572
 6033SOL    HW118998   0.533   6.831   4.650
 6033SOL    HW218999   0.494   6.871   4.496
 6034SOL     OW19000   2.304   4.409   4.989
 6034SOL    HW119001   2.340   4.333   5.042
 6034SOL    HW219002   2.341   4.405   4.896
 6035SOL     OW19003   5.332   6.945   3.833
 6035SOL    HW119004   5.322   6.941   3.734
 6035SOL    HW219005   5.251   6.989   3.873
 6036SOL     OW19006   6.946   0.623   4.534
 6036SOL    HW119007   6.910   0.533   4.510
 6036SOL    HW219008   0.008   0.642   4.481
 6037SOL     OW19009   0.389   5.627   4.752
 6037SOL    HW119010   0.390   5.695   4.679
 6037SOL    HW219011   0.305   5.636   4.806
 6038SOL     OW19012   6.162   3.823   6.658
 6038SOL    HW119013   6.184   3.747   6.719
 6038SOL    HW219014   6.075   3.864   6.685
 6039SOL     OW19015   4.060   3.229   4.587
 6039SOL    HW119016   4.076   3.250   4.491
 6039SOL    HW219017   4.070   3.130   4.602
 6040SOL     OW19018   1.421   0.831   1.485
 6040SOL    HW119019   1.450   0.882   1.404
 6040SOL    HW219020   1.322   0.813   1.479
 6041SOL     OW19021   0.436   2.629   0.543
 6041SOL    HW119022   0.479   2.674   0.622
 6041SOL    HW219023   0.451   2.685   0.462
 6042SOL     OW19024   5.522   5.753   5.011
 6042SOL    HW119025   5.447   5.739   4.946
 6042SOL    HW219026   5.580   5.671   5.014
 6043SOL     OW19027   0.413   4.533   4.349
 6043SOL    HW119028   0.485   4.471   4.380
 6043SOL    HW219029   0.326   4.507   4.390
 6044SOL     OW19030   1.678   0.377   1.533
 6044SOL    HW119031   1.764   0.329   1.517
 6044SOL    HW219032   1.683   0.470   1.495
 6045SOL     OW19033   6.398   3.998   0.575
 6045SOL    HW119034   6.417   4.096   0.582
 6045SOL    HW219035   6.418   3.954   0.662
 6046SOL     OW19036   1.887   3.286   0.266
 6046SOL    HW119037   1.823   3.342   0.318
 6046SOL    HW219038   1.863   3.289   0.169
 6047SOL     OW19039   0.477   6.442   4.704
 6047SOL    HW119040   0.399   6.381   4.719
 6047SOL    HW219041   0.469   6.522   4.763
 6048SOL     OW19042   4.638   6.070   4.633
 6048SOL    HW119043   4.681   6.002   4.574
 6048SOL    HW219044   4.709   6.125   4.678
 6049SOL     OW19045   6.726   5.533   0.044
 6049SOL    HW119046   6.721   5.629   0.073
 6049SOL    HW219047   6.743   5.475   0.123
 6050SOL     OW19048   5.419   4.722   5.567
 6050SOL    HW119049   5.458   4.814   5.575
 6050SOL    HW219050   5.493   4.655   5.567
 6051SOL     OW19051   2.787   1.898   3.137
 6051SOL    HW119052   2.781   1.946   3.225
 6051SOL    HW219053   2.726   1.942   3.071
 6052SOL     OW19054   6.789   1.315   0.239
 6052SOL    HW119055   6.760   1.404   0.275
 6052SOL    HW219056   6.825   1.326   0.146
 6053SOL     OW19057   1.888   0.121   6.256
 6053SOL    HW119058   1.962   0.187   6.241
 6053SOL    HW219059   1.892   0.050   6.186
 6054SOL     OW19060   1.637   4.189   6.375
 6054SOL    HW119061   1.677   4.219   6.289
 6054SOL    HW219062   1.547   4.231   6.387
 6055SOL     OW19063   5.445   0.414   3.465
 6055SOL    HW119064   5.520   0.461   3.510
 6055SOL    HW219065   5.378   0.481   3.432
 6056SOL     OW19066   5.234   3.381   6.151
 6056SOL    HW119067   5.195   3.347   6.066
 6056SOL    HW219068   5.322   3.424   6.132
 6057SOL     OW19069   3.541   0.871   6.394
 6057SOL    HW119070   3.536   0.943   6.463
 6057SOL    HW219071   3.527   0.910   6.303
 6058SOL     OW19072   5.387   1.940   5.309
 6058SOL    HW119073   5.359   1.850   5.343
 6058SOL    HW219074   5.307   1.991   5.280
 6059SOL     OW19075   6.575   6.031   6.344
 6059SOL    HW119076   6.668   6.036   6.307
 6059SOL    HW219077   6.513   6.084   6.285
 6060SOL     OW19078   3.470   6.313   6.460
 6060SOL    HW119079   3.569   6.300   6.463
 6060SOL    HW219080   3.450   6.406   6.431
 6061SOL     OW19081   2.132   1.716   0.322
 6061SOL    HW119082   2.120   1.692   0.226
 6061SOL    HW219083   2.219   1.764   0.334
 6062SOL     OW19084   1.219   0.124   4.182
 6062SOL    HW119085   1.205   0.223   4.176
 6062SOL    HW219086   1.170   0.089   4.263
 6063SOL     OW19087   5.194   5.869   0.181
 6063SOL    HW119088   5.234   5.958   0.202
 6063SOL    HW219089   5.243   5.797   0.230
 6064SOL     OW19090   0.762   5.359   2.649
 6064SOL    HW119091   0.715   5.412   2.579
 6064SOL    HW219092   0.790   5.271   2.610
 6065SOL     OW19093   5.737   6.763   1.783
 6065SOL    HW119094   5.823   6.712   1.794
 6065SOL    HW219095   5.667   6.724   1.842
 6066SOL     OW19096   4.542   2.040   6.190
 6066SOL    HW119097   4.450   2.064   6.221
 6066SOL    HW219098   4.561   1.944   6.212
 6067SOL     OW19099   5.302   2.407   6.878
 6067SOL    HW119100   5.239   2.417   6.955
 6067SOL    HW219101   5.266   2.339   6.814
 6068SOL     OW19102   5.743   1.773   5.654
 6068SOL    HW119103   5.715   1.861   5.691
 6068SOL    HW219104   5.672   1.705   5.671
 6069SOL     OW19105   6.073   4.479   4.407
 6069SOL    HW119106   6.166   4.476   4.370
 6069SOL    HW219107   6.022   4.553   4.363
 6070SOL     OW19108   4.755   2.841   0.000
 6070SOL    HW119109   4.762   2.936   6.991
 6070SOL    HW219110   4.758   2.837   0.100
 6071SOL     OW19111   5.211   6.963   5.647
 6071SOL    HW119112   5.212   6.932   5.552
 6071SOL    HW219113   5.282   6.916   5.699
 6072SOL     OW19114   6.772   1.615   0.650
 6072SOL    HW119115   6.702   1.610   0.579
 6072SOL    HW219116   6.810   1.708   0.653
 6073SOL     OW19117   6.762   1.638   0.943
 6073SOL    HW119118   6.708   1.700   0.885
 6073SOL    HW219119   6.703   1.565   0.977
 6074SOL     OW19120   0.650   0.346   4.971
 6074SOL    HW119121   0.641   0.248   4.951
 6074SOL    HW219122   0.562   0.383   4.999
 6075SOL     OW19123   4.621   4.015   6.664
 6075SOL    HW119124   4.680   3.963   6.725
 6075SOL    HW219125   4.526   4.005   6.693
 6076SOL     OW19126   2.722   0.299   4.329
 6076SOL    HW119127   2.797   0.353   4.368
 6076SOL    HW219128   2.703   0.332   4.236
 6077SOL     OW19129   5.158   5.080   3.117
 6077SOL    HW119130   5.170   5.015   3.041
 6077SOL    HW219131   5.187   5.171   3.088
 6078SOL     OW19132   1.811   4.390   3.857
 6078SOL    HW119133   1.740   4.456   3.830
 6078SOL    HW219134   1.768   4.305   3.885
 6079SOL     OW19135   2.973   1.538   0.752
 6079SOL    HW119136   3.015   1.472   0.690
 6079SOL    HW219137   2.874   1.534   0.743
 6080SOL     OW19138   6.180   2.777   3.246
 6080SOL    HW119139   6.245   2.719   3.197
 6080SOL    HW219140   6.124   2.721   3.307
 6081SOL     OW19141   0.771   3.748   2.772
 6081SOL    HW119142   0.771   3.667   2.713
 6081SOL    HW219143   0.786   3.830   2.717
 6082SOL     OW19144   3.413   1.673   4.636
 6082SOL    HW119145   3.489   1.629   4.589
 6082SOL    HW219146   3.400   1.765   4.599
 6083SOL     OW19147   1.811   6.719   0.487
 6083SOL    HW119148   1.878   6.743   0.416
 6083SOL    HW219149   1.752   6.645   0.453
 6084SOL     OW19150   6.972   5.536   5.618
 6084SOL    HW119151   6.955   5.479   5.538
 6084SOL    HW219152   0.023   5.602   5.598
 6085SOL     OW19153   5.183   5.107   1.890
 6085SOL    HW119154   5.140   5.040   1.950
 6085SOL    HW219155   5.142   5.197   1.907
 6086SOL     OW19156   3.039   1.508   2.491
 6086SOL    HW119157   3.029   1.514   2.392
 6086SOL    HW219158   3.039   1.412   2.519
 6087SOL     OW19159   3.548   0.497   0.905
 6087SOL    HW119160   3.619   0.467   0.969
 6087SOL    HW219161   3.581   0.576   0.854
 6088SOL     OW19162   0.151   0.085   5.192
 6088SOL    HW119163   0.244   0.122   5.197
 6088SOL    HW219164   0.147   0.014   5.122
 6089SOL     OW19165   6.369   3.706   0.786
 6089SOL    HW119166   6.320   3.625   0.819
 6089SOL    HW219167   6.387   3.697   0.688
 6090SOL     OW19168   0.173   5.707   4.070
 6090SOL    HW119169   0.169   5.785   4.008
 6090SOL    HW219170   0.268   5.678   4.081
 6091SOL     OW19171   6.468   2.119   1.577
 6091SOL    HW119172   6.418   2.206   1.583
 6091SOL    HW219173   6.558   2.131   1.618
 6092SOL     OW19174   0.831   3.398   1.122
 6092SOL    HW119175   0.891   3.384   1.201
 6092SOL    HW219176   0.864   3.345   1.044
 6093SOL     OW19177   1.151   4.056   0.723
 6093SOL    HW119178   1.074   4.116   0.742
 6093SOL    HW219179   1.226   4.109   0.683
 6094SOL     OW19180   0.576   1.353   0.511
 6094SOL    HW119181   0.591   1.414   0.589
 6094SOL    HW219182   0.639   1.378   0.437
 6095SOL     OW19183   6.973   4.245   5.096
 6095SOL    HW119184   6.955   4.300   5.014
 6095SOL    HW219185   6.918   4.280   5.172
 6096SOL     OW19186   4.637   2.026   3.055
 6096SOL    HW119187   4.547   2.052   3.019
 6096SOL    HW219188   4.695   1.994   2.981
 6097SOL     OW19189   3.164   2.064   2.255
 6097SOL    HW119190   3.084   2.123   2.251
 6097SOL    HW219191   3.200   2.050   2.162
 6098SOL     OW19192   1.331   0.332   6.394
 6098SOL    HW119193   1.266   0.396   6.353
 6098SOL    HW219194   1.408   0.382   6.432
 6099SOL     OW19195   5.815   4.468   5.253
 6099SOL    HW119196   5.901   4.447   5.206
 6099SOL    HW219197   5.758   4.386   5.256
 6100SOL     OW19198   7.018   2.498   6.813
 6100SOL    HW119199   6.980   2.546   6.735
 6100SOL    HW219200   6.986   2.540   6.898
 6101SOL     OW19201   6.194   6.912   3.653
 6101SOL    HW119202   6.144   6.851   3.714
 6101SOL    HW219203   6.274   6.864   3.616
 6102SOL     OW19204   2.800   6.925   5.034
 6102SOL    HW119205   2.807   6.991   5.109
 6102SOL    HW219206   2.734   6.959   4.966
 6103SOL     OW19207   5.614   1.694   5.324
 6103SOL    HW119208   5.585   1.781   5.284
 6103SOL    HW219209   5.584   1.690   5.420
 6104SOL     OW19210   1.141   2.912   1.101
 6104SOL    HW119211   1.219   2.868   1.056
 6104SOL    HW219212   1.140   3.009   1.078
 6105SOL     OW19213   3.262   4.918   5.116
 6105SOL    HW119214   3.336   4.913   5.049
 6105SOL    HW219215   3.176   4.892   5.071
 6106SOL     OW19216   2.985   4.868   4.003
 6106SOL    HW119217   2.905   4.812   4.023
 6106SOL    HW219218   3.044   4.873   4.084
 6107SOL     OW19219   2.073   4.832   5.187
 6107SOL    HW119220   2.063   4.823   5.286
 6107SOL    HW219221   2.060   4.743   5.144
 6108SOL     OW19222   5.443   1.854   4.546
 6108SOL    HW119223   5.345   1.835   4.549
 6108SOL    HW219224   5.489   1.803   4.618
 6109SOL     OW19225   7.006   3.585   1.721
 6109SOL    HW119226   0.047   3.648   1.767
 6109SOL    HW219227   6.920   3.632   1.699
 6110SOL     OW19228   3.254   2.041   3.474
 6110SOL    HW119229   3.196   1.961   3.460
 6110SOL    HW219230   3.329   2.040   3.408
 6111SOL     OW19231   0.639   4.738   3.811
 6111SOL    HW119232   0.566   4.670   3.817
 6111SOL    HW219233   0.711   4.717   3.876
 6112SOL     OW19234   1.324   2.350   0.474
 6112SOL    HW119235   1.298   2.260   0.508
 6112SOL    HW219236   1.383   2.396   0.540
 6113SOL     OW19237   1.558   5.381   5.061
 6113SOL    HW119238   1.605   5.439   5.127
 6113SOL    HW219239   1.614   5.372   4.979
 6114SOL     OW19240   4.917   4.522   0.819
 6114SOL    HW119241   5.004   4.570   0.803
 6114SOL    HW219242   4.854   4.543   0.744
 6115SOL     OW19243   6.321   4.526   1.864
 6115SOL    HW119244   6.285   4.528   1.771
 6115SOL    HW219245   6.400   4.588   1.871
 6116SOL     OW19246   3.198   2.527   0.976
 6116SOL    HW119247   3.158   2.439   1.000
 6116SOL    HW219248   3.164   2.597   1.039
 6117SOL     OW19249   5.598   6.733   4.150
 6117SOL    HW119250   5.625   6.769   4.061
 6117SOL    HW219251   5.499   6.723   4.154
 6118SOL     OW19252   6.758   7.005   3.241
 6118SOL    HW119253   6.748   6.906   3.249
 6118SOL    HW219254   6.748   0.025   3.332
 6119SOL     OW19255   5.359   5.907   4.144
 6119SOL    HW119256   5.439   5.847   4.150
 6119SOL    HW219257   5.354   5.965   4.226
 6120SOL     OW19258   2.461   1.916   3.004
 6120SOL    HW119259   2.391   1.914   2.933
 6120SOL    HW219260   2.551   1.903   2.963
 6121SOL     OW19261   6.927   1.199   4.832
 6121SOL    HW119262   6.834   1.165   4.836
 6121SOL    HW219263   6.937   1.277   4.894
 6122SOL     OW19264   3.909   6.224   4.446
 6122SOL    HW119265   3.832   6.248   4.386
 6122SOL    HW219266   3.992   6.215   4.391
 6123SOL     OW19267   5.670   1.430   2.866
 6123SOL    HW119268   5.707   1.437   2.959
 6123SOL    HW219269   5.587   1.375   2.867
 6124SOL     OW19270   2.874   0.289   4.630
 6124SOL    HW119271   2.910   0.202   4.665
 6124SOL    HW219272   2.781   0.302   4.664
 6125SOL     OW19273   1.086   4.381   2.158
 6125SOL    HW119274   1.160   4.358   2.094
 6125SOL    HW219275   1.002   4.334   2.131
 6126SOL     OW19276   3.810   6.096   2.657
 6126SOL    HW119277   3.798   6.045   2.571
 6126SOL    HW219278   3.820   6.193   2.637
 6127SOL     OW19279   2.028   5.214   1.997
 6127SOL    HW119280   2.124   5.216   1.971
 6127SOL    HW219281   1.980   5.290   1.953
 6128SOL     OW19282   5.044   3.412   1.249
 6128SOL    HW119283   4.984   3.428   1.327
 6128SOL    HW219284   5.016   3.470   1.173
 6129SOL     OW19285   6.636   3.826   3.248
 6129SOL    HW119286   6.647   3.925   3.243
 6129SOL    HW219287   6.707   3.787   3.307
 6130SOL     OW19288   5.320   3.983   2.671
 6130SOL    HW119289   5.286   3.896   2.636
 6130SOL    HW219290   5.335   3.976   2.770
 6131SOL     OW19291   6.283   1.340   5.035
 6131SOL    HW119292   6.375   1.376   5.026
 6131SOL    HW219293   6.285   1.257   5.092
 6132SOL     OW19294   6.527   2.525   0.360
 6132SOL    HW119295   6.604   2.523   0.297
 6132SOL    HW219296   6.558   2.498   0.451
 6133SOL     OW19297   1.483   4.375   0.408
 6133SOL    HW119298   1.544   4.418   0.342
 6133SOL    HW219299   1.390   4.371   0.369
 6134SOL     OW19300   4.880   4.206   0.146
 6134SOL    HW119301   4.835   4.216   0.057
 6134SOL    HW219302   4.851   4.121   0.189
 6135SOL     OW19303   5.916   0.294   2.816
 6135SOL    HW119304   5.994   0.270   2.874
 6135SOL    HW219305   5.949   0.331   2.729
 6136SOL     OW19306   1.063   1.204   2.297
 6136SOL    HW119307   1.012   1.227   2.214
 6136SOL    HW219308   1.100   1.287   2.337
 6137SOL     OW19309   3.195   6.923   6.721
 6137SOL    HW119310   3.132   6.966   6.786
 6137SOL    HW219311   3.283   6.907   6.766
 6138SOL     OW19312   5.242   0.235   3.027
 6138SOL    HW119313   5.196   0.249   3.115
 6138SOL    HW219314   5.213   0.148   2.988
 6139SOL     OW19315   2.582   6.020   3.655
 6139SOL    HW119316   2.638   6.060   3.728
 6139SOL    HW219317   2.536   5.939   3.690
 6140SOL     OW19318   1.902   5.531   1.158
 6140SOL    HW119319   1.929   5.551   1.252
 6140SOL    HW219320   1.953   5.589   1.095
 6141SOL     OW19321   0.154   6.016   5.400
 6141SOL    HW119322   0.185   6.037   5.307
 6141SOL    HW219323   0.059   5.986   5.397
 6142SOL     OW19324   0.372   4.229   3.516
 6142SOL    HW119325   0.448   4.280   3.477
 6142SOL    HW219326   0.385   4.131   3.500
 6143SOL     OW19327   6.650   4.381   6.328
 6143SOL    HW119328   6.594   4.311   6.373
 6143SOL    HW219329   6.635   4.378   6.229
 6144SOL     OW19330   0.258   5.184   4.100
 6144SOL    HW119331   0.233   5.236   4.182
 6144SOL    HW219332   0.290   5.093   4.126
 6145SOL     OW19333   5.667   5.368   3.332
 6145SOL    HW119334   5.613   5.419   3.399
 6145SOL    HW219335   5.726   5.430   3.281
 6146SOL     OW19336   5.683   2.253   3.929
 6146SOL    HW119337   5.708   2.320   3.859
 6146SOL    HW219338   5.619   2.187   3.890
 6147SOL     OW19339   1.070   3.894   2.860
 6147SOL    HW119340   1.093   3.800   2.888
 6147SOL    HW219341   1.043   3.894   2.764
 6148SOL     OW19342   6.383   6.129   2.904
 6148SOL    HW119343   6.465   6.087   2.942
 6148SOL    HW219344   6.330   6.061   2.855
 6149SOL     OW19345   1.493   5.830   4.912
 6149SOL    HW119346   1.519   5.756   4.849
 6149SOL    HW219347   1.557   5.831   4.989
 6150SOL     OW19348   4.432   6.482   5.756
 6150SOL    HW119349   4.515   6.504   5.808
 6150SOL    HW219350   4.355   6.477   5.820
 6151SOL     OW19351   4.619   0.296   5.836
 6151SOL    HW119352   4.681   0.217   5.836
 6151SOL    HW219353   4.640   0.354   5.758
 6152SOL     OW19354   6.368   4.457   5.155
 6152SOL    HW119355   6.402   4.401   5.230
 6152SOL    HW219356   6.285   4.505   5.184
 6153SOL     OW19357   4.417   5.102   6.330
 6153SOL    HW119358   4.425   5.194   6.293
 6153SOL    HW219359   4.508   5.068   6.354
 6154SOL     OW19360   5.429   3.309   3.503
 6154SOL    HW119361   5.367   3.262   3.566
 6154SOL    HW219362   5.478   3.242   3.449
 6155SOL     OW19363   2.438   4.819   4.949
 6155SOL    HW119364   2.466   4.731   4.989
 6155SOL    HW219365   2.473   4.894   5.005
 6156SOL     OW19366   5.704   0.490   4.686
 6156SOL    HW119367   5.608   0.502   4.713
 6156SOL    HW219368   5.760   0.477   4.768
 6157SOL     OW19369   1.039   1.650   3.870
 6157SOL    HW119370   1.074   1.558   3.852
 6157SOL    HW219371   0.939   1.649   3.863
 6158SOL     OW19372   5.477   6.771   0.021
 6158SOL    HW119373   5.535   6.851   0.006
 6158SOL    HW219374   5.493   6.735   0.113
 6159SOL     OW19375   4.837   3.392   6.874
 6159SOL    HW119376   4.925   3.344   6.875
 6159SOL    HW219377   4.772   3.342   6.817
 6160SOL     OW19378   6.279   4.286   0.408
 6160SOL    HW119379   6.314   4.201   0.370
 6160SOL    HW219380   6.209   4.323   0.347
 6161SOL     OW19381   6.185   0.055   6.532
 6161SOL    HW119382   6.209   7.011   6.604
 6161SOL    HW219383   6.189   0.009   6.443
 6162SOL     OW19384   5.372   5.164   4.233
 6162SOL    HW119385   5.352   5.073   4.270
 6162SOL    HW219386   5.469   5.184   4.245
 6163SOL     OW19387   0.184   4.126   2.742
 6163SOL    HW119388   0.197   4.146   2.645
 6163SOL    HW219389   0.227   4.038   2.763
 6164SOL     OW19390   4.335   2.922   0.840
 6164SOL    HW119391   4.359   2.905   0.935
 6164SOL    HW219392   4.417   2.943   0.788
 6165SOL     OW19393   3.867   0.209   1.392
 6165SOL    HW119394   3.857   0.240   1.297
 6165SOL    HW219395   3.860   0.287   1.454
 6166SOL     OW19396   3.902   1.305   0.649
 6166SOL    HW119397   3.848   1.348   0.577
 6166SOL    HW219398   3.861   1.217   0.673
 6167SOL     OW19399   6.600   5.466   3.871
 6167SOL    HW119400   6.553   5.491   3.955
 6167SOL    HW219401   6.652   5.544   3.837
 6168SOL     OW19402   0.115   3.146   1.175
 6168SOL    HW119403   0.085   3.083   1.247
 6168SOL    HW219404   0.192   3.105   1.126
 6169SOL     OW19405   1.987   4.440   1.532
 6169SOL    HW119406   2.048   4.390   1.593
 6169SOL    HW219407   1.894   4.437   1.568
 6170SOL     OW19408   6.546   1.777   3.485
 6170SOL    HW119409   6.611   1.704   3.463
 6170SOL    HW219410   6.567   1.815   3.575
 6171SOL     OW19411   6.263   1.196   5.893
 6171SOL    HW119412   6.163   1.191   5.890
 6171SOL    HW219413   6.291   1.234   5.981
 6172SOL     OW19414   0.690   4.581   4.296
 6172SOL    HW119415   0.673   4.664   4.349
 6172SOL    HW219416   0.772   4.595   4.239
 6173SOL     OW19417   5.601   6.240   2.996
 6173SOL    HW119418   5.521   6.224   3.054
 6173SOL    HW219419   5.668   6.167   3.009
 6174SOL     OW19420   6.424   2.165   3.328
 6174SOL    HW119421   6.432   2.077   3.281
 6174SOL    HW219422   6.510   2.186   3.375
 6175SOL     OW19423   3.918   1.265   6.759
 6175SOL    HW119424   3.872   1.314   6.685
 6175SOL    HW219425   3.923   1.323   6.840
 6176SOL     OW19426   2.617   4.469   6.705
 6176SOL    HW119427   2.602   4.373   6.731
 6176SOL    HW219428   2.671   4.515   6.775
 6177SOL     OW19429   5.772   5.330   1.711
 6177SOL    HW119430   5.870   5.351   1.716
 6177SOL    HW219431   5.752   5.253   1.771
 6178SOL     OW19432   4.062   4.730   2.218
 6178SOL    HW119433   3.965   4.752   2.229
 6178SOL    HW219434   4.081   4.708   2.123
 6179SOL     OW19435   5.396   5.263   4.849
 6179SOL    HW119436   5.301   5.293   4.857
 6179SOL    HW219437   5.430   5.282   4.757
 6180SOL     OW19438   2.209   4.084   6.746
 6180SOL    HW119439   2.307   4.092   6.762
 6180SOL    HW219440   2.187   3.993   6.712
 6181SOL     OW19441   6.385   6.197   0.135
 6181SOL    HW119442   6.375   6.179   0.037
 6181SOL    HW219443   6.295   6.221   0.173
 6182SOL     OW19444   2.450   2.373   6.664
 6182SOL    HW119445   2.386   2.380   6.741
 6182SOL    HW219446   2.400   2.343   6.583
 6183SOL     OW19447   0.253   0.667   0.479
 6183SOL    HW119448   0.185   0.719   0.532
 6183SOL    HW219449   0.324   0.730   0.446
 6184SOL     OW19450   3.293   6.791   5.556
 6184SOL    HW119451   3.278   6.799   5.458
 6184SOL    HW219452   3.213   6.749   5.599
 6185SOL     OW19453   3.342   2.987   5.432
 6185SOL    HW119454   3.343   3.076   5.477
 6185SOL    HW219455   3.248   2.961   5.411
 6186SOL     OW19456   1.154   1.940   2.484
 6186SOL    HW119457   1.202   1.996   2.416
 6186SOL    HW219458   1.205   1.942   2.570
 6187SOL     OW19459   3.062   1.743   6.204
 6187SOL    HW119460   3.095   1.686   6.280
 6187SOL    HW219461   3.135   1.803   6.173
 6188SOL     OW19462   1.622   1.607   5.599
 6188SOL    HW119463   1.557   1.532   5.610
 6188SOL    HW219464   1.592   1.687   5.651
 6189SOL     OW19465   6.574   4.928   0.291
 6189SOL    HW119466   6.567   4.894   0.198
 6189SOL    HW219467   6.573   5.028   0.290
 6190SOL     OW19468   0.774   2.716   3.458
 6190SOL    HW119469   0.687   2.722   3.507
 6190SOL    HW219470   0.844   2.768   3.507
 6191SOL     OW19471   2.526   4.235   0.612
 6191SOL    HW119472   2.613   4.282   0.629
 6191SOL    HW219473   2.451   4.297   0.631
 6192SOL     OW19474   3.199   1.845   1.285
 6192SOL    HW119475   3.129   1.791   1.239
 6192SOL    HW219476   3.166   1.874   1.375
 6193SOL     OW19477   4.030   6.030   6.824
 6193SOL    HW119478   4.032   6.118   6.872
 6193SOL    HW219479   4.108   6.024   6.762
 6194SOL     OW19480   5.359   0.249   6.014
 6194SOL    HW119481   5.307   0.214   5.936
 6194SOL    HW219482   5.295   0.270   6.089
 6195SOL     OW19483   4.722   5.798   5.807
 6195SOL    HW119484   4.772   5.721   5.846
 6195SOL    HW219485   4.641   5.818   5.862
 6196SOL     OW19486   6.552   3.476   3.192
 6196SOL    HW119487   6.516   3.396   3.144
 6196SOL    HW219488   6.585   3.543   3.125
 6197SOL     OW19489   0.857   5.321   0.931
 6197SOL    HW119490   0.842   5.269   1.015
 6197SOL    HW219491   0.874   5.417   0.954
 6198SOL     OW19492   5.938   1.480   6.631
 6198SOL    HW119493   5.942   1.506   6.727
 6198SOL    HW219494   6.019   1.514   6.584
 6199SOL     OW19495   2.641   0.112   6.005
 6199SOL    HW119496   2.642   0.144   5.911
 6199SOL    HW219497   2.557   0.060   6.021
 6200SOL     OW19498   1.424   0.193   0.778
 6200SOL    HW119499   1.383   0.154   0.696
 6200SOL    HW219500   1.521   0.168   0.782
 6201SOL     OW19501   0.383   5.227   3.598
 6201SOL    HW119502   0.409   5.155   3.662
 6201SOL    HW219503   0.361   5.311   3.649
 6202SOL     OW19504   5.734   0.877   2.039
 6202SOL    HW119505   5.670   0.867   2.114
 6202SOL    HW219506   5.693   0.841   1.955
 6203SOL     OW19507   6.414   1.025   1.981
 6203SOL    HW119508   6.476   0.962   1.933
 6203SOL    HW219509   6.436   1.026   2.078
 6204SOL     OW19510   0.897   5.610   4.735
 6204SOL    HW119511   0.813   5.662   4.744
 6204SOL    HW219512   0.918   5.564   4.822
 6205SOL     OW19513   6.335   4.483   3.025
 6205SOL    HW119514   6.312   4.538   2.946
 6205SOL    HW219515   6.382   4.540   3.093
 6206SOL     OW19516   5.335   2.292   3.641
 6206SOL    HW119517   5.316   2.211   3.585
 6206SOL    HW219518   5.429   2.322   3.625
 6207SOL     OW19519   1.732   5.628   3.518
 6207SOL    HW119520   1.664   5.654   3.448
 6207SOL    HW219521   1.823   5.658   3.488
 6208SOL     OW19522   3.945   4.501   6.477
 6208SOL    HW119523   3.981   4.527   6.566
 6208SOL    HW219524   4.013   4.446   6.428
 6209SOL     OW19525   3.723   1.396   1.927
 6209SOL    HW119526   3.736   1.367   1.832
 6209SOL    HW219527   3.633   1.438   1.937
 6210SOL     OW19528   5.709   1.237   4.307
 6210SOL    HW119529   5.664   1.326   4.313
 6210SOL    HW219530   5.701   1.201   4.214
 6211SOL     OW19531   5.289   3.077   5.340
 6211SOL    HW119532   5.296   3.127   5.426
 6211SOL    HW219533   5.366   3.101   5.281
 6212SOL     OW19534   4.829   4.390   5.141
 6212SOL    HW119535   4.770   4.467   5.119
 6212SOL    HW219536   4.801   4.309   5.089
 6213SOL     OW19537   5.351   5.906   0.583
 6213SOL    HW119538   5.439   5.931   0.624
 6213SOL    HW219539   5.329   5.811   0.606
 6214SOL     OW19540   6.507   0.154   6.511
 6214SOL    HW119541   6.419   0.180   6.552
 6214SOL    HW219542   6.526   0.058   6.531
 6215SOL     OW19543   5.784   2.041   5.182
 6215SOL    HW119544   5.768   2.011   5.088
 6215SOL    HW219545   5.752   1.970   5.245
 6216SOL     OW19546   5.124   2.213   5.521
 6216SOL    HW119547   5.128   2.225   5.422
 6216SOL    HW219548   5.116   2.115   5.542
 6217SOL     OW19549   6.941   4.452   2.462
 6217SOL    HW119550   6.846   4.427   2.484
 6217SOL    HW219551   6.967   4.408   2.376
 6218SOL     OW19552   4.791   6.735   0.763
 6218SOL    HW119553   4.795   6.832   0.739
 6218SOL    HW219554   4.777   6.681   0.680
 6219SOL     OW19555   2.477   0.420   0.103
 6219SOL    HW119556   2.478   0.456   0.010
 6219SOL    HW219557   2.416   0.474   0.159
 6220SOL     OW19558   3.312   6.816   2.211
 6220SOL    HW119559   3.348   6.868   2.288
 6220SOL    HW219560   3.219   6.784   2.233
 6221SOL     OW19561   4.467   5.784   5.323
 6221SOL    HW119562   4.496   5.763   5.416
 6221SOL    HW219563   4.386   5.842   5.326
 6222SOL     OW19564   6.124   1.655   2.609
 6222SOL    HW119565   6.053   1.679   2.543
 6222SOL    HW219566   6.152   1.560   2.594
 6223SOL     OW19567   6.231   5.344   4.315
 6223SOL    HW119568   6.310   5.383   4.362
 6223SOL    HW219569   6.253   5.329   4.219
 6224SOL     OW19570   4.376   6.626   0.383
 6224SOL    HW119571   4.310   6.577   0.441
 6224SOL    HW219572   4.432   6.687   0.439
 6225SOL     OW19573   5.156   6.242   6.394
 6225SOL    HW119574   5.216   6.233   6.314
 6225SOL    HW219575   5.091   6.167   6.396
 6226SOL     OW19576   0.823   0.967   3.661
 6226SOL    HW119577   0.885   0.892   3.637
 6226SOL    HW219578   0.753   0.934   3.724
 6227SOL     OW19579   2.190   5.164   6.087
 6227SOL    HW119580   2.148   5.105   6.155
 6227SOL    HW219581   2.286   5.180   6.111
 6228SOL     OW19582   0.849   3.325   4.007
 6228SOL    HW119583   0.899   3.283   4.082
 6228SOL    HW219584   0.801   3.406   4.041
 6229SOL     OW19585   0.140   4.467   4.534
 6229SOL    HW119586   0.047   4.457   4.571
 6229SOL    HW219587   0.187   4.539   4.585
 6230SOL     OW19588   0.699   0.928   1.478
 6230SOL    HW119589   0.776   0.871   1.507
 6230SOL    HW219590   0.625   0.921   1.544
 6231SOL     OW19591   2.151   5.421   6.174
 6231SOL    HW119592   2.055   5.450   6.172
 6231SOL    HW219593   2.163   5.342   6.114
 6232SOL     OW19594   4.376   0.157   7.019
 6232SOL    HW119595   4.419   0.075   6.980
 6232SOL    HW219596   4.328   0.207   6.947
 6233SOL     OW19597   0.172   4.095   1.455
 6233SOL    HW119598   0.185   4.191   1.481
 6233SOL    HW219599   0.221   4.077   1.369
 6234SOL     OW19600   4.819   6.095   4.009
 6234SOL    HW119601   4.720   6.085   4.001
 6234SOL    HW219602   4.864   6.017   3.966
 6235SOL     OW19603   0.557   0.459   1.851
 6235SOL    HW119604   0.470   0.424   1.816
 6235SOL    HW219605   0.550   0.558   1.863
 6236SOL     OW19606   0.061   6.101   1.456
 6236SOL    HW119607   7.002   6.128   1.510
 6236SOL    HW219608   0.095   6.013   1.490
 6237SOL     OW19609   3.578   1.141   2.532
 6237SOL    HW119610   3.614   1.099   2.616
 6237SOL    HW219611   3.491   1.099   2.508
 6238SOL     OW19612   2.487   0.599   3.642
 6238SOL    HW119613   2.553   0.654   3.694
 6238SOL    HW219614   2.464   0.517   3.695
 6239SOL     OW19615   4.051   1.368   3.937
 6239SOL    HW119616   4.027   1.304   3.864
 6239SOL    HW219617   4.141   1.344   3.975
 6240SOL     OW19618   3.914   3.067   4.245
 6240SOL    HW119619   3.830   3.121   4.253
 6240SOL    HW219620   3.992   3.129   4.237
 6241SOL     OW19621   3.389   0.010   3.529
 6241SOL    HW119622   3.326   6.953   3.529
 6241SOL    HW219623   3.361   0.076   3.460
 6242SOL     OW19624   3.605   2.066   4.238
 6242SOL    HW119625   3.612   2.025   4.328
 6242SOL    HW219626   3.511   2.055   4.204
 6243SOL     OW19627   4.008   1.089   0.221
 6243SOL    HW119628   4.104   1.078   0.196
 6243SOL    HW219629   3.994   1.055   0.314
 6244SOL     OW19630   4.469   2.219   1.989
 6244SOL    HW119631   4.385   2.199   2.039
 6244SOL    HW219632   4.469   2.315   1.961
 6245SOL     OW19633   6.603   5.219   1.679
 6245SOL    HW119634   6.673   5.149   1.692
 6245SOL    HW219635   6.549   5.228   1.763
 6246SOL     OW19636   0.943   6.041   4.978
 6246SOL    HW119637   0.980   6.134   4.967
 6246SOL    HW219638   1.002   5.989   5.038
 6247SOL     OW19639   5.853   5.434   2.945
 6247SOL    HW119640   5.776   5.498   2.940
 6247SOL    HW219641   5.898   5.444   3.034
 6248SOL     OW19642   4.414   2.824   5.509
 6248SOL    HW119643   4.381   2.827   5.415
 6248SOL    HW219644   4.449   2.914   5.535
 6249SOL     OW19645   5.529   2.636   3.343
 6249SOL    HW119646   5.613   2.682   3.315
 6249SOL    HW219647   5.514   2.649   3.441
 6250SOL     OW19648   5.423   0.333   5.745
 6250SOL    HW119649   5.345   0.323   5.685
 6250SOL    HW219650   5.392   0.337   5.840
 6251SOL     OW19651   2.903   0.555   4.208
 6251SOL    HW119652   2.840   0.498   4.156
 6251SOL    HW219653   2.885   0.652   4.188
 6252SOL     OW19654   3.164   5.361   0.661
 6252SOL    HW119655   3.225   5.282   0.667
 6252SOL    HW219656   3.115   5.359   0.574
 6253SOL     OW19657   4.930   6.249   3.599
 6253SOL    HW119658   5.000   6.208   3.657
 6253SOL    HW219659   4.866   6.301   3.656
 6254SOL     OW19660   0.716   0.252   1.818
 6254SOL    HW119661   0.672   0.335   1.853
 6254SOL    HW219662   0.649   0.197   1.768
 6255SOL     OW19663   1.881   0.871   0.874
 6255SOL    HW119664   1.801   0.897   0.928
 6255SOL    HW219665   1.939   0.951   0.860
 6256SOL     OW19666   6.100   5.315   2.067
 6256SOL    HW119667   6.020   5.353   2.114
 6256SOL    HW219668   6.070   5.270   1.983
 6257SOL     OW19669   3.766   3.465   0.894
 6257SOL    HW119670   3.694   3.487   0.960
 6257SOL    HW219671   3.731   3.474   0.801
 6258SOL     OW19672   3.830   5.332   4.891
 6258SOL    HW119673   3.820   5.237   4.919
 6258SOL    HW219674   3.893   5.337   4.814
 6259SOL     OW19675   4.369   1.512   4.757
 6259SOL    HW119676   4.273   1.539   4.750
 6259SOL    HW219677   4.425   1.592   4.780
 6260SOL     OW19678   3.206   2.063   0.379
 6260SOL    HW119679   3.238   2.097   0.468
 6260SOL    HW219680   3.282   2.064   0.314
 6261SOL     OW19681   4.108   0.023   0.848
 6261SOL    HW119682   4.099   0.122   0.861
 6261SOL    HW219683   4.053   7.016   0.769
 6262SOL     OW19684   5.868   1.296   2.730
 6262SOL    HW119685   5.850   1.199   2.711
 6262SOL    HW219686   5.789   1.336   2.776
 6263SOL     OW19687   6.150   5.980   6.145
 6263SOL    HW119688   6.102   5.935   6.221
 6263SOL    HW219689   6.245   5.946   6.142
 6264SOL     OW19690   0.866   6.254   0.877
 6264SOL    HW119691   0.906   6.235   0.967
 6264SOL    HW219692   0.901   6.187   0.811
 6265SOL     OW19693   3.886   6.935   6.546
 6265SOL    HW119694   3.787   6.948   6.540
 6265SOL    HW219695   3.909   6.840   6.523
 6266SOL     OW19696   3.230   5.130   3.002
 6266SOL    HW119697   3.311   5.152   3.056
 6266SOL    HW219698   3.149   5.163   3.048
 6267SOL     OW19699   0.244   6.247   4.395
 6267SOL    HW119700   0.284   6.158   4.372
 6267SOL    HW219701   0.294   6.319   4.347
 6268SOL     OW19702   3.667   1.771   1.156
 6268SOL    HW119703   3.605   1.848   1.173
 6268SOL    HW219704   3.613   1.686   1.151
 6269SOL     OW19705   6.851   6.069   0.111
 6269SOL    HW119706   6.762   6.026   0.129
 6269SOL    HW219707   6.910   6.056   0.191
 6270SOL     OW19708   1.077   6.555   1.071
 6270SOL    HW119709   1.161   6.561   1.125
 6270SOL    HW219710   1.053   6.646   1.036
 6271SOL     OW19711   6.599   3.177   5.584
 6271SOL    HW119712   6.670   3.246   5.574
 6271SOL    HW219713   6.579   3.136   5.495
 6272SOL     OW19714   0.788   0.979   0.193
 6272SOL    HW119715   0.884   0.997   0.170
 6272SOL    HW219716   0.772   1.001   0.289
 6273SOL     OW19717   0.442   6.498   3.525
 6273SOL    HW119718   0.467   6.563   3.453
 6273SOL    HW219719   0.456   6.540   3.614
 6274SOL     OW19720   2.721   6.116   4.203
 6274SOL    HW119721   2.738   6.213   4.220
 6274SOL    HW219722   2.797   6.062   4.239
 6275SOL     OW19723   2.558   6.050   0.845
 6275SOL    HW119724   2.620   6.127   0.831
 6275SOL    HW219725   2.595   5.969   0.798
 6276SOL     OW19726   1.854   5.113   2.742
 6276SOL    HW119727   1.877   5.191   2.683
 6276SOL    HW219728   1.765   5.077   2.716
 6277SOL     OW19729   5.183   2.661   1.039
 6277SOL    HW119730   5.174   2.621   1.130
 6277SOL    HW219731   5.158   2.758   1.042
 6278SOL     OW19732   3.402   2.403   0.324
 6278SOL    HW119733   3.406   2.445   0.415
 6278SOL    HW219734   3.482   2.432   0.271
 6279SOL     OW19735   1.723   6.373   2.303
 6279SOL    HW119736   1.642   6.318   2.284
 6279SOL    HW219737   1.749   6.423   2.220
 6280SOL     OW19738   4.937   0.983   0.113
 6280SOL    HW119739   4.841   0.962   0.131
 6280SOL    HW219740   4.955   0.976   0.015
 6281SOL     OW19741   5.185   4.189   6.089
 6281SOL    HW119742   5.088   4.173   6.104
 6281SOL    HW219743   5.201   4.213   5.993
 6282SOL     OW19744   0.641   3.442   5.712
 6282SOL    HW119745   0.656   3.496   5.795
 6282SOL    HW219746   0.569   3.483   5.657
 6283SOL     OW19747   2.619   0.799   4.397
 6283SOL    HW119748   2.596   0.708   4.361
 6283SOL    HW219749   2.535   0.850   4.414
 6284SOL     OW19750   1.791   3.445   6.195
 6284SOL    HW119751   1.779   3.542   6.215
 6284SOL    HW219752   1.787   3.392   6.280
 6285SOL     OW19753   1.007   4.079   3.065
 6285SOL    HW119754   0.979   4.030   3.148
 6285SOL    HW219755   1.022   4.014   2.991
 6286SOL     OW19756   0.807   2.413   6.594
 6286SOL    HW119757   0.805   2.329   6.649
 6286SOL    HW219758   0.872   2.401   6.519
 6287SOL     OW19759   4.505   5.220   4.548
 6287SOL    HW119760   4.496   5.193   4.453
 6287SOL    HW219761   4.431   5.179   4.602
 6288SOL     OW19762   3.279   3.557   5.784
 6288SOL    HW119763   3.230   3.530   5.701
 6288SOL    HW219764   3.294   3.656   5.783
 6289SOL     OW19765   2.620   4.603   4.940
 6289SOL    HW119766   2.713   4.639   4.953
 6289SOL    HW219767   2.626   4.508   4.910
 6290SOL     OW19768   6.810   6.753   3.308
 6290SOL    HW119769   6.778   6.691   3.237
 6290SOL    HW219770   6.874   6.705   3.368
 6291SOL     OW19771   3.213   3.800   1.917
 6291SOL    HW119772   3.140   3.868   1.920
 6291SOL    HW219773   3.267   3.806   2.001
 6292SOL     OW19774   1.396   4.546   4.475
 6292SOL    HW119775   1.393   4.526   4.377
 6292SOL    HW219776   1.474   4.605   4.495
 6293SOL     OW19777   3.282   1.176   6.999
 6293SOL    HW119778   3.348   1.188   0.052
 6293SOL    HW219779   3.324   1.126   6.924
 6294SOL     OW19780   1.975   0.946   2.208
 6294SOL    HW119781   1.943   0.911   2.120
 6294SOL    HW219782   1.904   1.004   2.248
 6295SOL     OW19783   4.565   2.937   6.100
 6295SOL    HW119784   4.562   2.847   6.144
 6295SOL    HW219785   4.504   2.999   6.149
 6296SOL     OW19786   0.216   2.758   0.193
 6296SOL    HW119787   0.183   2.673   0.235
 6296SOL    HW219788   0.165   2.775   0.109
 6297SOL     OW19789   6.511   0.731   4.162
 6297SOL    HW119790   6.426   0.738   4.214
 6297SOL    HW219791   6.575   0.672   4.210
 6298SOL     OW19792   6.858   6.902   6.851
 6298SOL    HW119793   6.935   6.965   6.858
 6298SOL    HW219794   6.887   6.811   6.881
 6299SOL     OW19795   3.607   1.669   3.971
 6299SOL    HW119796   3.557   1.656   3.885
 6299SOL    HW219797   3.700   1.634   3.962
 6300SOL     OW19798   2.574   1.722   1.128
 6300SOL    HW119799   2.634   1.801   1.140
 6300SOL    HW219800   2.489   1.737   1.177
 6301SOL     OW19801   4.008   6.592   0.677
 6301SOL    HW119802   4.007   6.527   0.753
 6301SOL    HW219803   4.082   6.568   0.614
 6302SOL     OW19804   1.586   3.432   0.098
 6302SOL    HW119805   1.582   3.382   0.185
 6302SOL    HW219806   1.531   3.385   0.030
 6303SOL     OW19807   6.759   5.070   4.498
 6303SOL    HW119808   6.673   5.036   4.460
 6303SOL    HW219809   6.742   5.154   4.550
 6304SOL     OW19810   2.326   1.630   3.564
 6304SOL    HW119811   2.322   1.543   3.514
 6304SOL    HW219812   2.385   1.694   3.515
 6305SOL     OW19813   0.612   5.380   5.685
 6305SOL    HW119814   0.659   5.386   5.597
 6305SOL    HW219815   0.538   5.448   5.687
 6306SOL     OW19816   0.609   4.376   4.169
 6306SOL    HW119817   0.610   4.392   4.071
 6306SOL    HW219818   0.634   4.461   4.217
 6307SOL     OW19819   3.229   2.984   3.009
 6307SOL    HW119820   3.250   2.979   2.911
 6307SOL    HW219821   3.315   2.983   3.061
 6308SOL     OW19822   1.160   1.755   0.772
 6308SOL    HW119823   1.099   1.728   0.698
 6308SOL    HW219824   1.107   1.797   0.846
 6309SOL     OW19825   2.160   5.501   5.247
 6309SOL    HW119826   2.146   5.428   5.180
 6309SOL    HW219827   2.248   5.488   5.292
 6310SOL     OW19828   0.472   6.682   3.325
 6310SOL    HW119829   0.481   6.762   3.384
 6310SOL    HW219830   0.500   6.706   3.232
 6311SOL     OW19831   6.469   1.291   6.524
 6311SOL    HW119832   6.387   1.238   6.545
 6311SOL    HW219833   6.499   1.341   6.605
 6312SOL     OW19834   3.653   5.610   1.103
 6312SOL    HW119835   3.595   5.613   1.022
 6312SOL    HW219836   3.600   5.578   1.182
 6313SOL     OW19837   5.704   4.944   3.658
 6313SOL    HW119838   5.633   4.930   3.727
 6313SOL    HW219839   5.675   4.904   3.571
 6314SOL     OW19840   2.064   0.149   3.466
 6314SOL    HW119841   1.992   0.098   3.513
 6314SOL    HW219842   2.125   0.086   3.418
 6315SOL     OW19843   2.778   2.350   3.271
 6315SOL    HW119844   2.778   2.449   3.252
 6315SOL    HW219845   2.689   2.312   3.246
 6316SOL     OW19846   4.316   0.529   5.086
 6316SOL    HW119847   4.312   0.581   5.171
 6316SOL    HW219848   4.229   0.481   5.071
 6317SOL     OW19849   4.552   4.537   2.759
 6317SOL    HW119850   4.488   4.613   2.744
 6317SOL    HW219851   4.553   4.514   2.856
 6318SOL     OW19852   6.224   6.831   6.711
 6318SOL    HW119853   6.170   6.895   6.766
 6318SOL    HW219854   6.241   6.748   6.764
 6319SOL     OW19855   4.897   2.411   4.579
 6319SOL    HW119856   4.911   2.486   4.514
 6319SOL    HW219857   4.852   2.447   4.661
 6320SOL     OW19858   6.389   1.310   6.107
 6320SOL    HW119859   6.466   1.332   6.166
 6320SOL    HW219860   6.337   1.393   6.087
 6321SOL     OW19861   0.592   3.783   0.460
 6321SOL    HW119862   0.506   3.734   0.452
 6321SOL    HW219863   0.574   3.879   0.483
 6322SOL     OW19864   1.718   1.654   2.656
 6322SOL    HW119865   1.637   1.713   2.661
 6322SOL    HW219866   1.708   1.578   2.720
 6323SOL     OW19867   2.297   5.916   1.432
 6323SOL    HW119868   2.221   5.971   1.395
 6323SOL    HW219869   2.335   5.962   1.512
 6324SOL     OW19870   5.126   3.193   0.876
 6324SOL    HW119871   5.083   3.263   0.820
 6324SOL    HW219872   5.068   3.174   0.956
 6325SOL     OW19873   1.393   3.736   3.820
 6325SOL    HW119874   1.451   3.719   3.900
 6325SOL    HW219875   1.434   3.692   3.740
 6326SOL     OW19876   4.895   5.444   5.269
 6326SOL    HW119877   4.856   5.514   5.210
 6326SOL    HW219878   4.899   5.477   5.363
 6327SOL     OW19879   0.636   0.779   2.806
 6327SOL    HW119880   0.666   0.873   2.798
 6327SOL    HW219881   0.564   0.761   2.739
 6328SOL     OW19882   3.891   3.574   5.420
 6328SOL    HW119883   3.821   3.511   5.453
 6328SOL    HW219884   3.925   3.629   5.496
 6329SOL     OW19885   0.319   2.995   4.891
 6329SOL    HW119886   0.408   3.041   4.884
 6329SOL    HW219887   0.315   2.919   4.826
 6330SOL     OW19888   4.129   1.837   3.512
 6330SOL    HW119889   4.090   1.929   3.513
 6330SOL    HW219890   4.227   1.842   3.493
 6331SOL     OW19891   1.827   3.767   3.947
 6331SOL    HW119892   1.848   3.716   4.031
 6331SOL    HW219893   1.849   3.864   3.961
 6332SOL     OW19894   4.437   1.515   0.084
 6332SOL    HW119895   4.461   1.605   0.120
 6332SOL    HW219896   4.520   1.461   0.068
 6333SOL     OW19897   5.858   0.535   0.410
 6333SOL    HW119898   5.873   0.524   0.508
 6333SOL    HW219899   5.942   0.515   0.360
 6334SOL     OW19900   2.631   1.272   1.768
 6334SOL    HW119901   2.682   1.213   1.705
 6334SOL    HW219902   2.551   1.222   1.802
 6335SOL     OW19903   6.802   3.399   5.536
 6335SOL    HW119904   6.713   3.445   5.532
 6335SOL    HW219905   6.857   3.426   5.457
 6336SOL     OW19906   0.905   4.281   5.324
 6336SOL    HW119907   0.931   4.349   5.255
 6336SOL    HW219908   0.984   4.261   5.382
 6337SOL     OW19909   5.944   6.996   5.091
 6337SOL    HW119910   5.930   0.063   5.137
 6337SOL    HW219911   5.917   7.003   4.995
 6338SOL     OW19912   0.722   0.502   2.602
 6338SOL    HW119913   0.628   0.477   2.626
 6338SOL    HW219914   0.722   0.590   2.555
 6339SOL     OW19915   0.431   3.968   3.534
 6339SOL    HW119916   0.397   3.874   3.526
 6339SOL    HW219917   0.514   3.968   3.590
 6340SOL     OW19918   2.684   5.134   6.265
 6340SOL    HW119919   2.760   5.102   6.209
 6340SOL    HW219920   2.709   5.220   6.310
 6341SOL     OW19921   0.250   4.752   3.119
 6341SOL    HW119922   0.345   4.766   3.093
 6341SOL    HW219923   0.192   4.816   3.068
 6342SOL     OW19924   2.071   0.637   1.453
 6342SOL    HW119925   2.102   0.691   1.532
 6342SOL    HW219926   2.102   0.543   1.463
 6343SOL     OW19927   1.514   5.176   6.964
 6343SOL    HW119928   1.439   5.180   6.899
 6343SOL    HW219929   1.478   5.170   0.036
 6344SOL     OW19930   1.206   1.809   4.548
 6344SOL    HW119931   1.305   1.814   4.532
 6344SOL    HW219932   1.160   1.776   4.466
 6345SOL     OW19933   0.042   3.185   3.526
 6345SOL    HW119934   0.061   3.277   3.559
 6345SOL    HW219935   6.965   3.170   3.524
 6346SOL     OW19936   0.474   4.771   4.476
 6346SOL    HW119937   0.464   4.847   4.413
 6346SOL    HW219938   0.449   4.686   4.429
 6347SOL     OW19939   2.065   2.575   3.417
 6347SOL    HW119940   2.020   2.664   3.417
 6347SOL    HW219941   2.070   2.540   3.510
 6348SOL     OW19942   0.839   2.876   6.648
 6348SOL    HW119943   0.870   2.952   6.705
 6348SOL    HW219944   0.746   2.894   6.616
 6349SOL     OW19945   6.134   1.310   0.608
 6349SOL    HW119946   6.148   1.337   0.703
 6349SOL    HW219947   6.198   1.237   0.583
 6350SOL     OW19948   0.702   5.910   1.418
 6350SOL    HW119949   0.781   5.906   1.356
 6350SOL    HW219950   0.634   5.974   1.382
 6351SOL     OW19951   5.906   2.841   1.724
 6351SOL    HW119952   5.900   2.914   1.792
 6351SOL    HW219953   6.002   2.814   1.714
 6352SOL     OW19954   4.466   0.725   4.539
 6352SOL    HW119955   4.489   0.639   4.583
 6352SOL    HW219956   4.513   0.731   4.451
 6353SOL     OW19957   3.631   6.408   6.029
 6353SOL    HW119958   3.639   6.487   6.089
 6353SOL    HW219959   3.536   6.400   5.998
 6354SOL     OW19960   5.660   5.210   2.827
 6354SOL    HW119961   5.617   5.268   2.896
 6354SOL    HW219962   5.750   5.181   2.860
 6355SOL     OW19963   4.950   5.659   0.325
 6355SOL    HW119964   4.950   5.711   0.410
 6355SOL    HW219965   4.977   5.565   0.343
 6356SOL     OW19966   0.322   6.805   6.197
 6356SOL    HW119967   0.353   6.711   6.210
 6356SOL    HW219968   0.224   6.805   6.177
 6357SOL     OW19969   4.938   2.254   3.055
 6357SOL    HW119970   5.033   2.252   3.023
 6357SOL    HW219971   4.921   2.173   3.111
 6358SOL     OW19972   1.210   2.110   4.513
 6358SOL    HW119973   1.146   2.099   4.437
 6358SOL    HW219974   1.174   2.064   4.594
 6359SOL     OW19975   5.951   4.686   1.201
 6359SOL    HW119976   5.887   4.758   1.176
 6359SOL    HW219977   6.039   4.726   1.226
 6360SOL     OW19978   2.163   3.045   1.153
 6360SOL    HW119979   2.234   3.065   1.086
 6360SOL    HW219980   2.125   3.130   1.187
 6361SOL     OW19981   0.122   1.758   2.503
 6361SOL    HW119982   0.046   1.694   2.489
 6361SOL    HW219983   0.158   1.747   2.596
 6362SOL     OW19984   1.734   5.136   0.348
 6362SOL    HW119985   1.747   5.043   0.314
 6362SOL    HW219986   1.820   5.187   0.341
 6363SOL     OW19987   0.984   2.288   1.900
 6363SOL    HW119988   1.027   2.222   1.962
 6363SOL    HW219989   1.033   2.290   1.813
 6364SOL     OW19990   2.898   1.123   3.738
 6364SOL    HW119991   2.799   1.118   3.727
 6364SOL    HW219992   2.941   1.138   3.649
 6365SOL     OW19993   6.648   7.009   2.709
 6365SOL    HW119994   6.605   6.984   2.622
 6365SOL    HW219995   6.718   6.941   2.732
 6366SOL     OW19996   5.735   1.506   5.204
 6366SOL    HW119997   5.833   1.508   5.221
 6366SOL    HW219998   5.691   1.583   5.249
 6367SOL     OW19999   1.042   2.429   4.347
 6367SOL    HW120000   0.952   2.455   4.382
 6367SOL    HW220001   1.072   2.345   4.392
 6368SOL     OW20002   5.040   3.558   5.007
 6368SOL    HW120003   4.956   3.607   4.987
 6368SOL    HW220004   5.066   3.573   5.103
 6369SOL     OW20005   3.259   4.218   1.018
 6369SOL    HW120006   3.296   4.276   1.092
 6369SOL    HW220007   3.167   4.188   1.042
 6370SOL     OW20008   5.994   4.097   4.802
 6370SOL    HW120009   5.991   4.123   4.898
 6370SOL    HW220010   6.034   4.170   4.748
 6371SOL     OW20011   5.816   4.164   0.846
 6371SOL    HW120012   5.915   4.177   0.854
 6371SOL    HW220013   5.789   4.176   0.750
 6372SOL     OW20014   6.558   0.937   0.927
 6372SOL    HW120015   6.626   0.969   0.993
 6372SOL    HW220016   6.475   0.910   0.975
 6373SOL     OW20017   5.273   2.156   1.351
 6373SOL    HW120018   5.347   2.206   1.306
 6373SOL    HW220019   5.208   2.221   1.389
 6374SOL     OW20020   4.372   3.086   6.217
 6374SOL    HW120021   4.276   3.059   6.229
 6374SOL    HW220022   4.376   3.183   6.193
 6375SOL     OW20023   4.992   0.954   2.205
 6375SOL    HW120024   5.026   0.886   2.140
 6375SOL    HW220025   4.895   0.972   2.186
 6376SOL     OW20026   2.706   6.479   0.603
 6376SOL    HW120027   2.686   6.390   0.562
 6376SOL    HW220028   2.674   6.552   0.542
 6377SOL     OW20029   0.446   0.887   0.377
 6377SOL    HW120030   0.542   0.870   0.401
 6377SOL    HW220031   0.415   0.971   0.421
 6378SOL     OW20032   6.239   3.939   2.804
 6378SOL    HW120033   6.142   3.918   2.794
 6378SOL    HW220034   6.285   3.861   2.846
 6379SOL     OW20035   3.066   5.303   6.948
 6379SOL    HW120036   2.997   5.272   7.013
 6379SOL    HW220037   3.054   5.401   6.931
 6380SOL     OW20038   2.113   3.117   4.504
 6380SOL    HW120039   2.168   3.037   4.479
 6380SOL    HW220040   2.026   3.086   4.543
 6381SOL     OW20041   3.567   3.757   0.744
 6381SOL    HW120042   3.565   3.690   0.818
 6381SOL    HW220043   3.504   3.729   0.672
 6382SOL     OW20044   1.990   1.101   1.208
 6382SOL    HW120045   1.977   1.035   1.282
 6382SOL    HW220046   1.903   1.144   1.186
 6383SOL     OW20047   2.633   2.043   2.550
 6383SOL    HW120048   2.617   1.957   2.501
 6383SOL    HW220049   2.694   2.027   2.627
 6384SOL     OW20050   6.624   1.889   2.204
 6384SOL    HW120051   6.553   1.942   2.251
 6384SOL    HW220052   6.582   1.813   2.155
 6385SOL     OW20053   6.870   3.828   1.198
 6385SOL    HW120054   6.901   3.736   1.175
 6385SOL    HW220055   6.912   3.857   1.285
 6386SOL     OW20056   3.149   3.771   0.561
 6386SOL    HW120057   3.094   3.724   0.491
 6386SOL    HW220058   3.225   3.712   0.587
 6387SOL     OW20059   6.443   0.761   6.069
 6387SOL    HW120060   6.428   0.856   6.042
 6387SOL    HW220061   6.362   0.726   6.117
 6388SOL     OW20062   6.065   4.698   1.701
 6388SOL    HW120063   6.076   4.669   1.797
 6388SOL    HW220064   5.972   4.731   1.687
 6389SOL     OW20065   6.627   6.429   0.817
 6389SOL    HW120066   6.654   6.519   0.784
 6389SOL    HW220067   6.671   6.411   0.905
 6390SOL     OW20068   4.949   6.608   6.334
 6390SOL    HW120069   4.883   6.675   6.299
 6390SOL    HW220070   4.909   6.517   6.331
 6391SOL     OW20071   1.650   2.308   4.931
 6391SOL    HW120072   1.667   2.378   4.862
 6391SOL    HW220073   1.724   2.308   4.998
 6392SOL     OW20074   5.152   6.545   3.975
 6392SOL    HW120075   5.075   6.490   4.005
 6392SOL    HW220076   5.131   6.587   3.886
 6393SOL     OW20077   2.367   5.332   0.617
 6393SOL    HW120078   2.427   5.274   0.561
 6393SOL    HW220079   2.410   5.347   0.706
 6394SOL     OW20080   1.686   5.392   2.189
 6394SOL    HW120081   1.785   5.401   2.181
 6394SOL    HW220082   1.646   5.383   2.098
 6395SOL     OW20083   1.685   4.173   4.675
 6395SOL    HW120084   1.747   4.179   4.597
 6395SOL    HW220085   1.593   4.201   4.646
 6396SOL     OW20086   1.717   3.366   5.099
 6396SOL    HW120087   1.754   3.273   5.109
 6396SOL    HW220088   1.701   3.385   5.002
 6397SOL     OW20089   6.908   2.852   5.016
 6397SOL    HW120090   6.929   2.828   4.921
 6397SOL    HW220091   6.975   2.919   5.049
 6398SOL     OW20092   1.259   0.310   2.522
 6398SOL    HW120093   1.278   0.387   2.462
 6398SOL    HW220094   1.218   0.343   2.607
 6399SOL     OW20095   2.659   0.195   0.009
 6399SOL    HW120096   2.756   0.212   0.025
 6399SOL    HW220097   2.606   0.231   0.086
 6400SOL     OW20098   0.915   6.302   2.744
 6400SOL    HW120099   1.000   6.327   2.791
 6400SOL    HW220100   0.865   6.236   2.800
 6401SOL     OW20101   3.822   4.951   1.683
 6401SOL    HW120102   3.744   4.957   1.745
 6401SOL    HW220103   3.849   4.855   1.673
 6402SOL     OW20104   3.999   3.821   6.163
 6402SOL    HW120105   4.075   3.794   6.106
 6402SOL    HW220106   3.933   3.873   6.109
 6403SOL     OW20107   4.360   5.364   5.761
 6403SOL    HW120108   4.418   5.374   5.680
 6403SOL    HW220109   4.379   5.277   5.806
 6404SOL     OW20110   4.935   5.756   6.570
 6404SOL    HW120111   4.940   5.658   6.585
 6404SOL    HW220112   4.868   5.797   6.632
 6405SOL     OW20113   4.294   0.865   2.488
 6405SOL    HW120114   4.312   0.944   2.547
 6405SOL    HW220115   4.199   0.836   2.499
 6406SOL     OW20116   0.609   3.520   2.093
 6406SOL    HW120117   0.574   3.427   2.097
 6406SOL    HW220118   0.618   3.557   2.186
 6407SOL     OW20119   0.535   6.691   1.399
 6407SOL    HW120120   0.452   6.747   1.393
 6407SOL    HW220121   0.546   6.637   1.315
 6408SOL     OW20122   0.337   1.099   1.595
 6408SOL    HW120123   0.258   1.079   1.538
 6408SOL    HW220124   0.309   1.160   1.670
 6409SOL     OW20125   5.691   4.206   3.549
 6409SOL    HW120126   5.608   4.176   3.597
 6409SOL    HW220127   5.747   4.262   3.611
 6410SOL     OW20128   2.029   0.930   0.285
 6410SOL    HW120129   2.101   0.993   0.256
 6410SOL    HW220130   2.036   0.915   0.383
 6411SOL     OW20131   1.209   2.627   3.687
 6411SOL    HW120132   1.197   2.685   3.607
 6411SOL    HW220133   1.234   2.683   3.766
 6412SOL     OW20134   3.913   6.956   0.163
 6412SOL    HW120135   3.930   6.858   0.169
 6412SOL    HW220136   3.972   6.996   0.093
 6413SOL     OW20137   4.410   6.084   3.162
 6413SOL    HW120138   4.325   6.101   3.212
 6413SOL    HW220139   4.485   6.134   3.206
 6414SOL     OW20140   3.178   0.067   0.363
 6414SOL    HW120141   3.275   0.088   0.351
 6414SOL    HW220142   3.166   6.989   0.373
 6415SOL     OW20143   0.735   2.064   3.463
 6415SOL    HW120144   0.635   2.068   3.456
 6415SOL    HW220145   0.775   2.069   3.372
 6416SOL     OW20146   2.929   4.876   0.360
 6416SOL    HW120147   2.865   4.803   0.379
 6416SOL    HW220148   2.968   4.864   0.268
 6417SOL     OW20149   4.069   3.481   6.569
 6417SOL    HW120150   4.163   3.507   6.592
 6417SOL    HW220151   4.027   3.436   6.648
 6418SOL     OW20152   4.751   5.441   0.443
 6418SOL    HW120153   4.833   5.410   0.394
 6418SOL    HW220154   4.701   5.506   0.387
 6419SOL     OW20155   1.063   6.641   6.300
 6419SOL    HW120156   1.162   6.659   6.302
 6419SOL    HW220157   1.030   6.647   6.206
 6420SOL     OW20158   2.829   4.932   3.140
 6420SOL    HW120159   2.792   4.964   3.227
 6420SOL    HW220160   2.834   5.008   3.076
 6421SOL     OW20161   5.752   6.871   1.530
 6421SOL    HW120162   5.850   6.882   1.514
 6421SOL    HW220163   5.736   6.834   1.621
 6422SOL     OW20164   0.665   2.059   4.443
 6422SOL    HW120165   0.579   2.110   4.441
 6422SOL    HW220166   0.650   1.970   4.486
 6423SOL     OW20167   1.127   4.240   4.330
 6423SOL    HW120168   1.033   4.250   4.298
 6423SOL    HW220169   1.128   4.240   4.430
 6424SOL     OW20170   7.001   3.689   5.463
 6424SOL    HW120171   6.926   3.753   5.479
 6424SOL    HW220172   6.968   3.612   5.409
 6425SOL     OW20173   0.830   0.038   4.947
 6425SOL    HW120174   0.900   6.988   4.952
 6425SOL    HW220175   0.866   0.123   4.984
 6426SOL     OW20176   3.701   5.850   3.660
 6426SOL    HW120177   3.707   5.781   3.588
 6426SOL    HW220178   3.761   5.927   3.639
 6427SOL     OW20179   3.758   3.155   3.542
 6427SOL    HW120180   3.804   3.102   3.614
 6427SOL    HW220181   3.806   3.141   3.455
 6428SOL     OW20182   6.198   2.107   0.592
 6428SOL    HW120183   6.156   2.191   0.558
 6428SOL    HW220184   6.183   2.100   0.691
 6429SOL     OW20185   2.631   1.503   4.756
 6429SOL    HW120186   2.586   1.498   4.667
 6429SOL    HW220187   2.562   1.518   4.827
 6430SOL     OW20188   5.717   1.426   4.560
 6430SOL    HW120189   5.661   1.437   4.478
 6430SOL    HW220190   5.813   1.440   4.536
 6431SOL     OW20191   3.331   4.924   2.865
 6431SOL    HW120192   3.297   5.000   2.921
 6431SOL    HW220193   3.255   4.864   2.841
 6432SOL     OW20194   4.074   3.099   6.243
 6432SOL    HW120195   3.999   3.067   6.186
 6432SOL    HW220196   4.037   3.147   6.323
 6433SOL     OW20197   3.385   5.309   6.145
 6433SOL    HW120198   3.328   5.330   6.066
 6433SOL    HW220199   3.387   5.389   6.206
 6434SOL     OW20200   6.605   4.915   6.137
 6434SOL    HW120201   6.678   4.949   6.196
 6434SOL    HW220202   6.516   4.939   6.176
 6435SOL     OW20203   4.386   1.326   1.311
 6435SOL    HW120204   4.446   1.262   1.263
 6435SOL    HW220205   4.369   1.405   1.253
 6436SOL     OW20206   0.429   2.962   3.628
 6436SOL    HW120207   0.456   2.884   3.571
 6436SOL    HW220208   0.510   3.010   3.661
 6437SOL     OW20209   1.915   2.967   5.462
 6437SOL    HW120210   1.838   2.921   5.508
 6437SOL    HW220211   1.952   2.907   5.392
 6438SOL     OW20212   0.431   4.923   0.943
 6438SOL    HW120213   0.439   4.892   0.849
 6438SOL    HW220214   0.465   5.016   0.952
 6439SOL     OW20215   5.274   6.438   3.203
 6439SOL    HW120216   5.290   6.386   3.119
 6439SOL    HW220217   5.185   6.411   3.241
 6440SOL     OW20218   2.548   1.725   5.434
 6440SOL    HW120219   2.546   1.685   5.342
 6440SOL    HW220220   2.642   1.738   5.463
 6441SOL     OW20221   1.100   1.918   1.796
 6441SOL    HW120222   1.026   1.896   1.860
 6441SOL    HW220223   1.186   1.929   1.846
 6442SOL     OW20224   2.578   1.667   4.218
 6442SOL    HW120225   2.640   1.629   4.287
 6442SOL    HW220226   2.577   1.767   4.226
 6443SOL     OW20227   2.366   2.701   6.031
 6443SOL    HW120228   2.416   2.787   6.034
 6443SOL    HW220229   2.424   2.630   5.992
 6444SOL     OW20230   0.083   3.733   4.870
 6444SOL    HW120231   0.182   3.718   4.861
 6444SOL    HW220232   0.044   3.665   4.933
 6445SOL     OW20233   3.606   2.888   3.373
 6445SOL    HW120234   3.632   2.928   3.461
 6445SOL    HW220235   3.507   2.870   3.372
 6446SOL     OW20236   1.657   0.998   1.706
 6446SOL    HW120237   1.641   0.907   1.668
 6446SOL    HW220238   1.754   1.008   1.728
 6447SOL     OW20239   6.017   3.728   1.099
 6447SOL    HW120240   5.940   3.726   1.162
 6447SOL    HW220241   6.102   3.728   1.151
 6448SOL     OW20242   4.044   4.289   1.336
 6448SOL    HW120243   3.980   4.321   1.406
 6448SOL    HW220244   4.097   4.212   1.372
 6449SOL     OW20245   4.175   5.129   0.704
 6449SOL    HW120246   4.234   5.168   0.634
 6449SOL    HW220247   4.205   5.035   0.724
 6450SOL     OW20248   4.944   3.539   0.094
 6450SOL    HW120249   4.918   3.634   0.081
 6450SOL    HW220250   4.910   3.484   0.018
 6451SOL     OW20251   4.304   2.849   1.622
 6451SOL    HW120252   4.369   2.923   1.604
 6451SOL    HW220253   4.211   2.885   1.620
 6452SOL     OW20254   4.299   2.034   4.351
 6452SOL    HW120255   4.356   2.019   4.431
 6452SOL    HW220256   4.300   1.951   4.295
 6453SOL     OW20257   2.427   0.523   2.887
 6453SOL    HW120258   2.444   0.447   2.950
 6453SOL    HW220259   2.485   0.513   2.806
 6454SOL     OW20260   5.144   3.817   4.716
 6454SOL    HW120261   5.052   3.778   4.707
 6454SOL    HW220262   5.212   3.744   4.710
 6455SOL     OW20263   0.347   2.620   4.328
 6455SOL    HW120264   0.412   2.566   4.382
 6455SOL    HW220265   0.372   2.717   4.334
 6456SOL     OW20266   6.154   1.989   3.312
 6456SOL    HW120267   6.093   1.913   3.337
 6456SOL    HW220268   6.246   1.953   3.299
 6457SOL     OW20269   1.682   5.888   3.044
 6457SOL    HW120270   1.637   5.936   2.969
 6457SOL    HW220271   1.650   5.925   3.131
 6458SOL     OW20272   1.513   0.448   4.672
 6458SOL    HW120273   1.415   0.463   4.660
 6458SOL    HW220274   1.534   0.352   4.655
 6459SOL     OW20275   0.439   3.227   2.840
 6459SOL    HW120276   0.515   3.195   2.783
 6459SOL    HW220277   0.384   3.149   2.869
 6460SOL     OW20278   1.921   4.898   5.838
 6460SOL    HW120279   1.962   4.861   5.921
 6460SOL    HW220280   1.926   4.830   5.765
 6461SOL     OW20281   0.341   6.883   1.335
 6461SOL    HW120282   0.355   6.963   1.277
 6461SOL    HW220283   0.266   6.828   1.298
 6462SOL     OW20284   2.426   4.163   5.648
 6462SOL    HW120285   2.454   4.084   5.595
 6462SOL    HW220286   2.328   4.179   5.637
 6463SOL     OW20287   4.674   3.118   1.111
 6463SOL    HW120288   4.652   3.043   1.174
 6463SOL    HW220289   4.589   3.154   1.072
 6464SOL     OW20290   1.083   3.530   3.234
 6464SOL    HW120291   1.154   3.463   3.214
 6464SOL    HW220292   1.125   3.614   3.269
 6465SOL     OW20293   2.280   1.510   3.037
 6465SOL    HW120294   2.294   1.608   3.051
 6465SOL    HW220295   2.201   1.496   2.978
 6466SOL     OW20296   6.723   4.811   6.511
 6466SOL    HW120297   6.813   4.774   6.533
 6466SOL    HW220298   6.732   4.886   6.446
 6467SOL     OW20299   2.554   3.381   5.817
 6467SOL    HW120300   2.494   3.314   5.773
 6467SOL    HW220301   2.641   3.337   5.840
 6468SOL     OW20302   1.153   0.542   1.132
 6468SOL    HW120303   1.218   0.467   1.135
 6468SOL    HW220304   1.144   0.582   1.224
 6469SOL     OW20305   2.310   0.899   1.133
 6469SOL    HW120306   2.226   0.895   1.079
 6469SOL    HW220307   2.389   0.907   1.073
 6470SOL     OW20308   6.111   1.821   6.439
 6470SOL    HW120309   6.106   1.825   6.539
 6470SOL    HW220310   6.019   1.807   6.402
 6471SOL     OW20311   0.653   6.273   5.940
 6471SOL    HW120312   0.682   6.188   5.896
 6471SOL    HW220313   0.659   6.348   5.875
 6472SOL     OW20314   0.679   6.855   1.262
 6472SOL    HW120315   0.589   6.833   1.301
 6472SOL    HW220316   0.723   6.771   1.232
 6473SOL     OW20317   2.815   2.019   3.391
 6473SOL    HW120318   2.729   2.069   3.406
 6473SOL    HW220319   2.892   2.078   3.415
 6474SOL     OW20320   3.539   6.876   4.295
 6474SOL    HW120321   3.475   6.925   4.236
 6474SOL    HW220322   3.574   6.939   4.365
 6475SOL     OW20323   5.255   5.804   3.412
 6475SOL    HW120324   5.248   5.752   3.327
 6475SOL    HW220325   5.233   5.900   3.394
 6476SOL     OW20326   5.060   4.015   5.587
 6476SOL    HW120327   5.047   3.920   5.560
 6476SOL    HW220328   5.066   4.073   5.505
 6477SOL     OW20329   0.496   6.329   0.785
 6477SOL    HW120330   0.420   6.265   0.773
 6477SOL    HW220331   0.465   6.407   0.839
 6478SOL     OW20332   1.462   6.262   0.917
 6478SOL    HW120333   1.557   6.233   0.925
 6478SOL    HW220334   1.456   6.339   0.854
 6479SOL     OW20335   4.531   5.992   3.904
 6479SOL    HW120336   4.451   6.035   3.945
 6479SOL    HW220337   4.516   5.893   3.896
 6480SOL     OW20338   3.255   1.612   5.402
 6480SOL    HW120339   3.214   1.581   5.316
 6480SOL    HW220340   3.231   1.708   5.417
 6481SOL     OW20341   4.331   3.193   1.723
 6481SOL    HW120342   4.359   3.126   1.792
 6481SOL    HW220343   4.380   3.176   1.638
 6482SOL     OW20344   5.286   3.321   5.175
 6482SOL    HW120345   5.345   3.308   5.096
 6482SOL    HW220346   5.217   3.391   5.154
 6483SOL     OW20347   1.759   5.699   5.938
 6483SOL    HW120348   1.707   5.781   5.961
 6483SOL    HW220349   1.696   5.623   5.924
 6484SOL     OW20350   4.125   1.654   3.200
 6484SOL    HW120351   4.028   1.646   3.180
 6484SOL    HW220352   4.171   1.568   3.176
 6485SOL     OW20353   2.482   5.012   4.476
 6485SOL    HW120354   2.532   4.988   4.559
 6485SOL    HW220355   2.436   5.100   4.488
 6486SOL     OW20356   0.011   4.318   2.244
 6486SOL    HW120357   0.055   4.236   2.210
 6486SOL    HW220358   6.996   4.371   2.168
 6487SOL     OW20359   5.942   5.262   4.038
 6487SOL    HW120360   5.943   5.228   4.132
 6487SOL    HW220361   5.949   5.362   4.039
 6488SOL     OW20362   3.831   5.136   4.079
 6488SOL    HW120363   3.914   5.123   4.131
 6488SOL    HW220364   3.849   5.199   4.003
 6489SOL     OW20365   6.544   2.915   4.886
 6489SOL    HW120366   6.597   2.989   4.844
 6489SOL    HW220367   6.565   2.909   4.983
 6490SOL     OW20368   1.769   2.988   0.292
 6490SOL    HW120369   1.766   2.936   0.377
 6490SOL    HW220370   1.862   3.023   0.278
 6491SOL     OW20371   1.935   0.570   1.752
 6491SOL    HW120372   1.996   0.493   1.737
 6491SOL    HW220373   1.904   0.606   1.663
 6492SOL     OW20374   4.102   3.778   4.093
 6492SOL    HW120375   4.127   3.768   4.189
 6492SOL    HW220376   4.005   3.799   4.085
 6493SOL     OW20377   1.298   4.881   4.145
 6493SOL    HW120378   1.272   4.967   4.189
 6493SOL    HW220379   1.219   4.821   4.138
 6494SOL     OW20380   6.757   1.163   1.468
 6494SOL    HW120381   6.775   1.065   1.477
 6494SOL    HW220382   6.809   1.199   1.390
 6495SOL     OW20383   6.627   6.590   2.584
 6495SOL    HW120384   6.655   6.498   2.558
 6495SOL    HW220385   6.683   6.622   2.660
 6496SOL     OW20386   2.984   2.322   1.485
 6496SOL    HW120387   3.056   2.390   1.499
 6496SOL    HW220388   3.024   2.231   1.482
 6497SOL     OW20389   0.824   2.259   0.988
 6497SOL    HW120390   0.871   2.274   0.901
 6497SOL    HW220391   0.847   2.332   1.052
 6498SOL     OW20392   2.479   4.591   4.265
 6498SOL    HW120393   2.527   4.558   4.184
 6498SOL    HW220394   2.482   4.521   4.337
 6499SOL     OW20395   5.720   2.189   2.493
 6499SOL    HW120396   5.726   2.229   2.401
 6499SOL    HW220397   5.688   2.258   2.557
 6500SOL     OW20398   1.584   3.832   2.445
 6500SOL    HW120399   1.610   3.906   2.508
 6500SOL    HW220400   1.636   3.750   2.468
 6501SOL     OW20401   6.740   0.730   2.533
 6501SOL    HW120402   6.741   0.816   2.583
 6501SOL    HW220403   6.762   0.654   2.595
 6502SOL     OW20404   0.921   3.094   1.762
 6502SOL    HW120405   1.013   3.057   1.745
 6502SOL    HW220406   0.870   3.095   1.676
 6503SOL     OW20407   0.194   2.527   5.295
 6503SOL    HW120408   0.288   2.558   5.307
 6503SOL    HW220409   0.142   2.595   5.244
 6504SOL     OW20410   4.078   6.883   5.871
 6504SOL    HW120411   3.996   6.905   5.924
 6504SOL    HW220412   4.077   6.934   5.786
 6505SOL     OW20413   0.082   6.324   0.044
 6505SOL    HW120414   0.173   6.337   0.084
 6505SOL    HW220415   0.087   6.337   6.966
 6506SOL     OW20416   0.013   3.419   1.476
 6506SOL    HW120417   0.017   3.481   1.554
 6506SOL    HW220418   6.938   3.405   1.450
 6507SOL     OW20419   4.259   5.612   0.981
 6507SOL    HW120420   4.318   5.534   0.963
 6507SOL    HW220421   4.163   5.584   0.977
 6508SOL     OW20422   6.854   0.392   3.962
 6508SOL    HW120423   6.884   0.350   4.048
 6508SOL    HW220424   6.768   0.441   3.976
 6509SOL     OW20425   2.453   1.950   0.475
 6509SOL    HW120426   2.382   1.966   0.544
 6509SOL    HW220427   2.410   1.915   0.391
 6510SOL     OW20428   3.522   4.922   4.488
 6510SOL    HW120429   3.428   4.908   4.518
 6510SOL    HW220430   3.524   4.983   4.409
 6511SOL     OW20431   3.336   2.668   6.715
 6511SOL    HW120432   3.330   2.740   6.784
 6511SOL    HW220433   3.245   2.646   6.682
 6512SOL     OW20434   5.233   0.848   1.152
 6512SOL    HW120435   5.207   0.752   1.144
 6512SOL    HW220436   5.187   0.889   1.230
 6513SOL     OW20437   3.260   4.999   2.600
 6513SOL    HW120438   3.247   4.975   2.696
 6513SOL    HW220439   3.181   4.967   2.547
 6514SOL     OW20440   4.839   5.683   5.427
 6514SOL    HW120441   4.872   5.608   5.485
 6514SOL    HW220442   4.758   5.724   5.470
 6515SOL     OW20443   0.478   4.747   2.020
 6515SOL    HW120444   0.527   4.813   2.075
 6515SOL    HW220445   0.453   4.788   1.932
 6516SOL     OW20446   5.700   1.142   4.026
 6516SOL    HW120447   5.799   1.155   4.013
 6516SOL    HW220448   5.650   1.206   3.968
 6517SOL     OW20449   6.693   4.078   0.628
 6517SOL    HW120450   6.696   4.057   0.726
 6517SOL    HW220451   6.620   4.143   0.610
 6518SOL     OW20452   1.187   1.591   2.131
 6518SOL    HW120453   1.193   1.531   2.211
 6518SOL    HW220454   1.098   1.637   2.131
 6519SOL     OW20455   1.168   1.617   3.145
 6519SOL    HW120456   1.208   1.709   3.151
 6519SOL    HW220457   1.196   1.563   3.224
 6520SOL     OW20458   6.116   5.775   6.628
 6520SOL    HW120459   6.181   5.704   6.655
 6520SOL    HW220460   6.042   5.781   6.695
 6521SOL     OW20461   1.618   4.693   4.511
 6521SOL    HW120462   1.621   4.756   4.589
 6521SOL    HW220463   1.693   4.714   4.449
 6522SOL     OW20464   2.217   3.114   4.920
 6522SOL    HW120465   2.270   3.114   4.835
 6522SOL    HW220466   2.265   3.059   4.988
 6523SOL     OW20467   5.655   6.561   0.348
 6523SOL    HW120468   5.581   6.619   0.315
 6523SOL    HW220469   5.627   6.465   0.340
 6524SOL     OW20470   3.286   2.837   1.288
 6524SOL    HW120471   3.260   2.843   1.385
 6524SOL    HW220472   3.384   2.850   1.279
 6525SOL     OW20473   2.018   4.538   4.000
 6525SOL    HW120474   2.109   4.497   4.010
 6525SOL    HW220475   1.962   4.479   3.942
 6526SOL     OW20476   6.654   6.188   0.435
 6526SOL    HW120477   6.659   6.118   0.506
 6526SOL    HW220478   6.648   6.278   0.476
 6527SOL     OW20479   5.193   2.054   1.083
 6527SOL    HW120480   5.120   1.986   1.070
 6527SOL    HW220481   5.190   2.088   1.177
 6528SOL     OW20482   4.620   6.584   0.251
 6528SOL    HW120483   4.670   6.670   0.259
 6528SOL    HW220484   4.522   6.601   0.262
 6529SOL     OW20485   4.254   0.043   1.832
 6529SOL    HW120486   4.235   6.984   1.775
 6529SOL    HW220487   4.236   0.127   1.779
 6530SOL     OW20488   0.237   2.393   4.107
 6530SOL    HW120489   0.188   2.416   4.023
 6530SOL    HW220490   0.332   2.424   4.100
 6531SOL     OW20491   3.543   3.218   3.685
 6531SOL    HW120492   3.623   3.183   3.637
 6531SOL    HW220493   3.541   3.318   3.681
 6532SOL     OW20494   1.008   5.610   0.194
 6532SOL    HW120495   1.056   5.549   0.257
 6532SOL    HW220496   0.919   5.633   0.232
 6533SOL     OW20497   5.184   5.222   1.238
 6533SOL    HW120498   5.111   5.234   1.305
 6533SOL    HW220499   5.176   5.291   1.166
 6534SOL     OW20500   6.562   3.134   4.073
 6534SOL    HW120501   6.499   3.059   4.092
 6534SOL    HW220502   6.511   3.215   4.045
 6535SOL     OW20503   5.283   3.673   5.918
 6535SOL    HW120504   5.267   3.762   5.875
 6535SOL    HW220505   5.332   3.685   6.004
 6536SOL     OW20506   0.338   5.241   5.691
 6536SOL    HW120507   0.350   5.216   5.595
 6536SOL    HW220508   0.418   5.211   5.744
 6537SOL     OW20509   6.468   5.441   4.360
 6537SOL    HW120510   6.514   5.376   4.298
 6537SOL    HW220511   6.522   5.525   4.365
 6538SOL     OW20512   1.378   3.266   3.568
 6538SOL    HW120513   1.471   3.246   3.600
 6538SOL    HW220514   1.356   3.209   3.489
 6539SOL     OW20515   5.146   6.868   6.291
 6539SOL    HW120516   5.179   6.857   6.384
 6539SOL    HW220517   5.219   6.845   6.226
 6540SOL     OW20518   0.860   2.291   4.864
 6540SOL    HW120519   0.888   2.209   4.815
 6540SOL    HW220520   0.934   2.359   4.860
 6541SOL     OW20521   4.067   1.555   5.522
 6541SOL    HW120522   4.003   1.606   5.464
 6541SOL    HW220523   4.029   1.545   5.614
 6542SOL     OW20524   1.597   4.332   1.902
 6542SOL    HW120525   1.672   4.383   1.860
 6542SOL    HW220526   1.545   4.284   1.832
 6543SOL     OW20527   3.838   1.505   4.214
 6543SOL    HW120528   3.800   1.513   4.122
 6543SOL    HW220529   3.936   1.525   4.211
 6544SOL     OW20530   0.984   0.265   0.990
 6544SOL    HW120531   0.965   0.173   1.025
 6544SOL    HW220532   0.984   0.329   1.066
 6545SOL     OW20533   5.731   5.732   0.857
 6545SOL    HW120534   5.821   5.690   0.843
 6545SOL    HW220535   5.705   5.783   0.776
 6546SOL     OW20536   4.528   5.428   5.286
 6546SOL    HW120537   4.432   5.427   5.257
 6546SOL    HW220538   4.586   5.444   5.206
 6547SOL     OW20539   1.099   6.452   5.104
 6547SOL    HW120540   1.104   6.407   5.015
 6547SOL    HW220541   1.033   6.527   5.100
 6548SOL     OW20542   1.229   2.199   6.053
 6548SOL    HW120543   1.213   2.102   6.035
 6548SOL    HW220544   1.325   2.213   6.077
 6549SOL     OW20545   3.684   1.493   2.458
 6549SOL    HW120546   3.727   1.406   2.434
 6549SOL    HW220547   3.641   1.532   2.377
 6550SOL     OW20548   6.038   7.003   1.764
 6550SOL    HW120549   6.039   0.034   1.679
 6550SOL    HW220550   6.104   6.928   1.759
 6551SOL     OW20551   2.711   4.815   1.306
 6551SOL    HW120552   2.756   4.869   1.377
 6551SOL    HW220553   2.616   4.797   1.332
 6552SOL     OW20554   2.212   4.062   0.033
 6552SOL    HW120555   2.114   4.055   0.017
 6552SOL    HW220556   2.240   4.158   0.028
 6553SOL     OW20557   0.005   1.922   3.295
 6553SOL    HW120558   0.031   1.830   3.263
 6553SOL    HW220559   6.937   1.917   3.341
 6554SOL     OW20560   1.560   2.265   3.509
 6554SOL    HW120561   1.635   2.202   3.531
 6554SOL    HW220562   1.569   2.349   3.562
 6555SOL     OW20563   1.306   3.769   2.299
 6555SOL    HW120564   1.379   3.782   2.366
 6555SOL    HW220565   1.329   3.691   2.240
 6556SOL     OW20566   5.007   3.394   3.375
 6556SOL    HW120567   5.096   3.429   3.406
 6556SOL    HW220568   4.987   3.430   3.284
 6557SOL     OW20569   1.743   0.019   2.606
 6557SOL    HW120570   1.675   0.006   2.534
 6557SOL    HW220571   1.724   0.104   2.655
 6558SOL     OW20572   5.088   5.589   0.939
 6558SOL    HW120573   5.098   5.681   0.901
 6558SOL    HW220574   4.994   5.557   0.923
 6559SOL     OW20575   0.242   1.743   6.541
 6559SOL    HW120576   0.189   1.827   6.530
 6559SOL    HW220577   0.244   1.718   6.638
 6560SOL     OW20578   6.905   4.664   6.356
 6560SOL    HW120579   6.823   4.608   6.355
 6560SOL    HW220580   6.976   4.622   6.299
 6561SOL     OW20581   2.735   5.546   0.815
 6561SOL    HW120582   2.762   5.528   0.720
 6561SOL    HW220583   2.765   5.470   0.873
 6562SOL     OW20584   4.766   2.278   2.044
 6562SOL    HW120585   4.700   2.353   2.041
 6562SOL    HW220586   4.735   2.209   2.109
 6563SOL     OW20587   6.175   5.733   5.205
 6563SOL    HW120588   6.111   5.809   5.197
 6563SOL    HW220589   6.158   5.683   5.290
 6564SOL     OW20590   5.235   3.327   2.470
 6564SOL    HW120591   5.151   3.307   2.418
 6564SOL    HW220592   5.219   3.308   2.567
 6565SOL     OW20593   4.845   5.927   2.360
 6565SOL    HW120594   4.752   5.931   2.395
 6565SOL    HW220595   4.886   5.839   2.384
 6566SOL     OW20596   5.210   5.768   3.765
 6566SOL    HW120597   5.134   5.777   3.700
 6566SOL    HW220598   5.253   5.679   3.755
 6567SOL     OW20599   3.098   0.904   2.755
 6567SOL    HW120600   3.072   0.938   2.845
 6567SOL    HW220601   3.179   0.953   2.723
 6568SOL     OW20602   5.349   1.139   1.283
 6568SOL    HW120603   5.253   1.139   1.257
 6568SOL    HW220604   5.367   1.064   1.347
 6569SOL     OW20605   1.714   4.657   3.182
 6569SOL    HW120606   1.705   4.640   3.280
 6569SOL    HW220607   1.722   4.756   3.166
 6570SOL     OW20608   4.718   0.149   2.683
 6570SOL    HW120609   4.676   0.087   2.617
 6570SOL    HW220610   4.766   0.223   2.635
 6571SOL     OW20611   2.892   6.177   3.055
 6571SOL    HW120612   2.882   6.217   3.147
 6571SOL    HW220613   2.889   6.250   2.987
 6572SOL     OW20614   1.528   6.228   3.666
 6572SOL    HW120615   1.511   6.213   3.569
 6572SOL    HW220616   1.549   6.141   3.710
 6573SOL     OW20617   0.379   2.161   3.199
 6573SOL    HW120618   0.288   2.137   3.166
 6573SOL    HW220619   0.438   2.184   3.121
 6574SOL     OW20620   0.507   5.275   1.877
 6574SOL    HW120621   0.501   5.333   1.796
 6574SOL    HW220622   0.586   5.215   1.870
 6575SOL     OW20623   0.032   1.599   3.425
 6575SOL    HW120624   0.069   1.586   3.518
 6575SOL    HW220625   6.956   1.576   3.424
 6576SOL     OW20626   3.943   6.962   1.764
 6576SOL    HW120627   4.012   6.897   1.795
 6576SOL    HW220628   3.928   6.952   1.666
 6577SOL     OW20629   3.542   1.009   5.263
 6577SOL    HW120630   3.530   1.036   5.168
 6577SOL    HW220631   3.457   1.026   5.313
 6578SOL     OW20632   1.251   5.860   6.608
 6578SOL    HW120633   1.316   5.851   6.533
 6578SOL    HW220634   1.164   5.819   6.581
 6579SOL     OW20635   1.559   1.603   3.336
 6579SOL    HW120636   1.460   1.588   3.348
 6579SOL    HW220637   1.575   1.696   3.304
 6580SOL     OW20638   2.985   2.711   0.161
 6580SOL    HW120639   2.892   2.721   0.194
 6580SOL    HW220640   2.985   2.704   0.061
 6581SOL     OW20641   0.606   2.596   2.188
 6581SOL    HW120642   0.536   2.538   2.147
 6581SOL    HW220643   0.696   2.557   2.170
 6582SOL     OW20644   4.400   0.701   3.242
 6582SOL    HW120645   4.455   0.783   3.227
 6582SOL    HW220646   4.459   0.620   3.240
 6583SOL     OW20647   2.748   4.492   1.178
 6583SOL    HW120648   2.783   4.553   1.106
 6583SOL    HW220649   2.754   4.398   1.146
 6584SOL     OW20650   3.944   3.283   6.383
 6584SOL    HW120651   3.860   3.315   6.339
 6584SOL    HW220652   3.988   3.360   6.430
 6585SOL     OW20653   5.646   0.413   1.739
 6585SOL    HW120654   5.617   0.371   1.826
 6585SOL    HW220655   5.702   0.348   1.688
 6586SOL     OW20656   6.633   1.683   0.053
 6586SOL    HW120657   6.651   1.746   6.999
 6586SOL    HW220658   6.538   1.691   0.082
 6587SOL     OW20659   3.154   5.123   5.299
 6587SOL    HW120660   3.063   5.143   5.262
 6587SOL    HW220661   3.195   5.047   5.248
 6588SOL     OW20662   0.986   1.364   0.505
 6588SOL    HW120663   1.056   1.302   0.470
 6588SOL    HW220664   0.953   1.331   0.593
 6589SOL     OW20665   6.232   6.780   1.182
 6589SOL    HW120666   6.281   6.863   1.156
 6589SOL    HW220667   6.147   6.804   1.228
 6590SOL     OW20668   1.650   6.100   4.773
 6590SOL    HW120669   1.616   6.043   4.697
 6590SOL    HW220670   1.592   6.086   4.853
 6591SOL     OW20671   6.365   3.363   3.587
 6591SOL    HW120672   6.433   3.325   3.649
 6591SOL    HW220673   6.366   3.312   3.501
 6592SOL     OW20674   0.260   0.665   3.960
 6592SOL    HW120675   0.327   0.725   4.004
 6592SOL    HW220676   0.255   0.687   3.863
 6593SOL     OW20677   1.413   0.664   2.972
 6593SOL    HW120678   1.341   0.625   3.030
 6593SOL    HW220679   1.502   0.629   3.001
 6594SOL     OW20680   5.705   0.548   6.568
 6594SOL    HW120681   5.619   0.528   6.523
 6594SOL    HW220682   5.767   0.593   6.503
 6595SOL     OW20683   1.445   1.502   4.981
 6595SOL    HW120684   1.537   1.462   4.977
 6595SOL    HW220685   1.377   1.432   4.958
 6596SOL     OW20686   5.558   1.037   3.179
 6596SOL    HW120687   5.623   1.058   3.253
 6596SOL    HW220688   5.477   0.992   3.218
 6597SOL     OW20689   1.068   5.259   1.189
 6597SOL    HW120690   1.028   5.195   1.254
 6597SOL    HW220691   1.002   5.330   1.167
 6598SOL     OW20692   1.034   4.999   1.753
 6598SOL    HW120693   1.124   4.992   1.710
 6598SOL    HW220694   0.963   4.983   1.684
 6599SOL     OW20695   0.787   5.357   6.344
 6599SOL    HW120696   0.819   5.434   6.289
 6599SOL    HW220697   0.767   5.390   6.437
 6600SOL     OW20698   4.166   6.153   4.907
 6600SOL    HW120699   4.203   6.241   4.936
 6600SOL    HW220700   4.185   6.138   4.810
 6601SOL     OW20701   0.921   2.831   2.287
 6601SOL    HW120702   0.856   2.755   2.292
 6601SOL    HW220703   0.970   2.827   2.200
 6602SOL     OW20704   6.054   5.840   0.974
 6602SOL    HW120705   6.051   5.763   0.911
 6602SOL    HW220706   6.045   5.926   0.923
 6603SOL     OW20707   0.301   4.364   2.415
 6603SOL    HW120708   0.221   4.343   2.360
 6603SOL    HW220709   0.273   4.402   2.503
 6604SOL     OW20710   1.122   5.132   2.367
 6604SOL    HW120711   1.172   5.060   2.415
 6604SOL    HW220712   1.185   5.188   2.314
 6605SOL     OW20713   6.969   4.938   1.060
 6605SOL    HW120714   0.038   4.894   1.056
 6605SOL    HW220715   6.960   4.987   1.146
 6606SOL     OW20716   1.470   4.435   2.562
 6606SOL    HW120717   1.422   4.394   2.639
 6606SOL    HW220718   1.489   4.365   2.494
 6607SOL     OW20719   6.706   3.545   4.385
 6607SOL    HW120720   6.688   3.520   4.290
 6607SOL    HW220721   6.626   3.592   4.423
 6608SOL     OW20722   1.247   0.291   5.402
 6608SOL    HW120723   1.230   0.390   5.404
 6608SOL    HW220724   1.282   0.261   5.490
 6609SOL     OW20725   3.095   2.644   6.916
 6609SOL    HW120726   3.122   2.551   6.939
 6609SOL    HW220727   3.082   2.652   6.817
 6610SOL     OW20728   3.250   6.605   1.539
 6610SOL    HW120729   3.285   6.670   1.471
 6610SOL    HW220730   3.161   6.571   1.510
 6611SOL     OW20731   3.117   1.676   4.406
 6611SOL    HW120732   3.181   1.753   4.406
 6611SOL    HW220733   3.136   1.617   4.327
 6612SOL     OW20734   0.163   6.966   6.878
 6612SOL    HW120735   0.178   6.925   6.968
 6612SOL    HW220736   0.205   0.035   6.875
 6613SOL     OW20737   4.112   6.537   1.382
 6613SOL    HW120738   4.176   6.602   1.424
 6613SOL    HW220739   4.126   6.536   1.283
 6614SOL     OW20740   3.752   4.509   1.021
 6614SOL    HW120741   3.745   4.416   0.984
 6614SOL    HW220742   3.681   4.523   1.090
 6615SOL     OW20743   3.112   5.732   5.965
 6615SOL    HW120744   3.115   5.718   5.866
 6615SOL    HW220745   3.192   5.784   5.994
 6616SOL     OW20746   3.993   2.104   6.457
 6616SOL    HW120747   3.985   2.011   6.494
 6616SOL    HW220748   3.914   2.158   6.485
 6617SOL     OW20749   3.455   1.475   4.130
 6617SOL    HW120750   3.492   1.504   4.218
 6617SOL    HW220751   3.504   1.521   4.056
 6618SOL     OW20752   5.848   3.469   3.354
 6618SOL    HW120753   5.876   3.554   3.398
 6618SOL    HW220754   5.749   3.457   3.366
 6619SOL     OW20755   4.898   5.221   4.086
 6619SOL    HW120756   4.879   5.312   4.124
 6619SOL    HW220757   4.845   5.153   4.135
 6620SOL     OW20758   1.423   2.955   3.403
 6620SOL    HW120759   1.446   2.887   3.333
 6620SOL    HW220760   1.423   3.046   3.361
 6621SOL     OW20761   3.503   3.781   3.574
 6621SOL    HW120762   3.560   3.741   3.501
 6621SOL    HW220763   3.453   3.860   3.538
 6622SOL     OW20764   0.171   4.606   1.145
 6622SOL    HW120765   0.152   4.568   1.054
 6622SOL    HW220766   0.180   4.706   1.137
 6623SOL     OW20767   3.555   3.489   3.704
 6623SOL    HW120768   3.646   3.510   3.740
 6623SOL    HW220769   3.487   3.546   3.750
 6624SOL     OW20770   2.617   2.342   2.916
 6624SOL    HW120771   2.563   2.411   2.965
 6624SOL    HW220772   2.567   2.315   2.833
 6625SOL     OW20773   0.053   4.569   5.402
 6625SOL    HW120774   0.110   4.500   5.357
 6625SOL    HW220775   0.045   4.649   5.342
 6626SOL     OW20776   2.905   5.531   5.928
 6626SOL    HW120777   2.938   5.455   5.872
 6626SOL    HW220778   2.964   5.610   5.915
 6627SOL     OW20779   2.373   6.599   4.381
 6627SOL    HW120780   2.355   6.697   4.369
 6627SOL    HW220781   2.318   6.565   4.457
 6628SOL     OW20782   3.703   0.286   3.275
 6628SOL    HW120783   3.673   0.191   3.285
 6628SOL    HW220784   3.652   0.344   3.339
 6629SOL     OW20785   4.858   5.819   4.798
 6629SOL    HW120786   4.770   5.849   4.833
 6629SOL    HW220787   4.843   5.756   4.722
 6630SOL     OW20788   1.997   0.141   0.428
 6630SOL    HW120789   2.036   0.174   0.514
 6630SOL    HW220790   1.900   0.118   0.442
 6631SOL     OW20791   1.513   2.404   5.366
 6631SOL    HW120792   1.503   2.307   5.386
 6631SOL    HW220793   1.607   2.423   5.337
 6632SOL     OW20794   1.468   0.055   6.549
 6632SOL    HW120795   1.379   0.017   6.525
 6632SOL    HW220796   1.456   0.150   6.580
 6633SOL     OW20797   4.695   6.512   5.940
 6633SOL    HW120798   4.666   6.601   5.973
 6633SOL    HW220799   4.762   6.523   5.866
 6634SOL     OW20800   2.814   2.301   3.763
 6634SOL    HW120801   2.757   2.219   3.766
 6634SOL    HW220802   2.908   2.275   3.740
 6635SOL     OW20803   4.976   5.954   6.032
 6635SOL    HW120804   4.938   5.939   5.941
 6635SOL    HW220805   4.945   5.882   6.094
 6636SOL     OW20806   4.044   1.212   0.968
 6636SOL    HW120807   4.134   1.249   0.947
 6636SOL    HW220808   4.026   1.222   1.066
 6637SOL     OW20809   6.988   2.082   6.752
 6637SOL    HW120810   6.991   2.126   6.662
 6637SOL    HW220811   6.910   2.117   6.804
 6638SOL     OW20812   2.879   3.449   3.645
 6638SOL    HW120813   2.862   3.352   3.626
 6638SOL    HW220814   2.866   3.467   3.742
 6639SOL     OW20815   4.635   2.858   1.270
 6639SOL    HW120816   4.611   2.773   1.315
 6639SOL    HW220817   4.670   2.839   1.178
 6640SOL     OW20818   1.079   3.890   4.571
 6640SOL    HW120819   1.128   3.961   4.520
 6640SOL    HW220820   1.126   3.802   4.560
 6641SOL     OW20821   5.977   2.565   0.027
 6641SOL    HW120822   5.925   2.481   0.007
 6641SOL    HW220823   5.994   2.570   0.125
 6642SOL     OW20824   0.775   5.244   5.973
 6642SOL    HW120825   0.736   5.166   6.021
 6642SOL    HW220826   0.807   5.215   5.882
 6643SOL     OW20827   4.010   5.669   6.137
 6643SOL    HW120828   4.035   5.574   6.155
 6643SOL    HW220829   3.911   5.679   6.149
 6644SOL     OW20830   1.699   0.319   3.483
 6644SOL    HW120831   1.602   0.305   3.505
 6644SOL    HW220832   1.718   0.416   3.478
 6645SOL     OW20833   4.619   2.321   5.658
 6645SOL    HW120834   4.536   2.374   5.639
 6645SOL    HW220835   4.637   2.321   5.756
 6646SOL     OW20836   4.842   0.459   6.630
 6646SOL    HW120837   4.891   0.416   6.555
 6646SOL    HW220838   4.797   0.388   6.685
 6647SOL     OW20839   3.947   4.690   1.261
 6647SOL    HW120840   3.917   4.732   1.176
 6647SOL    HW220841   4.032   4.639   1.245
 6648SOL     OW20842   3.362   5.208   5.792
 6648SOL    HW120843   3.327   5.202   5.699
 6648SOL    HW220844   3.449   5.158   5.799
 6649SOL     OW20845   5.138   2.342   5.909
 6649SOL    HW120846   5.081   2.371   5.832
 6649SOL    HW220847   5.235   2.348   5.883
 6650SOL     OW20848   2.437   1.453   4.983
 6650SOL    HW120849   2.339   1.431   4.981
 6650SOL    HW220850   2.490   1.369   4.968
 6651SOL     OW20851   6.704   1.209   4.177
 6651SOL    HW120852   6.800   1.189   4.195
 6651SOL    HW220853   6.663   1.136   4.122
 6652SOL     OW20854   0.371   4.464   6.783
 6652SOL    HW120855   0.378   4.546   6.726
 6652SOL    HW220856   0.281   4.463   6.827
 6653SOL     OW20857   5.472   4.048   6.663
 6653SOL    HW120858   5.459   3.982   6.736
 6653SOL    HW220859   5.398   4.038   6.596
 6654SOL     OW20860   6.724   1.929   3.330
 6654SOL    HW120861   6.665   1.864   3.377
 6654SOL    HW220862   6.715   1.916   3.231
 6655SOL     OW20863   0.018   6.022   1.202
 6655SOL    HW120864   0.042   6.058   1.293
 6655SOL    HW220865   7.015   5.926   1.209
 6656SOL     OW20866   4.072   1.173   2.048
 6656SOL    HW120867   4.008   1.134   2.114
 6656SOL    HW220868   4.027   1.245   1.996
 6657SOL     OW20869   4.713   1.917   4.682
 6657SOL    HW120870   4.744   1.984   4.749
 6657SOL    HW220871   4.773   1.837   4.685
 6658SOL     OW20872   6.667   5.918   4.600
 6658SOL    HW120873   6.722   5.849   4.647
 6658SOL    HW220874   6.726   5.990   4.563
 6659SOL     OW20875   0.514   5.822   0.840
 6659SOL    HW120876   0.416   5.817   0.819
 6659SOL    HW220877   0.567   5.797   0.759
 6660SOL     OW20878   0.935   0.158   4.270
 6660SOL    HW120879   0.865   0.135   4.203
 6660SOL    HW220880   0.977   0.075   4.305
 6661SOL     OW20881   4.104   6.453   3.803
 6661SOL    HW120882   4.200   6.466   3.829
 6661SOL    HW220883   4.091   6.360   3.769
 6662SOL     OW20884   3.339   6.978   2.426
 6662SOL    HW120885   3.366   7.007   2.518
 6662SOL    HW220886   3.239   6.974   2.421
 6663SOL     OW20887   1.770   4.336   5.562
 6663SOL    HW120888   1.721   4.404   5.508
 6663SOL    HW220889   1.794   4.258   5.503
 6664SOL     OW20890   3.305   0.254   2.148
 6664SOL    HW120891   3.336   0.163   2.119
 6664SOL    HW220892   3.205   0.253   2.156
 6665SOL     OW20893   2.726   0.736   0.409
 6665SOL    HW120894   2.718   0.751   0.507
 6665SOL    HW220895   2.676   0.808   0.360
 6666SOL     OW20896   2.633   5.924   5.700
 6666SOL    HW120897   2.712   5.984   5.694
 6666SOL    HW220898   2.664   5.829   5.711
 6667SOL     OW20899   1.684   5.601   0.407
 6667SOL    HW120900   1.780   5.612   0.378
 6667SOL    HW220901   1.630   5.568   0.330
 6668SOL     OW20902   6.755   3.809   6.577
 6668SOL    HW120903   6.822   3.819   6.651
 6668SOL    HW220904   6.802   3.808   6.489
 6669SOL     OW20905   1.018   2.964   3.531
 6669SOL    HW120906   1.069   2.889   3.488
 6669SOL    HW220907   0.947   2.996   3.468
 6670SOL     OW20908   2.779   3.562   0.604
 6670SOL    HW120909   2.848   3.520   0.662
 6670SOL    HW220910   2.796   3.536   0.509
 6671SOL     OW20911   4.427   4.930   0.472
 6671SOL    HW120912   4.372   4.933   0.388
 6671SOL    HW220913   4.443   5.023   0.505
 6672SOL     OW20914   1.713   2.833   1.375
 6672SOL    HW120915   1.686   2.737   1.382
 6672SOL    HW220916   1.631   2.890   1.370
 6673SOL     OW20917   5.619   3.609   3.825
 6673SOL    HW120918   5.660   3.589   3.914
 6673SOL    HW220919   5.541   3.549   3.809
 6674SOL     OW20920   7.013   0.355   0.610
 6674SOL    HW120921   6.923   0.318   0.631
 6674SOL    HW220922   0.008   0.348   0.511
 6675SOL     OW20923   4.351   1.193   0.256
 6675SOL    HW120924   4.406   1.110   0.269
 6675SOL    HW220925   4.324   1.201   0.160
 6676SOL     OW20926   0.762   4.240   4.951
 6676SOL    HW120927   0.716   4.259   5.038
 6676SOL    HW220928   0.718   4.161   4.908
 6677SOL     OW20929   0.140   2.267   6.884
 6677SOL    HW120930   0.086   2.350   6.901
 6677SOL    HW220931   0.079   2.193   6.855
 6678SOL     OW20932   2.784   4.238   6.487
 6678SOL    HW120933   2.858   4.294   6.523
 6678SOL    HW220934   2.725   4.208   6.562
 6679SOL     OW20935   1.229   0.423   4.154
 6679SOL    HW120936   1.279   0.402   4.238
 6679SOL    HW220937   1.162   0.494   4.172
 6680SOL     OW20938   5.996   5.164   1.874
 6680SOL    HW120939   5.998   5.169   1.774
 6680SOL    HW220940   5.924   5.101   1.902
 6681SOL     OW20941   2.852   5.768   1.199
 6681SOL    HW120942   2.886   5.851   1.243
 6681SOL    HW220943   2.830   5.700   1.270
 6682SOL     OW20944   2.403   5.567   6.642
 6682SOL    HW120945   2.415   5.533   6.549
 6682SOL    HW220946   2.306   5.590   6.657
 6683SOL     OW20947   6.435   6.149   6.119
 6683SOL    HW120948   6.386   6.100   6.047
 6683SOL    HW220949   6.371   6.178   6.190
 6684SOL     OW20950   2.602   5.933   6.153
 6684SOL    HW120951   2.698   5.906   6.140
 6684SOL    HW220952   2.571   5.983   6.073
 6685SOL     OW20953   4.434   2.524   1.104
 6685SOL    HW120954   4.422   2.461   1.027
 6685SOL    HW220955   4.476   2.476   1.181
 6686SOL     OW20956   4.717   4.896   5.424
 6686SOL    HW120957   4.728   4.797   5.410
 6686SOL    HW220958   4.652   4.932   5.356
 6687SOL     OW20959   0.366   2.239   1.531
 6687SOL    HW120960   0.270   2.264   1.516
 6687SOL    HW220961   0.424   2.288   1.466
 6688SOL     OW20962   4.807   5.681   0.708
 6688SOL    HW120963   4.718   5.690   0.663
 6688SOL    HW220964   4.803   5.606   0.774
 6689SOL     OW20965   3.352   5.130   6.461
 6689SOL    HW120966   3.258   5.107   6.484
 6689SOL    HW220967   3.374   5.096   6.370
 6690SOL     OW20968   1.132   0.326   0.506
 6690SOL    HW120969   1.134   0.323   0.605
 6690SOL    HW220970   1.211   0.378   0.472
 6691SOL     OW20971   2.901   1.908   1.851
 6691SOL    HW120972   2.974   1.968   1.885
 6691SOL    HW220973   2.903   1.905   1.751
 6692SOL     OW20974   4.367   6.638   2.141
 6692SOL    HW120975   4.329   6.634   2.048
 6692SOL    HW220976   4.303   6.688   2.200
 6693SOL     OW20977   3.595   1.536   5.851
 6693SOL    HW120978   3.575   1.616   5.908
 6693SOL    HW220979   3.527   1.530   5.777
 6694SOL     OW20980   4.334   3.927   1.547
 6694SOL    HW120981   4.389   4.001   1.508
 6694SOL    HW220982   4.303   3.953   1.639
 6695SOL     OW20983   2.634   2.513   0.403
 6695SOL    HW120984   2.701   2.441   0.423
 6695SOL    HW220985   2.680   2.592   0.364
 6696SOL     OW20986   3.481   2.991   5.196
 6696SOL    HW120987   3.576   3.000   5.225
 6696SOL    HW220988   3.422   2.979   5.276
 6697SOL     OW20989   4.524   1.992   2.710
 6697SOL    HW120990   4.562   1.918   2.654
 6697SOL    HW220991   4.427   1.974   2.726
 6698SOL     OW20992   2.781   3.862   1.625
 6698SOL    HW120993   2.835   3.827   1.701
 6698SOL    HW220994   2.804   3.813   1.542
 6699SOL     OW20995   1.573   3.170   6.297
 6699SOL    HW120996   1.517   3.242   6.256
 6699SOL    HW220997   1.602   3.107   6.225
 6700SOL     OW20998   5.882   0.949   1.380
 6700SOL    HW120999   5.832   0.977   1.298
 6700SOL    HW221000   5.817   0.930   1.454
 6701SOL     OW21001   5.767   0.232   1.581
 6701SOL    HW121002   5.867   0.238   1.574
 6701SOL    HW221003   5.739   0.137   1.590
 6702SOL     OW21004   3.956   2.947   0.910
 6702SOL    HW121005   3.971   2.970   0.813
 6702SOL    HW221006   4.038   2.904   0.947
 6703SOL     OW21007   0.751   1.403   0.327
 6703SOL    HW121008   0.844   1.386   0.359
 6703SOL    HW221009   0.728   1.336   0.256
 6704SOL     OW21010   3.092   0.069   5.730
 6704SOL    HW121011   3.006   0.119   5.728
 6704SOL    HW221012   3.168   0.135   5.730
 6705SOL     OW21013   6.902   4.469   2.044
 6705SOL    HW121014   6.905   4.392   1.980
 6705SOL    HW221015   6.937   4.551   1.999
 6706SOL     OW21016   0.062   5.913   0.378
 6706SOL    HW121017   0.072   6.011   0.358
 6706SOL    HW221018   0.152   5.870   0.381
 6707SOL     OW21019   4.246   1.229   2.840
 6707SOL    HW121020   4.147   1.244   2.845
 6707SOL    HW221021   4.264   1.148   2.783
 6708SOL     OW21022   0.560   3.058   0.292
 6708SOL    HW121023   0.484   3.111   0.329
 6708SOL    HW221024   0.614   3.115   0.230
 6709SOL     OW21025   2.471   4.446   2.107
 6709SOL    HW121026   2.374   4.449   2.131
 6709SOL    HW221027   2.509   4.538   2.112
 6710SOL     OW21028   4.574   1.661   1.090
 6710SOL    HW121029   4.615   1.710   1.166
 6710SOL    HW221030   4.644   1.610   1.040
 6711SOL     OW21031   3.999   5.895   6.360
 6711SOL    HW121032   3.922   5.837   6.332
 6711SOL    HW221033   4.076   5.838   6.388
 6712SOL     OW21034   4.997   4.044   1.323
 6712SOL    HW121035   5.042   4.004   1.403
 6712SOL    HW221036   4.941   4.122   1.351
 6713SOL     OW21037   1.974   4.172   4.267
 6713SOL    HW121038   1.924   4.259   4.265
 6713SOL    HW221039   2.062   4.186   4.313
 6714SOL     OW21040   5.184   1.351   1.736
 6714SOL    HW121041   5.185   1.253   1.758
 6714SOL    HW221042   5.091   1.379   1.713
 6715SOL     OW21043   1.162   0.169   5.974
 6715SOL    HW121044   1.253   0.195   6.006
 6715SOL    HW221045   1.093   0.217   6.029
 6716SOL     OW21046   1.246   5.250   1.633
 6716SOL    HW121047   1.146   5.254   1.623
 6716SOL    HW221048   1.271   5.165   1.679
 6717SOL     OW21049   6.513   2.166   5.420
 6717SOL    HW121050   6.461   2.097   5.369
 6717SOL    HW221051   6.454   2.244   5.440
 6718SOL     OW21052   4.668   2.170   1.196
 6718SOL    HW121053   4.709   2.148   1.285
 6718SOL    HW221054   4.569   2.161   1.202
 6719SOL     OW21055   1.948   1.286   0.510
 6719SOL    HW121056   1.950   1.374   0.462
 6719SOL    HW221057   2.029   1.233   0.486
 6720SOL     OW21058   1.337   1.608   5.407
 6720SOL    HW121059   1.328   1.653   5.318
 6720SOL    HW221060   1.317   1.511   5.397
 6721SOL     OW21061   6.588   6.182   6.881
 6721SOL    HW121062   6.646   6.229   6.948
 6721SOL    HW221063   6.641   6.162   6.799
 6722SOL     OW21064   5.931   4.484   1.020
 6722SOL    HW121065   5.934   4.566   1.077
 6722SOL    HW221066   5.921   4.510   0.924
 6723SOL     OW21067   1.491   3.482   4.257
 6723SOL    HW121068   1.413   3.435   4.217
 6723SOL    HW221069   1.460   3.564   4.305
 6724SOL     OW21070   2.023   3.731   4.557
 6724SOL    HW121071   1.966   3.805   4.593
 6724SOL    HW221072   1.996   3.645   4.601
 6725SOL     OW21073   4.995   3.278   4.342
 6725SOL    HW121074   4.958   3.245   4.429
 6725SOL    HW221075   5.045   3.203   4.298
 6726SOL     OW21076   0.262   1.350   6.775
 6726SOL    HW121077   0.298   1.441   6.795
 6726SOL    HW221078   0.171   1.341   6.815
 6727SOL     OW21079   0.847   4.912   5.372
 6727SOL    HW121080   0.850   4.949   5.279
 6727SOL    HW221081   0.762   4.861   5.385
 6728SOL     OW21082   3.459   1.232   4.231
 6728SOL    HW121083   3.458   1.317   4.179
 6728SOL    HW221084   3.365   1.205   4.252
 6729SOL     OW21085   4.030   1.074   1.635
 6729SOL    HW121086   4.092   1.147   1.607
 6729SOL    HW221087   4.050   0.991   1.583
 6730SOL     OW21088   0.398   1.895   0.901
 6730SOL    HW121089   0.403   1.820   0.967
 6730SOL    HW221090   0.480   1.952   0.909
 6731SOL     OW21091   3.932   0.440   6.352
 6731SOL    HW121092   3.869   0.474   6.422
 6731SOL    HW221093   3.896   0.357   6.311
 6732SOL     OW21094   6.490   4.957   5.730
 6732SOL    HW121095   6.445   4.872   5.759
 6732SOL    HW221096   6.570   4.973   5.788
 6733SOL     OW21097   4.866   5.235   4.934
 6733SOL    HW121098   4.826   5.249   5.024
 6733SOL    HW221099   4.812   5.286   4.866
 6734SOL     OW21100   5.654   2.304   5.192
 6734SOL    HW121101   5.683   2.212   5.169
 6734SOL    HW221102   5.680   2.325   5.286
 6735SOL     OW21103   5.313   2.919   4.334
 6735SOL    HW121104   5.338   3.015   4.347
 6735SOL    HW221105   5.396   2.864   4.319
 6736SOL     OW21106   3.645   4.174   0.539
 6736SOL    HW121107   3.635   4.258   0.593
 6736SOL    HW221108   3.725   4.123   0.571
 6737SOL     OW21109   6.225   3.490   0.876
 6737SOL    HW121110   6.131   3.511   0.849
 6737SOL    HW221111   6.237   3.511   0.973
 6738SOL     OW21112   2.221   6.545   4.610
 6738SOL    HW121113   2.237   6.595   4.696
 6738SOL    HW221114   2.274   6.461   4.611
 6739SOL     OW21115   6.956   6.908   5.730
 6739SOL    HW121116   6.987   6.824   5.775
 6739SOL    HW221117   6.947   6.981   5.797
 6740SOL     OW21118   0.352   6.747   1.963
 6740SOL    HW121119   0.368   6.781   2.056
 6740SOL    HW221120   0.255   6.755   1.942
 6741SOL     OW21121   3.383   1.726   0.491
 6741SOL    HW121122   3.333   1.735   0.405
 6741SOL    HW221123   3.393   1.815   0.534
 6742SOL     OW21124   6.514   4.759   2.330
 6742SOL    HW121125   6.595   4.736   2.277
 6742SOL    HW221126   6.446   4.686   2.321
 6743SOL     OW21127   3.743   3.583   6.860
 6743SOL    HW121128   3.648   3.554   6.855
 6743SOL    HW221129   3.755   3.667   6.807
 6744SOL     OW21130   6.663   6.739   5.554
 6744SOL    HW121131   6.760   6.747   5.528
 6744SOL    HW221132   6.642   6.809   5.622
 6745SOL     OW21133   6.756   3.855   5.459
 6745SOL    HW121134   6.796   3.945   5.445
 6745SOL    HW221135   6.709   3.853   5.547
 6746SOL     OW21136   1.375   2.214   3.125
 6746SOL    HW121137   1.474   2.199   3.131
 6746SOL    HW221138   1.336   2.215   3.218
 6747SOL     OW21139   1.170   6.208   4.910
 6747SOL    HW121140   1.202   6.255   4.827
 6747SOL    HW221141   1.137   6.117   4.885
 6748SOL     OW21142   1.819   1.278   4.987
 6748SOL    HW121143   1.809   1.192   4.936
 6748SOL    HW221144   1.773   1.270   5.075
 6749SOL     OW21145   4.243   5.031   2.062
 6749SOL    HW121146   4.234   5.128   2.041
 6749SOL    HW221147   4.269   4.981   1.979
 6750SOL     OW21148   3.418   1.334   5.690
 6750SOL    HW121149   3.335   1.329   5.636
 6750SOL    HW221150   3.399   1.302   5.783
 6751SOL     OW21151   4.224   1.008   4.775
 6751SOL    HW121152   4.307   1.005   4.830
 6751SOL    HW221153   4.156   1.066   4.820
 6752SOL     OW21154   2.044   4.746   2.601
 6752SOL    HW121155   2.066   4.835   2.641
 6752SOL    HW221156   2.064   4.748   2.503
 6753SOL     OW21157   3.861   4.000   0.000
 6753SOL    HW121158   3.936   3.975   0.062
 6753SOL    HW221159   3.776   3.958   0.033
 6754SOL     OW21160   6.335   1.147   0.522
 6754SOL    HW121161   6.342   1.083   0.598
 6754SOL    HW221162   6.380   1.108   0.442
 6755SOL     OW21163   3.130   5.695   6.310
 6755SOL    HW121164   3.163   5.790   6.305
 6755SOL    HW221165   3.127   5.665   6.405
 6756SOL     OW21166   3.608   3.174   6.381
 6756SOL    HW121167   3.648   3.095   6.334
 6756SOL    HW221168   3.590   3.247   6.314
 6757SOL     OW21169   4.387   0.229   1.593
 6757SOL    HW121170   4.426   0.146   1.555
 6757SOL    HW221171   4.296   0.245   1.555
 6758SOL     OW21172   5.213   3.442   3.067
 6758SOL    HW121173   5.199   3.388   2.984
 6758SOL    HW221174   5.148   3.518   3.069
 6759SOL     OW21175   1.473   1.751   2.656
 6759SOL    HW121176   1.376   1.738   2.679
 6759SOL    HW221177   1.496   1.848   2.661
 6760SOL     OW21178   5.497   2.136   5.504
 6760SOL    HW121179   5.592   2.137   5.535
 6760SOL    HW221180   5.488   2.073   5.427
 6761SOL     OW21181   3.152   0.953   5.044
 6761SOL    HW121182   3.057   0.924   5.032
 6761SOL    HW221183   3.155   1.033   5.104
 6762SOL     OW21184   5.599   4.641   4.449
 6762SOL    HW121185   5.664   4.630   4.374
 6762SOL    HW221186   5.649   4.635   4.536
 6763SOL     OW21187   5.871   6.965   4.105
 6763SOL    HW121188   5.789   0.001   4.112
 6763SOL    HW221189   5.849   6.882   4.054
 6764SOL     OW21190   0.327   5.016   1.533
 6764SOL    HW121191   0.247   4.960   1.511
 6764SOL    HW221192   0.348   5.075   1.455
 6765SOL     OW21193   0.239   3.695   2.314
 6765SOL    HW121194   0.146   3.716   2.347
 6765SOL    HW221195   0.269   3.608   2.351
 6766SOL     OW21196   5.976   0.348   1.153
 6766SOL    HW121197   6.066   0.353   1.109
 6766SOL    HW221198   5.966   0.259   1.198
 6767SOL     OW21199   2.808   0.504   1.298
 6767SOL    HW121200   2.857   0.584   1.264
 6767SOL    HW221201   2.773   0.451   1.221
 6768SOL     OW21202   1.913   6.732   6.807
 6768SOL    HW121203   1.817   6.757   6.815
 6768SOL    HW221204   1.969   6.815   6.812
 6769SOL     OW21205   4.991   3.171   1.140
 6769SOL    HW121206   4.891   3.172   1.142
 6769SOL    HW221207   5.026   3.247   1.195
 6770SOL     OW21208   0.035   1.475   1.599
 6770SOL    HW121209   6.979   1.474   1.663
 6770SOL    HW221210   0.093   1.555   1.618
 6771SOL     OW21211   5.183   1.850   3.471
 6771SOL    HW121212   5.133   1.923   3.517
 6771SOL    HW221213   5.272   1.884   3.441
 6772SOL     OW21214   3.656   1.702   4.432
 6772SOL    HW121215   3.656   1.603   4.420
 6772SOL    HW221216   3.649   1.747   4.343
 6773SOL     OW21217   0.608   4.033   1.560
 6773SOL    HW121218   0.599   3.934   1.553
 6773SOL    HW221219   0.687   4.063   1.507
 6774SOL     OW21220   0.887   2.576   6.208
 6774SOL    HW121221   0.815   2.598   6.274
 6774SOL    HW221222   0.944   2.656   6.194
 6775SOL     OW21223   1.016   3.935   6.874
 6775SOL    HW121224   1.051   3.915   6.965
 6775SOL    HW221225   1.082   3.906   6.805
 6776SOL     OW21226   5.948   5.919   6.880
 6776SOL    HW121227   5.952   6.003   6.934
 6776SOL    HW221228   5.879   5.858   6.918
 6777SOL     OW21229   4.778   5.152   0.057
 6777SOL    HW121230   4.769   5.250   0.043
 6777SOL    HW221231   4.853   5.117   0.001
 6778SOL     OW21232   6.446   5.936   3.171
 6778SOL    HW121233   6.533   5.886   3.164
 6778SOL    HW221234   6.391   5.917   3.090
 6779SOL     OW21235   6.230   3.623   6.218
 6779SOL    HW121236   6.241   3.592   6.123
 6779SOL    HW221237   6.133   3.621   6.242
 6780SOL     OW21238   0.779   3.249   1.940
 6780SOL    HW121239   0.851   3.200   1.891
 6780SOL    HW221240   0.817   3.291   2.022
 6781SOL     OW21241   5.936   4.879   5.568
 6781SOL    HW121242   5.910   4.976   5.568
 6781SOL    HW221243   5.967   4.852   5.659
 6782SOL     OW21244   5.864   0.910   3.676
 6782SOL    HW121245   5.891   0.938   3.584
 6782SOL    HW221246   5.804   0.830   3.670
 6783SOL     OW21247   1.017   5.797   6.492
 6783SOL    HW121248   0.934   5.823   6.541
 6783SOL    HW221249   1.022   5.847   6.406
 6784SOL     OW21250   4.202   3.003   0.129
 6784SOL    HW121251   4.155   2.965   0.049
 6784SOL    HW221252   4.137   3.011   0.205
 6785SOL     OW21253   5.942   5.486   2.226
 6785SOL    HW121254   5.965   5.500   2.323
 6785SOL    HW221255   5.892   5.566   2.193
 6786SOL     OW21256   1.871   3.921   5.830
 6786SOL    HW121257   1.917   3.833   5.815
 6786SOL    HW221258   1.785   3.922   5.780
 6787SOL     OW21259   0.878   4.064   1.491
 6787SOL    HW121260   0.871   4.094   1.396
 6787SOL    HW221261   0.857   3.967   1.497
 6788SOL     OW21262   2.746   4.250   1.035
 6788SOL    HW121263   2.660   4.286   0.999
 6788SOL    HW221264   2.808   4.228   0.959
 6789SOL     OW21265   0.964   5.452   3.478
 6789SOL    HW121266   0.925   5.438   3.387
 6789SOL    HW221267   0.909   5.403   3.546
 6790SOL     OW21268   1.212   2.436   0.963
 6790SOL    HW121269   1.204   2.337   0.953
 6790SOL    HW221270   1.241   2.476   0.877
 6791SOL     OW21271   3.307   3.848   6.035
 6791SOL    HW121272   3.223   3.796   6.019
 6791SOL    HW221273   3.361   3.804   6.106
 6792SOL     OW21274   0.380   5.019   0.004
 6792SOL    HW121275   0.295   5.043   6.978
 6792SOL    HW221276   0.363   4.943   0.066
 6793SOL     OW21277   5.800   1.538   1.420
 6793SOL    HW121278   5.731   1.587   1.473
 6793SOL    HW221279   5.834   1.596   1.346
 6794SOL     OW21280   4.093   1.135   4.274
 6794SOL    HW121281   4.010   1.162   4.323
 6794SOL    HW221282   4.134   1.057   4.320
 6795SOL     OW21283   3.716   6.260   0.180
 6795SOL    HW121284   3.812   6.231   0.176
 6795SOL    HW221285   3.711   6.359   0.168
 6796SOL     OW21286   3.891   1.961   3.224
 6796SOL    HW121287   3.916   2.030   3.155
 6796SOL    HW221288   3.968   1.899   3.239
 6797SOL     OW21289   6.862   2.270   2.059
 6797SOL    HW121290   6.855   2.179   2.018
 6797SOL    HW221291   6.771   2.312   2.063
 6798SOL     OW21292   6.565   0.341   2.285
 6798SOL    HW121293   6.490   0.337   2.351
 6798SOL    HW221294   6.651   0.322   2.332
 6799SOL     OW21295   5.023   5.919   1.725
 6799SOL    HW121296   4.986   5.826   1.730
 6799SOL    HW221297   4.962   5.982   1.773
 6800SOL     OW21298   3.427   3.890   6.769
 6800SOL    HW121299   3.420   3.797   6.735
 6800SOL    HW221300   3.386   3.953   6.703
 6801SOL     OW21301   1.229   2.567   2.942
 6801SOL    HW121302   1.205   2.619   3.024
 6801SOL    HW221303   1.193   2.475   2.949
 6802SOL     OW21304   2.697   4.638   2.532
 6802SOL    HW121305   2.703   4.669   2.437
 6802SOL    HW221306   2.763   4.563   2.547
 6803SOL     OW21307   3.690   2.458   0.745
 6803SOL    HW121308   3.675   2.366   0.782
 6803SOL    HW221309   3.713   2.451   0.648
 6804SOL     OW21310   1.014   0.042   3.777
 6804SOL    HW121311   1.025   7.012   3.863
 6804SOL    HW221312   1.100   0.087   3.754
 6805SOL     OW21313   5.761   1.067   5.105
 6805SOL    HW121314   5.664   1.046   5.092
 6805SOL    HW221315   5.785   1.149   5.053
 6806SOL     OW21316   5.557   6.213   5.305
 6806SOL    HW121317   5.588   6.189   5.212
 6806SOL    HW221318   5.565   6.312   5.317
 6807SOL     OW21319   3.490   3.456   6.789
 6807SOL    HW121320   3.541   3.380   6.750
 6807SOL    HW221321   3.460   3.518   6.716
 6808SOL     OW21322   2.098   3.297   3.627
 6808SOL    HW121323   2.115   3.381   3.574
 6808SOL    HW221324   2.077   3.321   3.722
 6809SOL     OW21325   1.571   3.524   6.707
 6809SOL    HW121326   1.535   3.432   6.688
 6809SOL    HW221327   1.609   3.526   6.799
 6810SOL     OW21328   5.595   1.553   3.314
 6810SOL    HW121329   5.617   1.646   3.284
 6810SOL    HW221330   5.664   1.522   3.379
 6811SOL     OW21331   4.649   5.460   2.062
 6811SOL    HW121332   4.577   5.403   2.103
 6811SOL    HW221333   4.739   5.426   2.090
 6812SOL     OW21334   3.701   3.093   2.455
 6812SOL    HW121335   3.660   3.110   2.365
 6812SOL    HW221336   3.679   3.168   2.516
 6813SOL     OW21337   5.315   3.323   1.049
 6813SOL    HW121338   5.256   3.267   0.991
 6813SOL    HW221339   5.368   3.386   0.992
 6814SOL     OW21340   2.263   2.815   0.807
 6814SOL    HW121341   2.296   2.871   0.882
 6814SOL    HW221342   2.258   2.870   0.724
 6815SOL     OW21343   1.260   0.130   1.360
 6815SOL    HW121344   1.246   0.161   1.454
 6815SOL    HW221345   1.305   0.202   1.307
 6816SOL     OW21346   6.250   3.760   1.312
 6816SOL    HW121347   6.160   3.804   1.315
 6816SOL    HW221348   6.316   3.815   1.362
 6817SOL     OW21349   0.621   2.370   6.401
 6817SOL    HW121350   0.690   2.400   6.467
 6817SOL    HW221351   0.658   2.380   6.308
 6818SOL     OW21352   3.714   5.417   1.428
 6818SOL    HW121353   3.789   5.481   1.410
 6818SOL    HW221354   3.745   5.324   1.410
 6819SOL     OW21355   3.112   1.416   3.599
 6819SOL    HW121356   3.171   1.496   3.607
 6819SOL    HW221357   3.101   1.374   3.689
 6820SOL     OW21358   2.058   5.222   4.168
 6820SOL    HW121359   2.029   5.151   4.105
 6820SOL    HW221360   2.031   5.312   4.133
 6821SOL     OW21361   2.446   2.519   4.346
 6821SOL    HW121362   2.503   2.450   4.301
 6821SOL    HW221363   2.384   2.559   4.279
 6822SOL     OW21364   4.943   1.693   6.343
 6822SOL    HW121365   5.034   1.730   6.325
 6822SOL    HW221366   4.881   1.767   6.367
 6823SOL     OW21367   3.984   3.339   2.151
 6823SOL    HW121368   3.995   3.381   2.061
 6823SOL    HW221369   3.894   3.363   2.188
 6824SOL     OW21370   1.429   4.923   6.141
 6824SOL    HW121371   1.463   4.858   6.209
 6824SOL    HW221372   1.377   4.995   6.187
 6825SOL     OW21373   5.598   6.845   3.902
 6825SOL    HW121374   5.507   6.872   3.870
 6825SOL    HW221375   5.667   6.886   3.842
 6826SOL     OW21376   0.704   2.968   2.717
 6826SOL    HW121377   0.675   2.885   2.765
 6826SOL    HW221378   0.672   2.965   2.622
 6827SOL     OW21379   5.809   6.124   5.035
 6827SOL    HW121380   5.841   6.082   4.950
 6827SOL    HW221381   5.720   6.085   5.059
 6828SOL     OW21382   2.084   1.859   1.170
 6828SOL    HW121383   2.130   1.886   1.085
 6828SOL    HW221384   2.045   1.940   1.214
 6829SOL     OW21385   5.390   5.183   3.452
 6829SOL    HW121386   5.436   5.101   3.418
 6829SOL    HW221387   5.370   5.172   3.550
 6830SOL     OW21388   5.036   2.156   4.149
 6830SOL    HW121389   5.086   2.238   4.123
 6830SOL    HW221390   4.947   2.155   4.104
 6831SOL     OW21391   6.639   1.381   5.885
 6831SOL    HW121392   6.625   1.324   5.804
 6831SOL    HW221393   6.597   1.336   5.964
 6832SOL     OW21394   3.006   5.463   1.855
 6832SOL    HW121395   3.071   5.456   1.779
 6832SOL    HW221396   2.993   5.373   1.896
 6833SOL     OW21397   4.308   5.829   0.091
 6833SOL    HW121398   4.385   5.845   0.153
 6833SOL    HW221399   4.270   5.738   0.108
 6834SOL     OW21400   3.603   5.436   2.316
 6834SOL    HW121401   3.669   5.425   2.242
 6834SOL    HW221402   3.546   5.516   2.297
 6835SOL     OW21403   4.163   6.958   4.718
 6835SOL    HW121404   4.101   6.906   4.777
 6835SOL    HW221405   4.179   0.027   4.757
 6836SOL     OW21406   3.809   5.657   6.762
 6836SOL    HW121407   3.747   5.697   6.694
 6836SOL    HW221408   3.766   5.576   6.802
 6837SOL     OW21409   0.225   3.042   2.880
 6837SOL    HW121410   0.172   3.092   2.948
 6837SOL    HW221411   0.163   2.997   2.816
 6838SOL     OW21412   2.627   1.805   0.639
 6838SOL    HW121413   2.586   1.786   0.729
 6838SOL    HW221414   2.560   1.851   0.581
 6839SOL     OW21415   4.497   0.571   1.720
 6839SOL    HW121416   4.404   0.539   1.703
 6839SOL    HW221417   4.520   0.642   1.654
 6840SOL     OW21418   0.708   0.942   6.752
 6840SOL    HW121419   0.715   1.031   6.705
 6840SOL    HW221420   0.716   0.869   6.685
 6841SOL     OW21421   0.087   3.171   5.791
 6841SOL    HW121422   0.158   3.131   5.733
 6841SOL    HW221423   0.027   3.229   5.735
 6842SOL     OW21424   2.404   4.943   2.555
 6842SOL    HW121425   2.306   4.949   2.573
 6842SOL    HW221426   2.420   4.873   2.486
 6843SOL     OW21427   4.389   0.139   1.157
 6843SOL    HW121428   4.371   0.059   1.099
 6843SOL    HW221429   4.462   0.117   1.222
 6844SOL     OW21430   5.713   0.767   5.851
 6844SOL    HW121431   5.657   0.716   5.917
 6844SOL    HW221432   5.806   0.731   5.852
 6845SOL     OW21433   5.170   2.265   2.915
 6845SOL    HW121434   5.169   2.355   2.871
 6845SOL    HW221435   5.133   2.197   2.852
 6846SOL     OW21436   2.146   3.424   0.026
 6846SOL    HW121437   2.051   3.402   0.003
 6846SOL    HW221438   2.154   3.443   0.123
 6847SOL     OW21439   6.773   2.348   4.549
 6847SOL    HW121440   6.725   2.428   4.512
 6847SOL    HW221441   6.871   2.368   4.555
 6848SOL     OW21442   6.864   5.003   3.654
 6848SOL    HW121443   6.850   5.096   3.686
 6848SOL    HW221444   6.949   4.998   3.602
 6849SOL     OW21445   2.705   4.743   6.071
 6849SOL    HW121446   2.706   4.660   6.128
 6849SOL    HW221447   2.662   4.817   6.122
 6850SOL     OW21448   4.780   0.302   4.145
 6850SOL    HW121449   4.754   0.210   4.177
 6850SOL    HW221450   4.869   0.326   4.184
 6851SOL     OW21451   1.905   3.863   2.769
 6851SOL    HW121452   1.995   3.881   2.728
 6851SOL    HW221453   1.834   3.907   2.714
 6852SOL     OW21454   4.317   4.034   0.457
 6852SOL    HW121455   4.266   3.979   0.522
 6852SOL    HW221456   4.262   4.050   0.376
 6853SOL     OW21457   4.108   5.056   6.408
 6853SOL    HW121458   4.060   4.968   6.416
 6853SOL    HW221459   4.205   5.039   6.391
 6854SOL     OW21460   4.878   5.589   5.934
 6854SOL    HW121461   4.892   5.496   5.899
 6854SOL    HW221462   4.965   5.626   5.965
 6855SOL     OW21463   4.245   5.272   3.345
 6855SOL    HW121464   4.212   5.200   3.285
 6855SOL    HW221465   4.340   5.294   3.322
 6856SOL     OW21466   6.920   2.606   0.010
 6856SOL    HW121467   6.987   2.681   0.017
 6856SOL    HW221468   6.828   2.644   0.000
 6857SOL     OW21469   1.238   4.356   5.766
 6857SOL    HW121470   1.188   4.282   5.810
 6857SOL    HW221471   1.188   4.442   5.778
 6858SOL     OW21472   1.421   4.190   1.737
 6858SOL    HW121473   1.340   4.138   1.763
 6858SOL    HW221474   1.413   4.219   1.642
 6859SOL     OW21475   1.969   2.084   1.575
 6859SOL    HW121476   1.938   2.006   1.522
 6859SOL    HW221477   2.016   2.053   1.657
 6860SOL     OW21478   0.401   6.052   0.161
 6860SOL    HW121479   0.457   6.112   0.105
 6860SOL    HW221480   0.328   6.013   0.105
 6861SOL     OW21481   5.947   3.111   6.240
 6861SOL    HW121482   5.871   3.098   6.304
 6861SOL    HW221483   6.019   3.044   6.261
 6862SOL     OW21484   1.245   4.516   3.765
 6862SOL    HW121485   1.265   4.614   3.773
 6862SOL    HW221486   1.331   4.465   3.759
 6863SOL     OW21487   5.571   1.654   5.013
 6863SOL    HW121488   5.512   1.576   4.990
 6863SOL    HW221489   5.658   1.620   5.049
 6864SOL     OW21490   1.395   3.355   6.241
 6864SOL    HW121491   1.421   3.448   6.266
 6864SOL    HW221492   1.390   3.348   6.141
 6865SOL     OW21493   2.399   0.580   4.033
 6865SOL    HW121494   2.428   0.664   4.079
 6865SOL    HW221495   2.316   0.598   3.981
 6866SOL     OW21496   1.878   4.673   0.281
 6866SOL    HW121497   1.850   4.699   0.373
 6866SOL    HW221498   1.827   4.727   0.214
 6867SOL     OW21499   2.166   2.985   6.773
 6867SOL    HW121500   2.155   2.964   6.675
 6867SOL    HW221501   2.209   3.075   6.783
 6868SOL     OW21502   3.805   4.875   3.309
 6868SOL    HW121503   3.759   4.850   3.224
 6868SOL    HW221504   3.904   4.872   3.295
 6869SOL     OW21505   2.113   0.825   5.668
 6869SOL    HW121506   2.048   0.900   5.655
 6869SOL    HW221507   2.204   0.863   5.688
 6870SOL     OW21508   5.633   2.160   6.775
 6870SOL    HW121509   5.728   2.162   6.806
 6870SOL    HW221510   5.623   2.091   6.703
 6871SOL     OW21511   6.574   3.056   2.524
 6871SOL    HW121512   6.666   3.090   2.546
 6871SOL    HW221513   6.554   2.975   2.580
 6872SOL     OW21514   1.431   4.246   1.187
 6872SOL    HW121515   1.410   4.166   1.130
 6872SOL    HW221516   1.512   4.292   1.149
 6873SOL     OW21517   0.375   4.366   2.914
 6873SOL    HW121518   0.450   4.341   2.975
 6873SOL    HW221519   0.373   4.303   2.836
 6874SOL     OW21520   4.569   6.442   2.195
 6874SOL    HW121521   4.576   6.480   2.287
 6874SOL    HW221522   4.499   6.492   2.144
 6875SOL     OW21523   2.773   1.220   0.289
 6875SOL    HW121524   2.852   1.195   0.232
 6875SOL    HW221525   2.788   1.310   0.330
 6876SOL     OW21526   5.242   5.368   3.269
 6876SOL    HW121527   5.294   5.284   3.284
 6876SOL    HW221528   5.163   5.370   3.330
 6877SOL     OW21529   0.472   4.601   1.639
 6877SOL    HW121530   0.468   4.538   1.717
 6877SOL    HW221531   0.565   4.607   1.605
 6878SOL     OW21532   2.518   0.586   4.742
 6878SOL    HW121533   2.494   0.625   4.653
 6878SOL    HW221534   2.435   0.579   4.798
 6879SOL     OW21535   1.154   1.635   1.275
 6879SOL    HW121536   1.105   1.721   1.294
 6879SOL    HW221537   1.250   1.645   1.302
 6880SOL     OW21538   1.683   5.930   0.364
 6880SOL    HW121539   1.660   5.898   0.455
 6880SOL    HW221540   1.616   5.998   0.335
 6881SOL     OW21541   6.848   3.306   0.340
 6881SOL    HW121542   6.861   3.312   0.241
 6881SOL    HW221543   6.751   3.292   0.360
 6882SOL     OW21544   3.251   6.472   0.390
 6882SOL    HW121545   3.154   6.453   0.410
 6882SOL    HW221546   3.304   6.464   0.474
 6883SOL     OW21547   5.481   0.798   1.253
 6883SOL    HW121548   5.462   0.850   1.336
 6883SOL    HW221549   5.400   0.799   1.194
 6884SOL     OW21550   2.292   4.756   3.641
 6884SOL    HW121551   2.235   4.812   3.701
 6884SOL    HW221552   2.269   4.775   3.546
 6885SOL     OW21553   5.944   4.711   5.062
 6885SOL    HW121554   5.845   4.696   5.065
 6885SOL    HW221555   5.979   4.685   4.972
 6886SOL     OW21556   5.504   3.481   6.934
 6886SOL    HW121557   5.536   3.573   6.910
 6886SOL    HW221558   5.415   3.465   6.891
 6887SOL     OW21559   5.242   6.032   5.742
 6887SOL    HW121560   5.162   5.973   5.742
 6887SOL    HW221561   5.229   6.106   5.808
 6888SOL     OW21562   6.242   4.108   6.996
 6888SOL    HW121563   6.330   4.136   0.015
 6888SOL    HW221564   6.231   4.010   7.005
 6889SOL     OW21565   6.882   1.729   5.421
 6889SOL    HW121566   6.839   1.744   5.331
 6889SOL    HW221567   6.895   1.631   5.435
 6890SOL     OW21568   4.899   4.530   4.054
 6890SOL    HW121569   4.961   4.592   4.007
 6890SOL    HW221570   4.952   4.464   4.107
 6891SOL     OW21571   1.404   1.862   0.697
 6891SOL    HW121572   1.307   1.840   0.707
 6891SOL    HW221573   1.459   1.784   0.727
 6892SOL     OW21574   3.028   0.867   5.300
 6892SOL    HW121575   2.954   0.861   5.233
 6892SOL    HW221576   3.052   0.775   5.332
 6893SOL     OW21577   6.076   2.665   0.294
 6893SOL    HW121578   6.115   2.573   0.299
 6893SOL    HW221579   5.991   2.668   0.346
 6894SOL     OW21580   5.393   4.837   0.070
 6894SOL    HW121581   5.376   4.787   7.006
 6894SOL    HW221582   5.468   4.793   0.120
 6895SOL     OW21583   0.780   5.403   2.185
 6895SOL    HW121584   0.827   5.318   2.162
 6895SOL    HW221585   0.842   5.480   2.172
 6896SOL     OW21586   4.754   1.575   5.891
 6896SOL    HW121587   4.768   1.488   5.938
 6896SOL    HW221588   4.723   1.643   5.957
 6897SOL     OW21589   4.370   2.760   5.240
 6897SOL    HW121590   4.278   2.723   5.254
 6897SOL    HW221591   4.408   2.725   5.155
 6898SOL     OW21592   1.662   6.773   1.349
 6898SOL    HW121593   1.681   6.739   1.441
 6898SOL    HW221594   1.611   6.859   1.355
 6899SOL     OW21595   5.638   5.921   2.541
 6899SOL    HW121596   5.601   6.009   2.512
 6899SOL    HW221597   5.640   5.917   2.641
 6900SOL     OW21598   6.795   3.500   4.638
 6900SOL    HW121599   6.783   3.551   4.553
 6900SOL    HW221600   6.887   3.461   4.641
 6901SOL     OW21601   5.212   5.044   5.573
 6901SOL    HW121602   5.115   5.042   5.549
 6901SOL    HW221603   5.250   4.952   5.563
 6902SOL     OW21604   0.623   5.782   5.648
 6902SOL    HW121605   0.713   5.762   5.686
 6902SOL    HW221606   0.553   5.739   5.705
 6903SOL     OW21607   1.581   6.258   5.078
 6903SOL    HW121608   1.575   6.341   5.133
 6903SOL    HW221609   1.676   6.229   5.072
 6904SOL     OW21610   0.569   0.569   5.612
 6904SOL    HW121611   0.496   0.593   5.675
 6904SOL    HW221612   0.543   0.488   5.559
 6905SOL     OW21613   4.964   5.933   5.726
 6905SOL    HW121614   4.978   6.006   5.660
 6905SOL    HW221615   4.866   5.919   5.740
 6906SOL     OW21616   2.560   0.873   4.022
 6906SOL    HW121617   2.467   0.898   3.995
 6906SOL    HW221618   2.599   0.810   3.955
 6907SOL     OW21619   5.785   1.758   1.021
 6907SOL    HW121620   5.738   1.674   1.048
 6907SOL    HW221621   5.781   1.824   1.096
 6908SOL     OW21622   3.622   5.506   0.676
 6908SOL    HW121623   3.532   5.533   0.643
 6908SOL    HW221624   3.680   5.587   0.686
 6909SOL     OW21625   5.774   4.098   2.239
 6909SOL    HW121626   5.709   4.069   2.310
 6909SOL    HW221627   5.757   4.048   2.155
 6910SOL     OW21628   0.961   2.333   2.381
 6910SOL    HW121629   1.053   2.322   2.417
 6910SOL    HW221630   0.936   2.430   2.380
 6911SOL     OW21631   2.844   6.637   5.610
 6911SOL    HW121632   2.762   6.580   5.603
 6911SOL    HW221633   2.848   6.699   5.531
 6912SOL     OW21634   3.386   4.006   7.011
 6912SOL    HW121635   3.286   4.008   7.017
 6912SOL    HW221636   3.414   3.955   6.930
 6913SOL     OW21637   4.134   5.523   5.800
 6913SOL    HW121638   4.064   5.552   5.736
 6913SOL    HW221639   4.195   5.457   5.756
 6914SOL     OW21640   6.367   2.391   2.449
 6914SOL    HW121641   6.425   2.323   2.493
 6914SOL    HW221642   6.271   2.373   2.472
 6915SOL     OW21643   0.204   3.368   3.718
 6915SOL    HW121644   0.283   3.410   3.673
 6915SOL    HW221645   0.231   3.279   3.756
 6916SOL     OW21646   4.748   6.225   5.861
 6916SOL    HW121647   4.712   6.310   5.899
 6916SOL    HW221648   4.826   6.245   5.803
 6917SOL     OW21649   3.496   5.998   2.043
 6917SOL    HW121650   3.447   5.951   2.117
 6917SOL    HW221651   3.542   5.930   1.986
 6918SOL     OW21652   1.772   3.475   0.478
 6918SOL    HW121653   1.692   3.447   0.424
 6918SOL    HW221654   1.761   3.446   0.573
 6919SOL     OW21655   6.471   6.221   3.184
 6919SOL    HW121656   6.503   6.257   3.097
 6919SOL    HW221657   6.463   6.122   3.179
 6920SOL     OW21658   6.767   2.262   5.622
 6920SOL    HW121659   6.754   2.360   5.640
 6920SOL    HW221660   6.684   2.225   5.581
 6921SOL     OW21661   3.716   0.121   4.086
 6921SOL    HW121662   3.779   0.185   4.129
 6921SOL    HW221663   3.751   0.028   4.097
 6922SOL     OW21664   2.933   5.178   6.701
 6922SOL    HW121665   2.837   5.162   6.722
 6922SOL    HW221666   2.985   5.188   6.786
 6923SOL     OW21667   5.163   7.019   2.901
 6923SOL    HW121668   5.088   0.037   2.849
 6923SOL    HW221669   5.235   6.989   2.839
 6924SOL     OW21670   3.470   5.646   1.841
 6924SOL    HW121671   3.454   5.548   1.833
 6924SOL    HW221672   3.383   5.693   1.850
 6925SOL     OW21673   5.737   6.488   4.863
 6925SOL    HW121674   5.783   6.551   4.801
 6925SOL    HW221675   5.801   6.458   4.934
 6926SOL     OW21676   2.881   2.399   0.373
 6926SOL    HW121677   2.974   2.428   0.350
 6926SOL    HW221678   2.868   2.305   0.344
 6927SOL     OW21679   3.458   0.246   6.818
 6927SOL    HW121680   3.514   0.172   6.852
 6927SOL    HW221681   3.361   0.226   6.836
 6928SOL     OW21682   3.403   5.462   0.132
 6928SOL    HW121683   3.502   5.476   0.133
 6928SOL    HW221684   3.361   5.530   0.072
 6929SOL     OW21685   4.730   4.899   2.745
 6929SOL    HW121686   4.784   4.814   2.749
 6929SOL    HW221687   4.791   4.976   2.727
 6930SOL     OW21688   0.740   6.207   2.028
 6930SOL    HW121689   0.804   6.270   2.072
 6930SOL    HW221690   0.662   6.192   2.088
 6931SOL     OW21691   3.038   3.178   1.028
 6931SOL    HW121692   3.017   3.242   0.955
 6931SOL    HW221693   2.952   3.142   1.065
 6932SOL     OW21694   4.493   0.101   6.243
 6932SOL    HW121695   4.414   0.041   6.237
 6932SOL    HW221696   4.463   0.196   6.231
 6933SOL     OW21697   2.567   6.085   5.907
 6933SOL    HW121698   2.658   6.126   5.908
 6933SOL    HW221699   2.564   6.011   5.840
 6934SOL     OW21700   5.164   5.390   6.786
 6934SOL    HW121701   5.149   5.296   6.754
 6934SOL    HW221702   5.099   5.410   6.860
 6935SOL     OW21703   3.954   6.110   1.921
 6935SOL    HW121704   3.973   6.136   1.826
 6935SOL    HW221705   3.859   6.131   1.944
 6936SOL     OW21706   0.992   2.028   6.419
 6936SOL    HW121707   1.037   2.112   6.450
 6936SOL    HW221708   0.930   1.995   6.491
 6937SOL     OW21709   5.864   5.408   0.523
 6937SOL    HW121710   5.786   5.388   0.464
 6937SOL    HW221711   5.949   5.384   0.476
 6938SOL     OW21712   3.220   0.691   4.668
 6938SOL    HW121713   3.161   0.770   4.656
 6938SOL    HW221714   3.164   0.612   4.695
 6939SOL     OW21715   5.575   3.121   3.331
 6939SOL    HW121716   5.645   3.165   3.275
 6939SOL    HW221717   5.525   3.054   3.276
 6940SOL     OW21718   2.408   6.727   1.166
 6940SOL    HW121719   2.341   6.729   1.241
 6940SOL    HW221720   2.388   6.650   1.105
 6941SOL     OW21721   3.952   3.061   2.526
 6941SOL    HW121722   3.858   3.077   2.495
 6941SOL    HW221723   3.982   2.971   2.495
 6942SOL     OW21724   6.288   5.022   2.836
 6942SOL    HW121725   6.347   4.943   2.854
 6942SOL    HW221726   6.328   5.103   2.879
 6943SOL     OW21727   4.214   5.120   6.020
 6943SOL    HW121728   4.224   5.048   6.089
 6943SOL    HW221729   4.273   5.197   6.042
 6944SOL     OW21730   0.856   4.694   5.116
 6944SOL    HW121731   0.798   4.688   5.197
 6944SOL    HW221732   0.865   4.790   5.089
 6945SOL     OW21733   5.060   2.032   0.754
 6945SOL    HW121734   5.008   2.060   0.673
 6945SOL    HW221735   4.996   2.004   0.826
 6946SOL     OW21736   5.328   6.132   2.442
 6946SOL    HW121737   5.228   6.129   2.449
 6946SOL    HW221738   5.359   6.227   2.444
 6947SOL     OW21739   6.452   4.133   5.197
 6947SOL    HW121740   6.524   4.070   5.169
 6947SOL    HW221741   6.490   4.201   5.260
 6948SOL     OW21742   6.893   4.084   6.802
 6948SOL    HW121743   6.902   4.160   6.866
 6948SOL    HW221744   6.796   4.072   6.779
 6949SOL     OW21745   3.062   1.290   2.820
 6949SOL    HW121746   3.107   1.379   2.809
 6949SOL    HW221747   3.041   1.252   2.730
 6950SOL     OW21748   1.760   1.152   3.735
 6950SOL    HW121749   1.781   1.153   3.832
 6950SOL    HW221750   1.698   1.228   3.713
 6951SOL     OW21751   1.178   3.665   6.745
 6951SOL    HW121752   1.194   3.570   6.717
 6951SOL    HW221753   1.103   3.668   6.810
 6952SOL     OW21754   4.214   6.093   3.336
 6952SOL    HW121755   4.124   6.053   3.321
 6952SOL    HW221756   4.255   6.053   3.418
 6953SOL     OW21757   6.814   1.259   1.885
 6953SOL    HW121758   6.765   1.172   1.896
 6953SOL    HW221759   6.893   1.245   1.825
 6954SOL     OW21760   6.950   4.293   6.265
 6954SOL    HW121761   6.871   4.344   6.300
 6954SOL    HW221762   6.987   4.235   6.338
 6955SOL     OW21763   4.492   5.777   3.099
 6955SOL    HW121764   4.479   5.876   3.093
 6955SOL    HW221765   4.513   5.741   3.008
 6956SOL     OW21766   5.338   5.363   1.490
 6956SOL    HW121767   5.306   5.289   1.550
 6956SOL    HW221768   5.266   5.387   1.425
 6957SOL     OW21769   6.113   5.104   5.084
 6957SOL    HW121770   6.126   5.079   5.180
 6957SOL    HW221771   6.088   5.200   5.077
 6958SOL     OW21772   3.472   3.635   2.305
 6958SOL    HW121773   3.401   3.569   2.330
 6958SOL    HW221774   3.506   3.680   2.387
 6959SOL     OW21775   1.755   4.226   2.700
 6959SOL    HW121776   1.742   4.322   2.726
 6959SOL    HW221777   1.790   4.175   2.779
 6960SOL     OW21778   5.175   4.929   1.401
 6960SOL    HW121779   5.227   4.857   1.448
 6960SOL    HW221780   5.212   4.942   1.309
 6961SOL     OW21781   4.680   2.526   5.290
 6961SOL    HW121782   4.764   2.581   5.292
 6961SOL    HW221783   4.702   2.430   5.304
 6962SOL     OW21784   2.569   6.234   0.253
 6962SOL    HW121785   2.654   6.277   0.223
 6962SOL    HW221786   2.497   6.303   0.259
 6963SOL     OW21787   0.594   6.645   6.651
 6963SOL    HW121788   0.659   6.719   6.636
 6963SOL    HW221789   0.504   6.683   6.672
 6964SOL     OW21790   1.929   1.671   4.840
 6964SOL    HW121791   1.858   1.738   4.818
 6964SOL    HW221792   2.014   1.719   4.863
 6965SOL     OW21793   1.998   1.395   0.143
 6965SOL    HW121794   1.947   1.427   0.063
 6965SOL    HW221795   1.964   1.441   0.224
 6966SOL     OW21796   1.338   6.634   1.157
 6966SOL    HW121797   1.337   6.695   1.078
 6966SOL    HW221798   1.321   6.687   1.240
 6967SOL     OW21799   3.542   0.488   0.077
 6967SOL    HW121800   3.479   0.412   0.092
 6967SOL    HW221801   3.554   0.503   7.000
 6968SOL     OW21802   3.117   0.370   2.978
 6968SOL    HW121803   3.081   0.308   3.047
 6968SOL    HW221804   3.042   0.422   2.936
 6969SOL     OW21805   1.861   2.925   1.814
 6969SOL    HW121806   1.870   3.019   1.845
 6969SOL    HW221807   1.912   2.914   1.728
 6970SOL     OW21808   2.981   5.870   5.525
 6970SOL    HW121809   2.945   5.927   5.600
 6970SOL    HW221810   3.002   5.779   5.561
 6971SOL     OW21811   5.861   3.999   6.400
 6971SOL    HW121812   5.872   3.952   6.313
 6971SOL    HW221813   5.775   3.971   6.443
 6972SOL     OW21814   5.720   3.797   1.255
 6972SOL    HW121815   5.744   3.888   1.291
 6972SOL    HW221816   5.691   3.738   1.330
 6973SOL     OW21817   0.776   1.383   3.070
 6973SOL    HW121818   0.832   1.463   3.050
 6973SOL    HW221819   0.806   1.341   3.156
 6974SOL     OW21820   4.004   3.593   2.870
 6974SOL    HW121821   4.022   3.604   2.772
 6974SOL    HW221822   4.043   3.670   2.920
 6975SOL     OW21823   2.805   5.280   4.816
 6975SOL    HW121824   2.848   5.275   4.726
 6975SOL    HW221825   2.848   5.212   4.876
 6976SOL     OW21826   4.313   5.466   6.037
 6976SOL    HW121827   4.340   5.556   6.071
 6976SOL    HW221828   4.293   5.472   5.939
 6977SOL     OW21829   4.971   4.748   2.424
 6977SOL    HW121830   4.942   4.653   2.439
 6977SOL    HW221831   5.017   4.755   2.335
 6978SOL     OW21832   0.859   3.938   0.873
 6978SOL    HW121833   0.852   3.975   0.780
 6978SOL    HW221834   0.767   3.927   0.912
 6979SOL     OW21835   1.399   3.562   2.782
 6979SOL    HW121836   1.372   3.509   2.702
 6979SOL    HW221837   1.411   3.658   2.757
 6980SOL     OW21838   2.352   4.717   2.800
 6980SOL    HW121839   2.315   4.809   2.810
 6980SOL    HW221840   2.385   4.684   2.888
 6981SOL     OW21841   4.479   3.015   6.831
 6981SOL    HW121842   4.551   2.951   6.857
 6981SOL    HW221843   4.467   3.083   6.903
 6982SOL     OW21844   6.909   0.302   1.540
 6982SOL    HW121845   6.962   0.235   1.592
 6982SOL    HW221846   6.874   0.258   1.457
 6983SOL     OW21847   6.637   6.822   4.278
 6983SOL    HW121848   6.612   6.917   4.298
 6983SOL    HW221849   6.716   6.822   4.216
 6984SOL     OW21850   1.451   4.098   3.371
 6984SOL    HW121851   1.549   4.083   3.355
 6984SOL    HW221852   1.410   4.139   3.291
 6985SOL     OW21853   5.124   2.873   0.348
 6985SOL    HW121854   5.199   2.930   0.383
 6985SOL    HW221855   5.041   2.893   0.398
 6986SOL     OW21856   4.059   5.173   5.811
 6986SOL    HW121857   4.114   5.132   5.884
 6986SOL    HW221858   3.980   5.220   5.851
 6987SOL     OW21859   6.860   0.974   6.398
 6987SOL    HW121860   6.798   0.906   6.437
 6987SOL    HW221861   6.876   0.952   6.302
 6988SOL     OW21862   2.412   1.332   6.277
 6988SOL    HW121863   2.440   1.401   6.344
 6988SOL    HW221864   2.383   1.376   6.193
 6989SOL     OW21865   0.683   4.397   2.582
 6989SOL    HW121866   0.648   4.429   2.494
 6989SOL    HW221867   0.781   4.419   2.589
 6990SOL     OW21868   3.688   3.902   6.628
 6990SOL    HW121869   3.616   3.898   6.697
 6990SOL    HW221870   3.658   3.852   6.546
 6991SOL     OW21871   5.924   4.041   3.094
 6991SOL    HW121872   5.909   3.943   3.104
 6991SOL    HW221873   5.849   4.091   3.136
 6992SOL     OW21874   1.721   4.991   6.939
 6992SOL    HW121875   1.809   5.010   6.894
 6992SOL    HW221876   1.674   5.078   6.956
 6993SOL     OW21877   3.947   2.299   1.751
 6993SOL    HW121878   3.854   2.315   1.784
 6993SOL    HW221879   4.010   2.363   1.795
 6994SOL     OW21880   3.107   0.729   3.098
 6994SOL    HW121881   3.089   0.827   3.098
 6994SOL    HW221882   3.198   0.712   3.060
 6995SOL     OW21883   0.213   4.282   0.327
 6995SOL    HW121884   0.313   4.280   0.335
 6995SOL    HW221885   0.187   4.278   0.231
 6996SOL     OW21886   0.743   1.143   6.582
 6996SOL    HW121887   0.817   1.109   6.524
 6996SOL    HW221888   0.764   1.236   6.612
 6997SOL     OW21889   6.237   6.339   5.942
 6997SOL    HW121890   6.177   6.396   5.886
 6997SOL    HW221891   6.223   6.360   6.039
 6998SOL     OW21892   0.622   0.447   0.545
 6998SOL    HW121893   0.705   0.486   0.584
 6998SOL    HW221894   0.642   0.357   0.506
 6999SOL     OW21895   6.619   2.631   7.001
 6999SOL    HW121896   6.585   2.724   7.014
 6999SOL    HW221897   6.566   2.585   6.930
 7000SOL     OW21898   0.604   5.453   3.432
 7000SOL    HW121899   0.514   5.431   3.396
 7000SOL    HW221900   0.618   5.552   3.431
 7001SOL     OW21901   0.286   1.342   3.631
 7001SOL    HW121902   0.308   1.327   3.728
 7001SOL    HW221903   0.330   1.427   3.600
 7002SOL     OW21904   0.809   4.853   2.658
 7002SOL    HW121905   0.800   4.938   2.607
 7002SOL    HW221906   0.836   4.779   2.595
 7003SOL     OW21907   0.458   5.204   6.677
 7003SOL    HW121908   0.451   5.240   6.771
 7003SOL    HW221909   0.466   5.280   6.613
 7004SOL     OW21910   2.138   0.188   6.706
 7004SOL    HW121911   2.066   0.255   6.687
 7004SOL    HW221912   2.210   0.231   6.760
 7005SOL     OW21913   1.677   5.351   0.572
 7005SOL    HW121914   1.772   5.317   0.568
 7005SOL    HW221915   1.633   5.337   0.483
 7006SOL     OW21916   0.890   0.580   3.842
 7006SOL    HW121917   0.892   0.486   3.876
 7006SOL    HW221918   0.965   0.631   3.882
 7007SOL     OW21919   2.177   0.245   6.208
 7007SOL    HW121920   2.125   0.273   6.128
 7007SOL    HW221921   2.177   0.319   6.276
 7008SOL     OW21922   5.127   3.031   3.247
 7008SOL    HW121923   5.158   2.966   3.317
 7008SOL    HW221924   5.199   3.097   3.229
 7009SOL     OW21925   5.186   6.154   2.089
 7009SOL    HW121926   5.168   6.204   2.004
 7009SOL    HW221927   5.108   6.095   2.110
 7010SOL     OW21928   5.203   3.292   2.831
 7010SOL    HW121929   5.165   3.201   2.847
 7010SOL    HW221930   5.147   3.340   2.763
 7011SOL     OW21931   2.635   6.719   6.108
 7011SOL    HW121932   2.547   6.764   6.123
 7011SOL    HW221933   2.655   6.659   6.186
 7012SOL     OW21934   0.172   3.563   0.619
 7012SOL    HW121935   0.166   3.512   0.705
 7012SOL    HW221936   0.084   3.557   0.571
 7013SOL     OW21937   3.663   2.757   0.104
 7013SOL    HW121938   3.684   2.753   0.202
 7013SOL    HW221939   3.565   2.748   0.090
 7014SOL     OW21940   5.910   3.163   0.159
 7014SOL    HW121941   5.901   3.152   0.258
 7014SOL    HW221942   5.995   3.121   0.128
 7015SOL     OW21943   6.191   6.272   1.056
 7015SOL    HW121944   6.256   6.200   1.030
 7015SOL    HW221945   6.168   6.262   1.153
 7016SOL     OW21946   3.049   4.988   1.322
 7016SOL    HW121947   3.028   4.967   1.227
 7016SOL    HW221948   2.972   4.960   1.380
 7017SOL     OW21949   6.102   4.585   6.499
 7017SOL    HW121950   6.186   4.537   6.524
 7017SOL    HW221951   6.030   4.563   6.565
 7018SOL     OW21952   5.618   3.583   5.068
 7018SOL    HW121953   5.567   3.609   5.150
 7018SOL    HW221954   5.676   3.659   5.039
 7019SOL     OW21955   3.806   5.382   2.151
 7019SOL    HW121956   3.870   5.384   2.074
 7019SOL    HW221957   3.811   5.294   2.197
 7020SOL     OW21958   0.773   2.201   6.752
 7020SOL    HW121959   0.846   2.155   6.803
 7020SOL    HW221960   0.695   2.139   6.742
 7021SOL     OW21961   1.042   1.788   4.765
 7021SOL    HW121962   1.099   1.797   4.684
 7021SOL    HW221963   0.962   1.732   4.745
 7022SOL     OW21964   2.278   3.918   0.992
 7022SOL    HW121965   2.222   3.991   1.032
 7022SOL    HW221966   2.241   3.892   0.903
 7023SOL     OW21967   0.284   1.738   0.692
 7023SOL    HW121968   0.193   1.703   0.716
 7023SOL    HW221969   0.294   1.831   0.726
 7024SOL     OW21970   3.370   3.875   5.413
 7024SOL    HW121971   3.422   3.818   5.350
 7024SOL    HW221972   3.275   3.881   5.381
 7025SOL     OW21973   3.194   0.798   1.196
 7025SOL    HW121974   3.263   0.870   1.193
 7025SOL    HW221975   3.215   0.728   1.127
 7026SOL     OW21976   3.059   2.368   1.138
 7026SOL    HW121977   2.963   2.363   1.166
 7026SOL    HW221978   3.099   2.277   1.139
 7027SOL     OW21979   3.297   4.782   1.896
 7027SOL    HW121980   3.387   4.739   1.895
 7027SOL    HW221981   3.226   4.712   1.887
 7028SOL     OW21982   3.413   0.249   3.361
 7028SOL    HW121983   3.381   0.302   3.282
 7028SOL    HW221984   3.465   0.309   3.422
 7029SOL     OW21985   3.414   4.020   3.512
 7029SOL    HW121986   3.468   4.055   3.588
 7029SOL    HW221987   3.466   4.027   3.427
 7030SOL     OW21988   6.335   6.921   5.403
 7030SOL    HW121989   6.415   6.905   5.345
 7030SOL    HW221990   6.299   6.834   5.435
 7031SOL     OW21991   4.828   5.490   0.916
 7031SOL    HW121992   4.787   5.430   0.848
 7031SOL    HW221993   4.797   5.463   1.007
 7032SOL     OW21994   4.316   5.077   4.647
 7032SOL    HW121995   4.300   5.114   4.739
 7032SOL    HW221996   4.275   4.986   4.641
 7033SOL     OW21997   1.943   1.723   5.281
 7033SOL    HW121998   1.923   1.806   5.334
 7033SOL    HW221999   1.991   1.749   5.197
 7034SOL     OW22000   6.552   1.644   2.061
 7034SOL    HW122001   6.548   1.579   2.137
 7034SOL    HW222002   6.613   1.609   1.990
 7035SOL     OW22003   2.821   1.897   1.428
 7035SOL    HW122004   2.785   1.935   1.514
 7035SOL    HW222005   2.774   1.940   1.351
 7036SOL     OW22006   6.104   1.693   1.909
 7036SOL    HW122007   6.063   1.751   1.840
 7036SOL    HW222008   6.053   1.702   1.995
 7037SOL     OW22009   1.579   0.451   6.455
 7037SOL    HW122010   1.598   0.385   6.528
 7037SOL    HW222011   1.647   0.441   6.383
 7038SOL     OW22012   0.636   4.695   0.253
 7038SOL    HW122013   0.663   4.766   0.188
 7038SOL    HW222014   0.581   4.626   0.206
 7039SOL     OW22015   6.579   0.170   1.554
 7039SOL    HW122016   6.653   0.112   1.586
 7039SOL    HW222017   6.605   0.266   1.564
 7040SOL     OW22018   5.660   3.024   5.402
 7040SOL    HW122019   5.584   2.959   5.414
 7040SOL    HW222020   5.624   3.116   5.391
 7041SOL     OW22021   0.899   0.323   3.908
 7041SOL    HW122022   0.993   0.299   3.932
 7041SOL    HW222023   0.850   0.352   3.990
 7042SOL     OW22024   6.062   6.011   5.397
 7042SOL    HW122025   6.009   5.973   5.321
 7042SOL    HW222026   6.032   6.105   5.415
 7043SOL     OW22027   2.325   6.156   0.647
 7043SOL    HW122028   2.254   6.085   0.638
 7043SOL    HW222029   2.351   6.164   0.744
 7044SOL     OW22030   4.688   6.385   5.509
 7044SOL    HW122031   4.641   6.459   5.461
 7044SOL    HW222032   4.744   6.424   5.582
 7045SOL     OW22033   5.860   6.465   2.100
 7045SOL    HW122034   5.877   6.458   2.002
 7045SOL    HW222035   5.890   6.554   2.134
 7046SOL     OW22036   2.533   1.384   3.032
 7046SOL    HW122037   2.452   1.440   3.011
 7046SOL    HW222038   2.602   1.440   3.078
 7047SOL     OW22039   1.344   6.980   1.120
 7047SOL    HW122040   1.432   6.944   1.091
 7047SOL    HW222041   1.353   0.004   1.209
 7048SOL     OW22042   0.459   6.244   3.835
 7048SOL    HW122043   0.388   6.296   3.883
 7048SOL    HW222044   0.431   6.149   3.827
 7049SOL     OW22045   3.378   1.327   4.967
 7049SOL    HW122046   3.307   1.311   4.897
 7049SOL    HW222047   3.417   1.418   4.953
 7050SOL     OW22048   4.243   4.282   0.994
 7050SOL    HW122049   4.238   4.185   1.016
 7050SOL    HW222050   4.156   4.326   1.014
 7051SOL     OW22051   1.579   1.852   1.928
 7051SOL    HW122052   1.658   1.896   1.886
 7051SOL    HW222053   1.609   1.771   1.979
 7052SOL     OW22054   5.094   2.723   2.963
 7052SOL    HW122055   5.072   2.750   3.056
 7052SOL    HW222056   5.026   2.763   2.900
 7053SOL     OW22057   1.348   5.083   3.772
 7053SOL    HW122058   1.406   5.077   3.690
 7053SOL    HW222059   1.385   5.026   3.844
 7054SOL     OW22060   5.413   0.134   0.199
 7054SOL    HW122061   5.388   0.192   0.121
 7054SOL    HW222062   5.512   0.133   0.210
 7055SOL     OW22063   2.265   0.216   0.671
 7055SOL    HW122064   2.353   0.174   0.648
 7055SOL    HW222065   2.244   0.288   0.604
 7056SOL     OW22066   6.458   5.586   0.930
 7056SOL    HW122067   6.476   5.684   0.932
 7056SOL    HW222068   6.478   5.546   1.019
 7057SOL     OW22069   3.575   5.525   4.725
 7057SOL    HW122070   3.497   5.588   4.720
 7057SOL    HW222071   3.659   5.578   4.736
 7058SOL     OW22072   6.411   2.108   6.191
 7058SOL    HW122073   6.498   2.080   6.230
 7058SOL    HW222074   6.336   2.079   6.251
 7059SOL     OW22075   1.866   0.330   5.324
 7059SOL    HW122076   1.807   0.405   5.295
 7059SOL    HW222077   1.961   0.361   5.325
 7060SOL     OW22078   3.178   2.530   1.434
 7060SOL    HW122079   3.268   2.538   1.390
 7060SOL    HW222080   3.190   2.524   1.533
 7061SOL     OW22081   1.926   0.944   1.421
 7061SOL    HW122082   1.954   0.849   1.414
 7061SOL    HW222083   1.912   0.969   1.517
 7062SOL     OW22084   3.466   0.654   4.337
 7062SOL    HW122085   3.396   0.717   4.371
 7062SOL    HW222086   3.540   0.707   4.296
 7063SOL     OW22087   0.249   0.972   2.063
 7063SOL    HW122088   0.338   0.927   2.051
 7063SOL    HW222089   0.263   1.065   2.097
 7064SOL     OW22090   2.928   1.265   5.559
 7064SOL    HW122091   2.864   1.334   5.526
 7064SOL    HW222092   2.903   1.176   5.521
 7065SOL     OW22093   3.692   6.550   4.707
 7065SOL    HW122094   3.668   6.551   4.804
 7065SOL    HW222095   3.785   6.515   4.696
 7066SOL     OW22096   3.406   0.478   1.484
 7066SOL    HW122097   3.387   0.517   1.394
 7066SOL    HW222098   3.419   0.551   1.550
 7067SOL     OW22099   2.153   4.465   6.350
 7067SOL    HW122100   2.220   4.508   6.410
 7067SOL    HW222101   2.100   4.398   6.402
 7068SOL     OW22102   5.161   4.407   4.486
 7068SOL    HW122103   5.220   4.326   4.486
 7068SOL    HW222104   5.107   4.410   4.570
 7069SOL     OW22105   4.689   0.606   5.323
 7069SOL    HW122106   4.713   0.681   5.385
 7069SOL    HW222107   4.598   0.623   5.285
 7070SOL     OW22108   0.407   1.167   5.968
 7070SOL    HW122109   0.468   1.184   5.890
 7070SOL    HW222110   0.326   1.225   5.960
 7071SOL     OW22111   4.533   5.718   6.517
 7071SOL    HW122112   4.592   5.773   6.458
 7071SOL    HW222113   4.437   5.735   6.494
 7072SOL     OW22114   0.873   3.981   6.374
 7072SOL    HW122115   0.937   3.924   6.323
 7072SOL    HW222116   0.790   3.929   6.393
 7073SOL     OW22117   4.513   1.058   3.737
 7073SOL    HW122118   4.538   1.007   3.819
 7073SOL    HW222119   4.575   1.136   3.726
 7074SOL     OW22120   6.271   3.662   1.780
 7074SOL    HW122121   6.297   3.758   1.768
 7074SOL    HW222122   6.204   3.655   1.854
 7075SOL     OW22123   2.257   5.367   2.222
 7075SOL    HW122124   2.279   5.285   2.275
 7075SOL    HW222125   2.321   5.440   2.246
 7076SOL     OW22126   5.956   1.910   1.234
 7076SOL    HW122127   6.006   1.826   1.254
 7076SOL    HW222128   5.998   1.956   1.155
 7077SOL     OW22129   3.611   6.007   1.254
 7077SOL    HW122130   3.559   6.028   1.337
 7077SOL    HW222131   3.708   6.021   1.270
 7078SOL     OW22132   6.921   1.262   6.439
 7078SOL    HW122133   6.892   1.302   6.526
 7078SOL    HW222134   6.896   1.166   6.436
 7079SOL     OW22135   2.047   5.418   5.005
 7079SOL    HW122136   1.977   5.433   5.074
 7079SOL    HW222137   2.010   5.360   4.932
 7080SOL     OW22138   3.904   1.533   5.989
 7080SOL    HW122139   3.871   1.587   6.067
 7080SOL    HW222140   3.882   1.580   5.904
 7081SOL     OW22141   2.130   6.628   0.373
 7081SOL    HW122142   2.160   6.534   0.390
 7081SOL    HW222143   2.148   6.684   0.454
 7082SOL     OW22144   0.690   4.382   2.090
 7082SOL    HW122145   0.759   4.310   2.099
 7082SOL    HW222146   0.615   4.366   2.154
 7083SOL     OW22147   5.119   3.031   2.851
 7083SOL    HW122148   5.085   2.957   2.793
 7083SOL    HW222149   5.042   3.083   2.888
 7084SOL     OW22150   1.090   5.080   0.643
 7084SOL    HW122151   1.050   5.169   0.662
 7084SOL    HW222152   1.190   5.090   0.635
 7085SOL     OW22153   0.466   4.264   2.670
 7085SOL    HW122154   0.399   4.244   2.599
 7085SOL    HW222155   0.550   4.299   2.628
 7086SOL     OW22156   4.784   0.742   3.718
 7086SOL    HW122157   4.686   0.759   3.717
 7086SOL    HW222158   4.825   0.775   3.633
 7087SOL     OW22159   5.505   2.673   3.600
 7087SOL    HW122160   5.524   2.611   3.676
 7087SOL    HW222161   5.472   2.761   3.635
 7088SOL     OW22162   5.863   2.840   4.920
 7088SOL    HW122163   5.866   2.742   4.939
 7088SOL    HW222164   5.842   2.890   5.004
 7089SOL     OW22165   3.178   5.857   1.171
 7089SOL    HW122166   3.215   5.774   1.214
 7089SOL    HW222167   3.118   5.831   1.095
 7090SOL     OW22168   4.834   2.947   0.755
 7090SOL    HW122169   4.919   2.896   0.767
 7090SOL    HW222170   4.839   3.032   0.807
 7091SOL     OW22171   6.061   0.511   6.797
 7091SOL    HW122172   6.092   0.595   6.752
 7091SOL    HW222173   6.100   0.432   6.751
 7092SOL     OW22174   4.286   0.168   6.551
 7092SOL    HW122175   4.343   0.117   6.486
 7092SOL    HW222176   4.226   0.105   6.600
 7093SOL     OW22177   3.598   3.255   0.479
 7093SOL    HW122178   3.577   3.222   0.571
 7093SOL    HW222179   3.535   3.213   0.413
 7094SOL     OW22180   4.471   1.051   4.924
 7094SOL    HW122181   4.507   1.017   4.837
 7094SOL    HW222182   4.510   0.996   4.999
 7095SOL     OW22183   2.808   4.712   4.121
 7095SOL    HW122184   2.723   4.687   4.076
 7095SOL    HW222185   2.799   4.700   4.220
 7096SOL     OW22186   6.313   6.146   0.466
 7096SOL    HW122187   6.328   6.192   0.554
 7096SOL    HW222188   6.360   6.198   0.394
 7097SOL     OW22189   5.019   1.775   3.050
 7097SOL    HW122190   4.940   1.815   3.097
 7097SOL    HW222191   5.085   1.847   3.028
 7098SOL     OW22192   0.639   1.243   2.677
 7098SOL    HW122193   0.565   1.217   2.615
 7098SOL    HW222194   0.601   1.267   2.767
 7099SOL     OW22195   3.567   1.983   4.503
 7099SOL    HW122196   3.544   2.016   4.594
 7099SOL    HW222197   3.589   1.886   4.507
 7100SOL     OW22198   0.252   4.335   1.508
 7100SOL    HW122199   0.219   4.430   1.508
 7100SOL    HW222200   0.344   4.332   1.467
 7101SOL     OW22201   2.964   5.321   4.072
 7101SOL    HW122202   3.020   5.360   3.999
 7101SOL    HW222203   2.873   5.362   4.071
 7102SOL     OW22204   5.196   1.338   3.095
 7102SOL    HW122205   5.127   1.409   3.109
 7102SOL    HW222206   5.274   1.355   3.156
 7103SOL     OW22207   5.714   4.003   3.826
 7103SOL    HW122208   5.800   3.999   3.774
 7103SOL    HW222209   5.730   4.051   3.912
 7104SOL     OW22210   5.093   2.825   4.498
 7104SOL    HW122211   5.135   2.861   4.415
 7104SOL    HW222212   5.163   2.812   4.568
 7105SOL     OW22213   3.339   4.008   2.361
 7105SOL    HW122214   3.285   3.939   2.409
 7105SOL    HW222215   3.348   4.089   2.418
 7106SOL     OW22216   2.951   2.240   2.300
 7106SOL    HW122217   2.946   2.276   2.207
 7106SOL    HW222218   2.859   2.244   2.341
 7107SOL     OW22219   3.842   1.035   6.583
 7107SOL    HW122220   3.863   1.124   6.622
 7107SOL    HW222221   3.776   0.987   6.641
 7108SOL     OW22222   3.596   0.196   1.833
 7108SOL    HW122223   3.615   0.098   1.841
 7108SOL    HW222224   3.509   0.209   1.786
 7109SOL     OW22225   3.290   4.718   5.755
 7109SOL    HW122226   3.248   4.644   5.702
 7109SOL    HW222227   3.250   4.805   5.727
 7110SOL     OW22228   2.510   6.074   5.494
 7110SOL    HW122229   2.578   6.018   5.541
 7110SOL    HW222230   2.535   6.082   5.397
 7111SOL     OW22231   6.700   1.063   4.976
 7111SOL    HW122232   6.704   0.963   4.979
 7111SOL    HW222233   6.646   1.092   4.897
 7112SOL     OW22234   0.046   5.147   5.584
 7112SOL    HW122235   0.019   5.056   5.616
 7112SOL    HW222236   0.141   5.145   5.554
 7113SOL     OW22237   3.066   6.780   5.189
 7113SOL    HW122238   3.158   6.796   5.225
 7113SOL    HW222239   2.999   6.829   5.245
 7114SOL     OW22240   5.459   3.956   0.725
 7114SOL    HW122241   5.398   4.020   0.772
 7114SOL    HW222242   5.448   3.865   0.764
 7115SOL     OW22243   4.728   2.797   5.529
 7115SOL    HW122244   4.666   2.826   5.456
 7115SOL    HW222245   4.701   2.840   5.615
 7116SOL     OW22246   6.413   4.835   4.762
 7116SOL    HW122247   6.464   4.920   4.773
 7116SOL    HW222248   6.332   4.836   4.820
 7117SOL     OW22249   4.651   0.593   2.858
 7117SOL    HW122250   4.553   0.585   2.874
 7117SOL    HW222251   4.698   0.611   2.944
 7118SOL     OW22252   4.563   4.124   5.913
 7118SOL    HW122253   4.660   4.106   5.930
 7118SOL    HW222254   4.553   4.203   5.852
 7119SOL     OW22255   2.988   6.323   4.556
 7119SOL    HW122256   3.074   6.322   4.505
 7119SOL    HW222257   2.911   6.324   4.493
 7120SOL     OW22258   4.347   1.843   1.499
 7120SOL    HW122259   4.270   1.827   1.561
 7120SOL    HW222260   4.326   1.807   1.409
 7121SOL     OW22261   1.132   6.039   2.290
 7121SOL    HW122262   1.193   6.099   2.238
 7121SOL    HW222263   1.037   6.069   2.278
 7122SOL     OW22264   3.752   1.900   6.391
 7122SOL    HW122265   3.823   1.933   6.328
 7122SOL    HW222266   3.681   1.969   6.400
 7123SOL     OW22267   4.939   4.576   6.367
 7123SOL    HW122268   5.030   4.538   6.384
 7123SOL    HW222269   4.880   4.557   6.445
 7124SOL     OW22270   2.601   2.922   0.143
 7124SOL    HW122271   2.560   2.842   0.098
 7124SOL    HW222272   2.681   2.952   0.091
 7125SOL     OW22273   0.845   6.561   1.740
 7125SOL    HW122274   0.769   6.521   1.791
 7125SOL    HW222275   0.903   6.489   1.704
 7126SOL     OW22276   4.216   4.942   1.289
 7126SOL    HW122277   4.311   4.934   1.319
 7126SOL    HW222278   4.155   4.930   1.368
 7127SOL     OW22279   2.802   6.252   5.929
 7127SOL    HW122280   2.758   6.341   5.914
 7127SOL    HW222281   2.875   6.262   5.996
 7128SOL     OW22282   3.438   4.097   0.336
 7128SOL    HW122283   3.451   4.159   0.259
 7128SOL    HW222284   3.511   4.111   0.403
 7129SOL     OW22285   0.163   0.592   6.969
 7129SOL    HW122286   0.258   0.620   6.959
 7129SOL    HW222287   0.150   0.503   6.926
 7130SOL     OW22288   3.649   0.527   4.112
 7130SOL    HW122289   3.704   0.512   4.030
 7130SOL    HW222290   3.652   0.624   4.138
 7131SOL     OW22291   2.471   1.723   2.409
 7131SOL    HW122292   2.417   1.737   2.326
 7131SOL    HW222293   2.470   1.626   2.433
 7132SOL     OW22294   5.108   4.333   1.794
 7132SOL    HW122295   5.019   4.359   1.830
 7132SOL    HW222296   5.169   4.413   1.795
 7133SOL     OW22297   4.416   6.224   2.722
 7133SOL    HW122298   4.489   6.292   2.734
 7133SOL    HW222299   4.343   6.263   2.666
 7134SOL     OW22300   4.828   4.944   0.268
 7134SOL    HW122301   4.794   5.028   0.226
 7134SOL    HW222302   4.876   4.889   0.199
 7135SOL     OW22303   2.021   4.521   1.271
 7135SOL    HW122304   2.004   4.485   1.362
 7135SOL    HW222305   2.118   4.547   1.263
 7136SOL     OW22306   1.072   2.836   1.580
 7136SOL    HW122307   1.126   2.752   1.569
 7136SOL    HW222308   1.085   2.895   1.500
 7137SOL     OW22309   2.499   0.965   2.158
 7137SOL    HW122310   2.558   0.908   2.100
 7137SOL    HW222311   2.404   0.935   2.150
 7138SOL     OW22312   6.771   3.067   6.842
 7138SOL    HW122313   6.824   3.119   6.775
 7138SOL    HW222314   6.674   3.079   6.824
 7139SOL     OW22315   5.761   5.490   1.094
 7139SOL    HW122316   5.786   5.395   1.113
 7139SOL    HW222317   5.679   5.493   1.037
 7140SOL     OW22318   0.084   5.314   0.313
 7140SOL    HW122319   0.017   5.342   0.382
 7140SOL    HW222320   0.063   5.359   0.226
 7141SOL     OW22321   3.626   1.328   1.021
 7141SOL    HW122322   3.541   1.299   0.978
 7141SOL    HW222323   3.675   1.390   0.960
 7142SOL     OW22324   4.819   0.029   5.483
 7142SOL    HW122325   4.803   6.966   5.534
 7142SOL    HW222326   4.858   0.006   5.393
 7143SOL     OW22327   2.882   2.632   6.187
 7143SOL    HW122328   2.866   2.676   6.098
 7143SOL    HW222329   2.812   2.661   6.252
 7144SOL     OW22330   6.590   1.231   5.660
 7144SOL    HW122331   6.661   1.161   5.648
 7144SOL    HW222332   6.501   1.186   5.662
 7145SOL     OW22333   6.606   2.385   5.882
 7145SOL    HW122334   6.535   2.336   5.831
 7145SOL    HW222335   6.661   2.440   5.818
 7146SOL     OW22336   0.319   1.780   4.373
 7146SOL    HW122337   0.359   1.864   4.409
 7146SOL    HW222338   0.359   1.701   4.419
 7147SOL     OW22339   6.898   6.858   0.795
 7147SOL    HW122340   6.977   6.872   0.853
 7147SOL    HW222341   6.877   6.943   0.746
 7148SOL     OW22342   5.721   6.641   0.833
 7148SOL    HW122343   5.752   6.561   0.885
 7148SOL    HW222344   5.727   6.621   0.736
 7149SOL     OW22345   5.587   4.196   5.900
 7149SOL    HW122346   5.567   4.281   5.850
 7149SOL    HW222347   5.650   4.215   5.975
 7150SOL     OW22348   3.095   2.368   6.978
 7150SOL    HW122349   3.085   2.369   0.056
 7150SOL    HW222350   3.055   2.283   6.942
 7151SOL     OW22351   5.520   1.388   0.291
 7151SOL    HW122352   5.603   1.362   0.242
 7151SOL    HW222353   5.440   1.375   0.231
 7152SOL     OW22354   4.804   0.122   5.755
 7152SOL    HW122355   4.805   0.133   5.655
 7152SOL    HW222356   4.818   0.026   5.778
 7153SOL     OW22357   4.148   5.855   0.698
 7153SOL    HW122358   4.129   5.859   0.796
 7153SOL    HW222359   4.230   5.800   0.682
 7154SOL     OW22360   5.136   0.841   1.651
 7154SOL    HW122361   5.100   0.778   1.583
 7154SOL    HW222362   5.183   0.789   1.723
 7155SOL     OW22363   1.967   0.017   1.394
 7155SOL    HW122364   1.889   6.979   1.374
 7155SOL    HW222365   1.964   0.097   1.335
 7156SOL     OW22366   6.366   3.585   5.359
 7156SOL    HW122367   6.440   3.627   5.306
 7156SOL    HW222368   6.291   3.561   5.299
 7157SOL     OW22369   0.242   3.454   5.545
 7157SOL    HW122370   0.326   3.498   5.575
 7157SOL    HW222371   0.174   3.459   5.618
 7158SOL     OW22372   5.307   0.332   3.675
 7158SOL    HW122373   5.251   0.401   3.722
 7158SOL    HW222374   5.368   0.378   3.610
 7159SOL     OW22375   0.551   6.302   3.357
 7159SOL    HW122376   0.523   6.359   3.435
 7159SOL    HW222377   0.624   6.239   3.386
 7160SOL     OW22378   5.991   0.020   2.735
 7160SOL    HW122379   5.898   7.007   2.721
 7160SOL    HW222380   5.992   0.085   2.811
 7161SOL     OW22381   3.665   3.627   2.134
 7161SOL    HW122382   3.582   3.626   2.190
 7161SOL    HW222383   3.643   3.661   2.043
 7162SOL     OW22384   0.323   6.142   0.717
 7162SOL    HW122385   0.303   6.046   0.739
 7162SOL    HW222386   0.334   6.151   0.618
 7163SOL     OW22387   6.812   0.117   0.659
 7163SOL    HW122388   6.742   0.115   0.588
 7163SOL    HW222389   6.902   0.101   0.617
 7164SOL     OW22390   1.872   0.180   0.119
 7164SOL    HW122391   1.879   0.249   0.047
 7164SOL    HW222392   1.866   0.225   0.208
 7165SOL     OW22393   4.831   1.950   6.679
 7165SOL    HW122394   4.911   1.907   6.638
 7165SOL    HW222395   4.815   2.039   6.635
 7166SOL     OW22396   6.647   5.502   5.015
 7166SOL    HW122397   6.608   5.501   5.108
 7166SOL    HW222398   6.600   5.570   4.960
 7167SOL     OW22399   0.452   3.152   5.623
 7167SOL    HW122400   0.465   3.218   5.549
 7167SOL    HW222401   0.380   3.088   5.598
 7168SOL     OW22402   1.175   0.854   2.594
 7168SOL    HW122403   1.187   0.895   2.504
 7168SOL    HW222404   1.119   0.771   2.586
 7169SOL     OW22405   1.426   4.491   5.978
 7169SOL    HW122406   1.510   4.520   5.932
 7169SOL    HW222407   1.364   4.449   5.912
 7170SOL     OW22408   3.780   2.120   1.057
 7170SOL    HW122409   3.802   2.022   1.057
 7170SOL    HW222410   3.792   2.157   1.149
 7171SOL     OW22411   6.745   4.591   0.883
 7171SOL    HW122412   6.687   4.512   0.902
 7171SOL    HW222413   6.757   4.600   0.784
 7172SOL     OW22414   0.812   2.431   3.473
 7172SOL    HW122415   0.908   2.417   3.498
 7172SOL    HW222416   0.793   2.529   3.468
 7173SOL     OW22417   3.418   5.654   4.972
 7173SOL    HW122418   3.382   5.634   4.880
 7173SOL    HW222419   3.487   5.585   4.996
 7174SOL     OW22420   6.740   3.776   2.199
 7174SOL    HW122421   6.688   3.756   2.116
 7174SOL    HW222422   6.736   3.697   2.261
 7175SOL     OW22423   6.729   3.584   5.918
 7175SOL    HW122424   6.787   3.504   5.934
 7175SOL    HW222425   6.711   3.629   6.004
 7176SOL     OW22426   0.492   1.244   6.368
 7176SOL    HW122427   0.518   1.148   6.356
 7176SOL    HW222428   0.412   1.250   6.427
 7177SOL     OW22429   1.378   5.328   3.324
 7177SOL    HW122430   1.474   5.305   3.306
 7177SOL    HW222431   1.373   5.404   3.389
 7178SOL     OW22432   1.123   6.372   5.632
 7178SOL    HW122433   1.156   6.282   5.602
 7178SOL    HW222434   1.196   6.439   5.623
 7179SOL     OW22435   4.465   4.674   5.953
 7179SOL    HW122436   4.517   4.748   5.910
 7179SOL    HW222437   4.415   4.624   5.883
 7180SOL     OW22438   0.969   2.775   2.020
 7180SOL    HW122439   1.050   2.833   2.007
 7180SOL    HW222440   0.905   2.789   1.944
 7181SOL     OW22441   3.062   0.935   0.385
 7181SOL    HW122442   2.977   0.960   0.430
 7181SOL    HW222443   3.134   0.999   0.412
 7182SOL     OW22444   2.198   0.985   3.178
 7182SOL    HW122445   2.294   1.008   3.192
 7182SOL    HW222446   2.142   1.040   3.240
 7183SOL     OW22447   1.284   0.189   1.639
 7183SOL    HW122448   1.366   0.214   1.691
 7183SOL    HW222449   1.242   0.108   1.679
 7184SOL     OW22450   0.034   0.915   3.830
 7184SOL    HW122451   0.085   0.834   3.798
 7184SOL    HW222452   7.008   0.893   3.915
 7185SOL     OW22453   4.174   0.569   3.749
 7185SOL    HW122454   4.218   0.498   3.694
 7185SOL    HW222455   4.105   0.527   3.809
 7186SOL     OW22456   6.606   1.125   6.226
 7186SOL    HW122457   6.692   1.097   6.185
 7186SOL    HW222458   6.611   1.222   6.250
 7187SOL     OW22459   3.439   3.237   3.927
 7187SOL    HW122460   3.476   3.203   3.841
 7187SOL    HW222461   3.396   3.326   3.912
 7188SOL     OW22462   5.116   4.943   0.396
 7188SOL    HW122463   5.209   4.942   0.432
 7188SOL    HW222464   5.078   4.851   0.397
 7189SOL     OW22465   6.836   2.346   6.028
 7189SOL    HW122466   6.749   2.328   5.983
 7189SOL    HW222467   6.866   2.265   6.078
 7190SOL     OW22468   6.122   5.571   0.136
 7190SOL    HW122469   6.093   5.565   0.041
 7190SOL    HW222470   6.138   5.667   0.160
 7191SOL     OW22471   0.194   5.160   2.077
 7191SOL    HW122472   0.217   5.123   1.987
 7191SOL    HW222473   0.153   5.088   2.133
 7192SOL     OW22474   2.857   4.024   5.208
 7192SOL    HW122475   2.791   4.092   5.241
 7192SOL    HW222476   2.837   3.936   5.250
 7193SOL     OW22477   3.617   1.400   3.793
 7193SOL    HW122478   3.687   1.411   3.864
 7193SOL    HW222479   3.585   1.490   3.763
 7194SOL     OW22480   3.092   2.395   5.949
 7194SOL    HW122481   3.138   2.362   6.032
 7194SOL    HW222482   3.096   2.495   5.946
 7195SOL     OW22483   0.681   3.357   6.029
 7195SOL    HW122484   0.701   3.455   6.026
 7195SOL    HW222485   0.758   3.306   5.990
 7196SOL     OW22486   2.960   3.554   1.613
 7196SOL    HW122487   2.998   3.463   1.630
 7196SOL    HW222488   3.032   3.623   1.625
 7197SOL     OW22489   3.526   4.915   7.018
 7197SOL    HW122490   3.514   4.996   0.054
 7197SOL    HW222491   3.464   4.921   6.939
 7198SOL     OW22492   1.050   0.409   1.950
 7198SOL    HW122493   1.083   0.359   2.030
 7198SOL    HW222494   1.047   0.348   1.871
 7199SOL     OW22495   5.993   0.958   3.408
 7199SOL    HW122496   6.071   0.897   3.418
 7199SOL    HW222497   5.988   0.991   3.314
 7200SOL     OW22498   0.965   3.070   6.811
 7200SOL    HW122499   0.980   3.169   6.803
 7200SOL    HW222500   1.053   3.024   6.819
 7201SOL     OW22501   6.142   6.313   3.912
 7201SOL    HW122502   6.116   6.271   3.999
 7201SOL    HW222503   6.221   6.265   3.874
 7202SOL     OW22504   4.772   0.621   5.839
 7202SOL    HW122505   4.865   0.656   5.821
 7202SOL    HW222506   4.775   0.558   5.916
 7203SOL     OW22507   0.657   1.645   1.052
 7203SOL    HW122508   0.648   1.557   1.098
 7203SOL    HW222509   0.699   1.711   1.115
 7204SOL     OW22510   5.486   0.994   2.678
 7204SOL    HW122511   5.515   1.035   2.764
 7204SOL    HW222512   5.542   0.913   2.659
 7205SOL     OW22513   3.038   1.325   4.136
 7205SOL    HW122514   2.950   1.355   4.172
 7205SOL    HW222515   3.106   1.396   4.151
 7206SOL     OW22516   2.263   3.240   6.796
 7206SOL    HW122517   2.353   3.267   6.765
 7206SOL    HW222518   2.257   3.249   6.895
 7207SOL     OW22519   1.654   1.252   2.731
 7207SOL    HW122520   1.723   1.207   2.787
 7207SOL    HW222521   1.668   1.351   2.735
 7208SOL     OW22522   3.425   0.181   3.718
 7208SOL    HW122523   3.483   0.252   3.678
 7208SOL    HW222524   3.393   0.119   3.647
 7209SOL     OW22525   3.511   0.991   2.230
 7209SOL    HW122526   3.426   0.939   2.237
 7209SOL    HW222527   3.516   1.056   2.306
 7210SOL     OW22528   3.613   1.446   4.345
 7210SOL    HW122529   3.594   1.357   4.385
 7210SOL    HW222530   3.704   1.445   4.304
 7211SOL     OW22531   3.885   6.130   5.745
 7211SOL    HW122532   3.868   6.204   5.810
 7211SOL    HW222533   3.852   6.044   5.783
 7212SOL     OW22534   0.885   5.865   5.409
 7212SOL    HW122535   0.826   5.919   5.470
 7212SOL    HW222536   0.913   5.781   5.457
 7213SOL     OW22537   4.504   2.880   0.462
 7213SOL    HW122538   4.431   2.938   0.426
 7213SOL    HW222539   4.521   2.904   0.558
 7214SOL     OW22540   6.203   0.898   6.362
 7214SOL    HW122541   6.188   0.799   6.351
 7214SOL    HW222542   6.300   0.915   6.382
 7215SOL     OW22543   6.419   1.533   2.367
 7215SOL    HW122544   6.376   1.525   2.278
 7215SOL    HW222545   6.411   1.627   2.400
 7216SOL     OW22546   5.306   6.954   3.543
 7216SOL    HW122547   5.331   0.020   3.502
 7216SOL    HW222548   5.288   6.887   3.471
 7217SOL     OW22549   0.987   3.182   3.139
 7217SOL    HW122550   1.000   3.261   3.079
 7217SOL    HW222551   1.074   3.134   3.150
 7218SOL     OW22552   6.419   2.319   5.131
 7218SOL    HW122553   6.362   2.400   5.145
 7218SOL    HW222554   6.512   2.337   5.164
 7219SOL     OW22555   2.275   6.188   2.073
 7219SOL    HW122556   2.322   6.200   2.160
 7219SOL    HW222557   2.178   6.170   2.089
 7220SOL     OW22558   6.573   4.080   3.365
 7220SOL    HW122559   6.578   4.097   3.463
 7220SOL    HW222560   6.600   4.162   3.315
 7221SOL     OW22561   4.137   5.028   3.610
 7221SOL    HW122562   4.156   5.111   3.557
 7221SOL    HW222563   4.039   5.008   3.608
 7222SOL     OW22564   0.036   5.759   4.305
 7222SOL    HW122565   0.083   5.734   4.220
 7222SOL    HW222566   0.047   5.685   4.371
 7223SOL     OW22567   6.652   5.504   1.982
 7223SOL    HW122568   6.587   5.567   2.025
 7223SOL    HW222569   6.614   5.411   1.983
 7224SOL     OW22570   4.602   2.240   2.784
 7224SOL    HW122571   4.601   2.144   2.758
 7224SOL    HW222572   4.510   2.269   2.811
 7225SOL     OW22573   1.099   6.132   0.434
 7225SOL    HW122574   1.165   6.207   0.432
 7225SOL    HW222575   1.130   6.059   0.372
 7226SOL     OW22576   5.739   6.327   0.106
 7226SOL    HW122577   5.761   6.425   0.112
 7226SOL    HW222578   5.649   6.315   0.064
 7227SOL     OW22579   1.724   1.083   2.265
 7227SOL    HW122580   1.724   1.180   2.242
 7227SOL    HW222581   1.634   1.057   2.299
 7228SOL     OW22582   5.620   3.175   2.519
 7228SOL    HW122583   5.560   3.228   2.460
 7228SOL    HW222584   5.645   3.229   2.599
 7229SOL     OW22585   5.912   0.048   4.821
 7229SOL    HW122586   5.868   0.127   4.865
 7229SOL    HW222587   5.853   0.013   4.749
 7230SOL     OW22588   2.394   5.232   4.824
 7230SOL    HW122589   2.402   5.230   4.924
 7230SOL    HW222590   2.432   5.317   4.789
 7231SOL     OW22591   3.936   3.623   6.368
 7231SOL    HW122592   3.971   3.683   6.297
 7231SOL    HW222593   4.012   3.585   6.420
 7232SOL     OW22594   4.149   6.286   3.502
 7232SOL    HW122595   4.170   6.218   3.432
 7232SOL    HW222596   4.184   6.375   3.474
 7233SOL     OW22597   0.527   1.674   6.300
 7233SOL    HW122598   0.597   1.602   6.299
 7233SOL    HW222599   0.436   1.631   6.301
 7234SOL     OW22600   5.443   4.867   3.425
 7234SOL    HW122601   5.442   4.782   3.479
 7234SOL    HW222602   5.445   4.844   3.328
 7235SOL     OW22603   6.571   0.523   1.837
 7235SOL    HW122604   6.630   0.442   1.840
 7235SOL    HW222605   6.502   0.511   1.765
 7236SOL     OW22606   1.226   3.678   2.989
 7236SOL    HW122607   1.284   3.639   2.918
 7236SOL    HW222608   1.212   3.611   3.062
 7237SOL     OW22609   5.306   1.409   0.494
 7237SOL    HW122610   5.298   1.312   0.520
 7237SOL    HW222611   5.392   1.423   0.446
 7238SOL     OW22612   4.062   3.616   0.147
 7238SOL    HW122613   4.058   3.527   0.103
 7238SOL    HW222614   3.971   3.657   0.149
 7239SOL     OW22615   5.913   2.309   2.031
 7239SOL    HW122616   6.007   2.303   1.997
 7239SOL    HW222617   5.858   2.237   1.988
 7240SOL     OW22618   0.033   1.473   0.058
 7240SOL    HW122619   0.089   1.398   0.093
 7240SOL    HW222620   0.080   1.560   0.071
 7241SOL     OW22621   1.865   6.662   2.644
 7241SOL    HW122622   1.811   6.736   2.684
 7241SOL    HW222623   1.851   6.578   2.696
 7242SOL     OW22624   6.605   4.614   5.730
 7242SOL    HW122625   6.523   4.657   5.767
 7242SOL    HW222626   6.679   4.680   5.727
 7243SOL     OW22627   5.225   4.575   6.127
 7243SOL    HW122628   5.146   4.518   6.103
 7243SOL    HW222629   5.307   4.537   6.085
 7244SOL     OW22630   6.849   5.941   6.850
 7244SOL    HW122631   6.856   5.971   6.946
 7244SOL    HW222632   6.785   5.864   6.844
 7245SOL     OW22633   1.215   2.941   6.854
 7245SOL    HW122634   1.234   2.870   6.786
 7245SOL    HW222635   1.275   2.928   6.933
 7246SOL     OW22636   4.170   0.096   3.506
 7246SOL    HW122637   4.129   0.106   3.415
 7246SOL    HW222638   4.099   0.075   3.573
 7247SOL     OW22639   2.995   3.854   4.383
 7247SOL    HW122640   2.974   3.788   4.311
 7247SOL    HW222641   3.062   3.920   4.349
 7248SOL     OW22642   3.165   1.565   5.754
 7248SOL    HW122643   3.232   1.572   5.679
 7248SOL    HW222644   3.144   1.468   5.769
 7249SOL     OW22645   3.488   5.724   2.852
 7249SOL    HW122646   3.547   5.782   2.908
 7249SOL    HW222647   3.443   5.780   2.783
 7250SOL     OW22648   5.623   5.232   5.634
 7250SOL    HW122649   5.590   5.261   5.724
 7250SOL    HW222650   5.594   5.298   5.565
 7251SOL     OW22651   0.955   5.462   4.336
 7251SOL    HW122652   1.045   5.473   4.295
 7251SOL    HW222653   0.958   5.391   4.406
 7252SOL     OW22654   4.155   3.527   2.261
 7252SOL    HW122655   4.106   3.456   2.210
 7252SOL    HW222656   4.245   3.542   2.219
 7253SOL     OW22657   2.385   5.344   4.481
 7253SOL    HW122658   2.296   5.355   4.436
 7253SOL    HW222659   2.415   5.432   4.517
 7254SOL     OW22660   6.392   3.728   3.714
 7254SOL    HW122661   6.409   3.742   3.811
 7254SOL    HW222662   6.387   3.816   3.667
 7255SOL     OW22663   4.885   3.960   0.286
 7255SOL    HW122664   4.947   3.988   0.358
 7255SOL    HW222665   4.790   3.969   0.318
 7256SOL     OW22666   3.173   0.164   4.390
 7256SOL    HW122667   3.088   0.167   4.338
 7256SOL    HW222668   3.195   0.256   4.423
 7257SOL     OW22669   0.755   1.476   4.897
 7257SOL    HW122670   0.731   1.572   4.912
 7257SOL    HW222671   0.834   1.470   4.836
 7258SOL     OW22672   6.104   2.977   2.045
 7258SOL    HW122673   6.144   2.890   2.071
 7258SOL    HW222674   6.175   3.040   2.015
 7259SOL     OW22675   1.487   4.146   2.560
 7259SOL    HW122676   1.397   4.148   2.604
 7259SOL    HW222677   1.554   4.109   2.623
 7260SOL     OW22678   6.121   2.958   0.830
 7260SOL    HW122679   6.219   2.938   0.833
 7260SOL    HW222680   6.103   3.043   0.878
 7261SOL     OW22681   6.631   4.045   6.746
 7261SOL    HW122682   6.635   3.989   6.828
 7261SOL    HW222683   6.605   4.139   6.771
 7262SOL     OW22684   5.066   1.342   4.754
 7262SOL    HW122685   4.991   1.316   4.814
 7262SOL    HW222686   5.130   1.265   4.746
 7263SOL     OW22687   6.834   5.497   5.839
 7263SOL    HW122688   6.853   5.553   5.920
 7263SOL    HW222689   6.885   5.532   5.761
 7264SOL     OW22690   5.371   1.462   1.605
 7264SOL    HW122691   5.289   1.430   1.652
 7264SOL    HW222692   5.408   1.390   1.547
 7265SOL     OW22693   4.015   0.728   5.393
 7265SOL    HW122694   4.070   0.780   5.458
 7265SOL    HW222695   4.073   0.667   5.340
 7266SOL     OW22696   0.181   0.686   3.032
 7266SOL    HW122697   0.139   0.766   2.990
 7266SOL    HW222698   0.110   0.629   3.074
 7267SOL     OW22699   6.845   4.255   4.450
 7267SOL    HW122700   6.929   4.231   4.403
 7267SOL    HW222701   6.862   4.330   4.514
 7268SOL     OW22702   6.356   6.645   4.102
 7268SOL    HW122703   6.358   6.682   4.195
 7268SOL    HW222704   6.271   6.594   4.089
 7269SOL     OW22705   2.657   4.676   4.685
 7269SOL    HW122706   2.619   4.669   4.777
 7269SOL    HW222707   2.738   4.735   4.687
 7270SOL     OW22708   0.767   0.487   4.759
 7270SOL    HW122709   0.731   0.450   4.845
 7270SOL    HW222710   0.693   0.498   4.694
 7271SOL     OW22711   0.487   5.022   3.430
 7271SOL    HW122712   0.467   5.106   3.481
 7271SOL    HW222713   0.483   4.943   3.491
 7272SOL     OW22714   6.599   3.875   1.720
 7272SOL    HW122715   6.626   3.964   1.757
 7272SOL    HW222716   6.500   3.872   1.708
 7273SOL     OW22717   0.548   1.451   5.252
 7273SOL    HW122718   0.464   1.502   5.236
 7273SOL    HW222719   0.573   1.455   5.349
 7274SOL     OW22720   0.149   5.029   5.852
 7274SOL    HW122721   0.204   5.057   5.773
 7274SOL    HW222722   0.151   5.102   5.921
 7275SOL     OW22723   1.100   5.748   3.761
 7275SOL    HW122724   1.127   5.717   3.670
 7275SOL    HW222725   1.038   5.682   3.802
 7276SOL     OW22726   4.813   5.987   3.544
 7276SOL    HW122727   4.879   5.919   3.576
 7276SOL    HW222728   4.836   6.077   3.580
 7277SOL     OW22729   4.535   0.924   0.359
 7277SOL    HW122730   4.539   0.824   0.371
 7277SOL    HW222731   4.566   0.947   0.267
 7278SOL     OW22732   3.432   3.029   2.308
 7278SOL    HW122733   3.442   2.939   2.267
 7278SOL    HW222734   3.369   3.024   2.385
 7279SOL     OW22735   3.556   6.703   6.120
 7279SOL    HW122736   3.588   6.728   6.029
 7279SOL    HW222737   3.462   6.736   6.132
 7280SOL     OW22738   4.671   1.763   6.062
 7280SOL    HW122739   4.597   1.786   5.999
 7280SOL    HW222740   4.641   1.690   6.123
 7281SOL     OW22741   5.272   1.075   6.420
 7281SOL    HW122742   5.315   1.134   6.352
 7281SOL    HW222743   5.198   1.023   6.377
 7282SOL     OW22744   5.458   6.080   2.170
 7282SOL    HW122745   5.362   6.108   2.168
 7282SOL    HW222746   5.514   6.156   2.202
 7283SOL     OW22747   2.298   0.926   3.959
 7283SOL    HW122748   2.280   0.832   3.928
 7283SOL    HW222749   2.235   0.989   3.915
 7284SOL     OW22750   0.729   1.942   5.328
 7284SOL    HW122751   0.752   2.020   5.271
 7284SOL    HW222752   0.789   1.940   5.408
 7285SOL     OW22753   5.831   4.841   1.639
 7285SOL    HW122754   5.879   4.906   1.580
 7285SOL    HW222755   5.754   4.802   1.588
 7286SOL     OW22756   2.271   4.316   0.668
 7286SOL    HW122757   2.267   4.241   0.733
 7286SOL    HW222758   2.191   4.374   0.679
 7287SOL     OW22759   5.955   1.589   5.690
 7287SOL    HW122760   5.896   1.667   5.672
 7287SOL    HW222761   5.910   1.527   5.754
 7288SOL     OW22762   2.748   6.862   0.219
 7288SOL    HW122763   2.665   6.814   0.190
 7288SOL    HW222764   2.779   6.825   0.307
 7289SOL     OW22765   5.124   2.463   4.250
 7289SOL    HW122766   5.051   2.520   4.287
 7289SOL    HW222767   5.178   2.425   4.326
 7290SOL     OW22768   2.568   5.752   4.869
 7290SOL    HW122769   2.584   5.740   4.771
 7290SOL    HW222770   2.516   5.674   4.904
 7291SOL     OW22771   3.408   5.055   1.712
 7291SOL    HW122772   3.340   5.089   1.777
 7291SOL    HW222773   3.374   5.069   1.619
 7292SOL     OW22774   3.142   6.906   4.877
 7292SOL    HW122775   3.155   6.833   4.810
 7292SOL    HW222776   3.095   6.870   4.957
 7293SOL     OW22777   1.994   1.873   6.676
 7293SOL    HW122778   1.986   1.883   6.776
 7293SOL    HW222779   1.927   1.933   6.632
 7294SOL     OW22780   4.621   5.774   0.504
 7294SOL    HW122781   4.720   5.779   0.487
 7294SOL    HW222782   4.573   5.809   0.423
 7295SOL     OW22783   5.536   0.315   1.446
 7295SOL    HW122784   5.627   0.286   1.475
 7295SOL    HW222785   5.469   0.247   1.476
 7296SOL     OW22786   4.031   5.170   1.732
 7296SOL    HW122787   3.972   5.089   1.732
 7296SOL    HW222788   4.122   5.144   1.765
 7297SOL     OW22789   5.178   6.537   2.308
 7297SOL    HW122790   5.110   6.479   2.354
 7297SOL    HW222791   5.208   6.608   2.372
 7298SOL     OW22792   6.646   3.688   4.012
 7298SOL    HW122793   6.678   3.769   4.062
 7298SOL    HW222794   6.650   3.608   4.072
 7299SOL     OW22795   5.432   3.724   6.159
 7299SOL    HW122796   5.350   3.763   6.201
 7299SOL    HW222797   5.481   3.796   6.109
 7300SOL     OW22798   4.994   5.242   1.439
 7300SOL    HW122799   4.951   5.306   1.503
 7300SOL    HW222800   5.024   5.161   1.489
 7301SOL     OW22801   6.447   1.026   6.021
 7301SOL    HW122802   6.497   1.090   6.079
 7301SOL    HW222803   6.374   1.074   5.973
 7302SOL     OW22804   5.559   1.005   6.174
 7302SOL    HW122805   5.597   0.972   6.260
 7302SOL    HW222806   5.523   1.098   6.186
 7303SOL     OW22807   3.637   0.730   0.813
 7303SOL    HW122808   3.686   0.730   0.726
 7303SOL    HW222809   3.689   0.782   0.880
 7304SOL     OW22810   3.619   3.667   5.354
 7304SOL    HW122811   3.654   3.629   5.268
 7304SOL    HW222812   3.696   3.689   5.414
 7305SOL     OW22813   5.763   1.279   0.488
 7305SOL    HW122814   5.856   1.312   0.503
 7305SOL    HW222815   5.700   1.327   0.548
 7306SOL     OW22816   5.068   4.963   2.080
 7306SOL    HW122817   5.063   4.874   2.127
 7306SOL    HW222818   4.982   4.979   2.032
 7307SOL     OW22819   4.137   6.723   2.301
 7307SOL    HW122820   4.042   6.752   2.312
 7307SOL    HW222821   4.145   6.625   2.321
 7308SOL     OW22822   6.083   1.049   4.237
 7308SOL    HW122823   6.160   1.038   4.174
 7308SOL    HW222824   6.102   1.001   4.322
 7309SOL     OW22825   4.293   5.444   2.198
 7309SOL    HW122826   4.199   5.465   2.227
 7309SOL    HW222827   4.346   5.529   2.195
 7310SOL     OW22828   1.973   5.706   1.453
 7310SOL    HW122829   1.909   5.630   1.470
 7310SOL    HW222830   2.046   5.703   1.520
 7311SOL     OW22831   2.642   2.262   2.072
 7311SOL    HW122832   2.718   2.253   2.008
 7311SOL    HW222833   2.673   2.237   2.164
 7312SOL     OW22834   6.885   1.913   5.790
 7312SOL    HW122835   6.912   1.849   5.862
 7312SOL    HW222836   6.812   1.973   5.824
 7313SOL     OW22837   3.681   2.445   6.264
 7313SOL    HW122838   3.719   2.456   6.173
 7313SOL    HW222839   3.678   2.534   6.311
 7314SOL     OW22840   1.024   2.798   4.667
 7314SOL    HW122841   0.950   2.845   4.618
 7314SOL    HW222842   1.104   2.793   4.607
 7315SOL     OW22843   6.905   0.707   5.771
 7315SOL    HW122844   7.001   0.680   5.769
 7315SOL    HW222845   6.899   0.807   5.780
 7316SOL     OW22846   3.819   3.337   5.122
 7316SOL    HW122847   3.848   3.306   5.031
 7316SOL    HW222848   3.802   3.435   5.120
 7317SOL     OW22849   3.507   0.963   3.510
 7317SOL    HW122850   3.427   1.019   3.530
 7317SOL    HW222851   3.576   1.019   3.465
 7318SOL     OW22852   1.456   1.821   1.277
 7318SOL    HW122853   1.451   1.868   1.365
 7318SOL    HW222854   1.393   1.865   1.213
 7319SOL     OW22855   0.039   3.817   6.132
 7319SOL    HW122856   0.079   3.864   6.211
 7319SOL    HW222857   0.112   3.787   6.070
 7320SOL     OW22858   6.737   2.583   2.420
 7320SOL    HW122859   6.757   2.517   2.347
 7320SOL    HW222860   6.781   2.553   2.504
 7321SOL     OW22861   2.806   1.354   4.425
 7321SOL    HW122862   2.808   1.309   4.514
 7321SOL    HW222863   2.777   1.288   4.355
 7322SOL     OW22864   0.403   3.746   1.776
 7322SOL    HW122865   0.346   3.818   1.736
 7322SOL    HW222866   0.381   3.737   1.873
 7323SOL     OW22867   2.204   4.007   2.907
 7323SOL    HW122868   2.224   3.962   2.820
 7323SOL    HW222869   2.167   3.940   2.972
 7324SOL     OW22870   5.370   5.536   2.333
 7324SOL    HW122871   5.423   5.588   2.400
 7324SOL    HW222872   5.376   5.438   2.354
 7325SOL     OW22873   3.135   6.375   0.779
 7325SOL    HW122874   3.165   6.306   0.844
 7325SOL    HW222875   3.198   6.453   0.782
 7326SOL     OW22876   2.276   0.764   4.928
 7326SOL    HW122877   2.298   0.805   5.017
 7326SOL    HW222878   2.307   0.669   4.927
 7327SOL     OW22879   1.557   2.633   5.027
 7327SOL    HW122880   1.564   2.565   4.953
 7327SOL    HW222881   1.495   2.598   5.097
 7328SOL     OW22882   2.648   6.691   6.660
 7328SOL    HW122883   2.576   6.756   6.682
 7328SOL    HW222884   2.648   6.617   6.727
 7329SOL     OW22885   4.488   3.492   1.401
 7329SOL    HW122886   4.533   3.500   1.490
 7329SOL    HW222887   4.413   3.558   1.396
 7330SOL     OW22888   4.485   2.118   0.841
 7330SOL    HW122889   4.498   2.037   0.898
 7330SOL    HW222890   4.564   2.179   0.850
 7331SOL     OW22891   5.138   1.172   2.191
 7331SOL    HW122892   5.100   1.081   2.208
 7331SOL    HW222893   5.160   1.215   2.279
 7332SOL     OW22894   3.336   5.240   1.076
 7332SOL    HW122895   3.264   5.176   1.051
 7332SOL    HW222896   3.423   5.208   1.040
 7333SOL     OW22897   0.379   4.705   2.571
 7333SOL    HW122898   0.290   4.675   2.607
 7333SOL    HW222899   0.451   4.675   2.633
 7334SOL     OW22900   3.794   6.714   4.464
 7334SOL    HW122901   3.729   6.774   4.418
 7334SOL    HW222902   3.760   6.693   4.556
 7335SOL     OW22903   2.240   2.889   2.724
 7335SOL    HW122904   2.269   2.807   2.673
 7335SOL    HW222905   2.317   2.923   2.778
 7336SOL     OW22906   1.850   6.372   4.241
 7336SOL    HW122907   1.826   6.318   4.160
 7336SOL    HW222908   1.931   6.427   4.221
 7337SOL     OW22909   4.716   2.088   2.239
 7337SOL    HW122910   4.652   2.031   2.289
 7337SOL    HW222911   4.805   2.042   2.234
 7338SOL     OW22912   6.475   2.995   0.134
 7338SOL    HW122913   6.479   3.085   0.092
 7338SOL    HW222914   6.440   2.928   0.069
 7339SOL     OW22915   1.123   5.665   4.583
 7339SOL    HW122916   1.180   5.723   4.641
 7339SOL    HW222917   1.034   5.653   4.625
 7340SOL     OW22918   2.513   6.929   6.719
 7340SOL    HW122919   2.446   6.971   6.658
 7340SOL    HW222920   2.466   6.872   6.787
 7341SOL     OW22921   6.798   1.984   0.488
 7341SOL    HW122922   6.758   1.925   0.418
 7341SOL    HW222923   6.896   1.967   0.494
 7342SOL     OW22924   0.426   6.546   2.201
 7342SOL    HW122925   0.451   6.627   2.149
 7342SOL    HW222926   0.503   6.518   2.259
 7343SOL     OW22927   5.634   2.983   0.448
 7343SOL    HW122928   5.590   2.910   0.395
 7343SOL    HW222929   5.564   3.039   0.492
 7344SOL     OW22930   2.040   6.283   6.239
 7344SOL    HW122931   2.050   6.382   6.237
 7344SOL    HW222932   1.943   6.258   6.240
 7345SOL     OW22933   2.894   5.417   6.555
 7345SOL    HW122934   2.896   5.324   6.592
 7345SOL    HW222935   2.987   5.448   6.537
 7346SOL     OW22936   4.312   5.258   2.452
 7346SOL    HW122937   4.289   5.172   2.407
 7346SOL    HW222938   4.411   5.263   2.466
 7347SOL     OW22939   6.368   1.659   0.114
 7347SOL    HW122940   6.311   1.703   0.183
 7347SOL    HW222941   6.320   1.580   0.075
 7348SOL     OW22942   6.130   4.344   0.172
 7348SOL    HW122943   6.154   4.360   0.076
 7348SOL    HW222944   6.032   4.359   0.186
 7349SOL     OW22945   3.786   1.643   1.679
 7349SOL    HW122946   3.728   1.603   1.750
 7349SOL    HW222947   3.861   1.694   1.721
 7350SOL     OW22948   3.873   0.765   4.012
 7350SOL    HW122949   3.847   0.693   3.947
 7350SOL    HW222950   3.866   0.854   3.967
 7351SOL     OW22951   2.285   4.471   4.021
 7351SOL    HW122952   2.319   4.377   4.021
 7351SOL    HW222953   2.303   4.513   4.110
 7352SOL     OW22954   6.120   3.873   3.908
 7352SOL    HW122955   6.126   3.877   4.008
 7352SOL    HW222956   6.100   3.779   3.880
 7353SOL     OW22957   6.623   0.473   5.755
 7353SOL    HW122958   6.537   0.510   5.792
 7353SOL    HW222959   6.640   0.514   5.665
 7354SOL     OW22960   0.555   1.298   2.923
 7354SOL    HW122961   0.495   1.235   2.972
 7354SOL    HW222962   0.622   1.337   2.988
 7355SOL     OW22963   3.114   1.616   0.426
 7355SOL    HW122964   3.087   1.675   0.351
 7355SOL    HW222965   3.134   1.673   0.507
 7356SOL     OW22966   3.850   3.833   5.843
 7356SOL    HW122967   3.785   3.798   5.776
 7356SOL    HW222968   3.800   3.884   5.914
 7357SOL     OW22969   5.095   6.516   2.053
 7357SOL    HW122970   5.146   6.544   2.134
 7357SOL    HW222971   4.999   6.543   2.063
 7358SOL     OW22972   5.558   0.803   3.570
 7358SOL    HW122973   5.526   0.730   3.630
 7358SOL    HW222974   5.485   0.870   3.556
 7359SOL     OW22975   4.472   6.923   1.920
 7359SOL    HW122976   4.410   6.995   1.889
 7359SOL    HW222977   4.521   6.955   2.001
 7360SOL     OW22978   2.896   3.385   5.006
 7360SOL    HW122979   2.955   3.400   4.927
 7360SOL    HW222980   2.813   3.336   4.977
 7361SOL     OW22981   6.986   0.602   3.148
 7361SOL    HW122982   6.986   0.502   3.159
 7361SOL    HW222983   6.910   0.629   3.089
 7362SOL     OW22984   3.394   5.688   0.407
 7362SOL    HW122985   3.329   5.640   0.349
 7362SOL    HW222986   3.451   5.748   0.351
 7363SOL     OW22987   4.241   0.913   1.055
 7363SOL    HW122988   4.307   0.985   1.032
 7363SOL    HW222989   4.271   0.865   1.138
 7364SOL     OW22990   5.983   6.362   1.610
 7364SOL    HW122991   6.039   6.281   1.599
 7364SOL    HW222992   5.890   6.336   1.636
 7365SOL     OW22993   4.896   3.680   2.218
 7365SOL    HW122994   4.960   3.736   2.164
 7365SOL    HW222995   4.896   3.712   2.313
 7366SOL     OW22996   1.880   0.301   3.701
 7366SOL    HW122997   1.806   0.302   3.633
 7366SOL    HW222998   1.965   0.331   3.657
 7367SOL     OW22999   4.091   0.774   6.783
 7367SOL    HW123000   4.139   0.799   6.699
 7367SOL    HW223001   4.049   0.856   6.822
 7368SOL     OW23002   3.547   3.347   3.380
 7368SOL    HW123003   3.607   3.312   3.452
 7368SOL    HW223004   3.452   3.338   3.408
 7369SOL     OW23005   5.315   3.211   0.156
 7369SOL    HW123006   5.256   3.261   0.093
 7369SOL    HW223007   5.368   3.143   0.106
 7370SOL     OW23008   1.966   1.041   4.513
 7370SOL    HW123009   1.955   1.070   4.608
 7370SOL    HW223010   2.033   1.099   4.467
 7371SOL     OW23011   4.017   1.181   3.757
 7371SOL    HW123012   4.082   1.106   3.748
 7371SOL    HW223013   3.984   1.208   3.667
 7372SOL     OW23014   5.406   1.411   5.189
 7372SOL    HW123015   5.453   1.398   5.277
 7372SOL    HW223016   5.474   1.420   5.116
 7373SOL     OW23017   6.119   3.216   4.654
 7373SOL    HW123018   6.174   3.155   4.598
 7373SOL    HW223019   6.111   3.180   4.747
 7374SOL     OW23020   0.173   1.944   6.074
 7374SOL    HW123021   0.223   2.017   6.120
 7374SOL    HW223022   0.141   1.975   5.985
 7375SOL     OW23023   1.484   3.694   0.912
 7375SOL    HW123024   1.469   3.768   0.978
 7375SOL    HW223025   1.582   3.687   0.892
 7376SOL     OW23026   6.742   3.941   0.944
 7376SOL    HW123027   6.787   3.928   1.032
 7376SOL    HW223028   6.796   4.002   0.886
 7377SOL     OW23029   2.563   5.813   1.373
 7377SOL    HW123030   2.478   5.818   1.322
 7377SOL    HW223031   2.616   5.734   1.342
 7378SOL     OW23032   2.117   5.263   4.779
 7378SOL    HW123033   2.216   5.267   4.765
 7378SOL    HW223034   2.097   5.205   4.858
 7379SOL     OW23035   4.332   1.671   2.730
 7379SOL    HW123036   4.355   1.743   2.795
 7379SOL    HW223037   4.245   1.693   2.685
 7380SOL     OW23038   5.480   3.244   1.610
 7380SOL    HW123039   5.565   3.207   1.649
 7380SOL    HW223040   5.424   3.283   1.682
 7381SOL     OW23041   3.691   6.909   1.837
 7381SOL    HW123042   3.789   6.911   1.817
 7381SOL    HW223043   3.641   6.881   1.755
 7382SOL     OW23044   6.612   1.661   5.961
 7382SOL    HW123045   6.600   1.566   5.933
 7382SOL    HW223046   6.708   1.677   5.985
 7383SOL     OW23047   1.931   6.770   0.722
 7383SOL    HW123048   1.868   6.745   0.649
 7383SOL    HW223049   1.892   6.846   0.774
 7384SOL     OW23050   6.680   6.691   0.754
 7384SOL    HW123051   6.764   6.742   0.770
 7384SOL    HW223052   6.604   6.755   0.740
 7385SOL     OW23053   6.144   4.998   3.092
 7385SOL    HW123054   6.084   4.920   3.111
 7385SOL    HW223055   6.148   5.013   2.993
 7386SOL     OW23056   5.243   3.709   6.802
 7386SOL    HW123057   5.224   3.611   6.795
 7386SOL    HW223058   5.217   3.742   6.892
 7387SOL     OW23059   6.257   5.887   4.748
 7387SOL    HW123060   6.297   5.808   4.794
 7387SOL    HW223061   6.318   5.919   4.676
 7388SOL     OW23062   2.365   4.332   2.653
 7388SOL    HW123063   2.415   4.374   2.577
 7388SOL    HW223064   2.313   4.254   2.619
 7389SOL     OW23065   6.314   2.989   0.408
 7389SOL    HW123066   6.352   3.007   0.317
 7389SOL    HW223067   6.218   3.018   0.411
 7390SOL     OW23068   2.358   2.703   4.115
 7390SOL    HW123069   2.457   2.719   4.117
 7390SOL    HW223070   2.310   2.790   4.117
 7391SOL     OW23071   3.589   3.858   3.062
 7391SOL    HW123072   3.623   3.768   3.091
 7391SOL    HW223073   3.499   3.848   3.019
 7392SOL     OW23074   3.156   6.815   0.341
 7392SOL    HW123075   3.202   6.814   0.430
 7392SOL    HW223076   3.186   6.736   0.287
 7393SOL     OW23077   4.839   5.560   3.374
 7393SOL    HW123078   4.834   5.488   3.443
 7393SOL    HW223079   4.748   5.575   3.335
 7394SOL     OW23080   2.275   2.094   5.512
 7394SOL    HW123081   2.354   2.058   5.562
 7394SOL    HW223082   2.251   2.031   5.438
 7395SOL     OW23083   2.908   6.016   1.306
 7395SOL    HW123084   2.871   6.032   1.214
 7395SOL    HW223085   2.984   6.078   1.323
 7396SOL     OW23086   1.418   5.099   2.497
 7396SOL    HW123087   1.401   5.026   2.430
 7396SOL    HW223088   1.435   5.185   2.448
 7397SOL     OW23089   6.088   4.641   3.778
 7397SOL    HW123090   6.185   4.660   3.792
 7397SOL    HW223091   6.036   4.727   3.782
 7398SOL     OW23092   3.197   4.954   2.225
 7398SOL    HW123093   3.179   4.978   2.321
 7398SOL    HW223094   3.112   4.925   2.181
 7399SOL     OW23095   5.235   1.311   6.025
 7399SOL    HW123096   5.167   1.237   6.022
 7399SOL    HW223097   5.190   1.397   6.046
 7400SOL     OW23098   4.729   3.506   5.483
 7400SOL    HW123099   4.695   3.584   5.430
 7400SOL    HW223100   4.797   3.538   5.549
 7401SOL     OW23101   1.468   2.587   3.989
 7401SOL    HW123102   1.440   2.491   3.985
 7401SOL    HW223103   1.499   2.608   4.081
 7402SOL     OW23104   3.702   5.384   4.478
 7402SOL    HW123105   3.800   5.399   4.497
 7402SOL    HW223106   3.649   5.455   4.523
 7403SOL     OW23107   2.130   4.404   4.354
 7403SOL    HW123108   2.038   4.410   4.317
 7403SOL    HW223109   2.127   4.414   4.453
 7404SOL     OW23110   2.744   3.851   0.773
 7404SOL    HW123111   2.786   3.787   0.708
 7404SOL    HW223112   2.806   3.865   0.851
 7405SOL     OW23113   3.747   6.744   5.470
 7405SOL    HW123114   3.713   6.829   5.430
 7405SOL    HW223115   3.707   6.732   5.561
 7406SOL     OW23116   0.899   2.226   4.547
 7406SOL    HW123117   0.950   2.164   4.606
 7406SOL    HW223118   0.802   2.204   4.551
 7407SOL     OW23119   1.063   6.152   5.228
 7407SOL    HW123120   1.024   6.230   5.278
 7407SOL    HW223121   1.156   6.174   5.199
 7408SOL     OW23122   4.549   5.606   4.921
 7408SOL    HW123123   4.596   5.689   4.889
 7408SOL    HW223124   4.577   5.587   5.015
 7409SOL     OW23125   6.881   4.182   1.432
 7409SOL    HW123126   6.808   4.158   1.368
 7409SOL    HW223127   6.893   4.106   1.497
 7410SOL     OW23128   6.725   0.475   1.149
 7410SOL    HW123129   6.671   0.530   1.086
 7410SOL    HW223130   6.753   0.391   1.103
 7411SOL     OW23131   3.012   1.913   4.919
 7411SOL    HW123132   2.983   1.824   4.884
 7411SOL    HW223133   2.952   1.984   4.884
 7412SOL     OW23134   3.927   0.035   0.623
 7412SOL    HW123135   3.834   0.042   0.659
 7412SOL    HW223136   3.929   0.072   0.530
 7413SOL     OW23137   4.877   0.946   3.527
 7413SOL    HW123138   4.867   1.018   3.458
 7413SOL    HW223139   4.859   0.984   3.618
 7414SOL     OW23140   2.665   0.732   3.806
 7414SOL    HW123141   2.724   0.659   3.840
 7414SOL    HW223142   2.722   0.803   3.764
 7415SOL     OW23143   4.215   6.755   6.415
 7415SOL    HW123144   4.241   6.672   6.464
 7415SOL    HW223145   4.116   6.766   6.418
 7416SOL     OW23146   1.846   0.695   2.015
 7416SOL    HW123147   1.763   0.747   2.036
 7416SOL    HW223148   1.834   0.648   1.927
 7417SOL     OW23149   0.747   0.792   2.139
 7417SOL    HW123150   0.796   0.757   2.059
 7417SOL    HW223151   0.797   0.871   2.177
 7418SOL     OW23152   1.351   3.859   6.325
 7418SOL    HW123153   1.313   3.921   6.394
 7418SOL    HW223154   1.423   3.905   6.275
 7419SOL     OW23155   0.390   3.535   4.301
 7419SOL    HW123156   0.468   3.561   4.359
 7419SOL    HW223157   0.367   3.612   4.240
 7420SOL     OW23158   0.068   6.220   0.772
 7420SOL    HW123159   0.015   6.225   0.687
 7420SOL    HW223160   0.161   6.189   0.752
 7421SOL     OW23161   5.869   3.891   0.916
 7421SOL    HW123162   5.936   3.862   0.985
 7421SOL    HW223163   5.858   3.990   0.921
 7422SOL     OW23164   5.756   3.124   1.632
 7422SOL    HW123165   5.804   3.126   1.720
 7422SOL    HW223166   5.741   3.029   1.604
 7423SOL     OW23167   4.764   2.453   6.238
 7423SOL    HW123168   4.772   2.360   6.275
 7423SOL    HW223169   4.800   2.454   6.144
 7424SOL     OW23170   0.693   2.390   3.217
 7424SOL    HW123171   0.702   2.488   3.200
 7424SOL    HW223172   0.710   2.370   3.313
 7425SOL     OW23173   5.517   0.923   0.689
 7425SOL    HW123174   5.601   0.976   0.706
 7425SOL    HW223175   5.466   0.914   0.774
 7426SOL     OW23176   2.594   2.855   5.944
 7426SOL    HW123177   2.690   2.880   5.959
 7426SOL    HW223178   2.589   2.772   5.890
 7427SOL     OW23179   2.858   0.311   3.642
 7427SOL    HW123180   2.920   0.234   3.631
 7427SOL    HW223181   2.890   0.388   3.586
 7428SOL     OW23182   3.316   6.818   5.273
 7428SOL    HW123183   3.386   6.746   5.266
 7428SOL    HW223184   3.361   6.906   5.286
 7429SOL     OW23185   0.845   6.925   2.531
 7429SOL    HW123186   0.912   6.981   2.578
 7429SOL    HW223187   0.890   6.873   2.458
 7430SOL     OW23188   6.441   4.806   2.871
 7430SOL    HW123189   6.371   4.735   2.859
 7430SOL    HW223190   6.531   4.766   2.855
 7431SOL     OW23191   1.109   1.891   3.403
 7431SOL    HW123192   1.041   1.848   3.344
 7431SOL    HW223193   1.176   1.822   3.433
 7432SOL     OW23194   1.836   1.077   2.858
 7432SOL    HW123195   1.933   1.067   2.882
 7432SOL    HW223196   1.804   0.994   2.812
 7433SOL     OW23197   3.145   6.672   6.589
 7433SOL    HW123198   3.122   6.754   6.640
 7433SOL    HW223199   3.154   6.694   6.492
 7434SOL     OW23200   4.418   6.963   3.583
 7434SOL    HW123201   4.330   7.009   3.575
 7434SOL    HW223202   4.406   6.876   3.630
 7435SOL     OW23203   4.846   4.465   3.428
 7435SOL    HW123204   4.765   4.424   3.386
 7435SOL    HW223205   4.922   4.400   3.425
 7436SOL     OW23206   5.671   3.049   5.912
 7436SOL    HW123207   5.672   2.989   5.832
 7436SOL    HW223208   5.765   3.068   5.940
 7437SOL     OW23209   3.158   0.349   1.227
 7437SOL    HW123210   3.078   0.368   1.170
 7437SOL    HW223211   3.129   0.340   1.322
 7438SOL     OW23212   2.422   0.276   6.867
 7438SOL    HW123213   2.379   0.364   6.844
 7438SOL    HW223214   2.510   0.292   6.910
 7439SOL     OW23215   0.943   4.809   6.124
 7439SOL    HW123216   0.923   4.770   6.034
 7439SOL    HW223217   1.002   4.889   6.114
 7440SOL     OW23218   5.773   4.129   4.093
 7440SOL    HW123219   5.856   4.167   4.052
 7440SOL    HW223220   5.795   4.091   4.183
 7441SOL     OW23221   4.911   5.845   1.102
 7441SOL    HW123222   4.899   5.781   1.026
 7441SOL    HW223223   4.831   5.904   1.109
 7442SOL     OW23224   5.141   1.079   6.646
 7442SOL    HW123225   5.061   1.053   6.592
 7442SOL    HW223226   5.220   1.088   6.586
 7443SOL     OW23227   0.447   0.301   1.178
 7443SOL    HW123228   0.495   0.348   1.103
 7443SOL    HW223229   0.376   0.361   1.214
 7444SOL     OW23230   1.781   6.378   0.312
 7444SOL    HW123231   1.710   6.446   0.331
 7444SOL    HW223232   1.804   6.380   0.215
 7445SOL     OW23233   3.979   5.849   2.066
 7445SOL    HW123234   3.989   5.914   1.990
 7445SOL    HW223235   3.929   5.892   2.140
 7446SOL     OW23236   5.563   4.761   6.653
 7446SOL    HW123237   5.597   4.713   6.734
 7446SOL    HW223238   5.596   4.855   6.653
 7447SOL     OW23239   0.593   5.107   0.806
 7447SOL    HW123240   0.561   5.114   0.711
 7447SOL    HW223241   0.673   5.048   0.811
 7448SOL     OW23242   4.675   5.359   6.465
 7448SOL    HW123243   4.756   5.385   6.517
 7448SOL    HW223244   4.702   5.329   6.373
 7449SOL     OW23245   6.355   4.364   5.993
 7449SOL    HW123246   6.454   4.375   5.995
 7449SOL    HW223247   6.332   4.267   5.984
 7450SOL     OW23248   5.932   2.229   6.524
 7450SOL    HW123249   5.907   2.277   6.440
 7450SOL    HW223250   5.991   2.288   6.580
 7451SOL     OW23251   4.646   4.340   3.282
 7451SOL    HW123252   4.616   4.259   3.232
 7451SOL    HW223253   4.568   4.403   3.291
 7452SOL     OW23254   6.426   5.342   5.995
 7452SOL    HW123255   6.365   5.297   6.059
 7452SOL    HW223256   6.377   5.361   5.909
 7453SOL     OW23257   3.980   6.044   6.137
 7453SOL    HW123258   3.980   5.965   6.198
 7453SOL    HW223259   4.074   6.062   6.105
 7454SOL     OW23260   3.474   2.494   1.441
 7454SOL    HW123261   3.485   2.550   1.524
 7454SOL    HW223262   3.564   2.475   1.402
 7455SOL     OW23263   6.683   1.261   3.155
 7455SOL    HW123264   6.620   1.245   3.079
 7455SOL    HW223265   6.777   1.259   3.121
 7456SOL     OW23266   2.935   2.150   6.123
 7456SOL    HW123267   3.008   2.083   6.115
 7456SOL    HW223268   2.889   2.161   6.035
 7457SOL     OW23269   1.246   1.179   2.616
 7457SOL    HW123270   1.247   1.094   2.668
 7457SOL    HW223271   1.340   1.203   2.591
 7458SOL     OW23272   1.649   5.574   5.240
 7458SOL    HW123273   1.626   5.671   5.243
 7458SOL    HW223274   1.748   5.563   5.236
 7459SOL     OW23275   5.665   0.238   3.180
 7459SOL    HW123276   5.627   0.325   3.209
 7459SOL    HW223277   5.638   0.219   3.086
 7460SOL     OW23278   1.398   0.513   1.374
 7460SOL    HW123279   1.495   0.530   1.393
 7460SOL    HW223280   1.343   0.536   1.455
 7461SOL     OW23281   1.686   4.662   4.869
 7461SOL    HW123282   1.741   4.629   4.793
 7461SOL    HW223283   1.602   4.608   4.875
 7462SOL     OW23284   1.753   4.278   0.449
 7462SOL    HW123285   1.683   4.284   0.378
 7462SOL    HW223286   1.839   4.314   0.414
 7463SOL     OW23287   4.753   5.199   1.666
 7463SOL    HW123288   4.699   5.204   1.583
 7463SOL    HW223289   4.795   5.109   1.674
 7464SOL     OW23290   6.344   6.077   5.312
 7464SOL    HW123291   6.324   6.174   5.305
 7464SOL    HW223292   6.272   6.031   5.363
 7465SOL     OW23293   1.274   4.429   6.850
 7465SOL    HW123294   1.239   4.345   6.810
 7465SOL    HW223295   1.236   4.508   6.801
 7466SOL     OW23296   6.939   0.577   5.079
 7466SOL    HW123297   6.873   0.507   5.107
 7466SOL    HW223298   7.015   0.579   5.144
 7467SOL     OW23299   0.770   3.760   4.567
 7467SOL    HW123300   0.701   3.715   4.622
 7467SOL    HW223301   0.858   3.760   4.615
 7468SOL     OW23302   5.641   2.596   5.675
 7468SOL    HW123303   5.633   2.675   5.735
 7468SOL    HW223304   5.577   2.605   5.599
 7469SOL     OW23305   0.458   1.913   0.419
 7469SOL    HW123306   0.506   1.846   0.476
 7469SOL    HW223307   0.431   1.870   0.333
 7470SOL     OW23308   5.259   2.963   3.890
 7470SOL    HW123309   5.190   2.924   3.951
 7470SOL    HW223310   5.333   3.001   3.946
 7471SOL     OW23311   3.711   7.020   6.899
 7471SOL    HW123312   3.795   0.030   6.855
 7471SOL    HW223313   3.711   0.027   6.995
 7472SOL     OW23314   0.148   0.278   5.648
 7472SOL    HW123315   0.170   0.197   5.593
 7472SOL    HW223316   0.209   0.281   5.728
 7473SOL     OW23317   3.907   5.724   3.487
 7473SOL    HW123318   3.994   5.732   3.439
 7473SOL    HW223319   3.833   5.760   3.430
 7474SOL     OW23320   5.988   1.969   0.802
 7474SOL    HW123321   5.893   1.993   0.785
 7474SOL    HW223322   6.022   1.911   0.728
 7475SOL     OW23323   5.069   2.821   0.801
 7475SOL    HW123324   5.143   2.886   0.783
 7475SOL    HW223325   5.094   2.731   0.766
 7476SOL     OW23326   2.816   0.899   2.720
 7476SOL    HW123327   2.786   0.982   2.672
 7476SOL    HW223328   2.915   0.889   2.710
 7477SOL     OW23329   2.505   3.721   6.156
 7477SOL    HW123330   2.546   3.730   6.065
 7477SOL    HW223331   2.511   3.808   6.205
 7478SOL     OW23332   0.003   1.916   5.564
 7478SOL    HW123333   6.976   1.930   5.650
 7478SOL    HW223334   6.958   1.886   5.494
 7479SOL     OW23335   5.018   2.625   1.472
 7479SOL    HW123336   4.932   2.582   1.445
 7479SOL    HW223337   4.999   2.712   1.518
 7480SOL     OW23338   3.904   6.060   2.923
 7480SOL    HW123339   3.855   5.984   2.966
 7480SOL    HW223340   3.888   6.056   2.824
 7481SOL     OW23341   0.184   3.719   6.445
 7481SOL    HW123342   0.142   3.807   6.426
 7481SOL    HW223343   0.135   3.673   6.519
 7482SOL     OW23344   5.753   2.059   4.149
 7482SOL    HW123345   5.731   2.143   4.098
 7482SOL    HW223346   5.702   2.058   4.235
 7483SOL     OW23347   4.428   1.733   6.294
 7483SOL    HW123348   4.368   1.799   6.339
 7483SOL    HW223349   4.373   1.670   6.239
 7484SOL     OW23350   3.092   0.210   3.859
 7484SOL    HW123351   3.000   0.182   3.887
 7484SOL    HW223352   3.158   0.140   3.886
 7485SOL     OW23353   3.742   0.235   6.631
 7485SOL    HW123354   3.757   0.254   6.728
 7485SOL    HW223355   3.824   0.259   6.580
 7486SOL     OW23356   4.390   0.239   0.679
 7486SOL    HW123357   4.405   0.158   0.736
 7486SOL    HW223358   4.361   0.315   0.737
 7487SOL     OW23359   3.247   6.387   3.909
 7487SOL    HW123360   3.174   6.441   3.868
 7487SOL    HW223361   3.325   6.383   3.847
 7488SOL     OW23362   1.219   5.507   4.197
 7488SOL    HW123363   1.207   5.537   4.102
 7488SOL    HW223364   1.313   5.476   4.210
 7489SOL     OW23365   5.766   3.059   6.962
 7489SOL    HW123366   5.797   3.098   0.028
 7489SOL    HW223367   5.671   3.083   6.947
 7490SOL     OW23368   1.485   2.821   2.161
 7490SOL    HW123369   1.495   2.742   2.222
 7490SOL    HW223370   1.542   2.807   2.080
 7491SOL     OW23371   4.272   3.785   0.167
 7491SOL    HW123372   4.203   3.713   0.175
 7491SOL    HW223373   4.228   3.875   0.176
 7492SOL     OW23374   1.485   0.639   4.084
 7492SOL    HW123375   1.501   0.541   4.096
 7492SOL    HW223376   1.484   0.684   4.173
 7493SOL     OW23377   6.230   4.897   4.965
 7493SOL    HW123378   6.178   4.978   4.993
 7493SOL    HW223379   6.280   4.861   5.043
 7494SOL     OW23380   6.370   1.272   2.664
 7494SOL    HW123381   6.290   1.276   2.603
 7494SOL    HW223382   6.345   1.308   2.754
 7495SOL     OW23383   1.819   3.109   5.052
 7495SOL    HW123384   1.842   3.125   4.956
 7495SOL    HW223385   1.750   3.037   5.059
 7496SOL     OW23386   6.299   4.244   2.420
 7496SOL    HW123387   6.200   4.249   2.408
 7496SOL    HW223388   6.323   4.160   2.469
 7497SOL     OW23389   6.241   6.951   1.524
 7497SOL    HW123390   6.320   6.954   1.463
 7497SOL    HW223391   6.251   6.876   1.589
 7498SOL     OW23392   3.132   6.245   3.645
 7498SOL    HW123393   3.176   6.162   3.679
 7498SOL    HW223394   3.101   6.301   3.723
 7499SOL     OW23395   3.268   1.368   3.238
 7499SOL    HW123396   3.184   1.400   3.195
 7499SOL    HW223397   3.253   1.279   3.280
 7500SOL     OW23398   4.285   0.761   3.878
 7500SOL    HW123399   4.241   0.706   3.807
 7500SOL    HW223400   4.214   0.809   3.931
 7501SOL     OW23401   6.687   1.877   4.640
 7501SOL    HW123402   6.646   1.968   4.648
 7501SOL    HW223403   6.774   1.884   4.590
 7502SOL     OW23404   4.341   0.668   4.121
 7502SOL    HW123405   4.322   0.706   4.031
 7502SOL    HW223406   4.269   0.695   4.185
 7503SOL     OW23407   1.762   5.650   1.957
 7503SOL    HW123408   1.828   5.725   1.966
 7503SOL    HW223409   1.675   5.677   1.999
 7504SOL     OW23410   5.577   6.434   4.483
 7504SOL    HW123411   5.481   6.435   4.510
 7504SOL    HW223412   5.629   6.377   4.546
 7505SOL     OW23413   0.457   6.203   5.046
 7505SOL    HW123414   0.551   6.235   5.036
 7505SOL    HW223415   0.452   6.140   5.123
 7506SOL     OW23416   3.143   2.050   3.937
 7506SOL    HW123417   3.058   2.008   3.905
 7506SOL    HW223418   3.188   2.095   3.860
 7507SOL     OW23419   6.595   4.310   6.819
 7507SOL    HW123420   6.530   4.279   6.888
 7507SOL    HW223421   6.595   4.410   6.815
 7508SOL     OW23422   2.757   6.229   0.793
 7508SOL    HW123423   2.822   6.296   0.828
 7508SOL    HW223424   2.751   6.236   0.694
 7509SOL     OW23425   6.010   4.218   2.366
 7509SOL    HW123426   6.051   4.295   2.318
 7509SOL    HW223427   5.940   4.177   2.308
 7510SOL     OW23428   3.635   4.027   2.113
 7510SOL    HW123429   3.733   4.006   2.121
 7510SOL    HW223430   3.597   4.040   2.204
 7511SOL     OW23431   4.301   6.044   4.038
 7511SOL    HW123432   4.286   5.972   4.105
 7511SOL    HW223433   4.224   6.047   3.974
 7512SOL     OW23434   4.004   0.674   0.926
 7512SOL    HW123435   3.999   0.773   0.911
 7512SOL    HW223436   4.049   0.655   1.013
 7513SOL     OW23437   1.239   0.934   2.043
 7513SOL    HW123438   1.302   0.874   1.994
 7513SOL    HW223439   1.252   1.029   2.012
 7514SOL     OW23440   0.042   6.744   1.327
 7514SOL    HW123441   0.065   6.654   1.291
 7514SOL    HW223442   0.003   6.735   1.418
 7515SOL     OW23443   0.232   4.428   5.182
 7515SOL    HW123444   0.193   4.335   5.182
 7515SOL    HW223445   0.331   4.422   5.166
 7516SOL     OW23446   1.690   6.339   5.430
 7516SOL    HW123447   1.671   6.386   5.516
 7516SOL    HW223448   1.654   6.246   5.435
 7517SOL     OW23449   0.856   1.395   6.070
 7517SOL    HW123450   0.819   1.473   6.019
 7517SOL    HW223451   0.820   1.397   6.164
 7518SOL     OW23452   4.036   1.803   4.369
 7518SOL    HW123453   3.980   1.734   4.415
 7518SOL    HW223454   4.109   1.833   4.430
 7519SOL     OW23455   4.021   0.193   4.484
 7519SOL    HW123456   4.021   0.119   4.552
 7519SOL    HW223457   4.091   0.261   4.508
 7520SOL     OW23458   2.147   1.649   0.784
 7520SOL    HW123459   2.233   1.611   0.751
 7520SOL    HW223460   2.080   1.649   0.710
 7521SOL     OW23461   4.127   1.624   4.773
 7521SOL    HW123462   4.112   1.714   4.733
 7521SOL    HW223463   4.084   1.620   4.863
 7522SOL     OW23464   1.901   0.036   3.707
 7522SOL    HW123465   1.889   0.135   3.700
 7522SOL    HW223466   1.979   0.016   3.767
 7523SOL     OW23467   5.910   0.892   0.623
 7523SOL    HW123468   5.859   0.827   0.679
 7523SOL    HW223469   5.924   0.977   0.675
 7524SOL     OW23470   0.614   3.975   4.423
 7524SOL    HW123471   0.548   3.974   4.348
 7524SOL    HW223472   0.617   3.885   4.467
 7525SOL     OW23473   3.149   4.476   6.345
 7525SOL    HW123474   3.081   4.417   6.387
 7525SOL    HW223475   3.189   4.536   6.414
 7526SOL     OW23476   2.380   4.139   0.861
 7526SOL    HW123477   2.405   4.066   0.924
 7526SOL    HW223478   2.436   4.133   0.779
 7527SOL     OW23479   2.912   5.106   2.905
 7527SOL    HW123480   2.981   5.071   2.842
 7527SOL    HW223481   2.957   5.158   2.978
 7528SOL     OW23482   6.414   2.177   5.801
 7528SOL    HW123483   6.391   2.098   5.744
 7528SOL    HW223484   6.335   2.203   5.855
 7529SOL     OW23485   6.164   3.291   3.995
 7529SOL    HW123486   6.109   3.322   4.072
 7529SOL    HW223487   6.172   3.191   3.998
 7530SOL     OW23488   1.147   2.787   3.135
 7530SOL    HW123489   1.162   2.787   3.233
 7530SOL    HW223490   1.063   2.736   3.114
 7531SOL     OW23491   3.835   2.020   3.660
 7531SOL    HW123492   3.856   2.101   3.606
 7531SOL    HW223493   3.736   2.015   3.675
 7532SOL     OW23494   4.598   5.907   6.280
 7532SOL    HW123495   4.673   5.920   6.215
 7532SOL    HW223496   4.534   5.984   6.272
 7533SOL     OW23497   4.210   4.402   1.685
 7533SOL    HW123498   4.273   4.433   1.614
 7533SOL    HW223499   4.259   4.346   1.751
 7534SOL     OW23500   4.719   5.954   5.172
 7534SOL    HW123501   4.735   6.043   5.215
 7534SOL    HW223502   4.653   5.902   5.225
 7535SOL     OW23503   0.433   6.632   3.776
 7535SOL    HW123504   0.521   6.590   3.797
 7535SOL    HW223505   0.379   6.639   3.860
 7536SOL     OW23506   6.263   6.080   3.493
 7536SOL    HW123507   6.330   6.155   3.489
 7536SOL    HW223508   6.178   6.114   3.534
 7537SOL     OW23509   1.750   6.635   2.937
 7537SOL    HW123510   1.714   6.597   2.852
 7537SOL    HW223511   1.784   6.728   2.921
 7538SOL     OW23512   0.408   4.578   0.110
 7538SOL    HW123513   0.471   4.609   0.038
 7538SOL    HW223514   0.384   4.482   0.093
 7539SOL     OW23515   6.840   0.022   4.364
 7539SOL    HW123516   6.755   0.067   4.336
 7539SOL    HW223517   6.883   7.001   4.283
 7540SOL     OW23518   5.292   4.708   3.193
 7540SOL    HW123519   5.234   4.628   3.214
 7540SOL    HW223520   5.282   4.731   3.097
 7541SOL     OW23521   2.797   4.154   5.870
 7541SOL    HW123522   2.758   4.173   5.960
 7541SOL    HW223523   2.769   4.226   5.806
 7542SOL     OW23524   5.991   5.787   4.746
 7542SOL    HW123525   6.000   5.704   4.690
 7542SOL    HW223526   6.081   5.814   4.781
 7543SOL     OW23527   2.447   1.498   0.212
 7543SOL    HW123528   2.424   1.596   0.216
 7543SOL    HW223529   2.544   1.487   0.191
 7544SOL     OW23530   6.463   1.040   4.359
 7544SOL    HW123531   6.517   0.991   4.290
 7544SOL    HW223532   6.518   1.052   4.442
 7545SOL     OW23533   1.903   5.396   5.739
 7545SOL    HW123534   1.862   5.314   5.778
 7545SOL    HW223535   2.003   5.390   5.744
 7546SOL     OW23536   2.385   2.746   1.997
 7546SOL    HW123537   2.321   2.814   1.960
 7546SOL    HW223538   2.470   2.749   1.946
 7547SOL     OW23539   3.955   0.178   1.907
 7547SOL    HW123540   3.932   0.086   1.877
 7547SOL    HW223541   3.916   0.245   1.844
 7548SOL     OW23542   2.863   2.450   6.569
 7548SOL    HW123543   2.899   2.364   6.533
 7548SOL    HW223544   2.778   2.473   6.521
 7549SOL     OW23545   5.242   0.515   4.449
 7549SOL    HW123546   5.201   0.601   4.420
 7549SOL    HW223547   5.341   0.527   4.460
 7550SOL     OW23548   2.596   5.741   4.457
 7550SOL    HW123549   2.577   5.655   4.505
 7550SOL    HW223550   2.517   5.766   4.401
 7551SOL     OW23551   6.246   2.603   6.242
 7551SOL    HW123552   6.155   2.612   6.202
 7551SOL    HW223553   6.312   2.584   6.170
 7552SOL     OW23554   2.372   6.429   4.893
 7552SOL    HW123555   2.451   6.414   4.952
 7552SOL    HW223556   2.372   6.361   4.819
 7553SOL     OW23557   6.514   6.357   5.849
 7553SOL    HW123558   6.432   6.364   5.905
 7553SOL    HW223559   6.564   6.444   5.854
 7554SOL     OW23560   4.821   1.367   0.584
 7554SOL    HW123561   4.753   1.439   0.600
 7554SOL    HW223562   4.776   1.287   0.545
 7555SOL     OW23563   4.588   4.805   4.169
 7555SOL    HW123564   4.510   4.751   4.140
 7555SOL    HW223565   4.649   4.748   4.225
 7556SOL     OW23566   1.173   6.053   1.568
 7556SOL    HW123567   1.245   5.991   1.597
 7556SOL    HW223568   1.087   6.027   1.610
 7557SOL     OW23569   4.537   6.972   1.528
 7557SOL    HW123570   4.586   0.018   1.472
 7557SOL    HW223571   4.533   6.884   1.479
 7558SOL     OW23572   0.569   1.926   3.156
 7558SOL    HW123573   0.498   1.989   3.187
 7558SOL    HW223574   0.566   1.842   3.211
 7559SOL     OW23575   2.831   1.283   4.678
 7559SOL    HW123576   2.782   1.349   4.735
 7559SOL    HW223577   2.887   1.225   4.736
 7560SOL     OW23578   1.164   1.197   5.737
 7560SOL    HW123579   1.248   1.168   5.782
 7560SOL    HW223580   1.135   1.286   5.773
 7561SOL     OW23581   5.255   0.968   5.617
 7561SOL    HW123582   5.232   0.892   5.677
 7561SOL    HW223583   5.178   0.987   5.556
 7562SOL     OW23584   2.180   5.764   3.147
 7562SOL    HW123585   2.190   5.677   3.195
 7562SOL    HW223586   2.266   5.788   3.103
 7563SOL     OW23587   3.636   5.915   2.972
 7563SOL    HW123588   3.620   5.959   3.061
 7563SOL    HW223589   3.576   5.956   2.903
 7564SOL     OW23590   4.179   1.908   5.027
 7564SOL    HW123591   4.220   1.997   5.044
 7564SOL    HW223592   4.088   1.920   4.986
 7565SOL     OW23593   6.626   3.230   5.877
 7565SOL    HW123594   6.529   3.207   5.874
 7565SOL    HW223595   6.664   3.228   5.784
 7566SOL     OW23596   4.900   4.570   1.731
 7566SOL    HW123597   4.826   4.560   1.665
 7566SOL    HW223598   4.984   4.597   1.683
 7567SOL     OW23599   1.200   0.020   4.561
 7567SOL    HW123600   1.253   0.015   4.645
 7567SOL    HW223601   1.161   0.112   4.551
 7568SOL     OW23602   5.974   4.279   1.524
 7568SOL    HW123603   5.898   4.231   1.479
 7568SOL    HW223604   6.060   4.232   1.504
 7569SOL     OW23605   4.968   3.543   0.384
 7569SOL    HW123606   4.884   3.576   0.427
 7569SOL    HW223607   4.959   3.547   0.284
 7570SOL     OW23608   1.019   3.463   1.778
 7570SOL    HW123609   0.966   3.405   1.841
 7570SOL    HW223610   0.993   3.441   1.684
 7571SOL     OW23611   4.416   1.405   2.704
 7571SOL    HW123612   4.399   1.503   2.694
 7571SOL    HW223613   4.331   1.360   2.731
 7572SOL     OW23614   4.940   0.019   4.233
 7572SOL    HW123615   4.926   6.946   4.262
 7572SOL    HW223616   4.856   0.055   4.193
 7573SOL     OW23617   4.255   6.538   5.957
 7573SOL    HW123618   4.258   6.476   6.036
 7573SOL    HW223619   4.248   6.632   5.990
 7574SOL     OW23620   0.530   2.460   4.109
 7574SOL    HW123621   0.600   2.407   4.061
 7574SOL    HW223622   0.507   2.542   4.056
 7575SOL     OW23623   6.937   6.575   1.761
 7575SOL    HW123624   6.934   6.475   1.763
 7575SOL    HW223625   6.873   6.611   1.829
 7576SOL     OW23626   4.794   2.313   6.803
 7576SOL    HW123627   4.792   2.307   6.903
 7576SOL    HW223628   4.792   2.409   6.775
 7577SOL     OW23629   0.902   0.324   0.012
 7577SOL    HW123630   0.822   0.376   7.003
 7577SOL    HW223631   0.925   0.350   0.106
 7578SOL     OW23632   6.471   6.282   3.458
 7578SOL    HW123633   6.415   6.354   3.500
 7578SOL    HW223634   6.453   6.280   3.360
 7579SOL     OW23635   0.841   1.848   6.880
 7579SOL    HW123636   0.889   1.934   6.900
 7579SOL    HW223637   0.790   1.820   6.961
 7580SOL     OW23638   2.633   5.489   3.054
 7580SOL    HW123639   2.731   5.471   3.041
 7580SOL    HW223640   2.580   5.432   2.991
 7581SOL     OW23641   0.047   0.116   1.701
 7581SOL    HW123642   0.109   0.150   1.772
 7581SOL    HW223643   0.068   0.021   1.680
 7582SOL     OW23644   2.505   1.746   6.124
 7582SOL    HW123645   2.467   1.808   6.193
 7582SOL    HW223646   2.603   1.765   6.113
 7583SOL     OW23647   5.740   3.156   2.253
 7583SOL    HW123648   5.699   3.171   2.344
 7583SOL    HW223649   5.838   3.171   2.259
 7584SOL     OW23650   0.769   1.194   3.563
 7584SOL    HW123651   0.675   1.170   3.539
 7584SOL    HW223652   0.811   1.120   3.615
 7585SOL     OW23653   1.118   1.403   5.968
 7585SOL    HW123654   1.103   1.453   5.883
 7585SOL    HW223655   1.029   1.387   6.012
 7586SOL     OW23656   2.009   6.746   4.153
 7586SOL    HW123657   2.030   6.667   4.211
 7586SOL    HW223658   1.970   6.715   4.066
 7587SOL     OW23659   4.854   0.188   1.522
 7587SOL    HW123660   4.949   0.178   1.549
 7587SOL    HW223661   4.820   0.277   1.553
 7588SOL     OW23662   2.390   2.686   4.564
 7588SOL    HW123663   2.439   2.639   4.490
 7588SOL    HW223664   2.424   2.653   4.652
 7589SOL     OW23665   0.058   0.506   2.803
 7589SOL    HW123666   0.111   0.461   2.874
 7589SOL    HW223667   0.036   0.440   2.731
 7590SOL     OW23668   6.448   1.032   0.297
 7590SOL    HW123669   6.530   0.977   0.283
 7590SOL    HW223670   6.392   1.031   0.214
 7591SOL     OW23671   3.124   3.877   4.636
 7591SOL    HW123672   3.220   3.898   4.616
 7591SOL    HW223673   3.072   3.876   4.551
 7592SOL     OW23674   0.045   6.247   3.746
 7592SOL    HW123675   0.067   6.319   3.680
 7592SOL    HW223676   6.991   6.278   3.805
 7593SOL     OW23677   0.083   1.263   5.786
 7593SOL    HW123678   0.018   1.323   5.738
 7593SOL    HW223679   0.119   1.196   5.722
 7594SOL     OW23680   6.865   3.974   6.003
 7594SOL    HW123681   6.787   3.912   6.005
 7594SOL    HW223682   6.943   3.932   6.051
 7595SOL     OW23683   0.615   3.465   6.525
 7595SOL    HW123684   0.572   3.412   6.452
 7595SOL    HW223685   0.708   3.489   6.499
 7596SOL     OW23686   2.877   1.478   0.309
 7596SOL    HW123687   2.905   1.567   0.345
 7596SOL    HW223688   2.861   1.486   0.211
 7597SOL     OW23689   2.366   5.236   1.082
 7597SOL    HW123690   2.336   5.325   1.117
 7597SOL    HW223691   2.290   5.193   1.031
 7598SOL     OW23692   6.020   0.938   2.062
 7598SOL    HW123693   6.063   1.006   2.002
 7598SOL    HW223694   5.924   0.925   2.034
 7599SOL     OW23695   3.139   3.603   0.993
 7599SOL    HW123696   3.083   3.679   0.960
 7599SOL    HW223697   3.123   3.589   1.091
 7600SOL     OW23698   0.903   6.844   4.067
 7600SOL    HW123699   0.864   6.934   4.082
 7600SOL    HW223700   0.858   6.800   3.990
 7601SOL     OW23701   2.644   6.877   1.265
 7601SOL    HW123702   2.613   6.967   1.293
 7601SOL    HW223703   2.569   6.826   1.223
 7602SOL     OW23704   0.891   1.243   0.721
 7602SOL    HW123705   0.944   1.309   0.775
 7602SOL    HW223706   0.927   1.151   0.736
 7603SOL     OW23707   4.235   1.085   6.020
 7603SOL    HW123708   4.178   1.007   5.995
 7603SOL    HW223709   4.176   1.159   6.053
 7604SOL     OW23710   1.635   2.539   4.787
 7604SOL    HW123711   1.658   2.466   4.722
 7604SOL    HW223712   1.618   2.624   4.736
 7605SOL     OW23713   2.726   6.332   6.951
 7605SOL    HW123714   2.825   6.321   6.953
 7605SOL    HW223715   2.682   6.246   6.978
 7606SOL     OW23716   0.014   0.638   3.418
 7606SOL    HW123717   0.002   0.672   3.325
 7606SOL    HW223718   0.109   0.611   3.431
 7607SOL     OW23719   1.942   6.137   5.749
 7607SOL    HW123720   2.022   6.195   5.764
 7607SOL    HW223721   1.936   6.113   5.652
 7608SOL     OW23722   0.148   2.195   6.311
 7608SOL    HW123723   0.144   2.280   6.363
 7608SOL    HW223724   0.234   2.191   6.260
 7609SOL     OW23725   3.186   1.342   4.775
 7609SOL    HW123726   3.142   1.384   4.854
 7609SOL    HW223727   3.151   1.385   4.691
 7610SOL     OW23728   4.135   4.791   4.597
 7610SOL    HW123729   4.199   4.797   4.522
 7610SOL    HW223730   4.101   4.697   4.605
 7611SOL     OW23731   4.524   2.665   0.285
 7611SOL    HW123732   4.545   2.730   0.357
 7611SOL    HW223733   4.605   2.651   0.228
 7612SOL     OW23734   3.989   2.165   3.091
 7612SOL    HW123735   4.065   2.230   3.088
 7612SOL    HW223736   3.931   2.179   3.010
 7613SOL     OW23737   0.866   0.436   0.250
 7613SOL    HW123738   0.835   0.529   0.272
 7613SOL    HW223739   0.814   0.370   0.304
 7614SOL     OW23740   5.625   4.733   0.625
 7614SOL    HW123741   5.556   4.759   0.557
 7614SOL    HW223742   5.716   4.739   0.584
 7615SOL     OW23743   6.322   3.345   5.549
 7615SOL    HW123744   6.264   3.426   5.557
 7615SOL    HW223745   6.392   3.360   5.480
 7616SOL     OW23746   6.814   6.775   2.728
 7616SOL    HW123747   6.908   6.741   2.736
 7616SOL    HW223748   6.759   6.739   2.803
 7617SOL     OW23749   6.767   4.171   2.483
 7617SOL    HW123750   6.710   4.105   2.434
 7617SOL    HW223751   6.743   4.263   2.453
 7618SOL     OW23752   2.688   2.563   0.685
 7618SOL    HW123753   2.691   2.540   0.588
 7618SOL    HW223754   2.614   2.512   0.729
 7619SOL     OW23755   1.329   1.227   4.552
 7619SOL    HW123756   1.261   1.154   4.564
 7619SOL    HW223757   1.414   1.201   4.598
 7620SOL     OW23758   3.192   3.397   0.854
 7620SOL    HW123759   3.285   3.359   0.857
 7620SOL    HW223760   3.190   3.484   0.903
 7621SOL     OW23761   5.940   4.465   6.693
 7621SOL    HW123762   5.847   4.430   6.684
 7621SOL    HW223763   5.986   4.418   6.767
 7622SOL     OW23764   3.204   3.721   1.651
 7622SOL    HW123765   3.204   3.749   1.747
 7622SOL    HW223766   3.191   3.802   1.593
 7623SOL     OW23767   5.459   4.027   1.695
 7623SOL    HW123768   5.463   4.010   1.793
 7623SOL    HW223769   5.497   3.948   1.646
 7624SOL     OW23770   0.708   3.615   2.469
 7624SOL    HW123771   0.649   3.690   2.500
 7624SOL    HW223772   0.710   3.543   2.538
 7625SOL     OW23773   5.409   0.481   2.093
 7625SOL    HW123774   5.323   0.525   2.118
 7625SOL    HW223775   5.468   0.476   2.174
 7626SOL     OW23776   4.257   6.957   0.379
 7626SOL    HW123777   4.289   6.885   0.441
 7626SOL    HW223778   4.324   0.010   0.376
 7627SOL     OW23779   4.354   3.103   5.914
 7627SOL    HW123780   4.411   3.067   5.988
 7627SOL    HW223781   4.355   3.203   5.917
 7628SOL     OW23782   2.588   3.202   0.542
 7628SOL    HW123783   2.655   3.135   0.511
 7628SOL    HW223784   2.542   3.243   0.463
 7629SOL     OW23785   6.422   2.304   3.648
 7629SOL    HW123786   6.400   2.206   3.642
 7629SOL    HW223787   6.491   2.326   3.579
 7630SOL     OW23788   1.327   5.921   3.847
 7630SOL    HW123789   1.244   5.866   3.856
 7630SOL    HW223790   1.405   5.862   3.829
 7631SOL     OW23791   1.199   0.604   5.704
 7631SOL    HW123792   1.149   0.664   5.768
 7631SOL    HW223793   1.161   0.615   5.612
 7632SOL     OW23794   4.776   5.698   1.415
 7632SOL    HW123795   4.818   5.616   1.375
 7632SOL    HW223796   4.847   5.765   1.434
 7633SOL     OW23797   5.986   1.124   1.678
 7633SOL    HW123798   5.946   1.201   1.628
 7633SOL    HW223799   6.048   1.159   1.749
 7634SOL     OW23800   0.281   2.163   6.590
 7634SOL    HW123801   0.259   2.067   6.605
 7634SOL    HW223802   0.208   2.220   6.625
 7635SOL     OW23803   2.132   3.496   5.414
 7635SOL    HW123804   2.211   3.512   5.472
 7635SOL    HW223805   2.157   3.433   5.340
 7636SOL     OW23806   0.058   3.699   4.083
 7636SOL    HW123807   0.026   3.618   4.131
 7636SOL    HW223808   0.060   3.680   3.984
 7637SOL     OW23809   0.497   4.449   5.093
 7637SOL    HW123810   0.549   4.509   5.154
 7637SOL    HW223811   0.505   4.355   5.125
 7638SOL     OW23812   0.319   5.886   1.244
 7638SOL    HW123813   0.242   5.882   1.181
 7638SOL    HW223814   0.300   5.827   1.323
 7639SOL     OW23815   1.682   0.118   0.755
 7639SOL    HW123816   1.699   0.101   0.657
 7639SOL    HW223817   1.744   0.062   0.809
 7640SOL     OW23818   3.241   1.368   1.044
 7640SOL    HW123819   3.246   1.366   1.144
 7640SOL    HW223820   3.286   1.287   1.006
 7641SOL     OW23821   0.360   4.997   5.058
 7641SOL    HW123822   0.382   4.916   5.003
 7641SOL    HW223823   0.296   5.054   5.007
 7642SOL     OW23824   5.206   0.828   3.735
 7642SOL    HW123825   5.125   0.877   3.765
 7642SOL    HW223826   5.237   0.865   3.647
 7643SOL     OW23827   5.374   3.659   4.812
 7643SOL    HW123828   5.305   3.588   4.796
 7643SOL    HW223829   5.465   3.617   4.813
 7644SOL     OW23830   5.254   4.068   0.863
 7644SOL    HW123831   5.275   4.039   0.956
 7644SOL    HW223832   5.183   4.139   0.865
 7645SOL     OW23833   4.414   4.654   0.092
 7645SOL    HW123834   4.366   4.684   0.174
 7645SOL    HW223835   4.349   4.649   0.016
 7646SOL     OW23836   0.108   2.233   0.949
 7646SOL    HW123837   0.164   2.182   1.015
 7646SOL    HW223838   0.164   2.305   0.907
 7647SOL     OW23839   0.084   2.141   3.975
 7647SOL    HW123840   0.014   2.195   4.020
 7647SOL    HW223841   0.160   2.201   3.948
 7648SOL     OW23842   2.196   2.561   1.846
 7648SOL    HW123843   2.254   2.500   1.792
 7648SOL    HW223844   2.247   2.591   1.927
 7649SOL     OW23845   3.967   0.506   0.363
 7649SOL    HW123846   3.964   0.542   0.456
 7649SOL    HW223847   4.061   0.502   0.331
 7650SOL     OW23848   3.648   2.382   0.202
 7650SOL    HW123849   3.615   2.341   0.117
 7650SOL    HW223850   3.707   2.317   0.249
 7651SOL     OW23851   3.639   5.351   6.062
 7651SOL    HW123852   3.565   5.291   6.092
 7651SOL    HW223853   3.677   5.401   6.140
 7652SOL     OW23854   0.933   0.877   4.853
 7652SOL    HW123855   0.923   0.838   4.761
 7652SOL    HW223856   0.994   0.818   4.907
 7653SOL     OW23857   2.065   6.954   0.217
 7653SOL    HW123858   2.053   6.967   0.315
 7653SOL    HW223859   1.989   6.998   0.168
 7654SOL     OW23860   6.688   2.084   5.861
 7654SOL    HW123861   6.732   2.148   5.798
 7654SOL    HW223862   6.606   2.126   5.900
 7655SOL     OW23863   3.601   1.766   5.081
 7655SOL    HW123864   3.601   1.842   5.016
 7655SOL    HW223865   3.651   1.791   5.163
 7656SOL     OW23866   5.723   3.826   6.630
 7656SOL    HW123867   5.780   3.775   6.694
 7656SOL    HW223868   5.703   3.916   6.669
 7657SOL     OW23869   1.095   4.004   4.814
 7657SOL    HW123870   1.055   3.945   4.884
 7657SOL    HW223871   1.081   3.963   4.724
 7658SOL     OW23872   2.557   0.925   0.996
 7658SOL    HW123873   2.578   0.854   1.063
 7658SOL    HW223874   2.632   0.991   0.992
 7659SOL     OW23875   4.975   4.622   5.645
 7659SOL    HW123876   5.009   4.636   5.553
 7659SOL    HW223877   4.968   4.710   5.693
 7660SOL     OW23878   6.634   6.611   5.813
 7660SOL    HW123879   6.658   6.623   5.716
 7660SOL    HW223880   6.676   6.685   5.866
 7661SOL     OW23881   3.267   1.080   5.415
 7661SOL    HW123882   3.199   1.098   5.344
 7661SOL    HW223883   3.237   1.119   5.501
 7662SOL     OW23884   6.826   5.795   1.110
 7662SOL    HW123885   6.817   5.702   1.076
 7662SOL    HW223886   6.768   5.807   1.190
 7663SOL     OW23887   0.695   5.479   4.485
 7663SOL    HW123888   0.716   5.493   4.582
 7663SOL    HW223889   0.773   5.507   4.429
 7664SOL     OW23890   4.517   1.953   2.338
 7664SOL    HW123891   4.540   1.897   2.418
 7664SOL    HW223892   4.503   1.893   2.259
 7665SOL     OW23893   3.373   0.843   5.542
 7665SOL    HW123894   3.305   0.910   5.513
 7665SOL    HW223895   3.464   0.885   5.539
 7666SOL     OW23896   5.343   5.506   3.784
 7666SOL    HW123897   5.361   5.517   3.881
 7666SOL    HW223898   5.265   5.444   3.771
 7667SOL     OW23899   4.048   6.353   2.132
 7667SOL    HW123900   3.969   6.294   2.120
 7667SOL    HW223901   4.054   6.381   2.228
 7668SOL     OW23902   1.403   5.735   0.304
 7668SOL    HW123903   1.395   5.719   0.206
 7668SOL    HW223904   1.495   5.713   0.334
 7669SOL     OW23905   2.636   1.685   6.771
 7669SOL    HW123906   2.598   1.612   6.829
 7669SOL    HW223907   2.704   1.737   6.823
 7670SOL     OW23908   0.963   0.574   0.918
 7670SOL    HW123909   0.931   0.481   0.940
 7670SOL    HW223910   1.000   0.616   1.001
 7671SOL     OW23911   2.899   6.882   1.704
 7671SOL    HW123912   2.970   6.897   1.636
 7671SOL    HW223913   2.919   6.935   1.786
 7672SOL     OW23914   5.579   3.553   2.201
 7672SOL    HW123915   5.480   3.560   2.190
 7672SOL    HW223916   5.600   3.483   2.270
 7673SOL     OW23917   1.894   6.952   4.604
 7673SOL    HW123918   1.853   6.900   4.529
 7673SOL    HW223919   1.944   6.890   4.664
 7674SOL     OW23920   3.818   5.675   4.689
 7674SOL    HW123921   3.856   5.629   4.609
 7674SOL    HW223922   3.832   5.774   4.681
 7675SOL     OW23923   4.491   6.616   3.236
 7675SOL    HW123924   4.526   6.707   3.258
 7675SOL    HW223925   4.457   6.614   3.142
 7676SOL     OW23926   3.182   2.943   5.037
 7676SOL    HW123927   3.131   2.876   5.089
 7676SOL    HW223928   3.271   2.958   5.080
 7677SOL     OW23929   6.891   4.890   6.792
 7677SOL    HW123930   6.925   4.807   6.748
 7677SOL    HW223931   6.901   4.882   6.891
 7678SOL     OW23932   3.709   1.571   5.479
 7678SOL    HW123933   3.735   1.508   5.406
 7678SOL    HW223934   3.739   1.534   5.567
 7679SOL     OW23935   2.904   5.274   4.548
 7679SOL    HW123936   2.859   5.263   4.459
 7679SOL    HW223937   3.001   5.252   4.539
 7680SOL     OW23938   1.962   0.038   4.265
 7680SOL    HW123939   2.028   0.039   4.340
 7680SOL    HW223940   1.957   6.967   4.226
 7681SOL     OW23941   1.965   2.286   5.386
 7681SOL    HW123942   2.016   2.236   5.316
 7681SOL    HW223943   2.012   2.371   5.407
 7682SOL     OW23944   3.279   0.856   2.149
 7682SOL    HW123945   3.210   0.922   2.119
 7682SOL    HW223946   3.240   0.764   2.149
 7683SOL     OW23947   0.680   4.684   4.911
 7683SOL    HW123948   0.748   4.683   4.985
 7683SOL    HW223949   0.695   4.605   4.851
 7684SOL     OW23950   5.251   2.982   1.372
 7684SOL    HW123951   5.299   2.911   1.422
 7684SOL    HW223952   5.167   2.945   1.334
 7685SOL     OW23953   2.873   0.492   0.506
 7685SOL    HW123954   2.876   0.584   0.467
 7685SOL    HW223955   2.938   0.433   0.458
 7686SOL     OW23956   6.904   6.923   4.106
 7686SOL    HW123957   6.878   6.936   4.011
 7686SOL    HW223958   7.004   6.918   4.113
 7687SOL     OW23959   4.829   3.037   6.207
 7687SOL    HW123960   4.911   3.013   6.155
 7687SOL    HW223961   4.748   3.012   6.154
 7688SOL     OW23962   5.753   2.788   7.021
 7688SOL    HW123963   5.768   2.886   7.005
 7688SOL    HW223964   5.840   2.739   7.010
 7689SOL     OW23965   6.053   0.274   2.246
 7689SOL    HW123966   6.129   0.311   2.192
 7689SOL    HW223967   6.028   0.340   2.317
 7690SOL     OW23968   5.506   4.902   2.060
 7690SOL    HW123969   5.507   5.002   2.054
 7690SOL    HW223970   5.555   4.873   2.142
 7691SOL     OW23971   5.134   3.073   4.201
 7691SOL    HW123972   5.186   3.016   4.263
 7691SOL    HW223973   5.055   3.022   4.166
 7692SOL     OW23974   2.787   6.398   2.072
 7692SOL    HW123975   2.687   6.403   2.067
 7692SOL    HW223976   2.827   6.464   2.009
 7693SOL     OW23977   3.019   1.640   1.577
 7693SOL    HW123978   3.086   1.714   1.578
 7693SOL    HW223979   2.949   1.659   1.508
 7694SOL     OW23980   4.006   2.518   6.810
 7694SOL    HW123981   3.994   2.581   6.733
 7694SOL    HW223982   3.959   2.555   6.890
 7695SOL     OW23983   5.088   6.728   3.770
 7695SOL    HW123984   5.136   6.734   3.682
 7695SOL    HW223985   5.132   6.789   3.836
 7696SOL     OW23986   2.371   2.449   5.423
 7696SOL    HW123987   2.412   2.410   5.506
 7696SOL    HW223988   2.442   2.486   5.364
 7697SOL     OW23989   5.985   6.649   3.169
 7697SOL    HW123990   5.931   6.587   3.226
 7697SOL    HW223991   5.924   6.703   3.111
 7698SOL     OW23992   6.415   2.621   1.158
 7698SOL    HW123993   6.398   2.706   1.207
 7698SOL    HW223994   6.410   2.638   1.059
 7699SOL     OW23995   4.279   6.518   5.431
 7699SOL    HW123996   4.215   6.523   5.354
 7699SOL    HW223997   4.233   6.481   5.511
 7700SOL     OW23998   6.049   5.376   1.611
 7700SOL    HW123999   6.128   5.330   1.652
 7700SOL    HW224000   6.076   5.423   1.528
 7701SOL     OW24001   2.064   1.449   6.592
 7701SOL    HW124002   2.068   1.543   6.558
 7701SOL    HW224003   2.081   1.385   6.517
 7702SOL     OW24004   5.432   6.614   5.590
 7702SOL    HW124005   5.366   6.540   5.579
 7702SOL    HW224006   5.440   6.664   5.504
 7703SOL     OW24007   0.101   6.373   5.445
 7703SOL    HW124008   0.069   6.324   5.525
 7703SOL    HW224009   0.201   6.370   5.441
 7704SOL     OW24010   1.693   1.605   4.615
 7704SOL    HW124011   1.618   1.652   4.662
 7704SOL    HW224012   1.777   1.658   4.626
 7705SOL     OW24013   0.306   4.278   0.028
 7705SOL    HW124014   0.354   4.213   6.990
 7705SOL    HW224015   0.234   4.324   6.998
 7706SOL     OW24016   3.246   3.476   2.324
 7706SOL    HW124017   3.147   3.487   2.327
 7706SOL    HW224018   3.268   3.387   2.284
 7707SOL     OW24019   6.958   4.120   6.541
 7707SOL    HW124020   7.006   4.061   6.606
 7707SOL    HW224021   6.936   4.207   6.585
 7708SOL     OW24022   1.089   6.939   4.343
 7708SOL    HW124023   1.155   6.875   4.303
 7708SOL    HW224024   1.122   6.968   4.433
 7709SOL     OW24025   6.439   4.466   0.828
 7709SOL    HW124026   6.434   4.565   0.825
 7709SOL    HW224027   6.364   4.431   0.884
 7710SOL     OW24028   6.545   3.179   2.115
 7710SOL    HW124029   6.520   3.271   2.085
 7710SOL    HW224030   6.573   3.125   2.036
 7711SOL     OW24031   1.065   4.500   3.987
 7711SOL    HW124032   1.131   4.495   3.912
 7711SOL    HW224033   1.039   4.407   4.015
 7712SOL     OW24034   0.642   5.037   4.803
 7712SOL    HW124035   0.618   5.051   4.899
 7712SOL    HW224036   0.559   5.034   4.747
 7713SOL     OW24037   0.726   4.679   0.847
 7713SOL    HW124038   0.809   4.624   0.856
 7713SOL    HW224039   0.749   4.776   0.852
 7714SOL     OW24040   6.045   1.577   5.226
 7714SOL    HW124041   6.070   1.562   5.322
 7714SOL    HW224042   6.078   1.666   5.197
 7715SOL     OW24043   3.460   2.760   6.477
 7715SOL    HW124044   3.430   2.731   6.386
 7715SOL    HW224045   3.418   2.701   6.546
 7716SOL     OW24046   1.210   6.971   6.512
 7716SOL    HW124047   1.159   6.927   6.587
 7716SOL    HW224048   1.171   6.942   6.424
 7717SOL     OW24049   0.598   1.901   6.182
 7717SOL    HW124050   0.554   1.822   6.224
 7717SOL    HW224051   0.573   1.906   6.086
 7718SOL     OW24052   0.285   3.188   2.600
 7718SOL    HW124053   0.191   3.222   2.603
 7718SOL    HW224054   0.314   3.162   2.692
 7719SOL     OW24055   1.947   5.660   5.279
 7719SOL    HW124056   2.018   5.604   5.236
 7719SOL    HW224057   1.956   5.755   5.250
 7720SOL     OW24058   4.639   1.430   6.779
 7720SOL    HW124059   4.610   1.466   6.691
 7720SOL    HW224060   4.705   1.493   6.821
 7721SOL     OW24061   5.640   5.621   2.406
 7721SOL    HW124062   5.656   5.710   2.450
 7721SOL    HW224063   5.701   5.611   2.328
 7722SOL     OW24064   0.852   5.887   3.890
 7722SOL    HW124065   0.872   5.789   3.890
 7722SOL    HW224066   0.933   5.938   3.861
 7723SOL     OW24067   4.512   4.141   7.006
 7723SOL    HW124068   4.505   4.063   0.048
 7723SOL    HW224069   4.599   4.137   6.958
 7724SOL     OW24070   1.443   3.664   0.126
 7724SOL    HW124071   1.502   3.584   0.133
 7724SOL    HW224072   1.437   3.693   0.030
 7725SOL     OW24073   5.590   3.487   4.387
 7725SOL    HW124074   5.572   3.450   4.296
 7725SOL    HW224075   5.687   3.478   4.409
 7726SOL     OW24076   1.997   3.353   6.701
 7726SOL    HW124077   2.086   3.332   6.742
 7726SOL    HW224078   1.949   3.418   6.758
 7727SOL     OW24079   5.255   0.568   2.424
 7727SOL    HW124080   5.235   0.646   2.483
 7727SOL    HW224081   5.265   0.486   2.480
 7728SOL     OW24082   2.150   3.508   4.424
 7728SOL    HW124083   2.164   3.476   4.518
 7728SOL    HW224084   2.167   3.607   4.421
 7729SOL     OW24085   0.027   0.863   2.598
 7729SOL    HW124086   7.013   0.824   2.683
 7729SOL    HW224087   0.031   0.792   2.528
 7730SOL     OW24088   5.700   4.802   5.430
 7730SOL    HW124089   5.779   4.827   5.486
 7730SOL    HW224090   5.668   4.711   5.457
 7731SOL     OW24091   6.976   0.098   5.881
 7731SOL    HW124092   0.033   0.044   5.911
 7731SOL    HW224093   6.983   0.191   5.917
 7732SOL     OW24094   4.663   0.968   0.111
 7732SOL    HW124095   4.624   1.037   0.050
 7732SOL    HW224096   4.644   0.877   0.074
 7733SOL     OW24097   6.824   5.477   1.077
 7733SOL    HW124098   6.827   5.519   1.168
 7733SOL    HW224099   6.756   5.404   1.077
 7734SOL     OW24100   4.084   3.727   3.308
 7734SOL    HW124101   4.111   3.638   3.345
 7734SOL    HW224102   4.046   3.784   3.381
 7735SOL     OW24103   0.865   5.951   0.944
 7735SOL    HW124104   0.890   5.908   0.857
 7735SOL    HW224105   0.779   6.000   0.934
 7736SOL     OW24106   1.910   1.924   0.363
 7736SOL    HW124107   1.988   1.868   0.338
 7736SOL    HW224108   1.906   2.004   0.303
 7737SOL     OW24109   4.476   4.356   6.838
 7737SOL    HW124110   4.453   4.302   6.918
 7737SOL    HW224111   4.503   4.296   6.763
 7738SOL     OW24112   1.347   0.786   5.322
 7738SOL    HW124113   1.435   0.826   5.296
 7738SOL    HW224114   1.326   0.811   5.416
 7739SOL     OW24115   1.472   2.433   0.701
 7739SOL    HW124116   1.554   2.421   0.757
 7739SOL    HW224117   1.450   2.530   0.695
 7740SOL     OW24118   2.676   1.028   4.710
 7740SOL    HW124119   2.706   1.113   4.668
 7740SOL    HW224120   2.735   1.007   4.788
 7741SOL     OW24121   0.062   4.340   6.034
 7741SOL    HW124122   0.152   4.310   6.065
 7741SOL    HW224123   0.002   4.352   6.113
 7742SOL     OW24124   4.320   2.251   4.157
 7742SOL    HW124125   4.232   2.256   4.203
 7742SOL    HW224126   4.382   2.320   4.194
 7743SOL     OW24127   3.768   1.142   5.987
 7743SOL    HW124128   3.753   1.227   6.037
 7743SOL    HW224129   3.682   1.111   5.947
 7744SOL     OW24130   0.619   0.010   4.444
 7744SOL    HW124131   0.572   7.010   4.358
 7744SOL    HW224132   0.707   6.984   4.446
 7745SOL     OW24133   2.748   0.036   0.874
 7745SOL    HW124134   2.649   0.046   0.879
 7745SOL    HW224135   2.774   7.020   0.785
 7746SOL     OW24136   0.446   6.516   1.192
 7746SOL    HW124137   0.371   6.494   1.254
 7746SOL    HW224138   0.494   6.432   1.167
 7747SOL     OW24139   0.278   5.274   1.170
 7747SOL    HW124140   0.188   5.255   1.130
 7747SOL    HW224141   0.341   5.302   1.098
 7748SOL     OW24142   4.207   0.869   6.298
 7748SOL    HW124143   4.180   0.779   6.264
 7748SOL    HW224144   4.231   0.928   6.221
 7749SOL     OW24145   3.760   2.989   2.894
 7749SOL    HW124146   3.791   2.948   2.980
 7749SOL    HW224147   3.815   3.071   2.875
 7750SOL     OW24148   5.059   4.929   6.038
 7750SOL    HW124149   5.144   4.923   6.089
 7750SOL    HW224150   5.077   4.912   5.941
 7751SOL     OW24151   6.676   0.982   4.581
 7751SOL    HW124152   6.614   1.011   4.654
 7751SOL    HW224153   6.747   0.923   4.619
 7752SOL     OW24154   6.423   4.792   5.198
 7752SOL    HW124155   6.385   4.701   5.182
 7752SOL    HW224156   6.441   4.804   5.296
 7753SOL     OW24157   2.835   0.848   5.104
 7753SOL    HW124158   2.860   0.809   5.016
 7753SOL    HW224159   2.764   0.792   5.147
 7754SOL     OW24160   5.844   0.579   1.176
 7754SOL    HW124161   5.839   0.584   1.276
 7754SOL    HW224162   5.894   0.497   1.149
 7755SOL     OW24163   1.377   5.951   5.545
 7755SOL    HW124164   1.418   5.933   5.455
 7755SOL    HW224165   1.450   5.965   5.612
 7756SOL     OW24166   4.155   5.726   3.378
 7756SOL    HW124167   4.232   5.773   3.420
 7756SOL    HW224168   4.181   5.695   3.286
 7757SOL     OW24169   3.512   0.398   5.982
 7757SOL    HW124170   3.447   0.390   6.057
 7757SOL    HW224171   3.570   0.478   5.996
 7758SOL     OW24172   2.664   2.743   6.303
 7758SOL    HW124173   2.593   2.788   6.249
 7758SOL    HW224174   2.730   2.811   6.334
 7759SOL     OW24175   1.632   0.428   4.944
 7759SOL    HW124176   1.590   0.428   4.853
 7759SOL    HW224177   1.560   0.420   5.013
 7760SOL     OW24178   5.154   2.464   3.501
 7760SOL    HW124179   5.074   2.403   3.508
 7760SOL    HW224180   5.233   2.419   3.543
 7761SOL     OW24181   4.737   1.037   6.745
 7761SOL    HW124182   4.734   0.950   6.794
 7761SOL    HW224183   4.719   1.112   6.809
 7762SOL     OW24184   1.576   2.789   0.097
 7762SOL    HW124185   1.603   2.775   0.002
 7762SOL    HW224186   1.592   2.885   0.122
 7763SOL     OW24187   2.178   2.323   1.667
 7763SOL    HW124188   2.182   2.335   1.567
 7763SOL    HW224189   2.193   2.226   1.689
 7764SOL     OW24190   3.764   3.410   2.259
 7764SOL    HW124191   3.700   3.333   2.255
 7764SOL    HW224192   3.716   3.494   2.232
 7765SOL     OW24193   6.920   1.624   2.217
 7765SOL    HW124194   6.924   1.678   2.133
 7765SOL    HW224195   6.875   1.536   2.198
 7766SOL     OW24196   7.012   3.390   6.815
 7766SOL    HW124197   6.945   3.432   6.876
 7766SOL    HW224198   0.068   3.452   6.801
 7767SOL     OW24199   5.678   4.036   5.465
 7767SOL    HW124200   5.739   3.957   5.456
 7767SOL    HW224201   5.586   4.004   5.490
 7768SOL     OW24202   4.105   5.572   1.855
 7768SOL    HW124203   4.017   5.530   1.878
 7768SOL    HW224204   4.100   5.670   1.872
 7769SOL     OW24205   5.977   1.987   3.080
 7769SOL    HW124206   5.917   1.985   3.160
 7769SOL    HW224207   6.063   1.940   3.101
 7770SOL     OW24208   3.391   6.465   1.294
 7770SOL    HW124209   3.427   6.391   1.351
 7770SOL    HW224210   3.393   6.437   1.198
 7771SOL     OW24211   1.956   1.337   4.453
 7771SOL    HW124212   1.987   1.398   4.527
 7771SOL    HW224213   1.994   1.370   4.366
 7772SOL     OW24214   5.790   0.831   5.413
 7772SOL    HW124215   5.710   0.783   5.449
 7772SOL    HW224216   5.846   0.767   5.360
 7773SOL     OW24217   3.930   4.736   6.321
 7773SOL    HW124218   3.959   4.648   6.358
 7773SOL    HW224219   3.955   4.741   6.224
 7774SOL     OW24220   4.821   1.823   0.024
 7774SOL    HW124221   4.886   1.832   0.099
 7774SOL    HW224222   4.768   1.908   0.017
 7775SOL     OW24223   1.744   6.755   2.031
 7775SOL    HW124224   1.655   6.787   2.064
 7775SOL    HW224225   1.809   6.753   2.107
 7776SOL     OW24226   3.500   3.580   0.954
 7776SOL    HW124227   3.459   3.490   0.936
 7776SOL    HW224228   3.468   3.613   1.043
 7777SOL     OW24229   1.079   0.261   6.614
 7777SOL    HW124230   1.108   0.271   6.709
 7777SOL    HW224231   1.158   0.265   6.554
 7778SOL     OW24232   4.999   1.632   1.617
 7778SOL    HW124233   4.948   1.548   1.631
 7778SOL    HW224234   4.953   1.708   1.663
 7779SOL     OW24235   4.276   2.746   0.616
 7779SOL    HW124236   4.258   2.800   0.698
 7779SOL    HW224237   4.340   2.796   0.557
 7780SOL     OW24238   0.820   0.351   5.169
 7780SOL    HW124239   0.748   0.358   5.100
 7780SOL    HW224240   0.866   0.440   5.178
 7781SOL     OW24241   1.731   4.749   5.506
 7781SOL    HW124242   1.655   4.814   5.502
 7781SOL    HW224243   1.769   4.748   5.599
 7782SOL     OW24244   4.685   4.650   0.138
 7782SOL    HW124245   4.588   4.656   0.115
 7782SOL    HW224246   4.732   4.733   0.107
 7783SOL     OW24247   2.226   6.155   0.329
 7783SOL    HW124248   2.324   6.161   0.347
 7783SOL    HW224249   2.211   6.136   0.232
 7784SOL     OW24250   6.756   3.543   0.635
 7784SOL    HW124251   6.820   3.577   0.703
 7784SOL    HW224252   6.709   3.620   0.592
 7785SOL     OW24253   1.675   5.397   6.179
 7785SOL    HW124254   1.632   5.425   6.093
 7785SOL    HW224255   1.607   5.399   6.253
 7786SOL     OW24256   3.662   4.194   4.808
 7786SOL    HW124257   3.691   4.212   4.902
 7786SOL    HW224258   3.715   4.119   4.770
 7787SOL     OW24259   2.935   2.513   5.308
 7787SOL    HW124260   3.029   2.500   5.275
 7787SOL    HW224261   2.875   2.446   5.263
 7788SOL     OW24262   0.719   2.021   0.676
 7788SOL    HW124263   0.685   2.051   0.765
 7788SOL    HW224264   0.674   2.072   0.603
 7789SOL     OW24265   2.397   0.319   1.501
 7789SOL    HW124266   2.317   0.351   1.451
 7789SOL    HW224267   2.384   0.338   1.599
 7790SOL     OW24268   6.493   3.727   2.819
 7790SOL    HW124269   6.496   3.826   2.805
 7790SOL    HW224270   6.563   3.701   2.885
 7791SOL     OW24271   0.269   4.822   5.551
 7791SOL    HW124272   0.225   4.776   5.474
 7791SOL    HW224273   0.304   4.911   5.521
 7792SOL     OW24274   1.854   5.216   6.661
 7792SOL    HW124275   1.904   5.270   6.593
 7792SOL    HW224276   1.776   5.269   6.694
 7793SOL     OW24277   1.729   1.171   6.479
 7793SOL    HW124278   1.660   1.115   6.434
 7793SOL    HW224279   1.769   1.235   6.414
 7794SOL     OW24280   5.293   5.452   2.755
 7794SOL    HW124281   5.300   5.415   2.848
 7794SOL    HW224282   5.385   5.473   2.722
 7795SOL     OW24283   1.151   4.226   6.227
 7795SOL    HW124284   1.113   4.226   6.320
 7795SOL    HW224285   1.250   4.242   6.231
 7796SOL     OW24286   3.974   3.956   4.826
 7796SOL    HW124287   4.025   4.040   4.842
 7796SOL    HW224288   4.009   3.884   4.886
 7797SOL     OW24289   0.852   6.864   3.114
 7797SOL    HW124290   0.919   6.859   3.189
 7797SOL    HW224291   0.869   6.790   3.049
 7798SOL     OW24292   4.165   6.216   5.909
 7798SOL    HW124293   4.167   6.308   5.871
 7798SOL    HW224294   4.100   6.160   5.856
 7799SOL     OW24295   6.349   5.144   0.990
 7799SOL    HW124296   6.404   5.061   1.000
 7799SOL    HW224297   6.257   5.127   1.024
 7800SOL     OW24298   0.458   5.947   2.266
 7800SOL    HW124299   0.361   5.938   2.242
 7800SOL    HW224300   0.470   5.924   2.363
 7801SOL     OW24301   4.055   2.160   5.245
 7801SOL    HW124302   3.977   2.110   5.207
 7801SOL    HW224303   4.128   2.096   5.268
 7802SOL     OW24304   5.374   2.208   0.265
 7802SOL    HW124305   5.296   2.176   0.211
 7802SOL    HW224306   5.388   2.147   0.342
 7803SOL     OW24307   3.101   3.892   5.303
 7803SOL    HW124308   3.165   3.829   5.260
 7803SOL    HW224309   3.047   3.939   5.233
 7804SOL     OW24310   4.918   1.076   6.491
 7804SOL    HW124311   4.896   1.171   6.512
 7804SOL    HW224312   4.915   1.063   6.391
 7805SOL     OW24313   5.204   2.906   1.884
 7805SOL    HW124314   5.149   2.889   1.966
 7805SOL    HW224315   5.148   2.889   1.803
 7806SOL     OW24316   4.723   3.265   6.654
 7806SOL    HW124317   4.626   3.275   6.634
 7806SOL    HW224318   4.770   3.227   6.574
 7807SOL     OW24319   0.481   2.959   6.935
 7807SOL    HW124320   0.446   2.874   6.897
 7807SOL    HW224321   0.441   2.975   0.004
 7808SOL     OW24322   0.510   0.807   4.959
 7808SOL    HW124323   0.588   0.760   5.002
 7808SOL    HW224324   0.475   0.876   5.021
 7809SOL     OW24325   1.271   5.404   5.707
 7809SOL    HW124326   1.171   5.395   5.716
 7809SOL    HW224327   1.296   5.402   5.611
 7810SOL     OW24328   2.496   1.164   6.823
 7810SOL    HW124329   2.547   1.170   6.909
 7810SOL    HW224330   2.398   1.172   6.841
 7811SOL     OW24331   0.423   4.770   4.923
 7811SOL    HW124332   0.371   4.721   4.992
 7811SOL    HW224333   0.520   4.746   4.931
 7812SOL     OW24334   0.442   2.067   3.451
 7812SOL    HW124335   0.377   1.991   3.445
 7812SOL    HW224336   0.434   2.124   3.370
 7813SOL     OW24337   6.334   2.379   1.259
 7813SOL    HW124338   6.306   2.388   1.354
 7813SOL    HW224339   6.382   2.462   1.230
 7814SOL     OW24340   1.949   3.685   4.211
 7814SOL    HW124341   2.001   3.765   4.179
 7814SOL    HW224342   1.998   3.602   4.186
 7815SOL     OW24343   0.153   1.668   5.572
 7815SOL    HW124344   0.101   1.754   5.568
 7815SOL    HW224345   0.157   1.636   5.667
 7816SOL     OW24346   1.304   4.659   5.120
 7816SOL    HW124347   1.302   4.596   5.198
 7816SOL    HW224348   1.352   4.743   5.145
 7817SOL     OW24349   5.798   3.386   5.562
 7817SOL    HW124350   5.715   3.350   5.520
 7817SOL    HW224351   5.833   3.322   5.630
 7818SOL     OW24352   4.974   4.161   2.858
 7818SOL    HW124353   4.965   4.114   2.770
 7818SOL    HW224354   4.947   4.099   2.931
 7819SOL     OW24355   0.642   1.213   0.873
 7819SOL    HW124356   0.564   1.260   0.831
 7819SOL    HW224357   0.725   1.235   0.823
 7820SOL     OW24358   2.909   0.078   6.602
 7820SOL    HW124359   2.903   0.002   6.538
 7820SOL    HW224360   2.856   0.057   6.684
 7821SOL     OW24361   3.104   5.111   1.009
 7821SOL    HW124362   3.120   5.022   0.968
 7821SOL    HW224363   3.011   5.142   0.986
 7822SOL     OW24364   2.056   6.758   5.662
 7822SOL    HW124365   2.127   6.709   5.713
 7822SOL    HW224366   2.098   6.828   5.605
 7823SOL     OW24367   1.912   4.057   4.922
 7823SOL    HW124368   1.967   4.131   4.961
 7823SOL    HW224369   1.951   3.969   4.949
 7824SOL     OW24370   0.612   3.438   5.228
 7824SOL    HW124371   0.708   3.427   5.251
 7824SOL    HW224372   0.557   3.374   5.281
 7825SOL     OW24373   3.394   0.981   6.802
 7825SOL    HW124374   3.376   0.928   6.885
 7825SOL    HW224375   3.373   0.926   6.722
 7826SOL     OW24376   0.444   3.276   5.376
 7826SOL    HW124377   0.462   3.201   5.312
 7826SOL    HW224378   0.348   3.303   5.369
 7827SOL     OW24379   5.950   5.239   4.326
 7827SOL    HW124380   5.948   5.195   4.416
 7827SOL    HW224381   6.043   5.272   4.308
 7828SOL     OW24382   0.686   5.038   6.691
 7828SOL    HW124383   0.718   5.034   6.785
 7828SOL    HW224384   0.615   5.108   6.682
 7829SOL     OW24385   4.011   4.825   0.812
 7829SOL    HW124386   4.001   4.726   0.826
 7829SOL    HW224387   4.049   4.866   0.895
 7830SOL     OW24388   2.205   5.616   3.556
 7830SOL    HW124389   2.212   5.537   3.617
 7830SOL    HW224390   2.212   5.586   3.461
 7831SOL     OW24391   1.576   0.200   5.892
 7831SOL    HW124392   1.500   0.138   5.911
 7831SOL    HW224393   1.629   0.214   5.976
 7832SOL     OW24394   6.524   0.882   5.354
 7832SOL    HW124395   6.515   0.869   5.453
 7832SOL    HW224396   6.444   0.843   5.308
 7833SOL     OW24397   0.887   0.647   2.829
 7833SOL    HW124398   0.920   0.700   2.907
 7833SOL    HW224399   0.798   0.684   2.800
 7834SOL     OW24400   6.641   3.105   4.740
 7834SOL    HW124401   6.739   3.121   4.747
 7834SOL    HW224402   6.604   3.156   4.662
 7835SOL     OW24403   4.160   2.273   5.808
 7835SOL    HW124404   4.225   2.259   5.734
 7835SOL    HW224405   4.074   2.227   5.786
 7836SOL     OW24406   3.301   4.089   4.965
 7836SOL    HW124407   3.275   4.181   4.992
 7836SOL    HW224408   3.220   4.031   4.959
 7837SOL     OW24409   1.171   5.525   6.867
 7837SOL    HW124410   1.131   5.449   6.816
 7837SOL    HW224411   1.098   5.580   6.907
 7838SOL     OW24412   4.342   5.277   1.986
 7838SOL    HW124413   4.319   5.319   2.074
 7838SOL    HW224414   4.373   5.348   1.923
 7839SOL     OW24415   6.239   3.947   4.412
 7839SOL    HW124416   6.271   3.932   4.506
 7839SOL    HW224417   6.290   4.023   4.371
 7840SOL     OW24418   2.407   2.671   3.676
 7840SOL    HW124419   2.350   2.602   3.719
 7840SOL    HW224420   2.366   2.762   3.688
 7841SOL     OW24421   4.017   1.905   5.954
 7841SOL    HW124422   3.996   1.876   6.047
 7841SOL    HW224423   4.112   1.884   5.932
 7842SOL     OW24424   0.910   0.732   1.196
 7842SOL    HW124425   0.965   0.807   1.159
 7842SOL    HW224426   0.823   0.727   1.146
 7843SOL     OW24427   6.752   6.597   2.265
 7843SOL    HW124428   6.771   6.668   2.333
 7843SOL    HW224429   6.788   6.510   2.297
 7844SOL     OW24430   3.862   0.238   2.752
 7844SOL    HW124431   3.851   0.248   2.851
 7844SOL    HW224432   3.792   0.176   2.717
 7845SOL     OW24433   6.105   3.109   1.227
 7845SOL    HW124434   6.068   3.144   1.313
 7845SOL    HW224435   6.036   3.114   1.155
 7846SOL     OW24436   1.047   1.008   0.788
 7846SOL    HW124437   1.074   1.024   0.883
 7846SOL    HW224438   1.118   1.044   0.727
 7847SOL     OW24439   5.406   4.453   6.004
 7847SOL    HW124440   5.488   4.464   5.949
 7847SOL    HW224441   5.385   4.355   6.014
 7848SOL     OW24442   4.170   4.463   0.332
 7848SOL    HW124443   4.083   4.479   0.378
 7848SOL    HW224444   4.236   4.425   0.397
 7849SOL     OW24445   4.044   5.305   0.017
 7849SOL    HW124446   3.991   5.250   0.082
 7849SOL    HW224447   4.031   5.402   0.038
 7850SOL     OW24448   0.342   0.287   3.627
 7850SOL    HW124449   0.299   0.197   3.623
 7850SOL    HW224450   0.385   0.300   3.716
 7851SOL     OW24451   6.865   5.058   0.850
 7851SOL    HW124452   6.900   5.011   0.931
 7851SOL    HW224453   6.817   4.993   0.792
 7852SOL     OW24454   1.132   3.238   5.754
 7852SOL    HW124455   1.103   3.222   5.660
 7852SOL    HW224456   1.204   3.307   5.755
 7853SOL     OW24457   4.057   2.946   1.613
 7853SOL    HW124458   4.041   2.888   1.532
 7853SOL    HW224459   4.015   3.035   1.599
 7854SOL     OW24460   4.429   1.123   1.055
 7854SOL    HW124461   4.520   1.087   1.073
 7854SOL    HW224462   4.429   1.174   0.969
 7855SOL     OW24463   5.556   6.548   3.820
 7855SOL    HW124464   5.556   6.645   3.847
 7855SOL    HW224465   5.484   6.499   3.870
 7856SOL     OW24466   2.148   6.352   5.488
 7856SOL    HW124467   2.202   6.281   5.533
 7856SOL    HW224468   2.208   6.426   5.458
 7857SOL     OW24469   6.394   4.736   0.785
 7857SOL    HW124470   6.425   4.811   0.727
 7857SOL    HW224471   6.307   4.700   0.749
 7858SOL     OW24472   0.153   3.681   5.922
 7858SOL    HW124473   0.180   3.585   5.932
 7858SOL    HW224474   0.079   3.688   5.855
 7859SOL     OW24475   4.946   1.923   1.040
 7859SOL    HW124476   4.964   1.825   1.045
 7859SOL    HW224477   4.887   1.950   1.117
 7860SOL     OW24478   2.475   1.377   3.752
 7860SOL    HW124479   2.389   1.348   3.711
 7860SOL    HW224480   2.460   1.460   3.806
 7861SOL     OW24481   1.724   6.024   0.924
 7861SOL    HW124482   1.782   6.099   0.892
 7861SOL    HW224483   1.732   6.015   1.023
 7862SOL     OW24484   1.357   6.813   0.176
 7862SOL    HW124485   1.412   6.872   0.116
 7862SOL    HW224486   1.303   6.870   0.237
 7863SOL     OW24487   1.315   4.437   4.186
 7863SOL    HW124488   1.263   4.359   4.222
 7863SOL    HW224489   1.254   4.516   4.178
 7864SOL     OW24490   2.735   5.815   5.087
 7864SOL    HW124491   2.672   5.882   5.049
 7864SOL    HW224492   2.733   5.732   5.031
 7865SOL     OW24493   5.736   4.544   3.431
 7865SOL    HW124494   5.637   4.537   3.428
 7865SOL    HW224495   5.768   4.523   3.524
 7866SOL     OW24496   0.928   0.757   5.699
 7866SOL    HW124497   0.925   0.701   5.781
 7866SOL    HW224498   0.947   0.852   5.724
 7867SOL     OW24499   4.091   4.832   4.009
 7867SOL    HW124500   4.006   4.847   3.958
 7867SOL    HW224501   4.069   4.808   4.103
 7868SOL     OW24502   3.459   6.479   1.692
 7868SOL    HW124503   3.541   6.488   1.635
 7868SOL    HW224504   3.387   6.539   1.656
 7869SOL     OW24505   5.890   4.513   6.977
 7869SOL    HW124506   5.854   4.449   0.024
 7869SOL    HW224507   5.886   4.606   7.013
 7870SOL     OW24508   6.309   6.422   3.606
 7870SOL    HW124509   6.315   6.472   3.692
 7870SOL    HW224510   6.229   6.453   3.554
 7871SOL     OW24511   4.547   1.382   0.359
 7871SOL    HW124512   4.588   1.316   0.421
 7871SOL    HW224513   4.454   1.353   0.335
 7872SOL     OW24514   0.263   5.280   3.105
 7872SOL    HW124515   0.347   5.230   3.081
 7872SOL    HW224516   0.230   5.330   3.025
 7873SOL     OW24517   4.572   2.170   6.876
 7873SOL    HW124518   4.491   2.227   6.882
 7873SOL    HW224519   4.636   2.209   6.810
 7874SOL     OW24520   6.050   2.350   0.482
 7874SOL    HW124521   5.962   2.362   0.436
 7874SOL    HW224522   6.124   2.374   0.420
 7875SOL     OW24523   6.526   4.610   6.448
 7875SOL    HW124524   6.614   4.655   6.462
 7875SOL    HW224525   6.538   4.527   6.394
 7876SOL     OW24526   1.083   6.465   3.144
 7876SOL    HW124527   1.094   6.456   3.045
 7876SOL    HW224528   1.087   6.561   3.170
 7877SOL     OW24529   0.037   2.910   2.682
 7877SOL    HW124530   6.977   2.962   2.709
 7877SOL    HW224531   0.073   2.946   2.596
 7878SOL     OW24532   3.867   6.826   2.381
 7878SOL    HW124533   3.767   6.817   2.384
 7878SOL    HW224534   3.897   6.890   2.451
 7879SOL     OW24535   3.234   5.933   2.938
 7879SOL    HW124536   3.153   5.971   2.895
 7879SOL    HW224537   3.247   5.839   2.907
 7880SOL     OW24538   1.250   4.645   2.058
 7880SOL    HW124539   1.224   4.588   2.136
 7880SOL    HW224540   1.174   4.653   1.995
 7881SOL     OW24541   5.011   3.423   3.826
 7881SOL    HW124542   5.064   3.470   3.755
 7881SOL    HW224543   5.073   3.368   3.882
 7882SOL     OW24544   0.133   3.088   6.803
 7882SOL    HW124545   0.100   3.179   6.827
 7882SOL    HW224546   0.222   3.072   6.847
 7883SOL     OW24547   0.598   0.135   4.689
 7883SOL    HW124548   0.515   0.179   4.725
 7883SOL    HW224549   0.574   0.079   4.610
 7884SOL     OW24550   1.038   2.989   4.298
 7884SOL    HW124551   1.048   3.089   4.297
 7884SOL    HW224552   1.119   2.948   4.338
 7885SOL     OW24553   0.275   5.687   6.831
 7885SOL    HW124554   0.264   5.654   6.737
 7885SOL    HW224555   0.348   5.755   6.834
 7886SOL     OW24556   4.854   3.743   0.889
 7886SOL    HW124557   4.917   3.765   0.814
 7886SOL    HW224558   4.768   3.793   0.876
 7887SOL     OW24559   4.666   2.893   5.775
 7887SOL    HW124560   4.634   2.819   5.835
 7887SOL    HW224561   4.744   2.938   5.817
 7888SOL     OW24562   4.580   5.880   4.851
 7888SOL    HW124563   4.588   5.936   4.769
 7888SOL    HW224564   4.484   5.859   4.868
 7889SOL     OW24565   6.561   5.061   3.043
 7889SOL    HW124566   6.554   4.962   3.037
 7889SOL    HW224567   6.608   5.087   3.128
 7890SOL     OW24568   1.783   3.313   2.527
 7890SOL    HW124569   1.870   3.267   2.546
 7890SOL    HW224570   1.722   3.248   2.480
 7891SOL     OW24571   0.776   4.504   3.137
 7891SOL    HW124572   0.710   4.429   3.130
 7891SOL    HW224573   0.861   4.478   3.091
 7892SOL     OW24574   2.140   1.896   4.671
 7892SOL    HW124575   2.230   1.937   4.680
 7892SOL    HW224576   2.078   1.960   4.625
 7893SOL     OW24577   5.868   6.441   1.031
 7893SOL    HW124578   5.929   6.500   1.084
 7893SOL    HW224579   5.804   6.395   1.093
 7894SOL     OW24580   2.940   0.259   1.893
 7894SOL    HW124581   2.856   0.248   1.945
 7894SOL    HW224582   2.975   0.352   1.903
 7895SOL     OW24583   0.497   1.174   3.513
 7895SOL    HW124584   0.434   1.225   3.572
 7895SOL    HW224585   0.462   1.081   3.501
 7896SOL     OW24586   3.952   1.574   6.307
 7896SOL    HW124587   3.947   1.474   6.298
 7896SOL    HW224588   3.891   1.604   6.380
 7897SOL     OW24589   2.991   3.050   6.695
 7897SOL    HW124590   2.924   2.983   6.725
 7897SOL    HW224591   3.057   3.007   6.634
 7898SOL     OW24592   4.953   1.259   4.180
 7898SOL    HW124593   4.979   1.332   4.243
 7898SOL    HW224594   4.940   1.174   4.232
 7899SOL     OW24595   4.336   1.116   2.150
 7899SOL    HW124596   4.250   1.162   2.129
 7899SOL    HW224597   4.360   1.132   2.246
 7900SOL     OW24598   1.130   5.594   1.343
 7900SOL    HW124599   1.074   5.542   1.278
 7900SOL    HW224600   1.126   5.691   1.321
 7901SOL     OW24601   6.046   5.351   1.041
 7901SOL    HW124602   6.140   5.384   1.031
 7901SOL    HW224603   5.991   5.384   0.964
 7902SOL     OW24604   4.746   4.321   5.663
 7902SOL    HW124605   4.838   4.343   5.695
 7902SOL    HW224606   4.744   4.322   5.563
 7903SOL     OW24607   6.927   3.287   0.809
 7903SOL    HW124608   6.920   3.248   0.901
 7903SOL    HW224609   6.954   3.216   0.744
 7904SOL     OW24610   6.111   2.397   2.562
 7904SOL    HW124611   6.082   2.433   2.473
 7904SOL    HW224612   6.068   2.307   2.576
 7905SOL     OW24613   1.808   1.934   1.824
 7905SOL    HW124614   1.829   2.029   1.845
 7905SOL    HW224615   1.892   1.884   1.804
 7906SOL     OW24616   0.508   4.201   6.874
 7906SOL    HW124617   0.606   4.183   6.870
 7906SOL    HW224618   0.490   4.294   6.842
 7907SOL     OW24619   0.060   2.701   2.863
 7907SOL    HW124620   0.082   2.614   2.817
 7907SOL    HW224621   0.052   2.773   2.794
 7908SOL     OW24622   6.842   1.908   2.845
 7908SOL    HW124623   6.858   1.933   2.749
 7908SOL    HW224624   6.769   1.839   2.849
 7909SOL     OW24625   4.097   6.541   4.813
 7909SOL    HW124626   4.028   6.488   4.763
 7909SOL    HW224627   4.164   6.478   4.853
 7910SOL     OW24628   6.707   2.797   5.853
 7910SOL    HW124629   6.723   2.728   5.924
 7910SOL    HW224630   6.609   2.806   5.837
 7911SOL     OW24631   0.064   5.331   6.807
 7911SOL    HW124632   0.116   5.331   6.723
 7911SOL    HW224633   0.019   5.420   6.818
 7912SOL     OW24634   0.314   5.156   5.439
 7912SOL    HW124635   0.410   5.132   5.426
 7912SOL    HW224636   0.282   5.211   5.362
 7913SOL     OW24637   1.577   6.044   6.265
 7913SOL    HW124638   1.510   6.092   6.322
 7913SOL    HW224639   1.567   5.946   6.278
 7914SOL     OW24640   6.187   4.185   1.101
 7914SOL    HW124641   6.160   4.178   1.005
 7914SOL    HW224642   6.262   4.121   1.120
 7915SOL     OW24643   3.102   1.004   2.357
 7915SOL    HW124644   3.170   0.963   2.296
 7915SOL    HW224645   3.012   0.965   2.337
 7916SOL     OW24646   4.312   3.823   5.638
 7916SOL    HW124647   4.224   3.846   5.678
 7916SOL    HW224648   4.304   3.822   5.538
 7917SOL     OW24649   3.846   3.573   3.782
 7917SOL    HW124650   3.851   3.523   3.696
 7917SOL    HW224651   3.935   3.614   3.802
 7918SOL     OW24652   5.962   2.253   2.981
 7918SOL    HW124653   5.946   2.157   3.003
 7918SOL    HW224654   5.905   2.311   3.039
 7919SOL     OW24655   5.451   4.054   1.982
 7919SOL    HW124656   5.414   4.000   2.058
 7919SOL    HW224657   5.435   4.151   1.998
 7920SOL     OW24658   0.109   6.807   1.859
 7920SOL    HW124659   0.164   6.812   1.776
 7920SOL    HW224660   0.040   6.735   1.849
 7921SOL     OW24661   2.400   5.918   2.009
 7921SOL    HW124662   2.461   5.955   1.938
 7921SOL    HW224663   2.375   5.991   2.072
 7922SOL     OW24664   0.895   5.129   5.720
 7922SOL    HW124665   0.976   5.086   5.762
 7922SOL    HW224666   0.914   5.148   5.624
 7923SOL     OW24667   0.764   1.891   2.738
 7923SOL    HW124668   0.761   1.845   2.649
 7923SOL    HW224669   0.742   1.826   2.810
 7924SOL     OW24670   2.068   0.734   3.259
 7924SOL    HW124671   2.107   0.660   3.205
 7924SOL    HW224672   2.089   0.822   3.215
 7925SOL     OW24673   0.388   1.161   6.976
 7925SOL    HW124674   0.445   1.080   6.966
 7925SOL    HW224675   0.362   1.196   6.886
 7926SOL     OW24676   3.287   7.011   1.967
 7926SOL    HW124677   3.288   6.953   1.885
 7926SOL    HW224678   3.292   6.954   2.049
 7927SOL     OW24679   4.418   4.765   4.522
 7927SOL    HW124680   4.417   4.700   4.446
 7927SOL    HW224681   4.499   4.824   4.514
 7928SOL     OW24682   0.731   4.280   6.623
 7928SOL    HW124683   0.697   4.359   6.573
 7928SOL    HW224684   0.773   4.215   6.559
 7929SOL     OW24685   3.802   3.945   4.637
 7929SOL    HW124686   3.816   3.858   4.590
 7929SOL    HW224687   3.873   3.958   4.706
 7930SOL     OW24688   4.776   6.752   3.146
 7930SOL    HW124689   4.756   6.802   3.231
 7930SOL    HW224690   4.868   6.774   3.115
 7931SOL     OW24691   3.167   3.650   6.355
 7931SOL    HW124692   3.106   3.571   6.343
 7931SOL    HW224693   3.222   3.662   6.272
 7932SOL     OW24694   3.191   0.494   0.634
 7932SOL    HW124695   3.226   0.587   0.621
 7932SOL    HW224696   3.205   0.441   0.551
 7933SOL     OW24697   1.706   1.078   6.090
 7933SOL    HW124698   1.719   1.002   6.153
 7933SOL    HW224699   1.770   1.071   6.014
 7934SOL     OW24700   3.717   2.127   5.650
 7934SOL    HW124701   3.706   2.166   5.559
 7934SOL    HW224702   3.813   2.130   5.676
 7935SOL     OW24703   4.428   5.691   2.130
 7935SOL    HW124704   4.410   5.663   2.036
 7935SOL    HW224705   4.500   5.761   2.131
 7936SOL     OW24706   4.333   6.276   2.379
 7936SOL    HW124707   4.405   6.207   2.384
 7936SOL    HW224708   4.372   6.367   2.394
 7937SOL     OW24709   5.991   1.128   5.904
 7937SOL    HW124710   5.943   1.073   5.972
 7937SOL    HW224711   5.952   1.111   5.814
 7938SOL     OW24712   6.277   4.816   4.441
 7938SOL    HW124713   6.284   4.732   4.495
 7938SOL    HW224714   6.331   4.888   4.483
 7939SOL     OW24715   0.302   6.744   4.051
 7939SOL    HW124716   0.254   6.831   4.068
 7939SOL    HW224717   0.289   6.684   4.130
 7940SOL     OW24718   1.213   5.696   0.518
 7940SOL    HW124719   1.184   5.607   0.484
 7940SOL    HW224720   1.283   5.734   0.457
 7941SOL     OW24721   0.624   0.592   1.241
 7941SOL    HW124722   0.612   0.684   1.279
 7941SOL    HW224723   0.541   0.539   1.256
 7942SOL     OW24724   1.424   0.850   1.850
 7942SOL    HW124725   1.491   0.891   1.788
 7942SOL    HW224726   1.451   0.756   1.870
 7943SOL     OW24727   6.388   2.092   0.394
 7943SOL    HW124728   6.485   2.099   0.419
 7943SOL    HW224729   6.332   2.091   0.477
 7944SOL     OW24730   0.072   3.771   1.891
 7944SOL    HW124731   0.160   3.765   1.938
 7944SOL    HW224732   0.002   3.725   1.945
 7945SOL     OW24733   5.815   0.248   0.667
 7945SOL    HW124734   5.864   0.328   0.702
 7945SOL    HW224735   5.728   0.277   0.627
 7946SOL     OW24736   2.023   1.527   5.774
 7946SOL    HW124737   2.027   1.609   5.717
 7946SOL    HW224738   1.929   1.511   5.805
 7947SOL     OW24739   4.463   5.677   6.180
 7947SOL    HW124740   4.546   5.630   6.149
 7947SOL    HW224741   4.483   5.733   6.260
 7948SOL     OW24742   0.660   5.150   6.201
 7948SOL    HW124743   0.682   5.210   6.278
 7948SOL    HW224744   0.580   5.186   6.153
 7949SOL     OW24745   6.948   3.862   3.623
 7949SOL    HW124746   6.870   3.804   3.601
 7949SOL    HW224747   6.930   3.956   3.594
 7950SOL     OW24748   3.699   4.886   4.118
 7950SOL    HW124749   3.783   4.834   4.134
 7950SOL    HW224750   3.722   4.978   4.086
 7951SOL     OW24751   2.192   3.641   0.577
 7951SOL    HW124752   2.228   3.548   0.584
 7951SOL    HW224753   2.238   3.699   0.643
 7952SOL     OW24754   5.793   4.887   0.801
 7952SOL    HW124755   5.724   4.844   0.742
 7952SOL    HW224756   5.773   4.865   0.896
 7953SOL     OW24757   1.726   3.447   2.754
 7953SOL    HW124758   1.735   3.382   2.679
 7953SOL    HW224759   1.630   3.458   2.778
 7954SOL     OW24760   4.852   5.017   4.344
 7954SOL    HW124761   4.784   4.956   4.384
 7954SOL    HW224762   4.930   4.964   4.312
 7955SOL     OW24763   2.417   6.259   6.031
 7955SOL    HW124764   2.337   6.212   6.068
 7955SOL    HW224765   2.475   6.194   5.982
 7956SOL     OW24766   6.341   6.422   2.771
 7956SOL    HW124767   6.288   6.379   2.698
 7956SOL    HW224768   6.422   6.366   2.791
 7957SOL     OW24769   1.001   2.046   1.058
 7957SOL    HW124770   0.926   2.113   1.066
 7957SOL    HW224771   1.055   2.066   0.976
 7958SOL     OW24772   2.327   6.007   3.422
 7958SOL    HW124773   2.414   6.009   3.373
 7958SOL    HW224774   2.330   6.072   3.497
 7959SOL     OW24775   5.045   5.355   1.842
 7959SOL    HW124776   4.951   5.388   1.850
 7959SOL    HW224777   5.109   5.429   1.864
 7960SOL     OW24778   1.427   2.453   1.290
 7960SOL    HW124779   1.467   2.373   1.334
 7960SOL    HW224780   1.342   2.428   1.245
 7961SOL     OW24781   0.842   6.141   0.328
 7961SOL    HW124782   0.864   6.121   0.233
 7961SOL    HW224783   0.926   6.155   0.380
 7962SOL     OW24784   1.927   6.444   2.474
 7962SOL    HW124785   1.892   6.529   2.514
 7962SOL    HW224786   1.868   6.416   2.398
 7963SOL     OW24787   0.659   6.463   4.988
 7963SOL    HW124788   0.687   6.460   4.892
 7963SOL    HW224789   0.732   6.426   5.045
 7964SOL     OW24790   6.174   5.621   3.691
 7964SOL    HW124791   6.122   5.702   3.718
 7964SOL    HW224792   6.144   5.543   3.747
 7965SOL     OW24793   4.304   1.794   0.518
 7965SOL    HW124794   4.343   1.883   0.541
 7965SOL    HW224795   4.373   1.739   0.471
 7966SOL     OW24796   0.073   0.227   3.364
 7966SOL    HW124797   0.055   0.130   3.349
 7966SOL    HW224798   0.149   0.238   3.429
 7967SOL     OW24799   3.131   0.371   3.403
 7967SOL    HW124800   3.164   0.426   3.480
 7967SOL    HW224801   3.200   0.370   3.331
 7968SOL     OW24802   2.505   0.942   1.400
 7968SOL    HW124803   2.487   0.905   1.309
 7968SOL    HW224804   2.557   1.027   1.392
 7969SOL     OW24805   3.538   1.399   3.319
 7969SOL    HW124806   3.439   1.391   3.305
 7969SOL    HW224807   3.561   1.493   3.342
 7970SOL     OW24808   6.851   5.094   4.011
 7970SOL    HW124809   6.766   5.075   3.960
 7970SOL    HW224810   6.919   5.131   3.948
 7971SOL     OW24811   3.260   1.719   2.344
 7971SOL    HW124812   3.199   1.784   2.391
 7971SOL    HW224813   3.222   1.697   2.254
 7972SOL     OW24814   6.178   5.164   1.325
 7972SOL    HW124815   6.207   5.149   1.420
 7972SOL    HW224816   6.144   5.257   1.315
 7973SOL     OW24817   4.799   2.066   3.357
 7973SOL    HW124818   4.817   1.980   3.309
 7973SOL    HW224819   4.700   2.080   3.365
 7974SOL     OW24820   5.767   6.321   4.176
 7974SOL    HW124821   5.761   6.407   4.228
 7974SOL    HW224822   5.766   6.342   4.078
 7975SOL     OW24823   1.822   1.324   2.372
 7975SOL    HW124824   1.880   1.398   2.406
 7975SOL    HW224825   1.832   1.244   2.431
 7976SOL     OW24826   1.206   6.586   6.058
 7976SOL    HW124827   1.267   6.601   6.137
 7976SOL    HW224828   1.217   6.492   6.025
 7977SOL     OW24829   5.303   6.384   1.209
 7977SOL    HW124830   5.375   6.330   1.164
 7977SOL    HW224831   5.238   6.415   1.140
 7978SOL     OW24832   3.478   1.992   5.622
 7978SOL    HW124833   3.570   2.029   5.638
 7978SOL    HW224834   3.470   1.963   5.526
 7979SOL     OW24835   4.955   6.336   4.022
 7979SOL    HW124836   4.868   6.385   4.010
 7979SOL    HW224837   4.936   6.238   4.032
 7980SOL     OW24838   2.854   0.548   2.698
 7980SOL    HW124839   2.871   0.588   2.789
 7980SOL    HW224840   2.911   0.467   2.687
 7981SOL     OW24841   0.818   6.065   2.263
 7981SOL    HW124842   0.798   6.122   2.342
 7981SOL    HW224843   0.772   5.977   2.273
 7982SOL     OW24844   6.939   2.459   0.668
 7982SOL    HW124845   0.005   2.505   0.687
 7982SOL    HW224846   6.920   2.464   0.570
 7983SOL     OW24847   5.099   2.566   2.042
 7983SOL    HW124848   5.191   2.556   2.004
 7983SOL    HW224849   5.066   2.476   2.072
 7984SOL     OW24850   0.014   0.324   0.347
 7984SOL    HW124851   0.090   0.388   0.337
 7984SOL    HW224852   6.960   0.351   0.285
 7985SOL     OW24853   1.223   1.147   0.606
 7985SOL    HW124854   1.281   1.228   0.601
 7985SOL    HW224855   1.280   1.065   0.611
 7986SOL     OW24856   4.905   3.241   0.202
 7986SOL    HW124857   4.920   3.208   0.295
 7986SOL    HW224858   4.857   3.329   0.205
 7987SOL     OW24859   0.999   2.799   4.923
 7987SOL    HW124860   1.019   2.783   4.826
 7987SOL    HW224861   1.065   2.749   4.979
 7988SOL     OW24862   2.782   1.447   5.415
 7988SOL    HW124863   2.687   1.445   5.448
 7988SOL    HW224864   2.823   1.536   5.435
 7989SOL     OW24865   3.723   3.456   6.297
 7989SOL    HW124866   3.788   3.515   6.345
 7989SOL    HW224867   3.631   3.494   6.306
 7990SOL     OW24868   2.385   2.738   4.893
 7990SOL    HW124869   2.427   2.800   4.960
 7990SOL    HW224870   2.320   2.789   4.837
 7991SOL     OW24871   2.074   2.466   5.741
 7991SOL    HW124872   2.064   2.553   5.692
 7991SOL    HW224873   1.989   2.444   5.788
 7992SOL     OW24874   3.010   1.680   1.138
 7992SOL    HW124875   2.918   1.664   1.102
 7992SOL    HW224876   3.078   1.646   1.073
 7993SOL     OW24877   2.746   6.326   6.310
 7993SOL    HW124878   2.812   6.251   6.315
 7993SOL    HW224879   2.656   6.293   6.338
 7994SOL     OW24880   5.641   0.796   4.593
 7994SOL    HW124881   5.588   0.718   4.626
 7994SOL    HW224882   5.658   0.786   4.495
 7995SOL     OW24883   4.084   5.418   3.155
 7995SOL    HW124884   4.071   5.319   3.156
 7995SOL    HW224885   4.165   5.443   3.208
 7996SOL     OW24886   4.345   1.325   4.977
 7996SOL    HW124887   4.355   1.378   4.893
 7996SOL    HW224888   4.404   1.245   4.974
 7997SOL     OW24889   5.138   2.320   1.570
 7997SOL    HW124890   5.080   2.400   1.553
 7997SOL    HW224891   5.096   2.263   1.640
 7998SOL     OW24892   6.403   4.824   6.321
 7998SOL    HW124893   6.440   4.731   6.327
 7998SOL    HW224894   6.315   4.828   6.368
 7999SOL     OW24895   2.222   1.353   5.386
 7999SOL    HW124896   2.297   1.399   5.433
 7999SOL    HW224897   2.152   1.327   5.452
 8000SOL     OW24898   5.017   0.611   5.738
 8000SOL    HW124899   4.977   0.519   5.733
 8000SOL    HW224900   5.066   0.631   5.653
 8001SOL     OW24901   2.553   5.683   1.088
 8001SOL    HW124902   2.524   5.770   1.050
 8001SOL    HW224903   2.613   5.636   1.022
 8002SOL     OW24904   5.352   2.341   5.571
 8002SOL    HW124905   5.411   2.265   5.541
 8002SOL    HW224906   5.257   2.311   5.570
 8003SOL     OW24907   3.946   5.679   3.753
 8003SOL    HW124908   3.937   5.691   3.654
 8003SOL    HW224909   3.879   5.738   3.799
 8004SOL     OW24910   1.120   4.327   3.022
 8004SOL    HW124911   1.155   4.363   3.108
 8004SOL    HW224912   1.057   4.252   3.040
 8005SOL     OW24913   1.983   0.657   2.632
 8005SOL    HW124914   1.929   0.679   2.551
 8005SOL    HW224915   2.059   0.722   2.640
 8006SOL     OW24916   3.661   6.186   1.954
 8006SOL    HW124917   3.587   6.130   1.992
 8006SOL    HW224918   3.626   6.277   1.934
 8007SOL     OW24919   0.401   1.079   3.965
 8007SOL    HW124920   0.438   1.166   3.996
 8007SOL    HW224921   0.314   1.061   4.012
 8008SOL     OW24922   5.786   5.161   0.844
 8008SOL    HW124923   5.778   5.070   0.804
 8008SOL    HW224924   5.781   5.155   0.943
 8009SOL     OW24925   6.895   0.016   3.593
 8009SOL    HW124926   6.904   0.114   3.612
 8009SOL    HW224927   6.950   6.985   3.658
 8010SOL     OW24928   2.055   2.625   6.672
 8010SOL    HW124929   1.963   2.638   6.636
 8010SOL    HW224930   2.122   2.660   6.607
 8011SOL     OW24931   2.064   3.005   0.349
 8011SOL    HW124932   2.060   3.093   0.301
 8011SOL    HW224933   2.106   2.936   0.289
 8012SOL     OW24934   2.673   6.992   3.245
 8012SOL    HW124935   2.733   0.024   3.304
 8012SOL    HW224936   2.597   0.029   3.213
 8013SOL     OW24937   5.998   5.526   4.608
 8013SOL    HW124938   6.010   5.545   4.511
 8013SOL    HW224939   5.924   5.461   4.621
 8014SOL     OW24940   2.298   6.635   6.552
 8014SOL    HW124941   2.222   6.570   6.559
 8014SOL    HW224942   2.318   6.672   6.642
 8015SOL     OW24943   1.483   2.214   6.107
 8015SOL    HW124944   1.490   2.290   6.043
 8015SOL    HW224945   1.574   2.174   6.120
 8016SOL     OW24946   4.557   5.939   2.042
 8016SOL    HW124947   4.464   5.970   2.022
 8016SOL    HW224948   4.602   6.005   2.102
 8017SOL     OW24949   6.618   3.737   5.727
 8017SOL    HW124950   6.545   3.797   5.759
 8017SOL    HW224951   6.655   3.686   5.805
 8018SOL     OW24952   5.727   2.810   4.153
 8018SOL    HW124953   5.821   2.794   4.183
 8018SOL    HW224954   5.707   2.752   4.074
 8019SOL     OW24955   2.682   5.266   1.267
 8019SOL    HW124956   2.630   5.235   1.347
 8019SOL    HW224957   2.623   5.263   1.186
 8020SOL     OW24958   5.564   6.461   6.600
 8020SOL    HW124959   5.507   6.527   6.650
 8020SOL    HW224960   5.619   6.510   6.532
 8021SOL     OW24961   6.672   0.946   0.571
 8021SOL    HW124962   6.736   0.932   0.647
 8021SOL    HW224963   6.701   1.025   0.517
 8022SOL     OW24964   4.385   4.927   3.537
 8022SOL    HW124965   4.300   4.959   3.578
 8022SOL    HW224966   4.385   4.828   3.532
 8023SOL     OW24967   6.878   6.040   3.088
 8023SOL    HW124968   6.847   6.080   3.174
 8023SOL    HW224969   6.930   5.956   3.107
 8024SOL     OW24970   4.698   5.662   5.160
 8024SOL    HW124971   4.760   5.740   5.148
 8024SOL    HW224972   4.620   5.689   5.215
 8025SOL     OW24973   3.091   5.996   0.801
 8025SOL    HW124974   3.145   6.065   0.849
 8025SOL    HW224975   3.067   5.922   0.865
 8026SOL     OW24976   2.540   3.025   6.569
 8026SOL    HW124977   2.575   2.932   6.580
 8026SOL    HW224978   2.452   3.021   6.522
 8027SOL     OW24979   4.595   3.317   5.669
 8027SOL    HW124980   4.615   3.345   5.575
 8027SOL    HW224981   4.523   3.375   5.707
 8028SOL     OW24982   5.197   5.381   0.507
 8028SOL    HW124983   5.155   5.296   0.540
 8028SOL    HW224984   5.294   5.383   0.532
 8029SOL     OW24985   2.794   4.384   7.014
 8029SOL    HW124986   2.792   4.483   0.005
 8029SOL    HW224987   2.889   4.353   7.010
 8030SOL     OW24988   6.338   3.338   0.661
 8030SOL    HW124989   6.324   3.361   0.757
 8030SOL    HW224990   6.340   3.239   0.650
 8031SOL     OW24991   3.777   6.467   1.276
 8031SOL    HW124992   3.858   6.409   1.268
 8031SOL    HW224993   3.786   6.546   1.215
 8032SOL     OW24994   4.747   4.537   5.925
 8032SOL    HW124995   4.662   4.588   5.937
 8032SOL    HW224996   4.754   4.504   5.831
 8033SOL     OW24997   6.103   1.851   1.513
 8033SOL    HW124998   6.045   1.905   1.452
 8033SOL    HW224999   6.161   1.790   1.459
 8034SOL     OW25000   6.325   1.743   5.423
 8034SOL    HW125001   6.417   1.704   5.421
 8034SOL    HW225002   6.258   1.669   5.430
 8035SOL     OW25003   5.476   5.828   6.426
 8035SOL    HW125004   5.505   5.879   6.506
 8035SOL    HW225005   5.376   5.825   6.423
 8036SOL     OW25006   1.050   4.397   1.474
 8036SOL    HW125007   1.098   4.326   1.525
 8036SOL    HW225008   1.076   4.393   1.377
 8037SOL     OW25009   2.126   3.286   1.801
 8037SOL    HW125010   2.187   3.356   1.838
 8037SOL    HW225011   2.153   3.266   1.707
 8038SOL     OW25012   5.557   1.455   4.345
 8038SOL    HW125013   5.545   1.553   4.327
 8038SOL    HW225014   5.467   1.414   4.362
 8039SOL     OW25015   2.465   6.052   4.142
 8039SOL    HW125016   2.549   5.998   4.132
 8039SOL    HW225017   2.487   6.141   4.182
 8040SOL     OW25018   5.784   5.900   0.269
 8040SOL    HW125019   5.722   5.897   0.190
 8040SOL    HW225020   5.769   5.820   0.326
 8041SOL     OW25021   3.446   1.937   1.203
 8041SOL    HW125022   3.416   1.977   1.116
 8041SOL    HW225023   3.365   1.916   1.259
 8042SOL     OW25024   2.333   4.958   0.468
 8042SOL    HW125025   2.409   4.912   0.423
 8042SOL    HW225026   2.246   4.919   0.434
 8043SOL     OW25027   2.948   0.672   1.123
 8043SOL    HW125028   2.940   0.691   1.025
 8043SOL    HW225029   3.015   0.734   1.164
 8044SOL     OW25030   3.114   3.488   1.964
 8044SOL    HW125031   3.047   3.504   2.036
 8044SOL    HW225032   3.095   3.549   1.887
 8045SOL     OW25033   6.323   2.706   3.731
 8045SOL    HW125034   6.422   2.716   3.719
 8045SOL    HW225035   6.304   2.634   3.798
 8046SOL     OW25036   0.069   5.465   5.112
 8046SOL    HW125037   0.103   5.518   5.189
 8046SOL    HW225038   7.016   5.516   5.067
 8047SOL     OW25039   2.858   6.939   4.733
 8047SOL    HW125040   2.879   6.850   4.694
 8047SOL    HW225041   2.934   7.002   4.718
 8048SOL     OW25042   6.163   0.914   5.931
 8048SOL    HW125043   6.166   0.895   6.029
 8048SOL    HW225044   6.083   0.970   5.911
 8049SOL     OW25045   1.203   7.009   0.643
 8049SOL    HW125046   1.251   6.949   0.707
 8049SOL    HW225047   1.108   7.019   0.672
 8050SOL     OW25048   0.073   2.985   1.389
 8050SOL    HW125049   0.120   3.045   1.453
 8050SOL    HW225050   7.007   2.955   1.429
 8051SOL     OW25051   2.818   1.654   3.519
 8051SOL    HW125052   2.792   1.571   3.568
 8051SOL    HW225053   2.885   1.632   3.449
 8052SOL     OW25054   3.491   1.958   3.019
 8052SOL    HW125055   3.395   1.952   2.990
 8052SOL    HW225056   3.547   1.984   2.940
 8053SOL     OW25057   4.281   3.500   1.737
 8053SOL    HW125058   4.198   3.506   1.793
 8053SOL    HW225059   4.308   3.404   1.729
 8054SOL     OW25060   4.700   6.415   3.991
 8054SOL    HW125061   4.711   6.489   3.924
 8054SOL    HW225062   4.607   6.380   3.987
 8055SOL     OW25063   0.523   0.075   5.473
 8055SOL    HW125064   0.584   0.072   5.552
 8055SOL    HW225065   0.531   7.011   5.421
 8056SOL     OW25066   4.367   1.198   2.395
 8056SOL    HW125067   4.409   1.285   2.422
 8056SOL    HW225068   4.287   1.181   2.453
 8057SOL     OW25069   3.071   0.154   3.590
 8057SOL    HW125070   3.077   0.226   3.521
 8057SOL    HW225071   3.123   0.181   3.671
 8058SOL     OW25072   2.121   6.798   3.534
 8058SOL    HW125073   2.218   6.810   3.554
 8058SOL    HW225074   2.096   6.854   3.455
 8059SOL     OW25075   2.793   0.929   3.462
 8059SOL    HW125076   2.816   0.860   3.394
 8059SOL    HW225077   2.869   0.939   3.526
 8060SOL     OW25078   0.756   2.747   4.990
 8060SOL    HW125079   0.854   2.754   4.970
 8060SOL    HW225080   0.730   2.651   4.995
 8061SOL     OW25081   6.515   6.343   2.359
 8061SOL    HW125082   6.466   6.425   2.388
 8061SOL    HW225083   6.457   6.263   2.374
 8062SOL     OW25084   1.612   3.476   2.079
 8062SOL    HW125085   1.688   3.448   2.137
 8062SOL    HW225086   1.641   3.551   2.020
 8063SOL     OW25087   2.151   2.922   5.953
 8063SOL    HW125088   2.246   2.953   5.957
 8063SOL    HW225089   2.144   2.842   5.892
 8064SOL     OW25090   6.768   2.469   6.395
 8064SOL    HW125091   6.807   2.541   6.337
 8064SOL    HW225092   6.674   2.453   6.368
 8065SOL     OW25093   4.657   6.990   6.412
 8065SOL    HW125094   4.617   0.045   6.360
 8065SOL    HW225095   4.593   6.959   6.482
 8066SOL     OW25096   1.806   6.850   1.780
 8066SOL    HW125097   1.776   6.818   1.870
 8066SOL    HW225098   1.886   6.798   1.751
 8067SOL     OW25099   4.634   2.571   2.303
 8067SOL    HW125100   4.687   2.503   2.354
 8067SOL    HW225101   4.634   2.657   2.352
 8068SOL     OW25102   6.470   4.598   4.559
 8068SOL    HW125103   6.463   4.651   4.643
 8068SOL    HW225104   6.555   4.621   4.512
 8069SOL     OW25105   1.230   6.243   2.138
 8069SOL    HW125106   1.156   6.260   2.073
 8069SOL    HW225107   1.277   6.329   2.158
 8070SOL     OW25108   3.668   0.094   2.584
 8070SOL    HW125109   3.577   0.068   2.616
 8070SOL    HW225110   3.658   0.162   2.511
 8071SOL     OW25111   4.701   6.065   0.089
 8071SOL    HW125112   4.709   6.145   0.149
 8071SOL    HW225113   4.781   6.006   0.101
 8072SOL     OW25114   4.398   0.546   2.950
 8072SOL    HW125115   4.363   0.638   2.933
 8072SOL    HW225116   4.376   0.520   3.044
 8073SOL     OW25117   4.825   0.530   6.128
 8073SOL    HW125118   4.912   0.567   6.160
 8073SOL    HW225119   4.837   0.434   6.103
 8074SOL     OW25120   3.230   4.248   6.719
 8074SOL    HW125121   3.278   4.190   6.653
 8074SOL    HW225122   3.292   4.274   6.792
 8075SOL     OW25123   6.116   2.343   3.530
 8075SOL    HW125124   6.129   2.442   3.524
 8075SOL    HW225125   6.204   2.299   3.549
 8076SOL     OW25126   4.674   2.926   6.557
 8076SOL    HW125127   4.632   2.918   6.647
 8076SOL    HW225128   4.674   3.021   6.528
 8077SOL     OW25129   1.369   0.204   0.240
 8077SOL    HW125130   1.459   0.161   0.245
 8077SOL    HW225131   1.369   0.273   0.168
 8078SOL     OW25132   5.876   2.811   0.938
 8078SOL    HW125133   5.973   2.825   0.923
 8078SOL    HW225134   5.851   2.844   1.029
 8079SOL     OW25135   0.924   2.440   1.509
 8079SOL    HW125136   0.985   2.367   1.540
 8079SOL    HW225137   0.919   2.439   1.409
 8080SOL     OW25138   3.982   4.934   0.323
 8080SOL    HW125139   4.049   4.913   0.393
 8080SOL    HW225140   4.014   4.901   0.234
 8081SOL     OW25141   5.926   2.071   4.489
 8081SOL    HW125142   5.980   2.144   4.449
 8081SOL    HW225143   5.829   2.098   4.491
 8082SOL     OW25144   6.345   3.567   4.383
 8082SOL    HW125145   6.381   3.515   4.461
 8082SOL    HW225146   6.380   3.661   4.387
 8083SOL     OW25147   6.104   2.085   4.937
 8083SOL    HW125148   6.167   2.033   4.879
 8083SOL    HW225149   6.010   2.057   4.918
 8084SOL     OW25150   6.388   6.910   0.331
 8084SOL    HW125151   6.456   6.885   0.400
 8084SOL    HW225152   6.415   6.872   0.243
 8085SOL     OW25153   5.453   2.355   0.806
 8085SOL    HW125154   5.361   2.316   0.811
 8085SOL    HW225155   5.447   2.454   0.817
 8086SOL     OW25156   2.163   5.663   6.045
 8086SOL    HW125157   2.100   5.729   6.005
 8086SOL    HW225158   2.117   5.575   6.057
 8087SOL     OW25159   3.073   4.510   0.353
 8087SOL    HW125160   3.098   4.606   0.342
 8087SOL    HW225161   3.142   4.463   0.406
 8088SOL     OW25162   4.551   0.869   2.904
 8088SOL    HW125163   4.517   0.953   2.945
 8088SOL    HW225164   4.620   0.828   2.963
 8089SOL     OW25165   6.525   2.783   0.486
 8089SOL    HW125166   6.487   2.711   0.427
 8089SOL    HW225167   6.461   2.860   0.489
 8090SOL     OW25168   4.517   2.195   5.226
 8090SOL    HW125169   4.606   2.239   5.229
 8090SOL    HW225170   4.447   2.258   5.261
 8091SOL     OW25171   2.047   4.276   5.034
 8091SOL    HW125172   2.111   4.351   5.021
 8091SOL    HW225173   2.094   4.198   5.074
 8092SOL     OW25174   6.760   1.587   4.632
 8092SOL    HW125175   6.681   1.647   4.635
 8092SOL    HW225176   6.752   1.524   4.554
 8093SOL     OW25177   5.895   5.418   0.793
 8093SOL    HW125178   5.893   5.320   0.812
 8093SOL    HW225179   5.876   5.434   0.696
 8094SOL     OW25180   0.515   3.949   4.170
 8094SOL    HW125181   0.451   3.873   4.178
 8094SOL    HW225182   0.465   4.034   4.154
 8095SOL     OW25183   6.689   3.585   4.880
 8095SOL    HW125184   6.717   3.578   4.784
 8095SOL    HW225185   6.718   3.673   4.917
 8096SOL     OW25186   4.661   0.104   0.879
 8096SOL    HW125187   4.680   0.194   0.918
 8096SOL    HW225188   4.564   0.098   0.854
 8097SOL     OW25189   4.891   1.510   4.391
 8097SOL    HW125190   4.962   1.541   4.327
 8097SOL    HW225191   4.925   1.522   4.485
 8098SOL     OW25192   2.104   1.503   4.218
 8098SOL    HW125193   2.172   1.558   4.266
 8098SOL    HW225194   2.052   1.560   4.155
 8099SOL     OW25195   3.647   6.367   5.321
 8099SOL    HW125196   3.697   6.363   5.407
 8099SOL    HW225197   3.703   6.327   5.248
 8100SOL     OW25198   6.716   6.311   1.057
 8100SOL    HW125199   6.807   6.277   1.036
 8100SOL    HW225200   6.674   6.255   1.128
 8101SOL     OW25201   0.352   4.585   2.178
 8101SOL    HW125202   0.307   4.518   2.119
 8101SOL    HW225203   0.393   4.657   2.122
 8102SOL     OW25204   6.759   0.221   5.715
 8102SOL    HW125205   6.827   0.200   5.785
 8102SOL    HW225206   6.689   0.280   5.753
 8103SOL     OW25207   2.252   2.482   2.412
 8103SOL    HW125208   2.157   2.492   2.443
 8103SOL    HW225209   2.267   2.541   2.333
 8104SOL     OW25210   3.046   0.081   6.211
 8104SOL    HW125211   3.054   0.139   6.130
 8104SOL    HW225212   3.115   0.107   6.278
 8105SOL     OW25213   1.833   2.732   3.210
 8105SOL    HW125214   1.868   2.796   3.142
 8105SOL    HW225215   1.873   2.753   3.300
 8106SOL     OW25216   0.280   3.691   5.155
 8106SOL    HW125217   0.248   3.748   5.079
 8106SOL    HW225218   0.380   3.690   5.155
 8107SOL     OW25219   1.430   5.544   6.820
 8107SOL    HW125220   1.452   5.641   6.830
 8107SOL    HW225221   1.334   5.529   6.842
 8108SOL     OW25222   2.202   3.304   5.221
 8108SOL    HW125223   2.292   3.275   5.255
 8108SOL    HW225224   2.153   3.225   5.185
 8109SOL     OW25225   0.890   5.331   5.248
 8109SOL    HW125226   0.948   5.284   5.182
 8109SOL    HW225227   0.845   5.409   5.204
 8110SOL     OW25228   1.486   4.627   0.537
 8110SOL    HW125229   1.464   4.541   0.492
 8110SOL    HW225230   1.515   4.609   0.631
 8111SOL     OW25231   3.125   6.044   4.320
 8111SOL    HW125232   3.028   6.023   4.308
 8111SOL    HW225233   3.153   6.114   4.255
 8112SOL     OW25234   4.149   0.912   4.070
 8112SOL    HW125235   4.077   0.843   4.069
 8112SOL    HW225236   4.109   1.001   4.091
 8113SOL     OW25237   2.959   2.877   5.741
 8113SOL    HW125238   2.982   2.974   5.743
 8113SOL    HW225239   3.040   2.824   5.712
 8114SOL     OW25240   2.785   3.399   1.754
 8114SOL    HW125241   2.700   3.440   1.790
 8114SOL    HW225242   2.834   3.467   1.700
 8115SOL     OW25243   3.086   2.958   0.802
 8115SOL    HW125244   3.142   2.875   0.804
 8115SOL    HW225245   3.070   2.989   0.896
 8116SOL     OW25246   5.095   1.305   5.649
 8116SOL    HW125247   5.036   1.337   5.723
 8116SOL    HW225248   5.057   1.222   5.609
 8117SOL     OW25249   3.051   2.001   5.820
 8117SOL    HW125250   2.973   2.060   5.838
 8117SOL    HW225251   3.104   2.038   5.743
 8118SOL     OW25252   1.723   2.280   3.881
 8118SOL    HW125253   1.625   2.267   3.864
 8118SOL    HW225254   1.757   2.353   3.822
 8119SOL     OW25255   0.909   6.366   2.171
 8119SOL    HW125256   0.934   6.446   2.225
 8119SOL    HW225257   0.893   6.288   2.231
 8120SOL     OW25258   4.657   4.443   2.379
 8120SOL    HW125259   4.745   4.481   2.409
 8120SOL    HW225260   4.617   4.502   2.309
 8121SOL     OW25261   6.596   6.341   2.948
 8121SOL    HW125262   6.584   6.256   2.896
 8121SOL    HW225263   6.693   6.360   2.959
 8122SOL     OW25264   6.807   5.612   1.334
 8122SOL    HW125265   6.785   5.535   1.395
 8122SOL    HW225266   6.897   5.648   1.357
 8123SOL     OW25267   1.455   5.217   0.209
 8123SOL    HW125268   1.529   5.156   0.238
 8123SOL    HW225269   1.381   5.214   0.277
 8124SOL     OW25270   1.343   6.667   3.303
 8124SOL    HW125271   1.348   6.598   3.376
 8124SOL    HW225272   1.434   6.705   3.286
 8125SOL     OW25273   5.509   4.965   3.035
 8125SOL    HW125274   5.458   4.926   3.112
 8125SOL    HW225275   5.569   5.038   3.068
 8126SOL     OW25276   0.008   4.740   2.535
 8126SOL    HW125277   6.987   4.703   2.618
 8126SOL    HW225278   0.052   4.667   2.484
 8127SOL     OW25279   4.486   5.448   1.331
 8127SOL    HW125280   4.504   5.478   1.425
 8127SOL    HW225281   4.393   5.474   1.305
 8128SOL     OW25282   3.683   1.816   5.352
 8128SOL    HW125283   3.591   1.854   5.346
 8128SOL    HW225284   3.679   1.723   5.388
 8129SOL     OW25285   4.956   6.071   6.437
 8129SOL    HW125286   4.928   6.025   6.352
 8129SOL    HW225287   4.876   6.113   6.480
 8130SOL     OW25288   0.502   0.070   6.653
 8130SOL    HW125289   0.579   0.089   6.592
 8130SOL    HW225290   0.508   6.997   6.686
 8131SOL     OW25291   2.367   1.392   0.922
 8131SOL    HW125292   2.420   1.377   1.005
 8131SOL    HW225293   2.270   1.377   0.941
 8132SOL     OW25294   5.326   4.456   3.357
 8132SOL    HW125295   5.402   4.394   3.337
 8132SOL    HW225296   5.246   4.429   3.303
 8133SOL     OW25297   0.306   5.672   1.722
 8133SOL    HW125298   0.367   5.751   1.727
 8133SOL    HW225299   0.330   5.607   1.795
 8134SOL     OW25300   1.930   2.664   1.870
 8134SOL    HW125301   2.029   2.656   1.874
 8134SOL    HW225302   1.905   2.758   1.849
 8135SOL     OW25303   3.931   6.353   2.664
 8135SOL    HW125304   3.995   6.378   2.738
 8135SOL    HW225305   3.906   6.435   2.613
 8136SOL     OW25306   2.073   5.885   1.704
 8136SOL    HW125307   2.005   5.945   1.663
 8136SOL    HW225308   2.133   5.849   1.634
 8137SOL     OW25309   2.967   3.606   5.147
 8137SOL    HW125310   2.996   3.688   5.097
 8137SOL    HW225311   2.947   3.533   5.083
 8138SOL     OW25312   4.805   1.490   3.605
 8138SOL    HW125313   4.861   1.491   3.688
 8138SOL    HW225314   4.790   1.584   3.574
 8139SOL     OW25315   1.785   3.209   5.621
 8139SOL    HW125316   1.791   3.137   5.552
 8139SOL    HW225317   1.817   3.295   5.582
 8140SOL     OW25318   4.490   1.293   0.778
 8140SOL    HW125319   4.550   1.213   0.767
 8140SOL    HW225320   4.544   1.376   0.764
 8141SOL     OW25321   6.201   0.894   5.324
 8141SOL    HW125322   6.150   0.870   5.407
 8141SOL    HW225323   6.224   0.810   5.274
 8142SOL     OW25324   2.944   5.845   0.609
 8142SOL    HW125325   2.945   5.892   0.697
 8142SOL    HW225326   3.000   5.763   0.613
 8143SOL     OW25327   6.191   4.663   0.158
 8143SOL    HW125328   6.212   4.728   0.085
 8143SOL    HW225329   6.270   4.603   0.173
 8144SOL     OW25330   1.716   5.403   6.860
 8144SOL    HW125331   1.642   5.351   6.902
 8144SOL    HW225332   1.719   5.495   6.900
 8145SOL     OW25333   5.146   5.627   6.334
 8145SOL    HW125334   5.175   5.713   6.376
 8145SOL    HW225335   5.190   5.550   6.380
 8146SOL     OW25336   6.868   6.412   4.846
 8146SOL    HW125337   6.807   6.480   4.886
 8146SOL    HW225338   6.848   6.404   4.748
 8147SOL     OW25339   2.386   0.696   5.329
 8147SOL    HW125340   2.404   0.731   5.421
 8147SOL    HW225341   2.387   0.772   5.264
 8148SOL     OW25342   5.084   4.846   6.877
 8148SOL    HW125343   5.163   4.791   6.852
 8148SOL    HW225344   5.113   4.940   6.896
 8149SOL     OW25345   1.397   6.826   5.594
 8149SOL    HW125346   1.364   6.888   5.666
 8149SOL    HW225347   1.481   6.782   5.624
 8150SOL     OW25348   0.850   4.068   0.603
 8150SOL    HW125349   0.921   4.046   0.535
 8150SOL    HW225350   0.764   4.025   0.576
 8151SOL     OW25351   6.152   4.797   2.512
 8151SOL    HW125352   6.056   4.773   2.523
 8151SOL    HW225353   6.161   4.896   2.504
 8152SOL     OW25354   5.931   1.805   3.388
 8152SOL    HW125355   5.927   1.810   3.488
 8152SOL    HW225356   5.840   1.824   3.350
 8153SOL     OW25357   0.278   1.681   1.573
 8153SOL    HW125358   0.285   1.741   1.493
 8153SOL    HW225359   0.342   1.605   1.564
 8154SOL     OW25360   1.247   0.562   3.210
 8154SOL    HW125361   1.152   0.582   3.235
 8154SOL    HW225362   1.302   0.645   3.219
 8155SOL     OW25363   1.556   5.039   4.457
 8155SOL    HW125364   1.549   4.996   4.367
 8155SOL    HW225365   1.528   4.974   4.527
 8156SOL     OW25366   1.435   3.906   0.495
 8156SOL    HW125367   1.350   3.918   0.443
 8156SOL    HW225368   1.426   3.825   0.554
 8157SOL     OW25369   6.066   4.819   4.649
 8157SOL    HW125370   6.031   4.836   4.557
 8157SOL    HW225371   6.128   4.894   4.675
 8158SOL     OW25372   5.924   5.010   5.838
 8158SOL    HW125373   5.934   5.080   5.767
 8158SOL    HW225374   6.008   5.005   5.892
 8159SOL     OW25375   2.622   0.264   4.762
 8159SOL    HW125376   2.602   0.177   4.807
 8159SOL    HW225377   2.631   0.336   4.832
 8160SOL     OW25378   5.627   2.420   2.953
 8160SOL    HW125379   5.706   2.480   2.954
 8160SOL    HW225380   5.544   2.473   2.972
 8161SOL     OW25381   6.643   2.760   1.974
 8161SOL    HW125382   6.668   2.693   2.044
 8161SOL    HW225383   6.623   2.713   1.888
 8162SOL     OW25384   1.256   5.703   5.543
 8162SOL    HW125385   1.236   5.793   5.506
 8162SOL    HW225386   1.330   5.661   5.490
 8163SOL     OW25387   3.918   4.691   5.312
 8163SOL    HW125388   3.838   4.750   5.305
 8163SOL    HW225389   3.996   4.735   5.267
 8164SOL     OW25390   5.321   1.629   0.860
 8164SOL    HW125391   5.333   1.724   0.831
 8164SOL    HW225392   5.292   1.574   0.783
 8165SOL     OW25393   0.871   1.985   6.171
 8165SOL    HW125394   0.781   1.943   6.183
 8165SOL    HW225395   0.917   1.991   6.260
 8166SOL     OW25396   2.370   2.009   4.439
 8166SOL    HW125397   2.386   2.029   4.536
 8166SOL    HW225398   2.324   2.087   4.397
 8167SOL     OW25399   2.033   2.395   3.236
 8167SOL    HW125400   1.973   2.332   3.286
 8167SOL    HW225401   2.052   2.475   3.292
 8168SOL     OW25402   1.630   6.351   3.000
 8168SOL    HW125403   1.641   6.320   2.905
 8168SOL    HW225404   1.667   6.444   3.008
 8169SOL     OW25405   5.008   4.332   0.585
 8169SOL    HW125406   4.966   4.354   0.673
 8169SOL    HW225407   5.104   4.359   0.587
 8170SOL     OW25408   0.170   4.541   2.955
 8170SOL    HW125409   0.185   4.626   3.005
 8170SOL    HW225410   0.255   4.490   2.949
 8171SOL     OW25411   2.206   2.039   1.734
 8171SOL    HW125412   2.296   2.083   1.725
 8171SOL    HW225413   2.217   1.952   1.783
 8172SOL     OW25414   1.425   4.137   0.643
 8172SOL    HW125415   1.434   4.062   0.577
 8172SOL    HW225416   1.463   4.220   0.603
 8173SOL     OW25417   6.032   0.208   1.582
 8173SOL    HW125418   6.070   0.271   1.650
 8173SOL    HW225419   6.092   0.204   1.503
 8174SOL     OW25420   2.164   6.441   4.185
 8174SOL    HW125421   2.257   6.473   4.167
 8174SOL    HW225422   2.124   6.403   4.102
 8175SOL     OW25423   0.607   2.284   5.721
 8175SOL    HW125424   0.697   2.320   5.743
 8175SOL    HW225425   0.544   2.360   5.704
 8176SOL     OW25426   2.747   5.247   0.599
 8176SOL    HW125427   2.701   5.167   0.559
 8176SOL    HW225428   2.732   5.326   0.539
 8177SOL     OW25429   3.027   1.229   2.556
 8177SOL    HW125430   2.929   1.214   2.567
 8177SOL    HW225431   3.062   1.172   2.482
 8178SOL     OW25432   2.164   6.705   0.966
 8178SOL    HW125433   2.135   6.775   0.900
 8178SOL    HW225434   2.138   6.733   1.058
 8179SOL     OW25435   6.103   0.249   3.494
 8179SOL    HW125436   6.117   0.166   3.549
 8179SOL    HW225437   6.038   0.309   3.542
 8180SOL     OW25438   4.430   5.208   0.536
 8180SOL    HW125439   4.376   5.277   0.489
 8180SOL    HW225440   4.527   5.229   0.526
 8181SOL     OW25441   6.202   0.672   6.152
 8181SOL    HW125442   6.105   0.660   6.133
 8181SOL    HW225443   6.227   0.618   6.232
 8182SOL     OW25444   3.544   3.589   3.184
 8182SOL    HW125445   3.447   3.616   3.186
 8182SOL    HW225446   3.551   3.491   3.205
 8183SOL     OW25447   6.927   0.299   5.520
 8183SOL    HW125448   7.018   0.310   5.560
 8183SOL    HW225449   6.873   0.236   5.575
 8184SOL     OW25450   0.520   5.983   5.506
 8184SOL    HW125451   0.433   6.015   5.543
 8184SOL    HW225452   0.538   5.890   5.538
 8185SOL     OW25453   0.486   5.988   5.229
 8185SOL    HW125454   0.386   5.984   5.229
 8185SOL    HW225455   0.519   6.004   5.322
 8186SOL     OW25456   1.377   5.584   0.755
 8186SOL    HW125457   1.306   5.537   0.809
 8186SOL    HW225458   1.333   5.651   0.696
 8187SOL     OW25459   1.842   6.561   4.836
 8187SOL    HW125460   1.868   6.469   4.804
 8187SOL    HW225461   1.743   6.569   4.837
 8188SOL     OW25462   1.722   2.958   2.371
 8188SOL    HW125463   1.738   2.991   2.464
 8188SOL    HW225464   1.669   2.873   2.374
 8189SOL     OW25465   5.982   4.563   4.109
 8189SOL    HW125466   6.033   4.477   4.107
 8189SOL    HW225467   6.018   4.625   4.039
 8190SOL     OW25468   6.603   3.981   2.787
 8190SOL    HW125469   6.622   3.927   2.705
 8190SOL    HW225470   6.592   4.078   2.761
 8191SOL     OW25471   4.113   4.934   1.052
 8191SOL    HW125472   4.145   4.924   1.146
 8191SOL    HW225473   4.025   4.979   1.051
 8192SOL     OW25474   0.811   6.158   3.713
 8192SOL    HW125475   0.845   6.084   3.655
 8192SOL    HW225476   0.772   6.119   3.797
 8193SOL     OW25477   0.482   5.239   3.951
 8193SOL    HW125478   0.511   5.162   3.895
 8193SOL    HW225479   0.394   5.218   3.994
 8194SOL     OW25480   5.279   0.265   1.790
 8194SOL    HW125481   5.238   0.286   1.878
 8194SOL    HW225482   5.298   0.350   1.741
 8195SOL     OW25483   6.465   6.778   3.564
 8195SOL    HW125484   6.521   6.860   3.574
 8195SOL    HW225485   6.474   6.744   3.470
 8196SOL     OW25486   4.879   0.581   2.142
 8196SOL    HW125487   4.859   0.483   2.150
 8196SOL    HW225488   4.807   0.633   2.188
 8197SOL     OW25489   4.407   1.578   3.520
 8197SOL    HW125490   4.459   1.590   3.604
 8197SOL    HW225491   4.310   1.568   3.541
 8198SOL     OW25492   1.721   5.887   1.168
 8198SOL    HW125493   1.750   5.888   1.264
 8198SOL    HW225494   1.634   5.839   1.160
 8199SOL     OW25495   5.412   2.211   0.552
 8199SOL    HW125496   5.449   2.273   0.621
 8199SOL    HW225497   5.476   2.135   0.539
 8200SOL     OW25498   5.445   4.339   0.815
 8200SOL    HW125499   5.496   4.266   0.860
 8200SOL    HW225500   5.354   4.345   0.854
 8201SOL     OW25501   5.691   7.001   5.403
 8201SOL    HW125502   5.773   0.025   5.370
 8201SOL    HW225503   5.660   0.024   5.488
 8202SOL     OW25504   1.379   5.953   1.972
 8202SOL    HW125505   1.444   5.878   1.960
 8202SOL    HW225506   1.429   6.040   1.977
 8203SOL     OW25507   1.673   3.173   1.206
 8203SOL    HW125508   1.675   3.074   1.190
 8203SOL    HW225509   1.718   3.194   1.293
 8204SOL     OW25510   1.685   3.349   0.966
 8204SOL    HW125511   1.590   3.379   0.968
 8204SOL    HW225512   1.692   3.259   1.010
 8205SOL     OW25513   0.122   3.724   6.727
 8205SOL    HW125514   0.195   3.671   6.771
 8205SOL    HW225515   0.154   3.818   6.712
 8206SOL     OW25516   3.327   1.304   1.308
 8206SOL    HW125517   3.425   1.312   1.325
 8206SOL    HW225518   3.278   1.309   1.396
 8207SOL     OW25519   4.030   3.689   4.344
 8207SOL    HW125520   3.942   3.731   4.322
 8207SOL    HW225521   4.045   3.693   4.443
 8208SOL     OW25522   2.004   0.353   6.925
 8208SOL    HW125523   2.050   0.442   6.917
 8208SOL    HW225524   2.069   0.284   6.957
 8209SOL     OW25525   6.008   2.348   4.382
 8209SOL    HW125526   5.910   2.338   4.395
 8209SOL    HW225527   6.029   2.363   4.286
 8210SOL     OW25528   2.141   2.544   6.101
 8210SOL    HW125529   2.217   2.601   6.069
 8210SOL    HW225530   2.056   2.597   6.097
 8211SOL     OW25531   4.718   4.418   1.424
 8211SOL    HW125532   4.724   4.368   1.337
 8211SOL    HW225533   4.622   4.432   1.448
 8212SOL     OW25534   2.379   2.659   2.607
 8212SOL    HW125535   2.381   2.606   2.693
 8212SOL    HW225536   2.347   2.600   2.533
 8213SOL     OW25537   6.230   4.491   1.009
 8213SOL    HW125538   6.134   4.519   1.010
 8213SOL    HW225539   6.250   4.437   1.091
 8214SOL     OW25540   5.073   3.677   2.980
 8214SOL    HW125541   5.164   3.706   2.950
 8214SOL    HW225542   5.004   3.736   2.938
 8215SOL     OW25543   3.406   5.195   2.155
 8215SOL    HW125544   3.505   5.207   2.151
 8215SOL    HW225545   3.372   5.228   2.243
 8216SOL     OW25546   5.497   3.568   3.151
 8216SOL    HW125547   5.529   3.591   3.243
 8216SOL    HW225548   5.402   3.536   3.155
 8217SOL     OW25549   2.179   5.923   0.595
 8217SOL    HW125550   2.186   5.928   0.495
 8217SOL    HW225551   2.201   5.830   0.625
 8218SOL     OW25552   5.140   2.317   0.462
 8218SOL    HW125553   5.212   2.248   0.466
 8218SOL    HW225554   5.180   2.405   0.435
 8219SOL     OW25555   5.450   1.760   0.244
 8219SOL    HW125556   5.493   1.730   0.160
 8219SOL    HW225557   5.498   1.721   0.323
 8220SOL     OW25558   4.239   3.666   1.532
 8220SOL    HW125559   4.245   3.605   1.611
 8220SOL    HW225560   4.294   3.748   1.549
 8221SOL     OW25561   5.449   4.388   2.799
 8221SOL    HW125562   5.447   4.406   2.897
 8221SOL    HW225563   5.544   4.389   2.767
 8222SOL     OW25564   6.107   1.311   2.893
 8222SOL    HW125565   6.132   1.289   2.988
 8222SOL    HW225566   6.008   1.321   2.886
 8223SOL     OW25567   0.129   5.184   6.071
 8223SOL    HW125568   0.150   5.121   6.146
 8223SOL    HW225569   0.049   5.238   6.095
 8224SOL     OW25570   0.941   3.380   2.908
 8224SOL    HW125571   0.907   3.292   2.874
 8224SOL    HW225572   0.890   3.454   2.864
 8225SOL     OW25573   4.652   1.076   0.776
 8225SOL    HW125574   4.630   0.984   0.807
 8225SOL    HW225575   4.743   1.102   0.809
 8226SOL     OW25576   4.029   0.073   0.381
 8226SOL    HW125577   4.115   0.024   0.397
 8226SOL    HW225578   3.989   0.042   0.295
 8227SOL     OW25579   6.214   4.031   3.135
 8227SOL    HW125580   6.276   4.092   3.087
 8227SOL    HW225581   6.121   4.045   3.102
 8228SOL     OW25582   0.069   1.539   4.302
 8228SOL    HW125583   0.105   1.608   4.238
 8228SOL    HW225584   0.052   1.582   4.390
 8229SOL     OW25585   4.552   5.728   0.888
 8229SOL    HW125586   4.463   5.747   0.930
 8229SOL    HW225587   4.611   5.807   0.899
 8230SOL     OW25588   5.113   6.974   4.026
 8230SOL    HW125589   5.037   6.972   3.961
 8230SOL    HW225590   5.088   0.007   4.106
 8231SOL     OW25591   4.100   6.044   1.444
 8231SOL    HW125592   4.133   5.956   1.479
 8231SOL    HW225593   4.177   6.102   1.420
 8232SOL     OW25594   2.468   2.021   0.032
 8232SOL    HW125595   2.434   1.986   6.966
 8232SOL    HW225596   2.406   2.090   0.068
 8233SOL     OW25597   0.161   5.514   6.085
 8233SOL    HW125598   0.159   5.476   5.992
 8233SOL    HW225599   0.256   5.517   6.117
 8234SOL     OW25600   2.780   3.290   0.012
 8234SOL    HW125601   2.797   3.225   0.087
 8234SOL    HW225602   2.841   3.269   6.957
 8235SOL     OW25603   4.238   2.481   6.968
 8235SOL    HW125604   4.186   2.482   6.883
 8235SOL    HW225605   4.264   2.574   6.994
 8236SOL     OW25606   5.566   2.788   1.004
 8236SOL    HW125607   5.665   2.774   1.011
 8236SOL    HW225608   5.535   2.847   1.079
 8237SOL     OW25609   3.655   6.651   5.723
 8237SOL    HW125610   3.633   6.554   5.721
 8237SOL    HW225611   3.582   6.702   5.768
 8238SOL     OW25612   2.048   0.913   7.008
 8238SOL    HW125613   2.073   1.008   0.009
 8238SOL    HW225614   1.962   0.890   0.032
 8239SOL     OW25615   6.066   1.032   6.854
 8239SOL    HW125616   6.153   1.016   6.808
 8239SOL    HW225617   5.998   0.966   6.820
 8240SOL     OW25618   4.109   3.456   3.395
 8240SOL    HW125619   4.192   3.406   3.420
 8240SOL    HW225620   4.057   3.403   3.328
 8241SOL     OW25621   4.590   6.467   1.733
 8241SOL    HW125622   4.687   6.461   1.709
 8241SOL    HW225623   4.569   6.399   1.803
 8242SOL     OW25624   0.879   3.507   5.594
 8242SOL    HW125625   0.805   3.462   5.644
 8242SOL    HW225626   0.940   3.438   5.555
 8243SOL     OW25627   0.541   3.468   4.961
 8243SOL    HW125628   0.452   3.428   4.942
 8243SOL    HW225629   0.572   3.441   5.052
 8244SOL     OW25630   2.502   5.539   4.617
 8244SOL    HW125631   2.453   5.625   4.633
 8244SOL    HW225632   2.518   5.493   4.704
 8245SOL     OW25633   4.097   3.793   0.481
 8245SOL    HW125634   4.110   3.830   0.573
 8245SOL    HW225635   4.090   3.868   0.416
 8246SOL     OW25636   4.803   4.037   5.231
 8246SOL    HW125637   4.782   4.061   5.136
 8246SOL    HW225638   4.825   3.940   5.237
 8247SOL     OW25639   0.915   6.686   0.625
 8247SOL    HW125640   0.989   6.671   0.560
 8247SOL    HW225641   0.894   6.784   0.630
 8248SOL     OW25642   0.386   4.666   3.559
 8248SOL    HW125643   0.410   4.644   3.654
 8248SOL    HW225644   0.326   4.594   3.523
 8249SOL     OW25645   1.207   5.485   3.104
 8249SOL    HW125646   1.239   5.414   3.167
 8249SOL    HW225647   1.204   5.448   3.011
 8250SOL     OW25648   3.541   3.880   1.917
 8250SOL    HW125649   3.441   3.880   1.924
 8250SOL    HW225650   3.579   3.936   1.990
 8251SOL     OW25651   5.879   1.705   4.746
 8251SOL    HW125652   5.947   1.672   4.812
 8251SOL    HW225653   5.925   1.752   4.671
 8252SOL     OW25654   1.333   3.676   4.360
 8252SOL    HW125655   1.261   3.643   4.421
 8252SOL    HW225656   1.309   3.767   4.327
 8253SOL     OW25657   2.334   3.025   5.489
 8253SOL    HW125658   2.411   2.991   5.544
 8253SOL    HW225659   2.366   3.098   5.428
 8254SOL     OW25660   4.329   5.895   3.513
 8254SOL    HW125661   4.428   5.878   3.518
 8254SOL    HW225662   4.287   5.872   3.601
 8255SOL     OW25663   4.170   4.722   3.726
 8255SOL    HW125664   4.072   4.732   3.745
 8255SOL    HW225665   4.222   4.740   3.809
 8256SOL     OW25666   5.857   2.555   3.938
 8256SOL    HW125667   5.843   2.515   4.029
 8256SOL    HW225668   5.854   2.484   3.869
 8257SOL     OW25669   5.917   4.916   4.395
 8257SOL    HW125670   5.839   4.976   4.413
 8257SOL    HW225671   5.984   4.965   4.339
 8258SOL     OW25672   4.987   1.851   0.248
 8258SOL    HW125673   5.010   1.948   0.244
 8258SOL    HW225674   5.057   1.803   0.302
 8259SOL     OW25675   4.256   1.017   1.385
 8259SOL    HW125676   4.312   1.014   1.468
 8259SOL    HW225677   4.263   1.107   1.343
 8260SOL     OW25678   2.858   5.621   0.097
 8260SOL    HW125679   2.798   5.544   0.120
 8260SOL    HW225680   2.829   5.702   0.148
 8261SOL     OW25681   5.125   1.087   1.778
 8261SOL    HW125682   5.192   1.072   1.850
 8261SOL    HW225683   5.112   1.003   1.726
 8262SOL     OW25684   0.296   2.471   0.947
 8262SOL    HW125685   0.321   2.468   0.850
 8262SOL    HW225686   0.246   2.556   0.965
 8263SOL     OW25687   5.542   1.134   1.086
 8263SOL    HW125688   5.477   1.120   1.161
 8263SOL    HW225689   5.630   1.093   1.109
 8264SOL     OW25690   1.324   4.507   2.311
 8264SOL    HW125691   1.362   4.443   2.243
 8264SOL    HW225692   1.318   4.460   2.400
 8265SOL     OW25693   1.899   0.725   2.359
 8265SOL    HW125694   1.923   0.636   2.321
 8265SOL    HW225695   1.962   0.795   2.325
 8266SOL     OW25696   2.899   0.559   2.997
 8266SOL    HW125697   2.965   0.627   3.027
 8266SOL    HW225698   2.806   0.586   3.024
 8267SOL     OW25699   0.125   3.788   0.824
 8267SOL    HW125700   0.190   3.734   0.770
 8267SOL    HW225701   0.035   3.746   0.820
 8268SOL     OW25702   3.674   5.811   6.533
 8268SOL    HW125703   3.709   5.898   6.566
 8268SOL    HW225704   3.713   5.791   6.444
 8269SOL     OW25705   6.126   2.011   1.035
 8269SOL    HW125706   6.074   2.011   0.949
 8269SOL    HW225707   6.161   2.103   1.053
 8270SOL     OW25708   2.885   6.340   4.261
 8270SOL    HW125709   2.887   6.369   4.165
 8270SOL    HW225710   2.968   6.288   4.282
 8271SOL     OW25711   6.186   2.333   2.846
 8271SOL    HW125712   6.092   2.311   2.870
 8271SOL    HW225713   6.187   2.381   2.758
 8272SOL     OW25714   3.854   1.226   4.372
 8272SOL    HW125715   3.843   1.275   4.285
 8272SOL    HW225716   3.854   1.292   4.447
 8273SOL     OW25717   2.042   6.677   1.738
 8273SOL    HW125718   1.996   6.594   1.707
 8273SOL    HW225719   2.119   6.653   1.796
 8274SOL     OW25720   5.227   4.141   3.452
 8274SOL    HW125721   5.274   4.225   3.477
 8274SOL    HW225722   5.280   4.093   3.382
 8275SOL     OW25723   5.198   2.237   6.708
 8275SOL    HW125724   5.181   2.235   6.609
 8275SOL    HW225725   5.142   2.167   6.752
 8276SOL     OW25726   0.241   1.778   2.749
 8276SOL    HW125727   0.337   1.751   2.738
 8276SOL    HW225728   0.236   1.869   2.790
 8277SOL     OW25729   6.484   0.747   6.920
 8277SOL    HW125730   6.479   0.796   6.833
 8277SOL    HW225731   6.580   0.734   6.946
 8278SOL     OW25732   1.500   2.248   6.556
 8278SOL    HW125733   1.458   2.302   6.629
 8278SOL    HW225734   1.476   2.287   6.467
 8279SOL     OW25735   0.087   6.016   3.638
 8279SOL    HW125736   0.065   6.103   3.682
 8279SOL    HW225737   0.151   6.032   3.563
 8280SOL     OW25738   3.118   2.505   5.558
 8280SOL    HW125739   3.191   2.519   5.490
 8280SOL    HW225740   3.032   2.488   5.511
 8281SOL     OW25741   4.777   5.494   2.802
 8281SOL    HW125742   4.709   5.541   2.858
 8281SOL    HW225743   4.783   5.538   2.713
 8282SOL     OW25744   5.725   2.684   6.305
 8282SOL    HW125745   5.717   2.747   6.228
 8282SOL    HW225746   5.636   2.671   6.347
 8283SOL     OW25747   2.025   2.052   5.664
 8283SOL    HW125748   1.947   2.114   5.663
 8283SOL    HW225749   2.096   2.088   5.603
 8284SOL     OW25750   6.536   4.283   1.603
 8284SOL    HW125751   6.636   4.280   1.615
 8284SOL    HW225752   6.492   4.290   1.692
 8285SOL     OW25753   4.131   3.308   4.340
 8285SOL    HW125754   4.223   3.349   4.340
 8285SOL    HW225755   4.070   3.364   4.285
 8286SOL     OW25756   0.155   1.670   6.082
 8286SOL    HW125757   0.220   1.641   6.153
 8286SOL    HW225758   0.147   1.769   6.084
 8287SOL     OW25759   1.602   6.027   4.059
 8287SOL    HW125760   1.532   6.001   3.993
 8287SOL    HW225761   1.594   5.970   4.141
 8288SOL     OW25762   3.192   1.788   3.152
 8288SOL    HW125763   3.208   1.860   3.085
 8288SOL    HW225764   3.123   1.724   3.118
 8289SOL     OW25765   7.018   5.579   6.858
 8289SOL    HW125766   6.928   5.623   6.861
 8289SOL    HW225767   0.063   5.641   6.817
 8290SOL     OW25768   6.571   2.496   0.648
 8290SOL    HW125769   6.557   2.423   0.715
 8290SOL    HW225770   6.668   2.520   0.644
 8291SOL     OW25771   4.088   0.331   1.162
 8291SOL    HW125772   4.157   0.271   1.204
 8291SOL    HW225773   4.067   0.298   1.070
 8292SOL     OW25774   2.945   0.294   6.429
 8292SOL    HW125775   3.041   0.321   6.422
 8292SOL    HW225776   2.939   0.206   6.477
 8293SOL     OW25777   5.727   5.405   4.594
 8293SOL    HW125778   5.686   5.401   4.685
 8293SOL    HW225779   5.660   5.444   4.530
 8294SOL     OW25780   5.475   3.008   7.010
 8294SOL    HW125781   5.442   2.980   6.920
 8294SOL    HW225782   5.433   2.950   0.059
 8295SOL     OW25783   4.446   3.413   6.863
 8295SOL    HW125784   4.378   3.343   6.886
 8295SOL    HW225785   4.492   3.444   6.946
 8296SOL     OW25786   1.107   5.013   6.543
 8296SOL    HW125787   1.073   5.106   6.533
 8296SOL    HW225788   1.035   4.948   6.520
 8297SOL     OW25789   1.032   2.833   3.916
 8297SOL    HW125790   1.011   2.798   4.007
 8297SOL    HW225791   1.131   2.832   3.901
 8298SOL     OW25792   5.065   1.643   2.403
 8298SOL    HW125793   5.155   1.647   2.360
 8298SOL    HW225794   5.057   1.558   2.455
 8299SOL     OW25795   6.354   2.371   1.574
 8299SOL    HW125796   6.287   2.446   1.578
 8299SOL    HW225797   6.446   2.408   1.576
 8300SOL     OW25798   0.809   5.172   3.261
 8300SOL    HW125799   0.836   5.268   3.249
 8300SOL    HW225800   0.724   5.168   3.315
 8301SOL     OW25801   3.076   2.639   6.603
 8301SOL    HW125802   3.118   2.662   6.516
 8301SOL    HW225803   3.012   2.563   6.591
 8302SOL     OW25804   6.115   5.608   5.456
 8302SOL    HW125805   6.049   5.536   5.478
 8302SOL    HW225806   6.112   5.679   5.527
 8303SOL     OW25807   6.839   0.319   6.257
 8303SOL    HW125808   6.885   0.262   6.188
 8303SOL    HW225809   6.886   0.407   6.264
 8304SOL     OW25810   6.866   3.022   0.703
 8304SOL    HW125811   6.795   2.953   0.719
 8304SOL    HW225812   6.901   3.014   0.610
 8305SOL     OW25813   3.427   5.161   3.204
 8305SOL    HW125814   3.383   5.239   3.247
 8305SOL    HW225815   3.420   5.081   3.264
 8306SOL     OW25816   1.055   3.271   4.268
 8306SOL    HW125817   1.104   3.336   4.210
 8306SOL    HW225818   1.085   3.281   4.363
 8307SOL     OW25819   3.346   5.154   0.720
 8307SOL    HW125820   3.271   5.091   0.744
 8307SOL    HW225821   3.412   5.156   0.795
 8308SOL     OW25822   3.547   0.512   2.896
 8308SOL    HW125823   3.471   0.454   2.869
 8308SOL    HW225824   3.523   0.562   2.979
 8309SOL     OW25825   5.476   6.511   2.305
 8309SOL    HW125826   5.391   6.494   2.254
 8309SOL    HW225827   5.471   6.600   2.350
 8310SOL     OW25828   6.078   4.191   6.824
 8310SOL    HW125829   6.149   4.166   6.890
 8310SOL    HW225830   6.099   4.151   6.735
 8311SOL     OW25831   6.582   0.895   6.707
 8311SOL    HW125832   6.637   0.978   6.706
 8311SOL    HW225833   6.637   0.818   6.674
 8312SOL     OW25834   5.450   6.617   1.267
 8312SOL    HW125835   5.400   6.531   1.253
 8312SOL    HW225836   5.450   6.670   1.183
 8313SOL     OW25837   3.425   1.373   2.545
 8313SOL    HW125838   3.385   1.348   2.457
 8313SOL    HW225839   3.506   1.317   2.563
 8314SOL     OW25840   0.207   5.924   3.275
 8314SOL    HW125841   0.117   5.882   3.260
 8314SOL    HW225842   0.210   6.013   3.229
 8315SOL     OW25843   4.808   4.575   6.675
 8315SOL    HW125844   4.747   4.589   6.753
 8315SOL    HW225845   4.855   4.660   6.653
 8316SOL     OW25846   2.877   5.957   6.997
 8316SOL    HW125847   2.846   6.028   6.935
 8316SOL    HW225848   2.802   5.929   0.036
 8317SOL     OW25849   2.267   4.224   2.271
 8317SOL    HW125850   2.236   4.138   2.231
 8317SOL    HW225851   2.365   4.234   2.257
 8318SOL     OW25852   3.560   1.061   5.843
 8318SOL    HW125853   3.476   1.116   5.849
 8318SOL    HW225854   3.592   1.060   5.749
 8319SOL     OW25855   3.473   0.511   4.997
 8319SOL    HW125856   3.522   0.575   4.938
 8319SOL    HW225857   3.523   0.499   5.083
 8320SOL     OW25858   4.232   4.723   1.531
 8320SOL    HW125859   4.255   4.753   1.623
 8320SOL    HW225860   4.146   4.765   1.502
 8321SOL     OW25861   0.384   0.796   1.353
 8321SOL    HW125862   0.312   0.844   1.403
 8321SOL    HW225863   0.423   0.856   1.284
 8322SOL     OW25864   5.464   6.686   6.767
 8322SOL    HW125865   5.528   6.752   6.726
 8322SOL    HW225866   5.482   6.679   6.865
 8323SOL     OW25867   1.542   1.484   1.813
 8323SOL    HW125868   1.594   1.547   1.870
 8323SOL    HW225869   1.448   1.478   1.848
 8324SOL     OW25870   6.603   1.291   2.304
 8324SOL    HW125871   6.641   1.218   2.362
 8324SOL    HW225872   6.516   1.322   2.342
 8325SOL     OW25873   3.177   4.011   4.289
 8325SOL    HW125874   3.211   4.078   4.355
 8325SOL    HW225875   3.155   4.058   4.203
 8326SOL     OW25876   3.742   2.950   6.216
 8326SOL    HW125877   3.778   3.030   6.168
 8326SOL    HW225878   3.710   2.883   6.149
 8327SOL     OW25879   5.049   2.205   6.462
 8327SOL    HW125880   5.080   2.221   6.368
 8327SOL    HW225881   4.950   2.218   6.467
 8328SOL     OW25882   2.416   2.400   4.630
 8328SOL    HW125883   2.422   2.408   4.530
 8328SOL    HW225884   2.503   2.430   4.670
 8329SOL     OW25885   0.250   2.318   4.708
 8329SOL    HW125886   0.193   2.386   4.664
 8329SOL    HW225887   0.215   2.226   4.688
 8330SOL     OW25888   2.524   6.679   0.899
 8330SOL    HW125889   2.488   6.730   0.977
 8330SOL    HW225890   2.618   6.651   0.919
 8331SOL     OW25891   2.902   0.065   1.088
 8331SOL    HW125892   2.852   0.044   1.004
 8331SOL    HW225893   2.980   0.002   1.096
 8332SOL     OW25894   5.005   5.862   3.064
 8332SOL    HW125895   4.976   5.767   3.057
 8332SOL    HW225896   4.970   5.901   3.150
 8333SOL     OW25897   1.384   5.354   6.197
 8333SOL    HW125898   1.322   5.430   6.217
 8333SOL    HW225899   1.422   5.319   6.282
 8334SOL     OW25900   5.860   0.446   4.115
 8334SOL    HW125901   5.837   0.526   4.059
 8334SOL    HW225902   5.955   0.421   4.099
 8335SOL     OW25903   5.948   6.718   5.488
 8335SOL    HW125904   6.043   6.718   5.519
 8335SOL    HW225905   5.945   6.704   5.389
 8336SOL     OW25906   0.688   2.221   2.251
 8336SOL    HW125907   0.618   2.154   2.228
 8336SOL    HW225908   0.759   2.178   2.307
 8337SOL     OW25909   0.421   6.193   1.928
 8337SOL    HW125910   0.437   6.184   2.026
 8337SOL    HW225911   0.503   6.228   1.883
 8338SOL     OW25912   1.978   4.781   0.985
 8338SOL    HW125913   1.899   4.800   0.927
 8338SOL    HW225914   2.025   4.699   0.952
 8339SOL     OW25915   5.667   0.705   3.349
 8339SOL    HW125916   5.624   0.729   3.436
 8339SOL    HW225917   5.761   0.674   3.365
 8340SOL     OW25918   4.703   3.345   1.285
 8340SOL    HW125919   4.699   3.265   1.225
 8340SOL    HW225920   4.613   3.387   1.289
 8341SOL     OW25921   2.036   6.944   1.048
 8341SOL    HW125922   2.090   6.972   0.969
 8341SOL    HW225923   2.020   0.002   1.107
 8342SOL     OW25924   4.857   0.229   1.190
 8342SOL    HW125925   4.897   0.290   1.259
 8342SOL    HW225926   4.906   0.141   1.191
 8343SOL     OW25927   1.400   5.160   5.994
 8343SOL    HW125928   1.379   5.222   6.069
 8343SOL    HW225929   1.406   5.066   6.029
 8344SOL     OW25930   3.719   0.270   5.317
 8344SOL    HW125931   3.683   0.179   5.337
 8344SOL    HW225932   3.765   0.268   5.228
 8345SOL     OW25933   5.997   1.681   2.871
 8345SOL    HW125934   6.016   1.654   2.776
 8345SOL    HW225935   6.044   1.767   2.891
 8346SOL     OW25936   3.219   5.426   1.659
 8346SOL    HW125937   3.275   5.370   1.720
 8346SOL    HW225938   3.232   5.523   1.682
 8347SOL     OW25939   3.355   5.218   3.869
 8347SOL    HW125940   3.329   5.121   3.865
 8347SOL    HW225941   3.276   5.273   3.896
 8348SOL     OW25942   1.655   0.521   0.624
 8348SOL    HW125943   1.720   0.572   0.681
 8348SOL    HW225944   1.565   0.565   0.628
 8349SOL     OW25945   5.608   5.301   1.512
 8349SOL    HW125946   5.522   5.351   1.521
 8349SOL    HW225947   5.662   5.314   1.595
 8350SOL     OW25948   6.442   0.267   4.842
 8350SOL    HW125949   6.353   0.226   4.825
 8350SOL    HW225950   6.498   0.261   4.759
 8351SOL     OW25951   2.878   6.514   2.294
 8351SOL    HW125952   2.842   6.489   2.204
 8351SOL    HW225953   2.859   6.441   2.359
 8352SOL     OW25954   6.657   6.167   1.319
 8352SOL    HW125955   6.638   6.098   1.389
 8352SOL    HW225956   6.706   6.244   1.360
 8353SOL     OW25957   0.661   4.056   2.299
 8353SOL    HW125958   0.684   4.139   2.350
 8353SOL    HW225959   0.740   4.026   2.245
 8354SOL     OW25960   2.438   0.581   0.455
 8354SOL    HW125961   2.518   0.562   0.512
 8354SOL    HW225962   2.413   0.677   0.464
 8355SOL     OW25963   3.305   1.491   0.581
 8355SOL    HW125964   3.350   1.579   0.564
 8355SOL    HW225965   3.211   1.495   0.549
 8356SOL     OW25966   2.678   5.795   0.742
 8356SOL    HW125967   2.752   5.809   0.676
 8356SOL    HW225968   2.678   5.700   0.772
 8357SOL     OW25969   5.092   6.153   3.800
 8357SOL    HW125970   5.085   6.091   3.878
 8357SOL    HW225971   5.132   6.240   3.830
 8358SOL     OW25972   2.848   2.114   4.868
 8358SOL    HW125973   2.820   2.185   4.933
 8358SOL    HW225974   2.773   2.096   4.805
 8359SOL     OW25975   4.519   5.211   3.776
 8359SOL    HW125976   4.539   5.164   3.689
 8359SOL    HW225977   4.421   5.230   3.781
 8360SOL     OW25978   4.670   0.773   3.174
 8360SOL    HW125979   4.716   0.690   3.207
 8360SOL    HW225980   4.734   0.849   3.175
 8361SOL     OW25981   1.476   0.831   2.753
 8361SOL    HW125982   1.392   0.826   2.698
 8361SOL    HW225983   1.464   0.777   2.836
 8362SOL     OW25984   2.168   3.102   0.585
 8362SOL    HW125985   2.122   3.056   0.509
 8362SOL    HW225986   2.259   3.061   0.598
 8363SOL     OW25987   6.987   3.565   1.126
 8363SOL    HW125988   6.962   3.468   1.124
 8363SOL    HW225989   0.031   3.581   1.200
 8364SOL     OW25990   6.713   4.671   4.488
 8364SOL    HW125991   6.727   4.714   4.398
 8364SOL    HW225992   6.769   4.718   4.556
 8365SOL     OW25993   0.970   3.762   5.765
 8365SOL    HW125994   1.046   3.769   5.701
 8365SOL    HW225995   0.929   3.671   5.758
 8366SOL     OW25996   2.646   0.186   3.488
 8366SOL    HW125997   2.683   0.253   3.553
 8366SOL    HW225998   2.578   0.129   3.535
 8367SOL     OW25999   5.120   5.929   3.963
 8367SOL    HW126000   5.193   5.933   4.031
 8367SOL    HW226001   5.152   5.877   3.884
 8368SOL     OW26002   3.103   5.690   6.591
 8368SOL    HW126003   3.040   5.701   6.668
 8368SOL    HW226004   3.197   5.701   6.624
 8369SOL     OW26005   2.845   1.635   1.356
 8369SOL    HW126006   2.919   1.617   1.291
 8369SOL    HW226007   2.829   1.734   1.361
 8370SOL     OW26008   1.739   1.534   0.201
 8370SOL    HW126009   1.643   1.513   0.186
 8370SOL    HW226010   1.770   1.600   0.132
 8371SOL     OW26011   2.149   2.518   0.078
 8371SOL    HW126012   2.083   2.570   0.024
 8371SOL    HW226013   2.130   2.530   0.176
 8372SOL     OW26014   6.942   0.669   1.238
 8372SOL    HW126015   7.011   0.632   1.300
 8372SOL    HW226016   6.883   0.595   1.205
 8373SOL     OW26017   1.577   6.495   4.924
 8373SOL    HW126018   1.608   6.400   4.934
 8373SOL    HW226019   1.543   6.529   5.012
 8374SOL     OW26020   6.643   0.676   6.227
 8374SOL    HW126021   6.716   0.714   6.170
 8374SOL    HW226022   6.555   0.698   6.186
 8375SOL     OW26023   3.876   0.704   5.936
 8375SOL    HW126024   3.924   0.636   5.881
 8375SOL    HW226025   3.925   0.791   5.932
 8376SOL     OW26026   4.525   0.422   4.556
 8376SOL    HW126027   4.521   0.353   4.629
 8376SOL    HW226028   4.603   0.404   4.496
 8377SOL     OW26029   5.753   4.811   1.077
 8377SOL    HW126030   5.680   4.847   1.135
 8377SOL    HW226031   5.721   4.729   1.030
 8378SOL     OW26032   5.277   3.189   3.717
 8378SOL    HW126033   5.313   3.264   3.772
 8378SOL    HW226034   5.236   3.120   3.777
 8379SOL     OW26035   4.884   2.351   2.413
 8379SOL    HW126036   4.800   2.298   2.423
 8379SOL    HW226037   4.915   2.383   2.503
 8380SOL     OW26038   5.879   1.772   3.677
 8380SOL    HW126039   5.842   1.820   3.757
 8380SOL    HW226040   5.871   1.674   3.691
 8381SOL     OW26041   2.529   5.325   4.258
 8381SOL    HW126042   2.486   5.291   4.342
 8381SOL    HW226043   2.531   5.425   4.260
 8382SOL     OW26044   0.960   4.497   2.597
 8382SOL    HW126045   1.024   4.437   2.548
 8382SOL    HW226046   0.950   4.583   2.548
 8383SOL     OW26047   3.322   1.196   5.932
 8383SOL    HW126048   3.317   1.121   5.999
 8383SOL    HW226049   3.237   1.199   5.880
 8384SOL     OW26050   0.715   6.711   2.211
 8384SOL    HW126051   0.649   6.785   2.224
 8384SOL    HW226052   0.692   6.660   2.128
 8385SOL     OW26053   4.862   2.578   1.118
 8385SOL    HW126054   4.887   2.515   1.045
 8385SOL    HW226055   4.801   2.648   1.083
 8386SOL     OW26056   0.583   4.143   3.070
 8386SOL    HW126057   0.555   4.048   3.052
 8386SOL    HW226058   0.680   4.144   3.096
 8387SOL     OW26059   0.917   1.808   0.926
 8387SOL    HW126060   0.933   1.889   0.982
 8387SOL    HW226061   0.820   1.785   0.928
 8388SOL     OW26062   1.043   6.536   3.435
 8388SOL    HW126063   0.946   6.536   3.408
 8388SOL    HW226064   1.100   6.522   3.355
 8389SOL     OW26065   5.696   2.417   3.704
 8389SOL    HW126066   5.727   2.441   3.612
 8389SOL    HW226067   5.640   2.491   3.741
 8390SOL     OW26068   5.756   1.382   6.156
 8390SOL    HW126069   5.726   1.387   6.061
 8390SOL    HW226070   5.856   1.374   6.160
 8391SOL     OW26071   6.747   6.764   1.447
 8391SOL    HW126072   6.686   6.759   1.526
 8391SOL    HW226073   6.715   6.835   1.384
 8392SOL     OW26074   4.075   3.101   5.882
 8392SOL    HW126075   4.170   3.120   5.907
 8392SOL    HW226076   4.073   3.021   5.823
 8393SOL     OW26077   5.701   0.035   1.177
 8393SOL    HW126078   5.704   0.051   1.078
 8393SOL    HW226079   5.606   0.023   1.205
 8394SOL     OW26080   5.777   2.666   2.589
 8394SOL    HW126081   5.872   2.653   2.615
 8394SOL    HW226082   5.744   2.584   2.542
 8395SOL     OW26083   2.272   1.169   5.149
 8395SOL    HW126084   2.197   1.149   5.086
 8395SOL    HW226085   2.234   1.197   5.238
 8396SOL     OW26086   5.111   5.351   4.586
 8396SOL    HW126087   5.202   5.310   4.593
 8396SOL    HW226088   5.094   5.408   4.666
 8397SOL     OW26089   6.337   0.435   3.145
 8397SOL    HW126090   6.372   0.398   3.059
 8397SOL    HW226091   6.313   0.531   3.132
 8398SOL     OW26092   5.705   2.012   6.084
 8398SOL    HW126093   5.688   2.110   6.087
 8398SOL    HW226094   5.635   1.968   6.026
 8399SOL     OW26095   0.130   4.577   1.432
 8399SOL    HW126096   0.186   4.608   1.356
 8399SOL    HW226097   0.050   4.529   1.398
 8400SOL     OW26098   1.399   1.476   4.500
 8400SOL    HW126099   1.374   1.379   4.502
 8400SOL    HW226100   1.486   1.489   4.547
 8401SOL     OW26101   2.107   0.560   5.539
 8401SOL    HW126102   2.131   0.654   5.560
 8401SOL    HW226103   2.122   0.543   5.441
 8402SOL     OW26104   3.556   0.550   6.841
 8402SOL    HW126105   3.649   0.553   6.803
 8402SOL    HW226106   3.516   0.460   6.823
 8403SOL     OW26107   5.726   4.881   5.184
 8403SOL    HW126108   5.691   4.796   5.144
 8403SOL    HW226109   5.729   4.872   5.284
 8404SOL     OW26110   0.805   1.427   6.566
 8404SOL    HW126111   0.715   1.436   6.609
 8404SOL    HW226112   0.865   1.500   6.599
 8405SOL     OW26113   4.301   0.058   5.339
 8405SOL    HW126114   4.279   7.009   5.407
 8405SOL    HW226115   4.395   0.089   5.353
 8406SOL     OW26116   5.794   0.251   5.944
 8406SOL    HW126117   5.864   0.322   5.933
 8406SOL    HW226118   5.715   0.289   5.992
 8407SOL     OW26119   3.857   0.288   4.301
 8407SOL    HW126120   3.761   0.302   4.324
 8407SOL    HW226121   3.908   0.262   4.382
 8408SOL     OW26122   4.054   1.461   1.153
 8408SOL    HW126123   4.036   1.395   1.226
 8408SOL    HW226124   4.152   1.477   1.145
 8409SOL     OW26125   4.206   2.050   2.138
 8409SOL    HW126126   4.189   2.019   2.231
 8409SOL    HW226127   4.130   2.107   2.107
 8410SOL     OW26128   0.226   1.709   1.850
 8410SOL    HW126129   0.264   1.639   1.911
 8410SOL    HW226130   0.272   1.705   1.762
 8411SOL     OW26131   0.917   6.384   1.289
 8411SOL    HW126132   0.982   6.326   1.338
 8411SOL    HW226133   0.864   6.437   1.355
 8412SOL     OW26134   2.758   2.378   0.091
 8412SOL    HW126135   2.659   2.389   0.099
 8412SOL    HW226136   2.800   2.392   0.181
 8413SOL     OW26137   3.757   5.174   4.622
 8413SOL    HW126138   3.855   5.171   4.643
 8413SOL    HW226139   3.735   5.259   4.575
 8414SOL     OW26140   1.359   0.319   1.193
 8414SOL    HW126141   1.419   0.325   1.113
 8414SOL    HW226142   1.374   0.399   1.251
 8415SOL     OW26143   3.136   1.461   6.329
 8415SOL    HW126144   3.143   1.461   6.429
 8415SOL    HW226145   3.059   1.403   6.302
 8416SOL     OW26146   6.885   2.471   5.387
 8416SOL    HW126147   6.917   2.561   5.418
 8416SOL    HW226148   6.887   2.469   5.287
 8417SOL     OW26149   2.373   3.647   5.834
 8417SOL    HW126150   2.363   3.579   5.906
 8417SOL    HW226151   2.409   3.732   5.872
 8418SOL     OW26152   0.522   5.738   2.117
 8418SOL    HW126153   0.517   5.829   2.158
 8418SOL    HW226154   0.601   5.733   2.056
 8419SOL     OW26155   4.156   1.581   4.245
 8419SOL    HW126156   4.251   1.566   4.219
 8419SOL    HW226157   4.134   1.678   4.238
 8420SOL     OW26158   3.693   0.805   1.719
 8420SOL    HW126159   3.688   0.752   1.803
 8420SOL    HW226160   3.733   0.894   1.739
 8421SOL     OW26161   4.575   6.667   6.436
 8421SOL    HW126162   4.518   6.740   6.475
 8421SOL    HW226163   4.616   6.699   6.351
 8422SOL     OW26164   5.607   2.755   3.900
 8422SOL    HW126165   5.518   2.784   3.935
 8422SOL    HW226166   5.602   2.658   3.875
 8423SOL     OW26167   6.528   5.205   0.209
 8423SOL    HW126168   6.616   5.244   0.181
 8423SOL    HW226169   6.474   5.274   0.256
 8424SOL     OW26170   3.260   0.387   4.917
 8424SOL    HW126171   3.337   0.436   4.958
 8424SOL    HW226172   3.214   0.446   4.851
 8425SOL     OW26173   3.633   4.085   2.396
 8425SOL    HW126174   3.570   4.143   2.448
 8425SOL    HW226175   3.722   4.082   2.442
 8426SOL     OW26176   3.837   3.083   1.888
 8426SOL    HW126177   3.771   3.156   1.868
 8426SOL    HW226178   3.929   3.115   1.870
 8427SOL     OW26179   3.864   3.461   3.532
 8427SOL    HW126180   3.833   3.366   3.528
 8427SOL    HW226181   3.964   3.463   3.530
 8428SOL     OW26182   5.812   6.877   2.072
 8428SOL    HW126183   5.831   6.969   2.039
 8428SOL    HW226184   5.801   6.816   1.993
 8429SOL     OW26185   2.714   5.719   5.326
 8429SOL    HW126186   2.754   5.756   5.411
 8429SOL    HW226187   2.745   5.774   5.249
 8430SOL     OW26188   4.915   6.948   5.257
 8430SOL    HW126189   4.899   0.010   5.203
 8430SOL    HW226190   4.913   6.868   5.197
 8431SOL     OW26191   1.877   3.749   5.525
 8431SOL    HW126192   1.805   3.791   5.581
 8431SOL    HW226193   1.911   3.816   5.459
 8432SOL     OW26194   6.205   5.045   5.971
 8432SOL    HW126195   6.237   5.117   6.032
 8432SOL    HW226196   6.220   4.956   6.014
 8433SOL     OW26197   5.763   2.102   1.188
 8433SOL    HW126198   5.698   2.074   1.117
 8433SOL    HW226199   5.825   2.027   1.208
 8434SOL     OW26200   2.539   6.002   4.998
 8434SOL    HW126201   2.531   5.910   4.960
 8434SOL    HW226202   2.462   6.020   5.058
 8435SOL     OW26203   5.656   1.853   3.558
 8435SOL    HW126204   5.738   1.816   3.603
 8435SOL    HW226205   5.674   1.946   3.526
 8436SOL     OW26206   2.166   5.950   2.349
 8436SOL    HW126207   2.143   5.894   2.270
 8436SOL    HW226208   2.152   6.046   2.328
 8437SOL     OW26209   0.626   5.413   1.213
 8437SOL    HW126210   0.620   5.454   1.122
 8437SOL    HW226211   0.678   5.328   1.208
 8438SOL     OW26212   0.497   4.120   2.017
 8438SOL    HW126213   0.567   4.106   1.946
 8438SOL    HW226214   0.534   4.091   2.105
 8439SOL     OW26215   6.330   4.529   2.541
 8439SOL    HW126216   6.314   4.431   2.525
 8439SOL    HW226217   6.293   4.581   2.464
 8440SOL     OW26218   1.807   1.903   2.729
 8440SOL    HW126219   1.781   1.812   2.698
 8440SOL    HW226220   1.845   1.955   2.652
 8441SOL     OW26221   6.988   2.180   5.494
 8441SOL    HW126222   7.001   2.084   5.518
 8441SOL    HW226223   6.908   2.216   5.542
 8442SOL     OW26224   3.920   2.299   6.955
 8442SOL    HW126225   3.951   2.373   6.895
 8442SOL    HW226226   3.925   2.329   0.029
 8443SOL     OW26227   1.822   4.606   2.635
 8443SOL    HW126228   1.780   4.586   2.724
 8443SOL    HW226229   1.919   4.630   2.649
 8444SOL     OW26230   5.583   5.497   4.890
 8444SOL    HW126231   5.660   5.444   4.926
 8444SOL    HW226232   5.504   5.436   4.878
 8445SOL     OW26233   4.376   6.528   6.604
 8445SOL    HW126234   4.444   6.552   6.536
 8445SOL    HW226235   4.421   6.504   6.690
 8446SOL     OW26236   6.620   5.209   5.088
 8446SOL    HW126237   6.666   5.296   5.069
 8446SOL    HW226238   6.523   5.218   5.068
 8447SOL     OW26239   3.853   1.023   3.930
 8447SOL    HW126240   3.924   1.086   3.899
 8447SOL    HW226241   3.777   1.076   3.968
 8448SOL     OW26242   3.203   6.098   3.188
 8448SOL    HW126243   3.219   6.034   3.112
 8448SOL    HW226244   3.236   6.188   3.162
 8449SOL     OW26245   1.710   2.067   3.683
 8449SOL    HW126246   1.735   2.152   3.730
 8449SOL    HW226247   1.612   2.052   3.691
 8450SOL     OW26248   6.751   0.643   6.973
 8450SOL    HW126249   6.805   0.634   6.890
 8450SOL    HW226250   6.808   0.683   0.024
 8451SOL     OW26251   3.997   2.344   1.172
 8451SOL    HW126252   3.951   2.266   1.214
 8451SOL    HW226253   3.933   2.393   1.113
 8452SOL     OW26254   5.028   1.151   5.981
 8452SOL    HW126255   5.042   1.054   5.964
 8452SOL    HW226256   4.977   1.191   5.905
 8453SOL     OW26257   6.901   6.770   0.081
 8453SOL    HW126258   6.837   6.846   0.092
 8453SOL    HW226259   6.994   6.803   0.090
 8454SOL     OW26260   6.017   4.598   6.230
 8454SOL    HW126261   5.918   4.603   6.224
 8454SOL    HW226262   6.045   4.587   6.325
 8455SOL     OW26263   6.433   0.993   2.626
 8455SOL    HW126264   6.442   1.093   2.622
 8455SOL    HW226265   6.392   0.960   2.541
 8456SOL     OW26266   0.013   0.279   2.669
 8456SOL    HW126267   6.939   0.250   2.686
 8456SOL    HW226268   0.061   0.207   2.619
 8457SOL     OW26269   6.737   6.658   4.954
 8457SOL    HW126270   6.835   6.674   4.966
 8457SOL    HW226271   6.691   6.746   4.941
 8458SOL     OW26272   1.065   6.542   6.576
 8458SOL    HW126273   1.052   6.575   6.483
 8458SOL    HW226274   1.085   6.444   6.575
 8459SOL     OW26275   1.206   5.985   3.515
 8459SOL    HW126276   1.283   5.952   3.568
 8459SOL    HW226277   1.177   6.074   3.550
 8460SOL     OW26278   4.070   3.780   3.055
 8460SOL    HW126279   3.990   3.838   3.040
 8460SOL    HW226280   4.085   3.769   3.154
 8461SOL     OW26281   6.085   3.476   3.617
 8461SOL    HW126282   6.168   3.423   3.631
 8461SOL    HW226283   6.016   3.419   3.572
 8462SOL     OW26284   2.525   2.726   1.715
 8462SOL    HW126285   2.608   2.673   1.731
 8462SOL    HW226286   2.470   2.682   1.644
 8463SOL     OW26287   5.905   0.386   1.867
 8463SOL    HW126288   5.871   0.441   1.944
 8463SOL    HW226289   5.829   0.366   1.805
 8464SOL     OW26290   6.909   1.799   4.814
 8464SOL    HW126291   6.841   1.761   4.751
 8464SOL    HW226292   6.910   1.744   4.898
 8465SOL     OW26293   1.286   1.698   0.169
 8465SOL    HW126294   1.331   1.610   0.182
 8465SOL    HW226295   1.321   1.764   0.237
 8466SOL     OW26296   0.376   0.136   4.197
 8466SOL    HW126297   0.351   0.197   4.272
 8466SOL    HW226298   0.465   0.163   4.160
 8467SOL     OW26299   3.636   5.363   0.911
 8467SOL    HW126300   3.684   5.427   0.971
 8467SOL    HW226301   3.606   5.411   0.829
 8468SOL     OW26302   3.845   2.256   0.335
 8468SOL    HW126303   3.904   2.328   0.297
 8468SOL    HW226304   3.902   2.184   0.375
 8469SOL     OW26305   3.772   2.150   6.174
 8469SOL    HW126306   3.865   2.112   6.169
 8469SOL    HW226307   3.758   2.191   6.264
 8470SOL     OW26308   1.563   2.769   6.819
 8470SOL    HW126309   1.636   2.812   6.766
 8470SOL    HW226310   1.537   2.683   6.775
 8471SOL     OW26311   4.135   1.818   4.004
 8471SOL    HW126312   4.212   1.878   3.984
 8471SOL    HW226313   4.052   1.855   3.961
 8472SOL     OW26314   1.386   6.616   2.840
 8472SOL    HW126315   1.389   6.707   2.881
 8472SOL    HW226316   1.472   6.598   2.792
 8473SOL     OW26317   6.485   5.710   6.165
 8473SOL    HW126318   6.437   5.714   6.077
 8473SOL    HW226319   6.419   5.693   6.238
 8474SOL     OW26320   3.677   5.414   0.400
 8474SOL    HW126321   3.691   5.508   0.371
 8474SOL    HW226322   3.651   5.412   0.497
 8475SOL     OW26323   4.810   1.860   3.188
 8475SOL    HW126324   4.745   1.902   3.125
 8475SOL    HW226325   4.764   1.787   3.239
 8476SOL     OW26326   4.458   0.463   2.280
 8476SOL    HW126327   4.461   0.368   2.310
 8476SOL    HW226328   4.386   0.474   2.212
 8477SOL     OW26329   2.447   0.019   2.325
 8477SOL    HW126330   2.375   0.078   2.289
 8477SOL    HW226331   2.410   6.986   2.401
 8478SOL     OW26332   1.825   0.664   5.905
 8478SOL    HW126333   1.874   0.670   5.991
 8478SOL    HW226334   1.879   0.612   5.839
 8479SOL     OW26335   5.236   1.186   2.485
 8479SOL    HW126336   5.179   1.105   2.472
 8479SOL    HW226337   5.328   1.168   2.450
 8480SOL     OW26338   1.893   1.651   1.502
 8480SOL    HW126339   1.891   1.586   1.426
 8480SOL    HW226340   1.800   1.663   1.538
 8481SOL     OW26341   4.272   0.114   5.726
 8481SOL    HW126342   4.311   0.140   5.815
 8481SOL    HW226343   4.337   0.056   5.677
 8482SOL     OW26344   0.705   0.271   2.087
 8482SOL    HW126345   0.717   0.279   1.989
 8482SOL    HW226346   0.753   0.345   2.133
 8483SOL     OW26347   5.486   6.661   1.902
 8483SOL    HW126348   5.464   6.699   1.992
 8483SOL    HW226349   5.422   6.586   1.882
 8484SOL     OW26350   0.117   4.335   4.857
 8484SOL    HW126351   0.216   4.344   4.847
 8484SOL    HW226352   0.084   4.401   4.925
 8485SOL     OW26353   2.317   3.214   5.737
 8485SOL    HW126354   2.312   3.312   5.718
 8485SOL    HW226355   2.244   3.166   5.690
 8486SOL     OW26356   4.292   0.784   2.852
 8486SOL    HW126357   4.383   0.825   2.847
 8486SOL    HW226358   4.275   0.732   2.769
 8487SOL     OW26359   4.254   1.347   0.898
 8487SOL    HW126360   4.331   1.318   0.841
 8487SOL    HW226361   4.201   1.417   0.851
 8488SOL     OW26362   5.601   3.462   4.701
 8488SOL    HW126363   5.579   3.456   4.603
 8488SOL    HW226364   5.686   3.411   4.719
 8489SOL     OW26365   3.474   6.033   2.796
 8489SOL    HW126366   3.459   6.043   2.698
 8489SOL    HW226367   3.402   5.975   2.835
 8490SOL     OW26368   3.972   5.599   2.674
 8490SOL    HW126369   3.948   5.671   2.610
 8490SOL    HW226370   4.056   5.554   2.643
 8491SOL     OW26371   0.895   1.012   1.761
 8491SOL    HW126372   0.914   1.090   1.701
 8491SOL    HW226373   0.973   0.950   1.761
 8492SOL     OW26374   5.705   4.171   4.718
 8492SOL    HW126375   5.772   4.154   4.790
 8492SOL    HW226376   5.668   4.264   4.729
 8493SOL     OW26377   3.638   2.202   0.840
 8493SOL    HW126378   3.682   2.185   0.928
 8493SOL    HW226379   3.552   2.152   0.834
 8494SOL     OW26380   3.806   6.043   6.642
 8494SOL    HW126381   3.877   6.020   6.708
 8494SOL    HW226382   3.740   6.105   6.685
 8495SOL     OW26383   0.819   2.391   0.177
 8495SOL    HW126384   0.790   2.475   0.224
 8495SOL    HW226385   0.822   2.407   0.079
 8496SOL     OW26386   0.108   2.097   3.090
 8496SOL    HW126387   0.072   2.058   3.175
 8496SOL    HW226388   0.036   2.146   3.042
 8497SOL     OW26389   5.793   4.547   3.136
 8497SOL    HW126390   5.794   4.555   3.235
 8497SOL    HW226391   5.887   4.543   3.102
 8498SOL     OW26392   6.432   0.944   1.569
 8498SOL    HW126393   6.456   0.853   1.534
 8498SOL    HW226394   6.333   0.956   1.566
 8499SOL     OW26395   1.190   3.927   6.672
 8499SOL    HW126396   1.272   3.950   6.620
 8499SOL    HW226397   1.183   3.827   6.679
 8500SOL     OW26398   3.079   0.557   5.809
 8500SOL    HW126399   3.150   0.621   5.783
 8500SOL    HW226400   3.014   0.546   5.734
 8501SOL     OW26401   2.980   4.321   6.024
 8501SOL    HW126402   2.958   4.342   5.929
 8501SOL    HW226403   3.079   4.331   6.038
 8502SOL     OW26404   0.901   6.823   1.813
 8502SOL    HW126405   0.830   6.865   1.756
 8502SOL    HW226406   0.911   6.727   1.788
 8503SOL     OW26407   3.206   5.948   3.426
 8503SOL    HW126408   3.217   6.008   3.348
 8503SOL    HW226409   3.245   5.858   3.405
 8504SOL     OW26410   1.427   5.536   3.504
 8504SOL    HW126411   1.471   5.577   3.425
 8504SOL    HW226412   1.339   5.581   3.521
 8505SOL     OW26413   4.539   2.499   4.005
 8505SOL    HW126414   4.581   2.582   3.969
 8505SOL    HW226415   4.556   2.494   4.104
 8506SOL     OW26416   1.105   6.482   0.141
 8506SOL    HW126417   1.057   6.570   0.142
 8506SOL    HW226418   1.189   6.491   0.087
 8507SOL     OW26419   1.585   0.144   5.299
 8507SOL    HW126420   1.599   0.060   5.350
 8507SOL    HW226421   1.655   0.152   5.228
 8508SOL     OW26422   0.588   2.891   5.165
 8508SOL    HW126423   0.660   2.866   5.100
 8508SOL    HW226424   0.534   2.966   5.127
 8509SOL     OW26425   5.847   2.001   4.862
 8509SOL    HW126426   5.776   2.058   4.821
 8509SOL    HW226427   5.830   1.905   4.841
 8510SOL     OW26428   5.199   6.924   2.249
 8510SOL    HW126429   5.153   7.012   2.255
 8510SOL    HW226430   5.136   6.856   2.212
 8511SOL     OW26431   6.425   5.592   1.531
 8511SOL    HW126432   6.460   5.570   1.440
 8511SOL    HW226433   6.326   5.601   1.528
 8512SOL     OW26434   3.178   3.202   0.660
 8512SOL    HW126435   3.142   3.110   0.677
 8512SOL    HW226436   3.162   3.260   0.740
 8513SOL     OW26437   1.137   3.474   1.011
 8513SOL    HW126438   1.116   3.561   1.054
 8513SOL    HW226439   1.131   3.483   0.912
 8514SOL     OW26440   2.392   2.262   5.205
 8514SOL    HW126441   2.389   2.322   5.125
 8514SOL    HW226442   2.386   2.318   5.288
 8515SOL     OW26443   2.190   0.248   0.992
 8515SOL    HW126444   2.155   0.234   0.900
 8515SOL    HW226445   2.250   0.329   0.994
 8516SOL     OW26446   5.698   3.086   4.208
 8516SOL    HW126447   5.714   2.987   4.207
 8516SOL    HW226448   5.647   3.110   4.290
 8517SOL     OW26449   2.084   1.699   6.467
 8517SOL    HW126450   2.067   1.751   6.550
 8517SOL    HW226451   2.129   1.757   6.399
 8518SOL     OW26452   5.471   5.565   6.526
 8518SOL    HW126453   5.500   5.649   6.479
 8518SOL    HW226454   5.545   5.498   6.522
 8519SOL     OW26455   0.499   3.363   0.439
 8519SOL    HW126456   0.450   3.450   0.443
 8519SOL    HW226457   0.437   3.291   0.410
 8520SOL     OW26458   3.483   4.084   5.893
 8520SOL    HW126459   3.467   4.061   5.989
 8520SOL    HW226460   3.397   4.074   5.842
 8521SOL     OW26461   1.907   6.503   5.383
 8521SOL    HW126462   1.993   6.490   5.432
 8521SOL    HW226463   1.847   6.425   5.398
 8522SOL     OW26464   0.932   6.710   0.216
 8522SOL    HW126465   0.855   6.715   0.280
 8522SOL    HW226466   0.959   6.802   0.188
 8523SOL     OW26467   3.728   1.975   0.678
 8523SOL    HW126468   3.739   2.068   0.714
 8523SOL    HW226469   3.635   1.943   0.696
 8524SOL     OW26470   2.287   5.502   5.574
 8524SOL    HW126471   2.200   5.542   5.543
 8524SOL    HW226472   2.269   5.440   5.650
 8525SOL     OW26473   6.355   3.427   2.020
 8525SOL    HW126474   6.414   3.453   2.096
 8525SOL    HW226475   6.263   3.464   2.035
 8526SOL     OW26476   0.113   4.398   6.915
 8526SOL    HW126477   0.104   4.482   6.969
 8526SOL    HW226478   0.024   4.356   6.904
 8527SOL     OW26479   2.703   1.205   5.937
 8527SOL    HW126480   2.740   1.281   5.991
 8527SOL    HW226481   2.677   1.131   5.999
 8528SOL     OW26482   5.777   0.719   0.788
 8528SOL    HW126483   5.835   0.710   0.869
 8528SOL    HW226484   5.681   0.714   0.815
 8529SOL     OW26485   0.954   6.442   6.802
 8529SOL    HW126486   1.007   6.486   6.729
 8529SOL    HW226487   0.920   6.513   6.864
 8530SOL     OW26488   3.823   3.980   3.024
 8530SOL    HW126489   3.732   3.942   3.038
 8530SOL    HW226490   3.825   4.033   2.939
 8531SOL     OW26491   6.241   5.115   3.768
 8531SOL    HW126492   6.142   5.121   3.759
 8531SOL    HW226493   6.279   5.207   3.776
 8532SOL     OW26494   3.228   5.757   6.883
 8532SOL    HW126495   3.151   5.694   6.869
 8532SOL    HW226496   3.195   5.841   6.927
 8533SOL     OW26497   2.273   6.677   4.842
 8533SOL    HW126498   2.362   6.711   4.812
 8533SOL    HW226499   2.285   6.592   4.893
 8534SOL     OW26500   1.970   2.348   2.738
 8534SOL    HW126501   2.048   2.309   2.786
 8534SOL    HW226502   1.885   2.310   2.775
 8535SOL     OW26503   5.874   0.567   2.096
 8535SOL    HW126504   5.832   0.547   2.185
 8535SOL    HW226505   5.907   0.661   2.095
 8536SOL     OW26506   1.482   1.056   4.029
 8536SOL    HW126507   1.467   1.039   4.127
 8536SOL    HW226508   1.461   1.152   4.009
 8537SOL     OW26509   6.190   1.358   3.173
 8537SOL    HW126510   6.268   1.306   3.207
 8537SOL    HW226511   6.174   1.436   3.233
 8538SOL     OW26512   1.093   2.479   0.372
 8538SOL    HW126513   1.134   2.491   0.281
 8538SOL    HW226514   1.152   2.420   0.427
 8539SOL     OW26515   5.475   2.918   1.820
 8539SOL    HW126516   5.379   2.899   1.839
 8539SOL    HW226517   5.499   2.885   1.728
 8540SOL     OW26518   3.896   0.675   1.360
 8540SOL    HW126519   3.942   0.647   1.276
 8540SOL    HW226520   3.818   0.733   1.337
 8541SOL     OW26521   2.164   2.714   3.891
 8541SOL    HW126522   2.239   2.669   3.939
 8541SOL    HW226523   2.103   2.757   3.957
 8542SOL     OW26524   3.402   4.666   0.584
 8542SOL    HW126525   3.484   4.720   0.605
 8542SOL    HW226526   3.329   4.728   0.553
 8543SOL     OW26527   3.011   2.010   6.470
 8543SOL    HW126528   3.035   1.946   6.397
 8543SOL    HW226529   2.912   2.024   6.470
 8544SOL     OW26530   6.056   1.827   4.546
 8544SOL    HW126531   6.153   1.850   4.553
 8544SOL    HW226532   6.004   1.907   4.517
 8545SOL     OW26533   4.440   6.606   5.001
 8545SOL    HW126534   4.520   6.606   5.060
 8545SOL    HW226535   4.466   6.579   4.909
 8546SOL     OW26536   4.566   2.737   6.851
 8546SOL    HW126537   4.637   2.749   6.920
 8546SOL    HW226538   4.477   2.730   6.895
 8547SOL     OW26539   1.475   4.597   1.889
 8547SOL    HW126540   1.524   4.510   1.892
 8547SOL    HW226541   1.395   4.593   1.948
 8548SOL     OW26542   6.104   2.100   5.509
 8548SOL    HW126543   6.148   2.148   5.433
 8548SOL    HW226544   6.174   2.049   5.559
 8549SOL     OW26545   5.523   3.320   5.605
 8549SOL    HW126546   5.468   3.367   5.536
 8549SOL    HW226547   5.477   3.236   5.633
 8550SOL     OW26548   1.001   4.392   5.972
 8550SOL    HW126549   0.919   4.378   5.917
 8550SOL    HW226550   1.044   4.304   5.991
 8551SOL     OW26551   2.419   4.395   1.013
 8551SOL    HW126552   2.402   4.470   0.950
 8551SOL    HW226553   2.428   4.309   0.962
 8552SOL     OW26554   3.111   6.516   4.843
 8552SOL    HW126555   3.120   6.450   4.918
 8552SOL    HW226556   3.193   6.514   4.786
 8553SOL     OW26557   5.993   5.002   6.896
 8553SOL    HW126558   5.989   5.022   6.994
 8553SOL    HW226559   6.023   5.084   6.847
 8554SOL     OW26560   5.862   3.697   6.813
 8554SOL    HW126561   5.857   3.673   6.910
 8554SOL    HW226562   5.856   3.614   6.758
 8555SOL     OW26563   1.803   6.758   4.426
 8555SOL    HW126564   1.888   6.719   4.389
 8555SOL    HW226565   1.740   6.684   4.448
 8556SOL     OW26566   6.190   6.939   4.228
 8556SOL    HW126567   6.114   6.875   4.219
 8556SOL    HW226568   6.270   6.892   4.265
 8557SOL     OW26569   6.982   0.866   0.368
 8557SOL    HW126570   6.948   0.959   0.386
 8557SOL    HW226571   6.936   0.802   0.429
 8558SOL     OW26572   0.660   4.870   2.170
 8558SOL    HW126573   0.746   4.823   2.151
 8558SOL    HW226574   0.678   4.967   2.186
 8559SOL     OW26575   0.601   1.494   5.516
 8559SOL    HW126576   0.508   1.499   5.551
 8559SOL    HW226577   0.654   1.573   5.548
 8560SOL     OW26578   6.620   2.231   6.789
 8560SOL    HW126579   6.556   2.186   6.727
 8560SOL    HW226580   6.580   2.316   6.823
 8561SOL     OW26581   4.427   6.277   5.537
 8561SOL    HW126582   4.518   6.236   5.548
 8561SOL    HW226583   4.413   6.345   5.609
 8562SOL     OW26584   3.679   0.245   4.606
 8562SOL    HW126585   3.624   0.311   4.554
 8562SOL    HW226586   3.703   0.284   4.695
 8563SOL     OW26587   2.850   2.886   6.410
 8563SOL    HW126588   2.948   2.879   6.427
 8563SOL    HW226589   2.805   2.924   6.491
 8564SOL     OW26590   0.590   6.135   3.090
 8564SOL    HW126591   0.603   6.139   3.189
 8564SOL    HW226592   0.495   6.154   3.067
 8565SOL     OW26593   3.479   0.630   1.223
 8565SOL    HW126594   3.432   0.592   1.143
 8565SOL    HW226595   3.572   0.595   1.226
 8566SOL     OW26596   1.633   3.893   3.680
 8566SOL    HW126597   1.592   3.876   3.770
 8566SOL    HW226598   1.726   3.857   3.678
 8567SOL     OW26599   4.830   5.650   6.877
 8567SOL    HW126600   4.922   5.684   6.857
 8567SOL    HW226601   4.763   5.697   6.819
 8568SOL     OW26602   5.171   0.648   6.984
 8568SOL    HW126603   5.210   0.719   6.926
 8568SOL    HW226604   5.167   0.681   0.057
 8569SOL     OW26605   4.036   1.138   5.286
 8569SOL    HW126606   3.984   1.082   5.221
 8569SOL    HW226607   4.078   1.079   5.355
 8570SOL     OW26608   0.169   2.973   6.198
 8570SOL    HW126609   0.133   2.903   6.260
 8570SOL    HW226610   0.269   2.969   6.199
 8571SOL     OW26611   0.214   4.670   5.061
 8571SOL    HW126612   0.189   4.577   5.090
 8571SOL    HW226613   0.223   4.729   5.141
 8572SOL     OW26614   2.988   4.831   5.462
 8572SOL    HW126615   2.984   4.862   5.557
 8572SOL    HW226616   3.081   4.841   5.427
 8573SOL     OW26617   3.480   6.226   4.124
 8573SOL    HW126618   3.547   6.279   4.176
 8573SOL    HW226619   3.388   6.260   4.144
 8574SOL     OW26620   0.391   4.197   4.185
 8574SOL    HW126621   0.469   4.258   4.175
 8574SOL    HW226622   0.355   4.203   4.278
 8575SOL     OW26623   3.154   3.599   6.657
 8575SOL    HW126624   3.138   3.602   6.558
 8575SOL    HW226625   3.073   3.561   6.702
 8576SOL     OW26626   1.842   0.345   0.830
 8576SOL    HW126627   1.823   0.393   0.744
 8576SOL    HW226628   1.792   0.258   0.830
 8577SOL     OW26629   6.256   5.774   4.320
 8577SOL    HW126630   6.225   5.844   4.385
 8577SOL    HW226631   6.343   5.803   4.279
 8578SOL     OW26632   5.087   0.618   2.928
 8578SOL    HW126633   5.020   0.692   2.920
 8578SOL    HW226634   5.046   0.532   2.897
 8579SOL     OW26635   0.405   5.031   2.739
 8579SOL    HW126636   0.438   4.951   2.689
 8579SOL    HW226637   0.429   5.114   2.689
 8580SOL     OW26638   2.499   4.895   6.172
 8580SOL    HW126639   2.501   4.975   6.112
 8580SOL    HW226640   2.437   4.913   6.249
 8581SOL     OW26641   3.062   2.963   0.164
 8581SOL    HW126642   3.091   3.003   0.077
 8581SOL    HW226643   3.044   2.866   0.153
 8582SOL     OW26644   4.325   4.637   0.865
 8582SOL    HW126645   4.391   4.617   0.792
 8582SOL    HW226646   4.368   4.620   0.954
 8583SOL     OW26647   5.609   6.514   5.321
 8583SOL    HW126648   5.662   6.505   5.236
 8583SOL    HW226649   5.564   6.603   5.322
 8584SOL     OW26650   0.723   5.476   6.597
 8584SOL    HW126651   0.724   5.457   6.695
 8584SOL    HW226652   0.768   5.563   6.579
 8585SOL     OW26653   1.075   1.461   0.823
 8585SOL    HW126654   1.059   1.535   0.758
 8585SOL    HW226655   1.068   1.497   0.916
 8586SOL     OW26656   4.156   5.229   4.468
 8586SOL    HW126657   4.120   5.183   4.387
 8586SOL    HW226658   4.199   5.161   4.528
 8587SOL     OW26659   6.796   1.755   1.802
 8587SOL    HW126660   6.709   1.786   1.762
 8587SOL    HW226661   6.787   1.660   1.831
 8588SOL     OW26662   3.528   2.042   6.463
 8588SOL    HW126663   3.453   2.107   6.454
 8588SOL    HW226664   3.508   1.977   6.535
 8589SOL     OW26665   2.802   1.747   5.173
 8589SOL    HW126666   2.795   1.814   5.247
 8589SOL    HW226667   2.897   1.716   5.165
 8590SOL     OW26668   6.090   5.392   5.066
 8590SOL    HW126669   6.145   5.441   4.998
 8590SOL    HW226670   6.141   5.386   5.152
 8591SOL     OW26671   0.610   2.356   0.759
 8591SOL    HW126672   0.650   2.425   0.818
 8591SOL    HW226673   0.621   2.265   0.800
 8592SOL     OW26674   6.476   5.819   6.474
 8592SOL    HW126675   6.426   5.782   6.395
 8592SOL    HW226676   6.527   5.901   6.446
 8593SOL     OW26677   0.327   5.872   2.969
 8593SOL    HW126678   0.322   5.971   2.970
 8593SOL    HW226679   0.355   5.839   3.059
 8594SOL     OW26680   3.588   4.025   3.283
 8594SOL    HW126681   3.680   4.040   3.321
 8594SOL    HW226682   3.593   3.954   3.213
 8595SOL     OW26683   1.518   3.071   1.684
 8595SOL    HW126684   1.562   3.129   1.752
 8595SOL    HW226685   1.500   3.124   1.602
 8596SOL     OW26686   6.413   4.134   2.190
 8596SOL    HW126687   6.384   4.172   2.278
 8596SOL    HW226688   6.457   4.206   2.136
 8597SOL     OW26689   2.654   2.177   0.406
 8597SOL    HW126690   2.673   2.149   0.312
 8597SOL    HW226691   2.668   2.100   0.468
 8598SOL     OW26692   5.710   3.685   1.990
 8598SOL    HW126693   5.775   3.613   1.962
 8598SOL    HW226694   5.651   3.650   2.062
 8599SOL     OW26695   0.596   3.245   0.688
 8599SOL    HW126696   0.551   3.253   0.599
 8599SOL    HW226697   0.690   3.212   0.675
 8600SOL     OW26698   6.468   2.759   6.358
 8600SOL    HW126699   6.497   2.841   6.309
 8600SOL    HW226700   6.405   2.706   6.301
 8601SOL     OW26701   0.433   0.371   5.518
 8601SOL    HW126702   0.455   0.291   5.463
 8601SOL    HW226703   0.341   0.361   5.555
 8602SOL     OW26704   1.894   6.422   1.688
 8602SOL    HW126705   1.820   6.489   1.699
 8602SOL    HW226706   1.866   6.336   1.730
 8603SOL     OW26707   4.897   3.379   1.461
 8603SOL    HW126708   4.948   3.297   1.487
 8603SOL    HW226709   4.822   3.354   1.400
 8604SOL     OW26710   5.982   2.467   3.164
 8604SOL    HW126711   5.979   2.547   3.223
 8604SOL    HW226712   6.052   2.404   3.197
 8605SOL     OW26713   2.864   5.713   1.839
 8605SOL    HW126714   2.897   5.774   1.767
 8605SOL    HW226715   2.892   5.619   1.818
 8606SOL     OW26716   3.624   5.493   5.118
 8606SOL    HW126717   3.692   5.420   5.124
 8606SOL    HW226718   3.588   5.513   5.209
 8607SOL     OW26719   3.079   6.238   1.130
 8607SOL    HW126720   2.998   6.190   1.098
 8607SOL    HW226721   3.080   6.238   1.230
 8608SOL     OW26722   5.971   6.656   1.900
 8608SOL    HW126723   6.046   6.666   1.834
 8608SOL    HW226724   6.003   6.679   1.991
 8609SOL     OW26725   4.547   0.591   6.185
 8609SOL    HW126726   4.551   0.645   6.269
 8609SOL    HW226727   4.639   0.562   6.160
 8610SOL     OW26728   0.415   6.525   5.796
 8610SOL    HW126729   0.387   6.615   5.763
 8610SOL    HW226730   0.515   6.517   5.792
 8611SOL     OW26731   1.764   1.857   2.981
 8611SOL    HW126732   1.850   1.901   3.008
 8611SOL    HW226733   1.752   1.867   2.882
 8612SOL     OW26734   5.193   3.239   4.702
 8612SOL    HW126735   5.208   3.185   4.786
 8612SOL    HW226736   5.188   3.336   4.726
 8613SOL     OW26737   1.400   0.732   0.419
 8613SOL    HW126738   1.494   0.753   0.392
 8613SOL    HW226739   1.336   0.783   0.362
 8614SOL     OW26740   1.663   1.964   3.338
 8614SOL    HW126741   1.579   1.978   3.391
 8614SOL    HW226742   1.661   2.023   3.257
 8615SOL     OW26743   4.425   1.974   5.407
 8615SOL    HW126744   4.460   2.017   5.324
 8615SOL    HW226745   4.502   1.935   5.459
 8616SOL     OW26746   1.202   3.031   0.240
 8616SOL    HW126747   1.107   3.000   0.250
 8616SOL    HW226748   1.250   2.972   0.176
 8617SOL     OW26749   5.714   2.331   0.721
 8617SOL    HW126750   5.632   2.359   0.771
 8617SOL    HW226751   5.793   2.384   0.753
 8618SOL     OW26752   3.978   1.267   2.742
 8618SOL    HW126753   3.959   1.175   2.778
 8618SOL    HW226754   3.895   1.322   2.747
 8619SOL     OW26755   4.050   6.200   0.940
 8619SOL    HW126756   4.044   6.135   0.865
 8619SOL    HW226757   3.967   6.194   0.997
 8620SOL     OW26758   6.378   5.866   3.427
 8620SOL    HW126759   6.405   5.870   3.331
 8620SOL    HW226760   6.326   5.949   3.450
 8621SOL     OW26761   5.106   0.586   3.850
 8621SOL    HW126762   5.041   0.532   3.797
 8621SOL    HW226763   5.133   0.667   3.798
 8622SOL     OW26764   5.118   5.136   6.737
 8622SOL    HW126765   5.185   5.065   6.758
 8622SOL    HW226766   5.094   5.132   6.640
 8623SOL     OW26767   6.556   2.360   4.055
 8623SOL    HW126768   6.559   2.282   4.117
 8623SOL    HW226769   6.646   2.403   4.052
 8624SOL     OW26770   6.811   3.425   3.607
 8624SOL    HW126771   6.789   3.506   3.661
 8624SOL    HW226772   6.822   3.451   3.511
 8625SOL     OW26773   3.649   1.300   6.410
 8625SOL    HW126774   3.631   1.204   6.432
 8625SOL    HW226775   3.590   1.329   6.335
 8626SOL     OW26776   2.922   3.364   2.353
 8626SOL    HW126777   2.927   3.318   2.264
 8626SOL    HW226778   2.967   3.307   2.422
 8627SOL     OW26779   2.600   0.730   6.859
 8627SOL    HW126780   2.540   0.782   6.799
 8627SOL    HW226781   2.678   0.787   6.886
 8628SOL     OW26782   6.145   1.463   0.851
 8628SOL    HW126783   6.224   1.524   0.851
 8628SOL    HW226784   6.063   1.515   0.875
 8629SOL     OW26785   1.263   5.334   3.640
 8629SOL    HW126786   1.315   5.255   3.673
 8629SOL    HW226787   1.326   5.409   3.621
 8630SOL     OW26788   5.605   4.973   3.939
 8630SOL    HW126789   5.599   5.070   3.961
 8630SOL    HW226790   5.626   4.921   4.022
 8631SOL     OW26791   4.458   6.289   4.026
 8631SOL    HW126792   4.477   6.311   4.121
 8631SOL    HW226793   4.437   6.192   4.017
 8632SOL     OW26794   3.608   0.037   3.293
 8632SOL    HW126795   3.540   0.040   3.367
 8632SOL    HW226796   3.652   6.969   3.293
 8633SOL     OW26797   6.591   6.624   2.877
 8633SOL    HW126798   6.568   6.531   2.848
 8633SOL    HW226799   6.528   6.653   2.949
 8634SOL     OW26800   6.359   6.028   1.583
 8634SOL    HW126801   6.379   5.966   1.507
 8634SOL    HW226802   6.370   5.980   1.670
 8635SOL     OW26803   6.576   3.547   5.551
 8635SOL    HW126804   6.490   3.563   5.502
 8635SOL    HW226805   6.591   3.622   5.616
 8636SOL     OW26806   5.456   5.402   0.584
 8636SOL    HW126807   5.506   5.432   0.665
 8636SOL    HW226808   5.520   5.384   0.509
 8637SOL     OW26809   1.703   1.135   1.454
 8637SOL    HW126810   1.789   1.107   1.410
 8637SOL    HW226811   1.671   1.061   1.514
 8638SOL     OW26812   5.221   4.965   1.125
 8638SOL    HW126813   5.213   5.065   1.128
 8638SOL    HW226814   5.315   4.939   1.105
 8639SOL     OW26815   6.160   2.551   1.965
 8639SOL    HW126816   6.153   2.597   1.877
 8639SOL    HW226817   6.184   2.617   2.036
 8640SOL     OW26818   4.854   6.355   1.474
 8640SOL    HW126819   4.907   6.329   1.555
 8640SOL    HW226820   4.840   6.275   1.416
 8641SOL     OW26821   5.141   4.938   3.346
 8641SOL    HW126822   5.194   4.856   3.322
 8641SOL    HW226823   5.157   5.009   3.278
 8642SOL     OW26824   4.404   1.574   1.963
 8642SOL    HW126825   4.350   1.557   1.881
 8642SOL    HW226826   4.362   1.525   2.040
 8643SOL     OW26827   4.603   0.393   0.053
 8643SOL    HW126828   4.520   0.371   0.002
 8643SOL    HW226829   4.681   0.350   0.008
 8644SOL     OW26830   6.970   3.444   5.327
 8644SOL    HW126831   6.963   3.428   5.229
 8644SOL    HW226832   0.044   3.433   5.356
 8645SOL     OW26833   6.314   3.924   1.730
 8645SOL    HW126834   6.352   3.962   1.645
 8645SOL    HW226835   6.246   3.987   1.767
 8646SOL     OW26836   5.267   6.300   0.935
 8646SOL    HW126837   5.188   6.340   0.983
 8646SOL    HW226838   5.248   6.299   0.837
 8647SOL     OW26839   4.396   4.746   2.126
 8647SOL    HW126840   4.466   4.677   2.110
 8647SOL    HW226841   4.321   4.735   2.060
 8648SOL     OW26842   5.964   1.395   4.403
 8648SOL    HW126843   5.916   1.308   4.416
 8648SOL    HW226844   5.940   1.432   4.313
 8649SOL     OW26845   6.722   4.653   6.112
 8649SOL    HW126846   6.801   4.666   6.053
 8649SOL    HW226847   6.677   4.741   6.129
 8650SOL     OW26848   0.244   5.159   1.766
 8650SOL    HW126849   0.322   5.212   1.798
 8650SOL    HW226850   0.263   5.122   1.676
 8651SOL     OW26851   4.126   3.012   1.297
 8651SOL    HW126852   4.089   3.096   1.255
 8651SOL    HW226853   4.198   2.975   1.238
 8652SOL     OW26854   1.067   3.261   3.637
 8652SOL    HW126855   1.017   3.182   3.675
 8652SOL    HW226856   1.115   3.232   3.554
 8653SOL     OW26857   5.075   2.971   6.519
 8653SOL    HW126858   5.101   3.030   6.442
 8653SOL    HW226859   5.069   2.876   6.488
 8654SOL     OW26860   0.974   5.276   1.679
 8654SOL    HW126861   0.920   5.333   1.617
 8654SOL    HW226862   0.966   5.312   1.772
 8655SOL     OW26863   6.368   6.633   2.492
 8655SOL    HW126864   6.451   6.611   2.542
 8655SOL    HW226865   6.290   6.588   2.535
 8656SOL     OW26866   6.666   1.811   1.321
 8656SOL    HW126867   6.593   1.825   1.387
 8656SOL    HW226868   6.669   1.888   1.257
 8657SOL     OW26869   2.773   4.600   0.788
 8657SOL    HW126870   2.819   4.594   0.876
 8657SOL    HW226871   2.767   4.696   0.760
 8658SOL     OW26872   0.788   5.618   6.162
 8658SOL    HW126873   0.775   5.717   6.156
 8658SOL    HW226874   0.729   5.573   6.095
 8659SOL     OW26875   4.071   0.015   3.917
 8659SOL    HW126876   4.038   0.068   3.995
 8659SOL    HW226877   4.046   6.940   3.929
 8660SOL     OW26878   5.586   4.685   0.188
 8660SOL    HW126879   5.545   4.623   0.121
 8660SOL    HW226880   5.672   4.646   0.222
 8661SOL     OW26881   6.565   3.144   1.669
 8661SOL    HW126882   6.519   3.232   1.654
 8661SOL    HW226883   6.502   3.070   1.644
 8662SOL     OW26884   0.718   0.240   0.393
 8662SOL    HW126885   0.675   0.173   0.332
 8662SOL    HW226886   0.806   0.204   0.424
 8663SOL     OW26887   2.351   5.855   1.025
 8663SOL    HW126888   2.278   5.797   1.060
 8663SOL    HW226889   2.394   5.904   1.101
 8664SOL     OW26890   4.349   5.093   1.772
 8664SOL    HW126891   4.355   5.150   1.854
 8664SOL    HW226892   4.374   5.147   1.692
 8665SOL     OW26893   5.103   5.599   4.454
 8665SOL    HW126894   5.061   5.511   4.474
 8665SOL    HW226895   5.165   5.590   4.375
 8666SOL     OW26896   6.168   4.380   4.066
 8666SOL    HW126897   6.228   4.459   4.051
 8666SOL    HW226898   6.209   4.320   4.134
 8667SOL     OW26899   5.826   2.504   3.450
 8667SOL    HW126900   5.809   2.411   3.417
 8667SOL    HW226901   5.794   2.569   3.382
 8668SOL     OW26902   3.399   0.928   4.397
 8668SOL    HW126903   3.314   0.980   4.403
 8668SOL    HW226904   3.475   0.991   4.377
 8669SOL     OW26905   4.030   6.771   5.519
 8669SOL    HW126906   4.054   6.864   5.546
 8669SOL    HW226907   3.931   6.757   5.533
 8670SOL     OW26908   4.258   4.792   2.614
 8670SOL    HW126909   4.290   4.736   2.538
 8670SOL    HW226910   4.336   4.826   2.666
 8671SOL     OW26911   6.164   6.301   2.593
 8671SOL    HW126912   6.118   6.216   2.619
 8671SOL    HW226913   6.096   6.368   2.563
 8672SOL     OW26914   3.707   5.169   5.606
 8672SOL    HW126915   3.686   5.151   5.702
 8672SOL    HW226916   3.778   5.105   5.576
 8673SOL     OW26917   4.841   2.297   0.056
 8673SOL    HW126918   4.933   2.317   0.092
 8673SOL    HW226919   4.817   2.202   0.077
 8674SOL     OW26920   0.904   0.091   2.944
 8674SOL    HW126921   0.953   0.131   3.022
 8674SOL    HW226922   0.852   0.012   2.976
 8675SOL     OW26923   2.025   2.613   2.276
 8675SOL    HW126924   1.998   2.609   2.372
 8675SOL    HW226925   2.095   2.682   2.264
 8676SOL     OW26926   4.231   0.784   4.380
 8676SOL    HW126927   4.323   0.776   4.419
 8676SOL    HW226928   4.169   0.821   4.449
 8677SOL     OW26929   1.888   4.274   5.287
 8677SOL    HW126930   1.830   4.336   5.234
 8677SOL    HW226931   1.982   4.279   5.253
 8678SOL     OW26932   1.576   0.973   6.364
 8678SOL    HW126933   1.661   0.924   6.345
 8678SOL    HW226934   1.499   0.909   6.355
 8679SOL     OW26935   6.353   1.468   4.577
 8679SOL    HW126936   6.263   1.503   4.603
 8679SOL    HW226937   6.388   1.521   4.499
 8680SOL     OW26938   1.127   3.550   0.692
 8680SOL    HW126939   1.086   3.475   0.639
 8680SOL    HW226940   1.071   3.632   0.680
 8681SOL     OW26941   4.135   3.564   1.280
 8681SOL    HW126942   4.175   3.548   1.370
 8681SOL    HW226943   4.155   3.485   1.221
 8682SOL     OW26944   1.409   5.247   2.768
 8682SOL    HW126945   1.447   5.189   2.840
 8682SOL    HW226946   1.402   5.196   2.683
 8683SOL     OW26947   5.207   2.699   6.143
 8683SOL    HW126948   5.298   2.694   6.186
 8683SOL    HW226949   5.152   2.620   6.172
 8684SOL     OW26950   6.976   2.768   4.393
 8684SOL    HW126951   6.907   2.789   4.462
 8684SOL    HW226952   6.936   2.710   4.322
 8685SOL     OW26953   0.318   1.351   5.554
 8685SOL    HW126954   0.278   1.402   5.478
 8685SOL    HW226955   0.297   1.254   5.545
 8686SOL     OW26956   6.635   1.706   3.851
 8686SOL    HW126957   6.719   1.664   3.815
 8686SOL    HW226958   6.613   1.787   3.796
 8687SOL     OW26959   3.637   1.095   2.793
 8687SOL    HW126960   3.724   1.099   2.841
 8687SOL    HW226961   3.580   1.173   2.819
 8688SOL     OW26962   1.220   0.177   2.114
 8688SOL    HW126963   1.227   0.107   2.042
 8688SOL    HW226964   1.157   0.145   2.185
 8689SOL     OW26965   4.505   5.173   0.792
 8689SOL    HW126966   4.454   5.176   0.707
 8689SOL    HW226967   4.600   5.202   0.776
 8690SOL     OW26968   1.402   1.163   3.131
 8690SOL    HW126969   1.489   1.175   3.179
 8690SOL    HW226970   1.418   1.112   3.046
 8691SOL     OW26971   5.662   1.439   0.686
 8691SOL    HW126972   5.704   1.529   0.694
 8691SOL    HW226973   5.588   1.430   0.753
 8692SOL     OW26974   1.602   1.630   3.638
 8692SOL    HW126975   1.645   1.612   3.549
 8692SOL    HW226976   1.667   1.676   3.698
 8693SOL     OW26977   5.431   2.155   6.965
 8693SOL    HW126978   5.512   2.160   6.905
 8693SOL    HW226979   5.393   2.246   6.977
 8694SOL     OW26980   3.706   6.718   6.980
 8694SOL    HW126981   3.705   6.817   6.968
 8694SOL    HW226982   3.644   6.692   0.032
 8695SOL     OW26983   4.512   4.347   5.198
 8695SOL    HW126984   4.542   4.416   5.264
 8695SOL    HW226985   4.417   4.365   5.172
 8696SOL     OW26986   1.876   5.265   1.122
 8696SOL    HW126987   1.890   5.363   1.137
 8696SOL    HW226988   1.786   5.239   1.159
 8697SOL     OW26989   5.053   5.083   6.443
 8697SOL    HW126990   4.974   5.134   6.409
 8697SOL    HW226991   5.073   5.007   6.382
 8698SOL     OW26992   5.791   6.124   4.496
 8698SOL    HW126993   5.751   6.110   4.405
 8698SOL    HW226994   5.748   6.204   4.538
 8699SOL     OW26995   1.240   1.684   5.151
 8699SOL    HW126996   1.189   1.763   5.116
 8699SOL    HW226997   1.304   1.652   5.081
 8700SOL     OW26998   2.886   2.228   5.865
 8700SOL    HW126999   2.873   2.227   5.766
 8700SOL    HW227000   2.964   2.286   5.888
 8701SOL     OW27001   1.321   2.029   3.730
 8701SOL    HW127002   1.258   1.976   3.787
 8701SOL    HW227003   1.369   2.096   3.786
 8702SOL     OW27004   5.120   5.774   6.960
 8702SOL    HW127005   5.155   5.826   0.016
 8702SOL    HW227006   5.196   5.737   6.907
 8703SOL     OW27007   1.091   5.714   1.026
 8703SOL    HW127008   1.187   5.735   1.011
 8703SOL    HW227009   1.036   5.797   1.010
 8704SOL     OW27010   0.193   4.144   2.137
 8704SOL    HW127011   0.219   4.199   2.058
 8704SOL    HW227012   0.260   4.070   2.148
 8705SOL     OW27013   4.944   6.806   4.341
 8705SOL    HW127014   5.032   6.781   4.381
 8705SOL    HW227015   4.870   6.766   4.396
 8706SOL     OW27016   5.098   1.577   6.087
 8706SOL    HW127017   5.037   1.607   6.161
 8706SOL    HW227018   5.066   1.615   6.000
 8707SOL     OW27019   4.805   2.020   5.996
 8707SOL    HW127020   4.793   2.095   6.061
 8707SOL    HW227021   4.738   1.948   6.016
 8708SOL     OW27022   4.057   1.782   0.672
 8708SOL    HW127023   4.116   1.772   0.592
 8708SOL    HW227024   4.111   1.821   0.747
 8709SOL     OW27025   6.057   3.330   0.667
 8709SOL    HW127026   5.983   3.392   0.641
 8709SOL    HW227027   6.145   3.371   0.643
 8710SOL     OW27028   6.438   3.343   3.961
 8710SOL    HW127029   6.479   3.332   3.871
 8710SOL    HW227030   6.339   3.352   3.952
 8711SOL     OW27031   0.902   1.981   4.015
 8711SOL    HW127032   0.823   1.954   3.959
 8711SOL    HW227033   0.889   1.950   4.109
 8712SOL     OW27034   3.833   1.073   6.237
 8712SOL    HW127035   3.810   1.072   6.140
 8712SOL    HW227036   3.815   0.982   6.276
 8713SOL     OW27037   5.743   4.576   2.869
 8713SOL    HW127038   5.774   4.592   2.963
 8713SOL    HW227039   5.662   4.632   2.851
 8714SOL     OW27040   1.762   1.644   4.369
 8714SOL    HW127041   1.855   1.679   4.383
 8714SOL    HW227042   1.725   1.613   4.457
 8715SOL     OW27043   5.727   1.318   2.209
 8715SOL    HW127044   5.790   1.355   2.140
 8715SOL    HW227045   5.723   1.380   2.287
 8716SOL     OW27046   0.665   1.134   1.872
 8716SOL    HW127047   0.698   1.222   1.909
 8716SOL    HW227048   0.742   1.083   1.834
 8717SOL     OW27049   4.305   3.557   0.475
 8717SOL    HW127050   4.281   3.508   0.559
 8717SOL    HW227051   4.229   3.616   0.449
 8718SOL     OW27052   0.194   2.752   5.666
 8718SOL    HW127053   0.105   2.759   5.712
 8718SOL    HW227054   0.217   2.656   5.652
 8719SOL     OW27055   6.222   0.769   5.703
 8719SOL    HW127056   6.140   0.732   5.659
 8719SOL    HW227057   6.196   0.820   5.785
 8720SOL     OW27058   4.779   3.517   6.043
 8720SOL    HW127059   4.783   3.462   6.127
 8720SOL    HW227060   4.834   3.600   6.056
 8721SOL     OW27061   6.820   0.782   4.678
 8721SOL    HW127062   6.869   0.720   4.617
 8721SOL    HW227063   6.763   0.729   4.741
 8722SOL     OW27064   2.890   3.181   0.760
 8722SOL    HW127065   2.818   3.174   0.829
 8722SOL    HW227066   2.906   3.092   0.719
 8723SOL     OW27067   0.322   5.125   0.336
 8723SOL    HW127068   0.228   5.147   0.311
 8723SOL    HW227069   0.367   5.079   0.259
 8724SOL     OW27070   5.585   6.044   6.290
 8724SOL    HW127071   5.553   5.954   6.318
 8724SOL    HW227072   5.620   6.093   6.370
 8725SOL     OW27073   1.907   6.177   1.511
 8725SOL    HW127074   1.939   6.166   1.417
 8725SOL    HW227075   1.956   6.253   1.555
 8726SOL     OW27076   6.723   0.073   0.957
 8726SOL    HW127077   6.680   0.071   0.866
 8726SOL    HW227078   6.726   7.002   0.994
 8727SOL     OW27079   6.222   6.249   1.391
 8727SOL    HW127080   6.239   6.322   1.456
 8727SOL    HW227081   6.164   6.180   1.433
 8728SOL     OW27082   2.363   6.483   5.362
 8728SOL    HW127083   2.452   6.456   5.324
 8728SOL    HW227084   2.302   6.511   5.288
 8729SOL     OW27085   5.324   6.226   4.851
 8729SOL    HW127086   5.249   6.208   4.787
 8729SOL    HW227087   5.401   6.167   4.828
 8730SOL     OW27088   0.015   6.402   1.166
 8730SOL    HW127089   6.975   6.428   1.240
 8730SOL    HW227090   7.008   6.313   1.129
 8731SOL     OW27091   0.696   1.677   2.234
 8731SOL    HW127092   0.605   1.702   2.201
 8731SOL    HW227093   0.718   1.730   2.316
 8732SOL     OW27094   6.115   5.691   1.797
 8732SOL    HW127095   6.084   5.652   1.711
 8732SOL    HW227096   6.037   5.730   1.847
 8733SOL     OW27097   6.973   6.752   1.562
 8733SOL    HW127098   6.965   6.672   1.621
 8733SOL    HW227099   6.886   6.768   1.515
 8734SOL     OW27100   6.919   5.727   0.279
 8734SOL    HW127101   6.851   5.711   0.350
 8734SOL    HW227102   6.988   5.791   0.313
 8735SOL     OW27103   6.847   2.711   6.279
 8735SOL    HW127104   6.797   2.798   6.277
 8735SOL    HW227105   6.939   2.726   6.315
 8736SOL     OW27106   0.131   4.595   6.209
 8736SOL    HW127107   0.220   4.562   6.241
 8736SOL    HW227108   0.125   4.582   6.110
 8737SOL     OW27109   3.703   6.515   6.548
 8737SOL    HW127110   3.695   6.446   6.476
 8737SOL    HW227111   3.797   6.549   6.551
 8738SOL     OW27112   0.821   3.703   5.411
 8738SOL    HW127113   0.820   3.658   5.323
 8738SOL    HW227114   0.824   3.635   5.484
 8739SOL     OW27115   1.293   3.443   5.797
 8739SOL    HW127116   1.389   3.433   5.770
 8739SOL    HW227117   1.283   3.524   5.854
 8740SOL     OW27118   1.254   6.461   1.520
 8740SOL    HW127119   1.263   6.554   1.484
 8740SOL    HW227120   1.228   6.399   1.446
 8741SOL     OW27121   1.889   3.952   1.913
 8741SOL    HW127122   1.823   3.983   1.844
 8741SOL    HW227123   1.981   3.983   1.887
 8742SOL     OW27124   4.814   6.479   2.042
 8742SOL    HW127125   4.726   6.497   2.086
 8742SOL    HW227126   4.802   6.409   1.971
 8743SOL     OW27127   2.175   4.830   3.390
 8743SOL    HW127128   2.255   4.880   3.354
 8743SOL    HW227129   2.109   4.816   3.316
 8744SOL     OW27130   3.643   3.430   5.506
 8744SOL    HW127131   3.657   3.507   5.443
 8744SOL    HW227132   3.548   3.401   5.503
 8745SOL     OW27133   6.344   1.527   6.792
 8745SOL    HW127134   6.426   1.471   6.785
 8745SOL    HW227135   6.290   1.498   6.870
 8746SOL     OW27136   5.085   4.267   5.133
 8746SOL    HW127137   5.102   4.222   5.046
 8746SOL    HW227138   5.026   4.346   5.119
 8747SOL     OW27139   0.824   2.490   4.023
 8747SOL    HW127140   0.865   2.475   4.113
 8747SOL    HW227141   0.770   2.574   4.024
 8748SOL     OW27142   2.911   0.111   0.408
 8748SOL    HW127143   3.009   0.091   0.409
 8748SOL    HW227144   2.871   0.085   0.495
 8749SOL     OW27145   3.856   1.596   3.947
 8749SOL    HW127146   3.939   1.543   3.964
 8749SOL    HW227147   3.880   1.687   3.913
 8750SOL     OW27148   1.864   0.750   5.405
 8750SOL    HW127149   1.831   0.740   5.499
 8750SOL    HW227150   1.825   0.678   5.348
 8751SOL     OW27151   2.039   6.909   3.298
 8751SOL    HW127152   2.117   6.890   3.238
 8751SOL    HW227153   1.956   6.872   3.258
 8752SOL     OW27154   2.380   1.732   5.831
 8752SOL    HW127155   2.340   1.647   5.796
 8752SOL    HW227156   2.430   1.713   5.915
 8753SOL     OW27157   6.049   1.328   4.879
 8753SOL    HW127158   6.086   1.291   4.794
 8753SOL    HW227159   6.123   1.345   4.943
 8754SOL     OW27160   1.790   0.858   5.137
 8754SOL    HW127161   1.847   0.857   5.219
 8754SOL    HW227162   1.848   0.862   5.055
 8755SOL     OW27163   2.161   2.161   1.065
 8755SOL    HW127164   2.129   2.130   1.154
 8755SOL    HW227165   2.093   2.222   1.025
 8756SOL     OW27166   2.134   3.893   4.171
 8756SOL    HW127167   2.176   3.927   4.255
 8756SOL    HW227168   2.088   3.969   4.123
 8757SOL     OW27169   4.167   6.116   4.367
 8757SOL    HW127170   4.145   6.129   4.463
 8757SOL    HW227171   4.208   6.199   4.330
 8758SOL     OW27172   4.910   6.669   2.393
 8758SOL    HW127173   4.977   6.696   2.462
 8758SOL    HW227174   4.890   6.572   2.401
 8759SOL     OW27175   5.353   1.129   5.829
 8759SOL    HW127176   5.309   1.060   5.772
 8759SOL    HW227177   5.283   1.191   5.866
 8760SOL     OW27178   1.638   3.165   3.672
 8760SOL    HW127179   1.685   3.178   3.760
 8760SOL    HW227180   1.680   3.224   3.603
 8761SOL     OW27181   5.249   6.039   1.493
 8761SOL    HW127182   5.305   6.026   1.575
 8761SOL    HW227183   5.219   5.950   1.458
 8762SOL     OW27184   0.876   3.812   0.438
 8762SOL    HW127185   0.921   3.785   0.524
 8762SOL    HW227186   0.780   3.784   0.441
 8763SOL     OW27187   6.832   6.072   6.306
 8763SOL    HW127188   6.872   6.052   6.396
 8763SOL    HW227189   6.881   6.148   6.264
 8764SOL     OW27190   3.930   1.871   5.548
 8764SOL    HW127191   3.841   1.899   5.511
 8764SOL    HW227192   3.916   1.830   5.639
 8765SOL     OW27193   6.737   0.106   5.011
 8765SOL    HW127194   6.747   0.202   5.036
 8765SOL    HW227195   6.750   0.049   5.092
 8766SOL     OW27196   2.082   4.463   2.245
 8766SOL    HW127197   1.997   4.452   2.297
 8766SOL    HW227198   2.156   4.413   2.289
 8767SOL     OW27199   5.000   1.380   5.366
 8767SOL    HW127200   5.073   1.398   5.433
 8767SOL    HW227201   4.911   1.389   5.410
 8768SOL     OW27202   0.772   3.987   0.120
 8768SOL    HW127203   0.795   4.056   0.052
 8768SOL    HW227204   0.798   4.019   0.211
 8769SOL     OW27205   1.652   1.085   5.533
 8769SOL    HW127206   1.686   1.044   5.617
 8769SOL    HW227207   1.570   1.139   5.552
 8770SOL     OW27208   5.459   1.310   3.263
 8770SOL    HW127209   5.516   1.233   3.235
 8770SOL    HW227210   5.518   1.388   3.285
 8771SOL     OW27211   2.590   2.551   5.244
 8771SOL    HW127212   2.586   2.632   5.302
 8771SOL    HW227213   2.684   2.517   5.240
 8772SOL     OW27214   5.948   6.134   6.550
 8772SOL    HW127215   5.886   6.056   6.539
 8772SOL    HW227216   6.032   6.102   6.594
 8773SOL     OW27217   3.000   1.710   2.776
 8773SOL    HW127218   3.073   1.652   2.742
 8773SOL    HW227219   2.914   1.683   2.732
 8774SOL     OW27220   1.725   0.795   0.486
 8774SOL    HW127221   1.761   0.707   0.517
 8774SOL    HW227222   1.693   0.786   0.391
 8775SOL     OW27223   6.512   6.464   3.879
 8775SOL    HW127224   6.466   6.548   3.850
 8775SOL    HW227225   6.597   6.487   3.926
 8776SOL     OW27226   3.390   3.942   4.582
 8776SOL    HW127227   3.475   3.908   4.623
 8776SOL    HW227228   3.379   4.039   4.606
 8777SOL     OW27229   6.451   5.765   2.507
 8777SOL    HW127230   6.352   5.763   2.495
 8777SOL    HW227231   6.495   5.739   2.421
 8778SOL     OW27232   1.149   2.333   3.028
 8778SOL    HW127233   1.234   2.280   3.031
 8778SOL    HW227234   1.109   2.338   3.119
 8779SOL     OW27235   1.566   4.630   0.813
 8779SOL    HW127236   1.648   4.685   0.831
 8779SOL    HW227237   1.487   4.671   0.858
 8780SOL     OW27238   2.130   5.955   4.574
 8780SOL    HW127239   2.053   6.016   4.555
 8780SOL    HW227240   2.169   5.978   4.663
 8781SOL     OW27241   0.770   2.152   2.774
 8781SOL    HW127242   0.866   2.147   2.800
 8781SOL    HW227243   0.735   2.060   2.755
 8782SOL     OW27244   5.133   1.576   3.394
 8782SOL    HW127245   5.169   1.668   3.403
 8782SOL    HW227246   5.074   1.570   3.313
 8783SOL     OW27247   5.975   2.726   6.139
 8783SOL    HW127248   5.922   2.805   6.109
 8783SOL    HW227249   5.913   2.652   6.166
 8784SOL     OW27250   5.228   4.238   5.817
 8784SOL    HW127251   5.156   4.308   5.810
 8784SOL    HW227252   5.292   4.247   5.741
 8785SOL     OW27253   5.317   4.328   6.296
 8785SOL    HW127254   5.363   4.260   6.353
 8785SOL    HW227255   5.292   4.287   6.209
 8786SOL     OW27256   1.335   6.479   0.616
 8786SOL    HW127257   1.301   6.448   0.528
 8786SOL    HW227258   1.260   6.480   0.682
 8787SOL     OW27259   1.203   2.582   6.980
 8787SOL    HW127260   1.153   2.505   7.019
 8787SOL    HW227261   1.177   2.594   6.884
 8788SOL     OW27262   1.450   2.060   5.333
 8788SOL    HW127263   1.374   2.114   5.369
 8788SOL    HW227264   1.481   2.100   5.247
 8789SOL     OW27265   0.819   0.714   0.302
 8789SOL    HW127266   0.781   0.742   0.391
 8789SOL    HW227267   0.831   0.795   0.245
 8790SOL     OW27268   4.287   1.699   6.902
 8790SOL    HW127269   4.191   1.670   6.902
 8790SOL    HW227270   4.328   1.679   6.991
 8791SOL     OW27271   5.020   6.119   5.527
 8791SOL    HW127272   5.117   6.118   5.502
 8791SOL    HW227273   4.965   6.148   5.449
 8792SOL     OW27274   5.518   6.732   2.795
 8792SOL    HW127275   5.517   6.831   2.807
 8792SOL    HW227276   5.564   6.709   2.709
 8793SOL     OW27277   1.284   4.559   3.117
 8793SOL    HW127278   1.340   4.598   3.045
 8793SOL    HW227279   1.196   4.607   3.121
 8794SOL     OW27280   2.525   5.712   2.901
 8794SOL    HW127281   2.493   5.617   2.892
 8794SOL    HW227282   2.602   5.726   2.838
 8795SOL     OW27283   2.408   5.758   5.231
 8795SOL    HW127284   2.396   5.726   5.325
 8795SOL    HW227285   2.498   5.729   5.198
 8796SOL     OW27286   6.001   2.684   5.583
 8796SOL    HW127287   6.009   2.732   5.670
 8796SOL    HW227288   5.920   2.716   5.534
 8797SOL     OW27289   1.130   6.090   6.702
 8797SOL    HW127290   1.184   6.128   6.777
 8797SOL    HW227291   1.179   6.013   6.662
 8798SOL     OW27292   3.438   3.194   5.737
 8798SOL    HW127293   3.396   3.107   5.765
 8798SOL    HW227294   3.503   3.177   5.663
 8799SOL     OW27295   3.317   0.408   3.158
 8799SOL    HW127296   3.370   0.493   3.149
 8799SOL    HW227297   3.258   0.398   3.078
 8800SOL     OW27298   4.604   4.873   0.770
 8800SOL    HW127299   4.607   4.828   0.681
 8800SOL    HW227300   4.514   4.916   0.782
 8801SOL     OW27301   3.367   6.409   5.933
 8801SOL    HW127302   3.290   6.464   5.965
 8801SOL    HW227303   3.383   6.428   5.836
 8802SOL     OW27304   2.165   6.226   1.821
 8802SOL    HW127305   2.233   6.208   1.892
 8802SOL    HW227306   2.074   6.224   1.861
 8803SOL     OW27307   4.302   6.067   1.120
 8803SOL    HW127308   4.219   6.040   1.071
 8803SOL    HW227309   4.291   6.046   1.217
 8804SOL     OW27310   2.869   1.255   1.177
 8804SOL    HW127311   2.951   1.224   1.226
 8804SOL    HW227312   2.838   1.182   1.115
 8805SOL     OW27313   0.358   0.502   3.244
 8805SOL    HW127314   0.400   0.489   3.155
 8805SOL    HW227315   0.265   0.465   3.244
 8806SOL     OW27316   1.758   4.969   0.616
 8806SOL    HW127317   1.852   5.002   0.607
 8806SOL    HW227318   1.701   5.012   0.546
 8807SOL     OW27319   2.086   5.889   6.546
 8807SOL    HW127320   2.049   5.947   6.474
 8807SOL    HW227321   2.170   5.930   6.582
 8808SOL     OW27322   5.597   2.066   0.981
 8808SOL    HW127323   5.534   2.116   0.922
 8808SOL    HW227324   5.655   2.006   0.925
 8809SOL     OW27325   6.201   4.342   0.667
 8809SOL    HW127326   6.214   4.440   0.683
 8809SOL    HW227327   6.222   4.321   0.571
 8810SOL     OW27328   5.222   1.763   4.288
 8810SOL    HW127329   5.319   1.780   4.306
 8810SOL    HW227330   5.167   1.829   4.340
 8811SOL     OW27331   1.638   1.347   3.372
 8811SOL    HW127332   1.641   1.446   3.354
 8811SOL    HW227333   1.568   1.329   3.441
 8812SOL     OW27334   2.403   1.245   0.242
 8812SOL    HW127335   2.404   1.345   0.252
 8812SOL    HW227336   2.315   1.217   0.205
 8813SOL     OW27337   1.180   6.037   1.077
 8813SOL    HW127338   1.120   6.112   1.050
 8813SOL    HW227339   1.273   6.072   1.091
 8814SOL     OW27340   5.229   6.561   6.257
 8814SOL    HW127341   5.246   6.508   6.341
 8814SOL    HW227342   5.154   6.624   6.272
 8815SOL     OW27343   6.042   5.789   3.208
 8815SOL    HW127344   6.036   5.705   3.262
 8815SOL    HW227345   6.004   5.865   3.260
 8816SOL     OW27346   0.924   5.516   1.828
 8816SOL    HW127347   0.984   5.557   1.759
 8816SOL    HW227348   0.835   5.560   1.826
 8817SOL     OW27349   2.208   4.463   5.401
 8817SOL    HW127350   2.234   4.549   5.358
 8817SOL    HW227351   2.264   4.389   5.366
 8818SOL     OW27352   6.919   4.503   4.951
 8818SOL    HW127353   6.819   4.510   4.960
 8818SOL    HW227354   6.952   4.575   4.890
 8819SOL     OW27355   6.237   0.144   4.107
 8819SOL    HW127356   6.294   0.132   4.025
 8819SOL    HW227357   6.210   0.055   4.143
 8820SOL     OW27358   0.822   3.088   3.360
 8820SOL    HW127359   0.729   3.109   3.332
 8820SOL    HW227360   0.884   3.099   3.283
 8821SOL     OW27361   1.787   6.849   6.104
 8821SOL    HW127362   1.868   6.824   6.050
 8821SOL    HW227363   1.785   6.795   6.188
 8822SOL     OW27364   0.851   2.056   3.216
 8822SOL    HW127365   0.796   2.023   3.139
 8822SOL    HW227366   0.915   1.985   3.244
 8823SOL     OW27367   2.452   4.858   1.880
 8823SOL    HW127368   2.458   4.940   1.822
 8823SOL    HW227369   2.453   4.776   1.822
 8824SOL     OW27370   4.532   4.354   0.872
 8824SOL    HW127371   4.472   4.279   0.899
 8824SOL    HW227372   4.590   4.379   0.949
 8825SOL     OW27373   1.782   2.736   0.830
 8825SOL    HW127374   1.721   2.793   0.775
 8825SOL    HW227375   1.770   2.757   0.927
 8826SOL     OW27376   5.918   0.492   0.708
 8826SOL    HW127377   5.852   0.567   0.720
 8826SOL    HW227378   6.010   0.526   0.725
 8827SOL     OW27379   6.826   1.649   3.125
 8827SOL    HW127380   6.913   1.681   3.088
 8827SOL    HW227381   6.752   1.678   3.065
 8828SOL     OW27382   1.498   6.234   3.368
 8828SOL    HW127383   1.492   6.330   3.339
 8828SOL    HW227384   1.419   6.184   3.332
 8829SOL     OW27385   1.590   1.306   0.800
 8829SOL    HW127386   1.504   1.319   0.849
 8829SOL    HW227387   1.606   1.208   0.786
 8830SOL     OW27388   1.441   1.426   0.035
 8830SOL    HW127389   1.524   1.409   7.002
 8830SOL    HW227390   1.432   1.356   0.106
 8831SOL     OW27391   0.275   1.294   1.814
 8831SOL    HW127392   0.189   1.339   1.838
 8831SOL    HW227393   0.309   1.243   1.893
 8832SOL     OW27394   6.615   0.824   2.087
 8832SOL    HW127395   6.610   0.848   2.184
 8832SOL    HW227396   6.557   0.744   2.069
 8833SOL     OW27397   1.135   4.858   2.539
 8833SOL    HW127398   1.139   4.782   2.603
 8833SOL    HW227399   1.087   4.935   2.581
 8834SOL     OW27400   6.141   4.149   3.584
 8834SOL    HW127401   6.194   4.199   3.653
 8834SOL    HW227402   6.196   4.140   3.500
 8835SOL     OW27403   0.626   0.588   0.091
 8835SOL    HW127404   0.661   0.548   0.006
 8835SOL    HW227405   0.699   0.640   0.136
 8836SOL     OW27406   4.789   1.855   1.976
 8836SOL    HW127407   4.826   1.915   2.047
 8836SOL    HW227408   4.784   1.761   2.011
 8837SOL     OW27409   0.390   2.473   2.026
 8837SOL    HW127410   0.328   2.399   2.050
 8837SOL    HW227411   0.441   2.448   1.943
 8838SOL     OW27412   1.879   5.965   3.729
 8838SOL    HW127413   1.877   6.061   3.702
 8838SOL    HW227414   1.878   5.907   3.648
 8839SOL     OW27415   5.464   6.093   3.935
 8839SOL    HW127416   5.437   6.181   3.974
 8839SOL    HW227417   5.458   6.023   4.006
 8840SOL     OW27418   4.240   0.456   2.139
 8840SOL    HW127419   4.199   0.366   2.120
 8840SOL    HW227420   4.175   0.528   2.113
 8841SOL     OW27421   2.949   6.811   4.320
 8841SOL    HW127422   2.907   6.901   4.309
 8841SOL    HW227423   2.878   6.740   4.311
 8842SOL     OW27424   1.607   2.466   1.913
 8842SOL    HW127425   1.514   2.436   1.929
 8842SOL    HW227426   1.669   2.419   1.976
 8843SOL     OW27427   0.295   3.319   4.114
 8843SOL    HW127428   0.302   3.402   4.169
 8843SOL    HW227429   0.375   3.314   4.053
 8844SOL     OW27430   6.039   1.374   6.180
 8844SOL    HW127431   6.095   1.292   6.172
 8844SOL    HW227432   6.095   1.455   6.162
 8845SOL     OW27433   5.267   3.194   6.687
 8845SOL    HW127434   5.187   3.136   6.702
 8845SOL    HW227435   5.350   3.139   6.697
 8846SOL     OW27436   3.253   4.933   3.425
 8846SOL    HW127437   3.211   4.842   3.424
 8846SOL    HW227438   3.349   4.926   3.400
 8847SOL     OW27439   1.035   1.267   2.948
 8847SOL    HW127440   1.043   1.251   2.849
 8847SOL    HW227441   0.961   1.332   2.965
 8848SOL     OW27442   0.985   1.021   3.388
 8848SOL    HW127443   1.015   1.048   3.297
 8848SOL    HW227444   0.968   0.922   3.389
 8849SOL     OW27445   2.679   6.776   1.570
 8849SOL    HW127446   2.602   6.823   1.526
 8849SOL    HW227447   2.756   6.840   1.578
 8850SOL     OW27448   2.756   2.679   6.956
 8850SOL    HW127449   2.683   2.645   6.897
 8850SOL    HW227450   2.801   2.602   7.001
 8851SOL     OW27451   1.910   3.774   2.131
 8851SOL    HW127452   2.008   3.762   2.146
 8851SOL    HW227453   1.895   3.815   2.041
 8852SOL     OW27454   0.464   1.875   4.752
 8852SOL    HW127455   0.467   1.973   4.768
 8852SOL    HW227456   0.372   1.841   4.772
 8853SOL     OW27457   5.010   0.762   1.985
 8853SOL    HW127458   5.094   0.716   1.955
 8853SOL    HW227459   4.951   0.695   2.032
 8854SOL     OW27460   0.641   3.031   4.882
 8854SOL    HW127461   0.696   3.103   4.924
 8854SOL    HW227462   0.690   2.944   4.890
 8855SOL     OW27463   5.285   4.721   1.509
 8855SOL    HW127464   5.378   4.724   1.544
 8855SOL    HW227465   5.246   4.630   1.526
 8856SOL     OW27466   6.237   0.380   5.951
 8856SOL    HW127467   6.299   0.455   5.929
 8856SOL    HW227468   6.256   0.346   6.043
 8857SOL     OW27469   0.007   1.570   6.461
 8857SOL    HW127470   7.018   1.615   6.550
 8857SOL    HW227471   6.961   1.608   6.397
 8858SOL     OW27472   6.647   5.901   4.994
 8858SOL    HW127473   6.681   5.976   4.937
 8858SOL    HW227474   6.551   5.917   5.015
 8859SOL     OW27475   0.856   5.942   3.214
 8859SOL    HW127476   0.919   5.959   3.138
 8859SOL    HW227477   0.799   5.863   3.193
 8860SOL     OW27478   6.880   3.033   2.378
 8860SOL    HW127479   6.939   2.988   2.311
 8860SOL    HW227480   6.800   2.975   2.396
 8861SOL     OW27481   3.827   2.795   1.725
 8861SOL    HW127482   3.775   2.817   1.643
 8861SOL    HW227483   3.882   2.874   1.752
 8862SOL     OW27484   4.419   4.768   4.794
 8862SOL    HW127485   4.401   4.681   4.840
 8862SOL    HW227486   4.418   4.754   4.695
 8863SOL     OW27487   0.947   4.031   2.485
 8863SOL    HW127488   0.973   4.124   2.511
 8863SOL    HW227489   1.007   3.998   2.412
 8864SOL     OW27490   6.550   1.966   5.121
 8864SOL    HW127491   6.515   2.025   5.048
 8864SOL    HW227492   6.509   1.993   5.208
 8865SOL     OW27493   2.981   2.166   0.626
 8865SOL    HW127494   2.893   2.126   0.652
 8865SOL    HW227495   2.966   2.243   0.563
 8866SOL     OW27496   5.636   6.789   2.288
 8866SOL    HW127497   5.716   6.839   2.255
 8866SOL    HW227498   5.554   6.824   2.243
 8867SOL     OW27499   6.076   2.988   2.848
 8867SOL    HW127500   6.098   3.080   2.881
 8867SOL    HW227501   6.015   2.994   2.769
 8868SOL     OW27502   0.019   2.882   3.911
 8868SOL    HW127503   0.094   2.839   3.860
 8868SOL    HW227504   0.056   2.951   3.973
 8869SOL     OW27505   4.903   0.486   3.716
 8869SOL    HW127506   4.848   0.568   3.730
 8869SOL    HW227507   4.862   0.409   3.765
 8870SOL     OW27508   1.143   0.846   1.783
 8870SOL    HW127509   1.228   0.836   1.834
 8870SOL    HW227510   1.164   0.864   1.686
 8871SOL     OW27511   0.399   0.042   1.142
 8871SOL    HW127512   0.420   0.135   1.171
 8871SOL    HW227513   0.366   0.043   1.047
 8872SOL     OW27514   6.992   4.130   3.607
 8872SOL    HW127515   0.055   4.097   3.649
 8872SOL    HW227516   7.012   4.166   3.515
 8873SOL     OW27517   2.368   1.173   2.928
 8873SOL    HW127518   2.269   1.180   2.914
 8873SOL    HW227519   2.403   1.259   2.965
 8874SOL     OW27520   2.937   6.396   0.959
 8874SOL    HW127521   3.001   6.384   0.883
 8874SOL    HW227522   2.978   6.361   1.043
 8875SOL     OW27523   6.334   3.315   4.836
 8875SOL    HW127524   6.262   3.336   4.770
 8875SOL    HW227525   6.344   3.216   4.844
 8876SOL     OW27526   4.136   0.770   0.652
 8876SOL    HW127527   4.097   0.829   0.723
 8876SOL    HW227528   4.235   0.767   0.661
 8877SOL     OW27529   0.718   5.143   1.112
 8877SOL    HW127530   0.663   5.117   1.033
 8877SOL    HW227531   0.771   5.065   1.144
 8878SOL     OW27532   5.215   3.360   1.729
 8878SOL    HW127533   5.228   3.274   1.779
 8878SOL    HW227534   5.120   3.390   1.739
 8879SOL     OW27535   6.829   4.536   3.491
 8879SOL    HW127536   6.846   4.485   3.575
 8879SOL    HW227537   6.911   4.535   3.434
 8880SOL     OW27538   4.221   2.316   3.133
 8880SOL    HW127539   4.240   2.358   3.045
 8880SOL    HW227540   4.306   2.311   3.187
 8881SOL     OW27541   3.495   4.903   2.475
 8881SOL    HW127542   3.416   4.944   2.521
 8881SOL    HW227543   3.473   4.887   2.379
 8882SOL     OW27544   4.199   0.532   0.209
 8882SOL    HW127545   4.190   0.558   0.113
 8882SOL    HW227546   4.293   0.545   0.239
 8883SOL     OW27547   6.874   6.302   2.956
 8883SOL    HW127548   6.935   6.293   2.877
 8883SOL    HW227549   6.865   6.213   3.001
 8884SOL     OW27550   4.043   2.871   5.662
 8884SOL    HW127551   4.019   2.818   5.581
 8884SOL    HW227552   4.126   2.833   5.704
 8885SOL     OW27553   5.519   5.614   1.023
 8885SOL    HW127554   5.454   5.593   0.950
 8885SOL    HW227555   5.604   5.647   0.983
 8886SOL     OW27556   4.485   6.720   6.891
 8886SOL    HW127557   4.387   6.699   6.893
 8886SOL    HW227558   4.537   6.639   6.918
 8887SOL     OW27559   3.635   0.122   1.558
 8887SOL    HW127560   3.646   0.156   1.464
 8887SOL    HW227561   3.703   0.165   1.617
 8888SOL     OW27562   3.421   2.094   2.349
 8888SOL    HW127563   3.435   2.025   2.420
 8888SOL    HW227564   3.327   2.087   2.314
 8889SOL     OW27565   1.434   4.857   0.424
 8889SOL    HW127566   1.421   4.834   0.327
 8889SOL    HW227567   1.451   4.773   0.476
 8890SOL     OW27568   1.246   5.920   6.997
 8890SOL    HW127569   1.304   5.985   6.949
 8890SOL    HW227570   1.292   5.831   7.002
 8891SOL     OW27571   6.870   3.756   5.187
 8891SOL    HW127572   6.850   3.796   5.097
 8891SOL    HW227573   6.786   3.752   5.241
 8892SOL     OW27574   2.640   5.039   4.759
 8892SOL    HW127575   2.598   5.034   4.849
 8892SOL    HW227576   2.687   5.127   4.749
 8893SOL     OW27577   0.890   4.470   5.554
 8893SOL    HW127578   0.984   4.503   5.555
 8893SOL    HW227579   0.873   4.419   5.469
 8894SOL     OW27580   5.240   1.999   1.862
 8894SOL    HW127581   5.226   2.029   1.957
 8894SOL    HW227582   5.171   2.041   1.804
 8895SOL     OW27583   6.583   3.566   1.165
 8895SOL    HW127584   6.620   3.524   1.082
 8895SOL    HW227585   6.484   3.547   1.170
 8896SOL     OW27586   1.299   1.679   3.462
 8896SOL    HW127587   1.273   1.591   3.421
 8896SOL    HW227588   1.313   1.666   3.560
 8897SOL     OW27589   1.762   5.354   4.309
 8897SOL    HW127590   1.744   5.359   4.407
 8897SOL    HW227591   1.716   5.274   4.270
 8898SOL     OW27592   5.386   4.081   2.409
 8898SOL    HW127593   5.360   4.051   2.501
 8898SOL    HW227594   5.347   4.172   2.392
 8899SOL     OW27595   2.137   3.585   2.519
 8899SOL    HW127596   2.101   3.545   2.604
 8899SOL    HW227597   2.153   3.512   2.452
 8900SOL     OW27598   4.277   1.433   4.465
 8900SOL    HW127599   4.215   1.462   4.393
 8900SOL    HW227600   4.322   1.513   4.505
 8901SOL     OW27601   1.781   5.675   4.970
 8901SOL    HW127602   1.714   5.675   5.044
 8901SOL    HW227603   1.734   5.661   4.883
 8902SOL     OW27604   0.423   4.804   6.875
 8902SOL    HW127605   0.485   4.802   6.796
 8902SOL    HW227606   0.418   4.897   6.911
 8903SOL     OW27607   1.441   0.466   5.125
 8903SOL    HW127608   1.364   0.417   5.084
 8903SOL    HW227609   1.435   0.463   5.224
 8904SOL     OW27610   0.397   0.905   3.505
 8904SOL    HW127611   0.347   0.875   3.424
 8904SOL    HW227612   0.416   0.827   3.564
 8905SOL     OW27613   1.889   4.644   1.767
 8905SOL    HW127614   1.809   4.659   1.709
 8905SOL    HW227615   1.881   4.700   1.849
 8906SOL     OW27616   6.186   0.283   6.708
 8906SOL    HW127617   6.282   0.300   6.734
 8906SOL    HW227618   6.183   0.220   6.630
 8907SOL     OW27619   2.999   3.159   5.285
 8907SOL    HW127620   3.042   3.189   5.200
 8907SOL    HW227621   2.900   3.172   5.278
 8908SOL     OW27622   1.556   4.719   6.282
 8908SOL    HW127623   1.467   4.674   6.285
 8908SOL    HW227624   1.627   4.650   6.268
 8909SOL     OW27625   2.186   5.617   1.613
 8909SOL    HW127626   2.149   5.524   1.623
 8909SOL    HW227627   2.228   5.645   1.699
 8910SOL     OW27628   1.141   1.399   3.776
 8910SOL    HW127629   1.219   1.459   3.756
 8910SOL    HW227630   1.171   1.304   3.777
 8911SOL     OW27631   5.480   2.786   4.723
 8911SOL    HW127632   5.515   2.807   4.631
 8911SOL    HW227633   5.408   2.717   4.716
 8912SOL     OW27634   3.422   2.964   3.666
 8912SOL    HW127635   3.472   2.914   3.736
 8912SOL    HW227636   3.437   3.062   3.678
 8913SOL     OW27637   5.139   5.825   1.289
 8913SOL    HW127638   5.196   5.743   1.282
 8913SOL    HW227639   5.067   5.822   1.220
 8914SOL     OW27640   4.995   5.818   5.250
 8914SOL    HW127641   4.945   5.780   5.327
 8914SOL    HW227642   4.945   5.897   5.213
 8915SOL     OW27643   1.903   0.932   3.667
 8915SOL    HW127644   1.974   0.963   3.604
 8915SOL    HW227645   1.835   1.004   3.679
 8916SOL     OW27646   5.315   1.151   1.996
 8916SOL    HW127647   5.256   1.167   2.075
 8916SOL    HW227648   5.389   1.219   1.996
 8917SOL     OW27649   5.559   1.984   0.480
 8917SOL    HW127650   5.486   1.964   0.414
 8917SOL    HW227651   5.594   1.898   0.517
 8918SOL     OW27652   0.939   3.594   2.330
 8918SOL    HW127653   0.958   3.685   2.293
 8918SOL    HW227654   0.855   3.596   2.384
 8919SOL     OW27655   6.300   2.855   2.434
 8919SOL    HW127656   6.344   2.885   2.519
 8919SOL    HW227657   6.353   2.887   2.356
 8920SOL     OW27658   1.015   1.615   0.154
 8920SOL    HW127659   1.112   1.641   0.153
 8920SOL    HW227660   0.970   1.661   0.231
 8921SOL     OW27661   0.655   3.363   1.725
 8921SOL    HW127662   0.726   3.384   1.659
 8921SOL    HW227663   0.696   3.334   1.812
 8922SOL     OW27664   3.503   4.885   3.339
 8922SOL    HW127665   3.506   4.861   3.242
 8922SOL    HW227666   3.590   4.861   3.382
 8923SOL     OW27667   2.567   1.052   3.534
 8923SOL    HW127668   2.585   1.123   3.602
 8923SOL    HW227669   2.654   1.010   3.507
 8924SOL     OW27670   6.062   5.239   4.614
 8924SOL    HW127671   6.099   5.331   4.606
 8924SOL    HW227672   6.122   5.183   4.671
 8925SOL     OW27673   0.778   0.005   3.661
 8925SOL    HW127674   0.863   0.026   3.710
 8925SOL    HW227675   0.796   0.003   3.563
 8926SOL     OW27676   5.785   1.252   0.170
 8926SOL    HW127677   5.774   1.236   0.268
 8926SOL    HW227678   5.819   1.169   0.126
 8927SOL     OW27679   1.646   0.839   6.718
 8927SOL    HW127680   1.581   0.801   6.652
 8927SOL    HW227681   1.708   0.903   6.672
 8928SOL     OW27682   1.639   6.758   5.691
 8928SOL    HW127683   1.711   6.703   5.648
 8928SOL    HW227684   1.680   6.828   5.749
 8929SOL     OW27685   0.197   1.864   3.727
 8929SOL    HW127686   0.283   1.817   3.748
 8929SOL    HW227687   0.125   1.832   3.789
 8930SOL     OW27688   2.130   4.915   3.825
 8930SOL    HW127689   2.092   4.901   3.916
 8930SOL    HW227690   2.166   5.008   3.817
 8931SOL     OW27691   4.465   3.737   0.347
 8931SOL    HW127692   4.413   3.670   0.400
 8931SOL    HW227693   4.410   3.767   0.269
 8932SOL     OW27694   0.924   3.842   3.247
 8932SOL    HW127695   0.875   3.798   3.172
 8932SOL    HW227696   0.914   3.787   3.330
 8933SOL     OW27697   4.678   1.811   6.406
 8933SOL    HW127698   4.592   1.781   6.363
 8933SOL    HW227699   4.661   1.830   6.503
 8934SOL     OW27700   2.210   5.694   2.821
 8934SOL    HW127701   2.250   5.774   2.867
 8934SOL    HW227702   2.160   5.725   2.740
 8935SOL     OW27703   6.658   5.018   6.789
 8935SOL    HW127704   6.752   4.990   6.772
 8935SOL    HW227705   6.595   4.956   6.743
 8936SOL     OW27706   3.744   2.809   0.769
 8936SOL    HW127707   3.799   2.847   0.843
 8936SOL    HW227708   3.768   2.712   0.756
 8937SOL     OW27709   0.918   0.607   5.925
 8937SOL    HW127710   1.001   0.570   5.969
 8937SOL    HW227711   0.847   0.619   5.994
 8938SOL     OW27712   4.758   6.094   1.889
 8938SOL    HW127713   4.692   6.166   1.910
 8938SOL    HW227714   4.717   6.005   1.907
 8939SOL     OW27715   5.311   2.192   4.880
 8939SOL    HW127716   5.389   2.130   4.875
 8939SOL    HW227717   5.323   2.255   4.956
 8940SOL     OW27718   6.149   6.791   2.644
 8940SOL    HW127719   6.135   6.862   2.713
 8940SOL    HW227720   6.198   6.831   2.566
 8941SOL     OW27721   3.969   1.294   6.326
 8941SOL    HW127722   4.017   1.261   6.407
 8941SOL    HW227723   3.901   1.226   6.297
 8942SOL     OW27724   1.091   2.362   5.235
 8942SOL    HW127725   1.127   2.379   5.143
 8942SOL    HW227726   1.107   2.443   5.292
 8943SOL     OW27727   5.270   3.650   1.086
 8943SOL    HW127728   5.311   3.618   1.001
 8943SOL    HW227729   5.305   3.742   1.107
 8944SOL     OW27730   4.192   5.783   1.455
 8944SOL    HW127731   4.250   5.765   1.375
 8944SOL    HW227732   4.155   5.697   1.489
 8945SOL     OW27733   2.223   1.431   3.949
 8945SOL    HW127734   2.212   1.524   3.916
 8945SOL    HW227735   2.181   1.367   3.885
 8946SOL     OW27736   4.064   0.509   4.637
 8946SOL    HW127737   4.105   0.581   4.692
 8946SOL    HW227738   3.964   0.518   4.641
 8947SOL     OW27739   3.867   3.828   5.174
 8947SOL    HW127740   3.951   3.778   5.193
 8947SOL    HW227741   3.851   3.895   5.246
 8948SOL     OW27742   5.942   5.177   3.254
 8948SOL    HW127743   5.955   5.276   3.243
 8948SOL    HW227744   6.008   5.128   3.197
 8949SOL     OW27745   1.743   5.150   6.090
 8949SOL    HW127746   1.681   5.224   6.118
 8949SOL    HW227747   1.772   5.165   5.995
 8950SOL     OW27748   4.781   2.542   4.769
 8950SOL    HW127749   4.755   2.638   4.762
 8950SOL    HW227750   4.701   2.488   4.795
 8951SOL     OW27751   2.631   2.144   5.522
 8951SOL    HW127752   2.555   2.124   5.584
 8951SOL    HW227753   2.599   2.136   5.427
 8952SOL     OW27754   6.424   6.709   3.305
 8952SOL    HW127755   6.388   6.795   3.268
 8952SOL    HW227756   6.363   6.634   3.278
 8953SOL     OW27757   1.944   5.168   6.271
 8953SOL    HW127758   1.981   5.076   6.260
 8953SOL    HW227759   1.887   5.191   6.192
 8954SOL     OW27760   2.623   6.475   5.328
 8954SOL    HW127761   2.679   6.550   5.292
 8954SOL    HW227762   2.638   6.468   5.427
 8955SOL     OW27763   6.550   3.788   4.421
 8955SOL    HW127764   6.584   3.861   4.361
 8955SOL    HW227765   6.542   3.824   4.515
 8956SOL     OW27766   1.118   0.565   4.900
 8956SOL    HW127767   1.103   0.580   4.802
 8956SOL    HW227768   1.216   0.554   4.917
 8957SOL     OW27769   2.863   6.088   1.933
 8957SOL    HW127770   2.865   6.157   1.861
 8957SOL    HW227771   2.912   6.121   2.013
 8958SOL     OW27772   2.800   0.039   4.237
 8958SOL    HW127773   2.778   0.113   4.300
 8958SOL    HW227774   2.716   7.013   4.209
 8959SOL     OW27775   3.370   5.571   0.652
 8959SOL    HW127776   3.291   5.510   0.656
 8959SOL    HW227777   3.365   5.626   0.568
 8960SOL     OW27778   3.501   5.875   0.808
 8960SOL    HW127779   3.463   5.904   0.895
 8960SOL    HW227780   3.437   5.814   0.762
 8961SOL     OW27781   1.304   2.826   3.868
 8961SOL    HW127782   1.368   2.800   3.940
 8961SOL    HW227783   1.346   2.895   3.809
 8962SOL     OW27784   5.254   0.603   3.402
 8962SOL    HW127785   5.242   0.699   3.427
 8962SOL    HW227786   5.243   0.594   3.303
 8963SOL     OW27787   0.173   1.063   3.595
 8963SOL    HW127788   0.221   1.147   3.620
 8963SOL    HW227789   0.145   1.015   3.677
 8964SOL     OW27790   0.151   3.540   3.127
 8964SOL    HW127791   0.206   3.613   3.168
 8964SOL    HW227792   0.144   3.464   3.192
 8965SOL     OW27793   1.702   5.133   1.622
 8965SOL    HW127794   1.747   5.063   1.677
 8965SOL    HW227795   1.651   5.089   1.548
 8966SOL     OW27796   3.681   2.020   4.985
 8966SOL    HW127797   3.703   2.024   4.887
 8966SOL    HW227798   3.593   2.064   5.001
 8967SOL     OW27799   5.013   6.559   0.849
 8967SOL    HW127800   4.929   6.603   0.880
 8967SOL    HW227801   5.050   6.502   0.922
 8968SOL     OW27802   5.201   4.326   2.914
 8968SOL    HW127803   5.287   4.313   2.867
 8968SOL    HW227804   5.136   4.255   2.886
 8969SOL     OW27805   6.517   0.282   4.441
 8969SOL    HW127806   6.435   0.336   4.421
 8969SOL    HW227807   6.569   0.325   4.515
 8970SOL     OW27808   3.335   2.244   1.371
 8970SOL    HW127809   3.349   2.343   1.371
 8970SOL    HW227810   3.420   2.197   1.394
 8971SOL     OW27811   4.384   6.497   2.630
 8971SOL    HW127812   4.296   6.544   2.623
 8971SOL    HW227813   4.434   6.533   2.710
 8972SOL     OW27814   5.186   0.031   4.758
 8972SOL    HW127815   5.127   6.980   4.795
 8972SOL    HW227816   5.209   0.010   4.663
 8973SOL     OW27817   2.006   5.090   6.879
 8973SOL    HW127818   2.089   5.049   6.841
 8973SOL    HW227819   1.963   5.148   6.810
 8974SOL     OW27820   0.709   3.023   3.686
 8974SOL    HW127821   0.764   2.941   3.697
 8974SOL    HW227822   0.769   3.102   3.676
 8975SOL     OW27823   3.572   0.469   6.382
 8975SOL    HW127824   3.628   0.456   6.301
 8975SOL    HW227825   3.500   0.535   6.363
 8976SOL     OW27826   1.513   5.473   4.223
 8976SOL    HW127827   1.602   5.433   4.245
 8976SOL    HW227828   1.490   5.453   4.128
 8977SOL     OW27829   5.541   1.446   6.324
 8977SOL    HW127830   5.580   1.478   6.410
 8977SOL    HW227831   5.614   1.423   6.260
 8978SOL     OW27832   5.494   4.811   1.248
 8978SOL    HW127833   5.520   4.886   1.309
 8978SOL    HW227834   5.522   4.724   1.289
 8979SOL     OW27835   1.224   4.471   4.810
 8979SOL    HW127836   1.318   4.465   4.844
 8979SOL    HW227837   1.166   4.408   4.862
 8980SOL     OW27838   3.770   3.038   4.539
 8980SOL    HW127839   3.824   3.026   4.455
 8980SOL    HW227840   3.756   3.136   4.555
 8981SOL     OW27841   2.852   1.711   5.513
 8981SOL    HW127842   2.929   1.754   5.466
 8981SOL    HW227843   2.869   1.712   5.612
 8982SOL     OW27844   3.571   4.394   0.759
 8982SOL    HW127845   3.484   4.443   0.751
 8982SOL    HW227846   3.575   4.348   0.847
 8983SOL     OW27847   5.062   4.843   0.880
 8983SOL    HW127848   5.129   4.768   0.882
 8983SOL    HW227849   5.099   4.922   0.928
 8984SOL     OW27850   1.412   6.740   3.621
 8984SOL    HW127851   1.484   6.764   3.686
 8984SOL    HW227852   1.327   6.725   3.671
 8985SOL     OW27853   2.912   3.385   6.159
 8985SOL    HW127854   2.886   3.361   6.066
 8985SOL    HW227855   2.889   3.480   6.178
 8986SOL     OW27856   3.582   6.420   2.612
 8986SOL    HW127857   3.557   6.377   2.525
 8986SOL    HW227858   3.653   6.489   2.597
 8987SOL     OW27859   5.206   6.323   1.868
 8987SOL    HW127860   5.304   6.330   1.885
 8987SOL    HW227861   5.158   6.396   1.916
 8988SOL     OW27862   0.815   5.026   5.114
 8988SOL    HW127863   0.728   5.076   5.106
 8988SOL    HW227864   0.871   5.044   5.033
 8989SOL     OW27865   2.657   2.545   6.729
 8989SOL    HW127866   2.755   2.528   6.716
 8989SOL    HW227867   2.605   2.481   6.672
 8990SOL     OW27868   0.109   5.204   3.342
 8990SOL    HW127869   0.112   5.292   3.390
 8990SOL    HW227870   0.146   5.214   3.250
 8991SOL     OW27871   1.550   2.106   5.075
 8991SOL    HW127872   1.639   2.066   5.094
 8991SOL    HW227873   1.558   2.173   5.000
 8992SOL     OW27874   6.831   2.284   1.348
 8992SOL    HW127875   6.863   2.294   1.442
 8992SOL    HW227876   6.889   2.218   1.300
 8993SOL     OW27877   4.351   2.351   0.905
 8993SOL    HW127878   4.288   2.348   0.827
 8993SOL    HW227879   4.393   2.262   0.918
 8994SOL     OW27880   1.608   5.484   2.795
 8994SOL    HW127881   1.537   5.416   2.782
 8994SOL    HW227882   1.675   5.476   2.721
 8995SOL     OW27883   0.493   0.159   1.663
 8995SOL    HW127884   0.475   0.067   1.698
 8995SOL    HW227885   0.411   0.193   1.616
 8996SOL     OW27886   4.061   6.464   5.654
 8996SOL    HW127887   3.978   6.460   5.598
 8996SOL    HW227888   4.065   6.552   5.702
 8997SOL     OW27889   6.037   0.345   4.892
 8997SOL    HW127890   6.094   0.276   4.849
 8997SOL    HW227891   5.941   0.315   4.890
 8998SOL     OW27892   0.143   3.563   4.396
 8998SOL    HW127893   0.076   3.556   4.322
 8998SOL    HW227894   0.235   3.550   4.358
 8999SOL     OW27895   4.314   6.835   6.003
 8999SOL    HW127896   4.242   6.839   5.934
 8999SOL    HW227897   4.285   6.887   6.084
 9000SOL     OW27898   1.958   4.046   1.120
 9000SOL    HW127899   1.894   4.076   1.190
 9000SOL    HW227900   1.931   4.085   1.032
 9001SOL     OW27901   0.943   5.516   1.134
 9001SOL    HW127902   0.984   5.594   1.089
 9001SOL    HW227903   0.861   5.545   1.184
 9002SOL     OW27904   0.478   4.794   5.911
 9002SOL    HW127905   0.509   4.712   5.862
 9002SOL    HW227906   0.456   4.866   5.844
 9003SOL     OW27907   5.734   0.053   0.898
 9003SOL    HW127908   5.743   0.119   0.824
 9003SOL    HW227909   5.775   6.987   0.870
 9004SOL     OW27910   5.644   4.992   1.394
 9004SOL    HW127911   5.744   5.000   1.391
 9004SOL    HW227912   5.603   5.082   1.379
 9005SOL     OW27913   5.377   0.703   5.498
 9005SOL    HW127914   5.466   0.687   5.540
 9005SOL    HW227915   5.389   0.714   5.399
 9006SOL     OW27916   3.761   5.632   0.265
 9006SOL    HW127917   3.823   5.674   0.331
 9006SOL    HW227918   3.740   5.698   0.193
 9007SOL     OW27919   1.435   1.057   2.886
 9007SOL    HW127920   1.460   0.971   2.842
 9007SOL    HW227921   1.499   1.128   2.857
 9008SOL     OW27922   0.310   5.596   1.997
 9008SOL    HW127923   0.397   5.639   2.021
 9008SOL    HW227924   0.254   5.588   2.080
 9009SOL     OW27925   3.539   6.441   1.938
 9009SOL    HW127926   3.515   6.447   1.841
 9009SOL    HW227927   3.478   6.501   1.991
 9010SOL     OW27928   1.976   6.001   4.857
 9010SOL    HW127929   1.881   6.021   4.832
 9010SOL    HW227930   1.986   5.902   4.870
 9011SOL     OW27931   2.181   2.291   2.004
 9011SOL    HW127932   2.161   2.379   1.960
 9011SOL    HW227933   2.266   2.253   1.966
 9012SOL     OW27934   2.219   6.184   6.754
 9012SOL    HW127935   2.295   6.121   6.773
 9012SOL    HW227936   2.196   6.180   6.657
 9013SOL     OW27937   2.049   0.312   4.612
 9013SOL    HW127938   2.059   0.393   4.554
 9013SOL    HW227939   2.000   0.240   4.562
 9014SOL     OW27940   5.745   2.941   3.795
 9014SOL    HW127941   5.692   3.007   3.743
 9014SOL    HW227942   5.685   2.866   3.825
 9015SOL     OW27943   4.365   0.357   6.191
 9015SOL    HW127944   4.432   0.423   6.225
 9015SOL    HW227945   4.277   0.403   6.176
 9016SOL     OW27946   4.912   5.467   5.566
 9016SOL    HW127947   4.994   5.477   5.622
 9016SOL    HW227948   4.847   5.406   5.613
 9017SOL     OW27949   3.699   0.015   5.318
 9017SOL    HW127950   3.774   7.005   5.260
 9017SOL    HW227951   3.726   0.006   5.414
 9018SOL     OW27952   3.339   4.442   0.226
 9018SOL    HW127953   3.341   4.411   0.320
 9018SOL    HW227954   3.383   4.374   0.167
 9019SOL     OW27955   0.531   3.225   3.935
 9019SOL    HW127956   0.588   3.173   3.998
 9019SOL    HW227957   0.589   3.285   3.879
 9020SOL     OW27958   4.990   4.422   2.791
 9020SOL    HW127959   4.958   4.327   2.789
 9020SOL    HW227960   5.074   4.428   2.845
 9021SOL     OW27961   0.521   1.262   4.196
 9021SOL    HW127962   0.439   1.226   4.241
 9021SOL    HW227963   0.601   1.243   4.253
 9022SOL     OW27964   4.319   3.932   6.380
 9022SOL    HW127965   4.291   3.944   6.285
 9022SOL    HW227966   4.398   3.871   6.383
 9023SOL     OW27967   6.617   4.590   0.222
 9023SOL    HW127968   6.565   4.622   0.301
 9023SOL    HW227969   6.555   4.571   0.147
 9024SOL     OW27970   2.155   5.631   6.556
 9024SOL    HW127971   2.072   5.583   6.582
 9024SOL    HW227972   2.138   5.729   6.552
 9025SOL     OW27973   1.188   5.889   1.370
 9025SOL    HW127974   1.170   5.966   1.432
 9025SOL    HW227975   1.273   5.906   1.320
 9026SOL     OW27976   4.906   1.211   0.799
 9026SOL    HW127977   4.934   1.261   0.717
 9026SOL    HW227978   4.966   1.236   0.876
 9027SOL     OW27979   0.718   4.054   3.395
 9027SOL    HW127980   0.627   4.035   3.358
 9027SOL    HW227981   0.772   3.969   3.396
 9028SOL     OW27982   3.485   4.874   6.505
 9028SOL    HW127983   3.580   4.845   6.509
 9028SOL    HW227984   3.477   4.970   6.533
 9029SOL     OW27985   4.383   6.943   3.924
 9029SOL    HW127986   4.390   7.012   3.996
 9029SOL    HW227987   4.286   6.926   3.904
 9030SOL     OW27988   3.240   1.989   1.986
 9030SOL    HW127989   3.334   2.000   1.954
 9030SOL    HW227990   3.184   2.064   1.953
 9031SOL     OW27991   4.711   6.771   4.467
 9031SOL    HW127992   4.696   6.730   4.557
 9031SOL    HW227993   4.643   6.843   4.451
 9032SOL     OW27994   5.501   2.551   1.743
 9032SOL    HW127995   5.528   2.626   1.682
 9032SOL    HW227996   5.473   2.473   1.688
 9033SOL     OW27997   0.532   6.501   2.990
 9033SOL    HW127998   0.625   6.471   3.013
 9033SOL    HW227999   0.471   6.485   3.067
 9034SOL     OW28000   4.667   0.052   4.183
 9034SOL    HW128001   4.584   0.093   4.147
 9034SOL    HW228002   4.648   6.980   4.215
 9035SOL     OW28003   2.847   5.723   6.715
 9035SOL    HW128004   2.791   5.642   6.697
 9035SOL    HW228005   2.791   5.794   6.758
 9036SOL     OW28006   1.076   4.265   4.924
 9036SOL    HW128007   1.118   4.175   4.906
 9036SOL    HW228008   0.977   4.255   4.926
 9037SOL     OW28009   6.796   0.608   2.297
 9037SOL    HW128010   6.758   0.645   2.382
 9037SOL    HW228011   6.728   0.613   2.224
 9038SOL     OW28012   4.388   3.498   5.331
 9038SOL    HW128013   4.386   3.411   5.283
 9038SOL    HW228014   4.304   3.510   5.383
 9039SOL     OW28015   4.349   6.398   6.152
 9039SOL    HW128016   4.304   6.341   6.221
 9039SOL    HW228017   4.445   6.371   6.144
 9040SOL     OW28018   1.784   2.283   1.571
 9040SOL    HW128019   1.866   2.228   1.560
 9040SOL    HW228020   1.785   2.329   1.660
 9041SOL     OW28021   6.236   2.176   3.086
 9041SOL    HW128022   6.183   2.142   3.163
 9041SOL    HW228023   6.174   2.210   3.015
 9042SOL     OW28024   3.964   5.698   0.439
 9042SOL    HW128025   4.014   5.614   0.421
 9042SOL    HW228026   3.996   5.738   0.525
 9043SOL     OW28027   2.660   2.563   1.235
 9043SOL    HW128028   2.596   2.602   1.301
 9043SOL    HW228029   2.710   2.487   1.277
 9044SOL     OW28030   1.203   0.763   0.762
 9044SOL    HW128031   1.149   0.690   0.804
 9044SOL    HW228032   1.142   0.834   0.728
 9045SOL     OW28033   4.472   1.135   3.445
 9045SOL    HW128034   4.484   1.086   3.532
 9045SOL    HW228035   4.445   1.230   3.464
 9046SOL     OW28036   3.356   2.889   2.046
 9046SOL    HW128037   3.388   2.965   1.989
 9046SOL    HW228038   3.432   2.853   2.099
 9047SOL     OW28039   1.326   4.581   6.202
 9047SOL    HW128040   1.227   4.593   6.206
 9047SOL    HW228041   1.352   4.543   6.114
 9048SOL     OW28042   6.918   1.503   5.708
 9048SOL    HW128043   6.820   1.521   5.700
 9048SOL    HW228044   6.952   1.463   5.623
 9049SOL     OW28045   2.428   6.749   5.427
 9049SOL    HW128046   2.395   6.659   5.400
 9049SOL    HW228047   2.364   6.790   5.492
 9050SOL     OW28048   0.959   4.693   0.615
 9050SOL    HW128049   1.032   4.632   0.646
 9050SOL    HW228050   0.879   4.639   0.590
 9051SOL     OW28051   2.447   1.046   1.790
 9051SOL    HW128052   2.522   0.981   1.783
 9051SOL    HW228053   2.401   1.053   1.701
 9052SOL     OW28054   2.030   3.215   6.234
 9052SOL    HW128055   2.071   3.267   6.160
 9052SOL    HW228056   1.960   3.270   6.279
 9053SOL     OW28057   1.265   0.599   6.683
 9053SOL    HW128058   1.294   0.514   6.727
 9053SOL    HW228059   1.209   0.578   6.603
 9054SOL     OW28060   1.644   5.809   2.753
 9054SOL    HW128061   1.633   5.711   2.764
 9054SOL    HW228062   1.689   5.828   2.665
 9055SOL     OW28063   0.454   2.637   5.393
 9055SOL    HW128064   0.475   2.710   5.328
 9055SOL    HW228065   0.475   2.668   5.486
 9056SOL     OW28066   6.327   2.649   4.079
 9056SOL    HW128067   6.307   2.571   4.139
 9056SOL    HW228068   6.405   2.626   4.020
 9057SOL     OW28069   4.610   2.114   4.145
 9057SOL    HW128070   4.511   2.104   4.158
 9057SOL    HW228071   4.658   2.073   4.222
 9058SOL     OW28072   2.445   0.742   5.579
 9058SOL    HW128073   2.406   0.653   5.602
 9058SOL    HW228074   2.402   0.813   5.634
 9059SOL     OW28075   1.317   2.271   3.375
 9059SOL    HW128076   1.269   2.217   3.444
 9059SOL    HW228077   1.416   2.269   3.395
 9060SOL     OW28078   4.968   3.285   5.359
 9060SOL    HW128079   5.044   3.240   5.311
 9060SOL    HW228080   4.882   3.266   5.311
 9061SOL     OW28081   2.097   4.949   2.774
 9061SOL    HW128082   2.120   4.953   2.871
 9061SOL    HW228083   2.028   5.018   2.753
 9062SOL     OW28084   1.728   6.204   1.764
 9062SOL    HW128085   1.701   6.125   1.818
 9062SOL    HW228086   1.717   6.184   1.667
 9063SOL     OW28087   2.833   1.960   2.123
 9063SOL    HW128088   2.855   2.056   2.135
 9063SOL    HW228089   2.895   1.919   2.056
 9064SOL     OW28090   5.466   3.986   6.941
 9064SOL    HW128091   5.469   3.891   6.910
 9064SOL    HW228092   5.523   3.997   0.002
 9065SOL     OW28093   3.198   1.069   1.005
 9065SOL    HW128094   3.161   1.011   1.078
 9065SOL    HW228095   3.251   1.014   0.941
 9066SOL     OW28096   5.196   6.829   0.049
 9066SOL    HW128097   5.296   6.840   0.052
 9066SOL    HW228098   5.155   6.881   0.125
 9067SOL     OW28099   1.261   0.533   1.836
 9067SOL    HW128100   1.208   0.484   1.905
 9067SOL    HW228101   1.223   0.513   1.745
 9068SOL     OW28102   1.408   6.124   6.485
 9068SOL    HW128103   1.478   6.126   6.556
 9068SOL    HW228104   1.384   6.029   6.463
 9069SOL     OW28105   1.268   1.922   6.314
 9069SOL    HW128106   1.182   1.939   6.362
 9069SOL    HW228107   1.258   1.951   6.219
 9070SOL     OW28108   1.409   4.738   3.703
 9070SOL    HW128109   1.374   4.771   3.615
 9070SOL    HW228110   1.432   4.816   3.761
 9071SOL     OW28111   4.761   6.195   0.323
 9071SOL    HW128112   4.793   6.289   0.327
 9071SOL    HW228113   4.839   6.132   0.331
 9072SOL     OW28114   5.397   4.881   0.492
 9072SOL    HW128115   5.342   4.927   0.561
 9072SOL    HW228116   5.356   4.792   0.470
 9073SOL     OW28117   2.326   0.585   0.790
 9073SOL    HW128118   2.298   0.549   0.879
 9073SOL    HW228119   2.341   0.683   0.796
 9074SOL     OW28120   0.412   0.395   2.590
 9074SOL    HW128121   0.337   0.461   2.586
 9074SOL    HW228122   0.378   0.308   2.626
 9075SOL     OW28123   0.292   0.465   1.705
 9075SOL    HW128124   0.271   0.376   1.664
 9075SOL    HW228125   0.363   0.510   1.651
 9076SOL     OW28126   1.122   1.875   5.030
 9076SOL    HW128127   1.209   1.915   5.003
 9076SOL    HW228128   1.088   1.815   4.957
 9077SOL     OW28129   5.833   6.200   1.848
 9077SOL    HW128130   5.767   6.128   1.865
 9077SOL    HW228131   5.913   6.187   1.908
 9078SOL     OW28132   4.644   2.880   5.244
 9078SOL    HW128133   4.672   2.944   5.172
 9078SOL    HW228134   4.548   2.855   5.230
 9079SOL     OW28135   3.551   0.504   5.258
 9079SOL    HW128136   3.611   0.436   5.301
 9079SOL    HW228137   3.456   0.485   5.282
 9080SOL     OW28138   4.810   1.387   6.511
 9080SOL    HW128139   4.882   1.433   6.459
 9080SOL    HW228140   4.845   1.361   6.601
 9081SOL     OW28141   5.558   6.781   3.559
 9081SOL    HW128142   5.603   6.869   3.570
 9081SOL    HW228143   5.459   6.793   3.557
 9082SOL     OW28144   2.645   0.452   2.384
 9082SOL    HW128145   2.569   0.409   2.336
 9082SOL    HW228146   2.701   0.503   2.320
 9083SOL     OW28147   4.578   4.426   4.255
 9083SOL    HW128148   4.648   4.497   4.265
 9083SOL    HW228149   4.593   4.377   4.169
 9084SOL     OW28150   3.861   3.987   2.490
 9084SOL    HW128151   3.797   3.920   2.451
 9084SOL    HW228152   3.950   3.945   2.503
 9085SOL     OW28153   0.858   3.061   0.726
 9085SOL    HW128154   0.790   3.031   0.659
 9085SOL    HW228155   0.937   3.000   0.723
 9086SOL     OW28156   6.949   3.784   6.921
 9086SOL    HW128157   0.000   3.780   6.851
 9086SOL    HW228158   6.897   3.869   6.909
 9087SOL     OW28159   5.128   3.074   2.352
 9087SOL    HW128160   5.174   3.011   2.415
 9087SOL    HW228161   5.049   3.115   2.398
 9088SOL     OW28162   5.596   5.740   1.573
 9088SOL    HW128163   5.573   5.681   1.650
 9088SOL    HW228164   5.529   5.728   1.500
 9089SOL     OW28165   4.104   0.928   5.541
 9089SOL    HW128166   4.167   0.972   5.605
 9089SOL    HW228167   4.012   0.963   5.555
 9090SOL     OW28168   6.030   1.562   3.318
 9090SOL    HW128169   6.046   1.501   3.396
 9090SOL    HW228170   5.994   1.650   3.351
 9091SOL     OW28171   3.787   2.876   5.803
 9091SOL    HW128172   3.839   2.932   5.738
 9091SOL    HW228173   3.694   2.865   5.771
 9092SOL     OW28174   6.944   3.354   6.312
 9092SOL    HW128175   0.023   3.352   6.317
 9092SOL    HW228176   6.910   3.261   6.297
 9093SOL     OW28177   2.014   6.770   4.766
 9093SOL    HW128178   2.110   6.753   4.786
 9093SOL    HW228179   1.958   6.694   4.798
 9094SOL     OW28180   1.865   3.741   0.992
 9094SOL    HW128181   1.936   3.800   1.031
 9094SOL    HW228182   1.838   3.776   0.902
 9095SOL     OW28183   7.019   6.738   6.308
 9095SOL    HW128184   6.980   6.790   6.232
 9095SOL    HW228185   0.002   6.796   6.389
 9096SOL     OW28186   5.939   4.973   4.045
 9096SOL    HW128187   5.952   5.066   4.010
 9096SOL    HW228188   6.011   4.952   4.111
 9097SOL     OW28189   1.109   2.467   5.985
 9097SOL    HW128190   1.040   2.492   6.053
 9097SOL    HW228191   1.183   2.416   6.030
 9098SOL     OW28192   2.614   4.651   3.959
 9098SOL    HW128193   2.581   4.582   3.895
 9098SOL    HW228194   2.555   4.731   3.954
 9099SOL     OW28195   2.476   1.499   6.918
 9099SOL    HW128196   2.404   1.473   6.853
 9099SOL    HW228197   2.435   1.531   7.003
 9100SOL     OW28198   1.958   4.800   4.026
 9100SOL    HW128199   1.991   4.822   4.118
 9100SOL    HW228200   1.990   4.709   4.001
 9101SOL     OW28201   0.385   2.254   0.281
 9101SOL    HW128202   0.371   2.291   0.189
 9101SOL    HW228203   0.465   2.297   0.322
 9102SOL     OW28204   3.864   1.093   2.980
 9102SOL    HW128205   3.817   1.122   3.064
 9102SOL    HW228206   3.859   0.993   2.972
 9103SOL     OW28207   6.615   0.743   1.541
 9103SOL    HW128208   6.609   0.772   1.637
 9103SOL    HW228209   6.602   0.644   1.535
 9104SOL     OW28210   6.157   2.084   6.307
 9104SOL    HW128211   6.133   2.004   6.361
 9104SOL    HW228212   6.074   2.124   6.268
 9105SOL     OW28213   3.422   0.735   6.658
 9105SOL    HW128214   3.507   0.762   6.613
 9105SOL    HW228215   3.443   0.669   6.731
 9106SOL     OW28216   2.422   3.072   6.219
 9106SOL    HW128217   2.395   3.049   6.125
 9106SOL    HW228218   2.355   3.134   6.259
 9107SOL     OW28219   3.432   1.214   0.848
 9107SOL    HW128220   3.406   1.121   0.874
 9107SOL    HW228221   3.430   1.223   0.748
 9108SOL     OW28222   6.841   6.014   5.861
 9108SOL    HW128223   6.829   6.105   5.823
 9108SOL    HW228224   6.826   6.017   5.960
 9109SOL     OW28225   6.060   4.352   2.601
 9109SOL    HW128226   6.042   4.311   2.511
 9109SOL    HW228227   6.114   4.288   2.656
 9110SOL     OW28228   0.916   6.646   2.936
 9110SOL    HW128229   1.013   6.631   2.919
 9110SOL    HW228230   0.873   6.684   2.854
 9111SOL     OW28231   3.695   2.605   5.524
 9111SOL    HW128232   3.702   2.653   5.612
 9111SOL    HW228233   3.621   2.645   5.470
 9112SOL     OW28234   0.466   5.289   2.576
 9112SOL    HW128235   0.540   5.348   2.544
 9112SOL    HW228236   0.414   5.254   2.498
 9113SOL     OW28237   6.300   0.459   4.511
 9113SOL    HW128238   6.232   0.455   4.438
 9113SOL    HW228239   6.258   0.497   4.593
 9114SOL     OW28240   1.409   0.529   6.100
 9114SOL    HW128241   1.316   0.501   6.124
 9114SOL    HW228242   1.413   0.548   6.002
 9115SOL     OW28243   5.000   4.193   5.364
 9115SOL    HW128244   4.924   4.129   5.355
 9115SOL    HW228245   5.044   4.205   5.275
 9116SOL     OW28246   1.136   6.944   4.000
 9116SOL    HW128247   1.161   7.012   4.069
 9116SOL    HW228248   1.075   6.877   4.040
 9117SOL     OW28249   1.675   6.697   0.119
 9117SOL    HW128250   1.771   6.672   0.131
 9117SOL    HW228251   1.662   6.737   0.029
 9118SOL     OW28252   6.810   4.382   1.591
 9118SOL    HW128253   6.784   4.470   1.551
 9118SOL    HW228254   6.836   4.319   1.519
 9119SOL     OW28255   3.380   1.016   1.218
 9119SOL    HW128256   3.349   1.098   1.170
 9119SOL    HW228257   3.443   1.041   1.290
 9120SOL     OW28258   6.535   3.919   4.658
 9120SOL    HW128259   6.437   3.939   4.668
 9120SOL    HW228260   6.581   3.934   4.746
 9121SOL     OW28261   4.061   0.925   4.538
 9121SOL    HW128262   3.968   0.957   4.552
 9121SOL    HW228263   4.118   0.950   4.617
 9122SOL     OW28264   0.301   2.146   2.060
 9122SOL    HW128265   0.302   2.127   1.962
 9122SOL    HW228266   0.220   2.201   2.082
 9123SOL     OW28267   0.572   6.433   4.424
 9123SOL    HW128268   0.551   6.417   4.520
 9123SOL    HW228269   0.627   6.516   4.414
 9124SOL     OW28270   4.043   6.094   0.680
 9124SOL    HW128271   4.065   5.998   0.663
 9124SOL    HW228272   4.069   6.149   0.601
 9125SOL     OW28273   5.457   6.732   1.578
 9125SOL    HW128274   5.360   6.749   1.596
 9125SOL    HW228275   5.480   6.640   1.608
 9126SOL     OW28276   4.436   4.582   1.104
 9126SOL    HW128277   4.503   4.608   1.174
 9126SOL    HW228278   4.412   4.485   1.116
 9127SOL     OW28279   6.109   4.359   5.253
 9127SOL    HW128280   6.105   4.261   5.233
 9127SOL    HW228281   6.098   4.374   5.351
 9128SOL     OW28282   5.952   3.675   6.219
 9128SOL    HW128283   5.870   3.727   6.240
 9128SOL    HW228284   5.970   3.680   6.120
 9129SOL     OW28285   0.129   2.895   0.757
 9129SOL    HW128286   0.102   2.850   0.672
 9129SOL    HW228287   0.151   2.991   0.738
 9130SOL     OW28288   3.067   3.524   5.614
 9130SOL    HW128289   3.032   3.479   5.531
 9130SOL    HW228290   3.048   3.622   5.609
 9131SOL     OW28291   5.831   2.708   0.429
 9131SOL    HW128292   5.766   2.653   0.480
 9131SOL    HW228293   5.824   2.803   0.458
 9132SOL     OW28294   1.294   4.168   3.674
 9132SOL    HW128295   1.201   4.206   3.680
 9132SOL    HW228296   1.289   4.068   3.675
 9133SOL     OW28297   5.340   0.332   1.234
 9133SOL    HW128298   5.438   0.351   1.240
 9133SOL    HW228299   5.310   0.341   1.139
 9134SOL     OW28300   4.613   4.582   6.869
 9134SOL    HW128301   4.569   4.502   6.830
 9134SOL    HW228302   4.563   4.611   6.952
 9135SOL     OW28303   6.439   5.443   2.247
 9135SOL    HW128304   6.418   5.413   2.154
 9135SOL    HW228305   6.434   5.543   2.252
 9136SOL     OW28306   1.036   5.177   0.005
 9136SOL    HW128307   1.077   5.267   7.010
 9136SOL    HW228308   1.058   5.146   0.098
 9137SOL     OW28309   5.525   5.441   5.828
 9137SOL    HW128310   5.475   5.436   5.914
 9137SOL    HW228311   5.460   5.444   5.752
 9138SOL     OW28312   1.796   4.334   6.555
 9138SOL    HW128313   1.794   4.434   6.560
 9138SOL    HW228314   1.734   4.304   6.482
 9139SOL     OW28315   0.233   0.249   1.535
 9139SOL    HW128316   0.150   0.211   1.576
 9139SOL    HW228317   0.239   0.221   1.439
 9140SOL     OW28318   1.651   4.407   2.175
 9140SOL    HW128319   1.605   4.337   2.230
 9140SOL    HW228320   1.665   4.372   2.082
 9141SOL     OW28321   0.424   5.800   4.446
 9141SOL    HW128322   0.515   5.778   4.482
 9141SOL    HW228323   0.419   5.898   4.427
 9142SOL     OW28324   1.353   4.821   3.458
 9142SOL    HW128325   1.334   4.725   3.437
 9142SOL    HW228326   1.377   4.869   3.374
 9143SOL     OW28327   6.261   3.279   2.635
 9143SOL    HW128328   6.328   3.270   2.560
 9143SOL    HW228329   6.170   3.255   2.601
 9144SOL     OW28330   2.976   4.414   5.775
 9144SOL    HW128331   3.031   4.376   5.701
 9144SOL    HW228332   2.916   4.485   5.740
 9145SOL     OW28333   2.294   6.527   6.091
 9145SOL    HW128334   2.372   6.465   6.083
 9145SOL    HW228335   2.327   6.619   6.114
 9146SOL     OW28336   6.548   2.214   4.283
 9146SOL    HW128337   6.497   2.234   4.367
 9146SOL    HW228338   6.645   2.204   4.305
 9147SOL     OW28339   4.211   0.548   6.000
 9147SOL    HW128340   4.205   0.535   5.901
 9147SOL    HW228341   4.296   0.596   6.023
 9148SOL     OW28342   4.169   5.751   2.264
 9148SOL    HW128343   4.115   5.786   2.187
 9148SOL    HW228344   4.265   5.745   2.237
 9149SOL     OW28345   0.439   4.573   1.233
 9149SOL    HW128346   0.462   4.550   1.328
 9149SOL    HW228347   0.343   4.600   1.227
 9150SOL     OW28348   3.093   4.012   7.014
 9150SOL    HW128349   3.069   3.939   0.058
 9150SOL    HW228350   3.027   4.013   6.939
 9151SOL     OW28351   2.258   2.914   3.549
 9151SOL    HW128352   2.223   2.999   3.509
 9151SOL    HW228353   2.300   2.858   3.477
 9152SOL     OW28354   1.971   4.957   2.114
 9152SOL    HW128355   2.004   5.043   2.075
 9152SOL    HW228356   1.934   4.974   2.205
 9153SOL     OW28357   0.383   3.612   0.429
 9153SOL    HW128358   0.353   3.636   0.337
 9153SOL    HW228359   0.304   3.615   0.492
 9154SOL     OW28360   4.525   5.379   3.363
 9154SOL    HW128361   4.567   5.348   3.448
 9154SOL    HW228362   4.546   5.476   3.349
 9155SOL     OW28363   1.243   6.027   2.643
 9155SOL    HW128364   1.153   5.984   2.635
 9155SOL    HW228365   1.307   5.962   2.687
 9156SOL     OW28366   0.186   4.010   5.599
 9156SOL    HW128367   0.094   4.006   5.638
 9156SOL    HW228368   0.182   3.986   5.503
 9157SOL     OW28369   1.770   4.493   5.131
 9157SOL    HW128370   1.859   4.523   5.166
 9157SOL    HW228371   1.744   4.550   5.053
 9158SOL     OW28372   0.179   3.149   4.616
 9158SOL    HW128373   0.175   3.110   4.707
 9158SOL    HW228374   0.177   3.075   4.548
 9159SOL     OW28375   2.074   1.082   3.886
 9159SOL    HW128376   2.009   1.147   3.847
 9159SOL    HW228377   2.025   1.019   3.947
 9160SOL     OW28378   0.534   3.375   6.291
 9160SOL    HW128379   0.457   3.437   6.302
 9160SOL    HW228380   0.570   3.383   6.197
 9161SOL     OW28381   5.531   3.013   2.941
 9161SOL    HW128382   5.453   2.975   2.991
 9161SOL    HW228383   5.582   2.939   2.897
 9162SOL     OW28384   4.269   1.992   1.871
 9162SOL    HW128385   4.236   1.983   1.965
 9162SOL    HW228386   4.369   1.995   1.871
 9163SOL     OW28387   1.745   3.289   3.399
 9163SOL    HW128388   1.803   3.232   3.341
 9163SOL    HW228389   1.774   3.384   3.392
 9164SOL     OW28390   3.173   7.014   0.755
 9164SOL    HW128391   3.110   0.069   0.736
 9164SOL    HW228392   3.120   6.932   0.774
 9165SOL     OW28393   5.944   0.977   6.437
 9165SOL    HW128394   5.905   1.069   6.439
 9165SOL    HW228395   6.040   0.982   6.409
 9166SOL     OW28396   4.168   6.401   1.721
 9166SOL    HW128397   4.226   6.470   1.678
 9166SOL    HW228398   4.193   6.391   1.818
 9167SOL     OW28399   1.433   1.943   4.510
 9167SOL    HW128400   1.369   2.019   4.503
 9167SOL    HW228401   1.502   1.963   4.580
 9168SOL     OW28402   6.398   5.993   5.056
 9168SOL    HW128403   6.347   6.001   5.141
 9168SOL    HW228404   6.389   6.078   5.003
 9169SOL     OW28405   6.524   5.893   6.940
 9169SOL    HW128406   6.429   5.863   6.930
 9169SOL    HW228407   6.530   5.991   6.923
 9170SOL     OW28408   2.153   1.141   5.940
 9170SOL    HW128409   2.208   1.074   5.891
 9170SOL    HW228410   2.066   1.154   5.893
 9171SOL     OW28411   4.271   5.356   0.347
 9171SOL    HW128412   4.176   5.326   0.346
 9171SOL    HW228413   4.281   5.433   0.411
 9172SOL     OW28414   4.831   1.480   5.592
 9172SOL    HW128415   4.742   1.444   5.561
 9172SOL    HW228416   4.818   1.570   5.632
 9173SOL     OW28417   6.182   4.078   5.236
 9173SOL    HW128418   6.193   3.987   5.274
 9173SOL    HW228419   6.272   4.119   5.219
 9174SOL     OW28420   5.868   4.341   0.181
 9174SOL    HW128421   5.789   4.390   0.217
 9174SOL    HW228422   5.846   4.244   0.173
 9175SOL     OW28423   2.318   1.113   1.561
 9175SOL    HW128424   2.339   1.079   1.470
 9175SOL    HW228425   2.302   1.212   1.557
 9176SOL     OW28426   1.592   0.730   2.366
 9176SOL    HW128427   1.691   0.720   2.377
 9176SOL    HW228428   1.552   0.642   2.340
 9177SOL     OW28429   0.922   5.955   3.569
 9177SOL    HW128430   0.886   5.861   3.568
 9177SOL    HW228431   1.022   5.952   3.575
 9178SOL     OW28432   1.405   3.467   0.990
 9178SOL    HW128433   1.310   3.473   1.022
 9178SOL    HW228434   1.438   3.559   0.968
 9179SOL     OW28435   4.085   5.113   3.191
 9179SOL    HW128436   4.009   5.134   3.129
 9179SOL    HW228437   4.093   5.013   3.201
 9180SOL     OW28438   0.228   0.786   4.759
 9180SOL    HW128439   0.148   0.729   4.775
 9180SOL    HW228440   0.200   0.882   4.755
 9181SOL     OW28441   2.526   2.093   3.421
 9181SOL    HW128442   2.566   2.156   3.487
 9181SOL    HW228443   2.517   2.138   3.333
 9182SOL     OW28444   6.597   1.923   2.551
 9182SOL    HW128445   6.697   1.920   2.563
 9182SOL    HW228446   6.576   1.960   2.460
 9183SOL     OW28447   2.358   1.582   5.546
 9183SOL    HW128448   2.277   1.640   5.549
 9183SOL    HW228449   2.436   1.636   5.512
 9184SOL     OW28450   2.956   5.199   1.673
 9184SOL    HW128451   3.041   5.246   1.648
 9184SOL    HW228452   2.976   5.103   1.696
 9185SOL     OW28453   1.011   0.997   5.330
 9185SOL    HW128454   0.939   1.003   5.262
 9185SOL    HW228455   1.049   1.088   5.347
 9186SOL     OW28456   5.644   6.607   6.362
 9186SOL    HW128457   5.723   6.632   6.305
 9186SOL    HW228458   5.579   6.554   6.308
 9187SOL     OW28459   5.043   2.900   1.078
 9187SOL    HW128460   5.042   2.896   0.978
 9187SOL    HW228461   5.024   2.994   1.108
 9188SOL     OW28462   1.212   0.541   2.384
 9188SOL    HW128463   1.170   0.575   2.469
 9188SOL    HW228464   1.152   0.561   2.307
 9189SOL     OW28465   2.821   0.881   6.334
 9189SOL    HW128466   2.909   0.925   6.349
 9189SOL    HW228467   2.827   0.785   6.363
 9190SOL     OW28468   3.645   0.983   5.550
 9190SOL    HW128469   3.737   1.016   5.570
 9190SOL    HW228470   3.643   0.944   5.458
 9191SOL     OW28471   5.948   0.094   1.272
 9191SOL    HW128472   5.850   0.077   1.260
 9191SOL    HW228473   5.998   0.008   1.264
 9192SOL     OW28474   5.209   4.226   4.894
 9192SOL    HW128475   5.285   4.169   4.925
 9192SOL    HW228476   5.166   4.184   4.815
 9193SOL     OW28477   4.026   3.669   2.584
 9193SOL    HW128478   3.947   3.610   2.564
 9193SOL    HW228479   4.054   3.716   2.501
 9194SOL     OW28480   3.529   4.871   3.063
 9194SOL    HW128481   3.620   4.879   3.023
 9194SOL    HW228482   3.460   4.883   2.991
 9195SOL     OW28483   0.783   3.301   3.731
 9195SOL    HW128484   0.873   3.300   3.688
 9195SOL    HW228485   0.793   3.292   3.830
 9196SOL     OW28486   5.284   5.650   3.179
 9196SOL    HW128487   5.199   5.640   3.128
 9196SOL    HW228488   5.312   5.561   3.216
 9197SOL     OW28489   4.558   2.229   0.221
 9197SOL    HW128490   4.626   2.246   0.292
 9197SOL    HW228491   4.486   2.298   0.227
 9198SOL     OW28492   6.240   3.082   5.245
 9198SOL    HW128493   6.168   3.148   5.265
 9198SOL    HW228494   6.329   3.121   5.270
 9199SOL     OW28495   0.837   3.813   6.641
 9199SOL    HW128496   0.762   3.785   6.702
 9199SOL    HW228497   0.881   3.895   6.678
 9200SOL     OW28498   4.851   6.336   1.818
 9200SOL    HW128499   4.839   6.237   1.826
 9200SOL    HW228500   4.942   6.356   1.782
 9201SOL     OW28501   0.173   2.808   2.284
 9201SOL    HW128502   0.093   2.854   2.244
 9201SOL    HW228503   0.256   2.854   2.254
 9202SOL     OW28504   1.838   6.174   4.043
 9202SOL    HW128505   1.757   6.117   4.058
 9202SOL    HW228506   1.854   6.184   3.945
 9203SOL     OW28507   5.109   1.738   1.133
 9203SOL    HW128508   5.147   1.814   1.186
 9203SOL    HW228509   5.167   1.657   1.145
 9204SOL     OW28510   4.922   4.476   2.476
 9204SOL    HW128511   4.925   4.485   2.575
 9204SOL    HW228512   4.962   4.388   2.449
 9205SOL     OW28513   4.130   2.086   1.347
 9205SOL    HW128514   4.153   2.085   1.444
 9205SOL    HW228515   4.162   2.172   1.306
 9206SOL     OW28516   6.862   6.223   5.278
 9206SOL    HW128517   6.882   6.288   5.205
 9206SOL    HW228518   6.948   6.191   5.318
 9207SOL     OW28519   4.952   6.007   0.344
 9207SOL    HW128520   5.045   6.037   0.367
 9207SOL    HW228521   4.954   5.912   0.315
 9208SOL     OW28522   5.210   4.595   1.878
 9208SOL    HW128523   5.295   4.645   1.861
 9208SOL    HW228524   5.132   4.648   1.843
 9209SOL     OW28525   4.727   0.469   4.355
 9209SOL    HW128526   4.674   0.550   4.329
 9209SOL    HW228527   4.733   0.406   4.278
 9210SOL     OW28528   1.102   0.196   6.894
 9210SOL    HW128529   1.156   0.129   6.945
 9210SOL    HW228530   1.032   0.235   6.953
 9211SOL     OW28531   5.084   1.942   6.545
 9211SOL    HW128532   5.073   2.036   6.511
 9211SOL    HW228533   5.166   1.937   6.603
 9212SOL     OW28534   6.001   3.389   6.113
 9212SOL    HW128535   5.959   3.306   6.151
 9212SOL    HW228536   5.993   3.463   6.179
 9213SOL     OW28537   6.725   5.913   2.383
 9213SOL    HW128538   6.779   5.957   2.455
 9213SOL    HW228539   6.737   5.814   2.388
 9214SOL     OW28540   2.128   1.224   6.398
 9214SOL    HW128541   2.064   1.191   6.329
 9214SOL    HW228542   2.204   1.271   6.353
 9215SOL     OW28543   0.207   4.061   3.737
 9215SOL    HW128544   0.234   4.109   3.819
 9215SOL    HW228545   0.288   4.036   3.684
 9216SOL     OW28546   2.105   6.908   3.888
 9216SOL    HW128547   2.086   6.900   3.986
 9216SOL    HW228548   2.114   6.816   3.848
 9217SOL     OW28549   3.344   2.384   6.816
 9217SOL    HW128550   3.366   2.480   6.799
 9217SOL    HW228551   3.263   2.378   6.874
 9218SOL     OW28552   4.397   5.984   5.623
 9218SOL    HW128553   4.395   6.049   5.547
 9218SOL    HW228554   4.389   6.034   5.709
 9219SOL     OW28555   3.337   2.704   5.921
 9219SOL    HW128556   3.292   2.745   6.000
 9219SOL    HW228557   3.384   2.620   5.949
 9220SOL     OW28558   0.750   6.739   3.849
 9220SOL    HW128559   0.732   6.641   3.857
 9220SOL    HW228560   0.806   6.756   3.768
 9221SOL     OW28561   2.705   1.576   1.732
 9221SOL    HW128562   2.648   1.496   1.711
 9221SOL    HW228563   2.786   1.575   1.673
 9222SOL     OW28564   2.094   5.951   3.328
 9222SOL    HW128565   2.167   5.984   3.387
 9222SOL    HW228566   2.132   5.890   3.259
 9223SOL     OW28567   6.167   2.325   4.609
 9223SOL    HW128568   6.114   2.348   4.528
 9223SOL    HW228569   6.171   2.226   4.620
 9224SOL     OW28570   1.842   5.258   2.493
 9224SOL    HW128571   1.858   5.251   2.394
 9224SOL    HW228572   1.844   5.354   2.520
 9225SOL     OW28573   0.457   5.227   6.056
 9225SOL    HW128574   0.494   5.188   5.972
 9225SOL    HW228575   0.378   5.173   6.086
 9226SOL     OW28576   0.832   0.244   4.709
 9226SOL    HW128577   0.810   0.342   4.708
 9226SOL    HW228578   0.749   0.192   4.726
 9227SOL     OW28579   3.803   3.685   0.107
 9227SOL    HW128580   3.770   3.776   0.128
 9227SOL    HW228581   3.764   3.654   0.020
 9228SOL     OW28582   3.732   3.602   5.081
 9228SOL    HW128583   3.796   3.677   5.100
 9228SOL    HW228584   3.657   3.636   5.024
 9229SOL     OW28585   0.051   5.131   0.683
 9229SOL    HW128586   0.134   5.163   0.729
 9229SOL    HW228587   7.004   5.105   0.752
 9230SOL     OW28588   3.793   0.216   6.249
 9230SOL    HW128589   3.755   0.180   6.334
 9230SOL    HW228590   3.743   0.178   6.171
 9231SOL     OW28591   5.963   6.570   1.444
 9231SOL    HW128592   5.990   6.498   1.508
 9231SOL    HW228593   5.865   6.564   1.427
 9232SOL     OW28594   1.018   5.053   2.027
 9232SOL    HW128595   1.005   5.017   1.935
 9232SOL    HW228596   1.115   5.070   2.044
 9233SOL     OW28597   1.019   0.209   5.738
 9233SOL    HW128598   0.980   0.300   5.723
 9233SOL    HW228599   1.077   0.211   5.820
 9234SOL     OW28600   3.693   4.365   6.429
 9234SOL    HW128601   3.607   4.390   6.473
 9234SOL    HW228602   3.761   4.436   6.447
 9235SOL     OW28603   2.403   2.455   3.041
 9235SOL    HW128604   2.448   2.503   3.117
 9235SOL    HW228605   2.351   2.520   2.986
 9236SOL     OW28606   2.084   3.685   6.361
 9236SOL    HW128607   2.141   3.766   6.349
 9236SOL    HW228608   2.034   3.667   6.276
 9237SOL     OW28609   6.352   5.387   3.784
 9237SOL    HW128610   6.450   5.406   3.792
 9237SOL    HW228611   6.311   5.452   3.720
 9238SOL     OW28612   1.373   2.445   5.129
 9238SOL    HW128613   1.408   2.431   5.222
 9238SOL    HW228614   1.382   2.361   5.077
 9239SOL     OW28615   1.548   5.503   5.912
 9239SOL    HW128616   1.555   5.453   5.825
 9239SOL    HW228617   1.456   5.541   5.920
 9240SOL     OW28618   3.697   1.457   4.802
 9240SOL    HW128619   3.605   1.494   4.817
 9240SOL    HW228620   3.756   1.482   4.878
 9241SOL     OW28621   5.393   6.103   0.249
 9241SOL    HW128622   5.426   6.120   0.157
 9241SOL    HW228623   5.461   6.135   0.315
 9242SOL     OW28624   2.403   2.688   0.503
 9242SOL    HW128625   2.466   2.621   0.465
 9242SOL    HW228626   2.335   2.641   0.560
 9243SOL     OW28627   2.272   0.502   0.244
 9243SOL    HW128628   2.324   0.523   0.327
 9243SOL    HW228629   2.231   0.411   0.252
 9244SOL     OW28630   3.052   6.258   0.093
 9244SOL    HW128631   3.038   6.221   0.001
 9244SOL    HW228632   3.132   6.318   0.093
 9245SOL     OW28633   0.505   4.634   2.997
 9245SOL    HW128634   0.526   4.625   2.899
 9245SOL    HW228635   0.491   4.543   3.036
 9246SOL     OW28636   5.000   6.995   0.173
 9246SOL    HW128637   4.906   6.995   0.208
 9246SOL    HW228638   5.054   0.039   0.226
 9247SOL     OW28639   3.465   6.669   3.010
 9247SOL    HW128640   3.393   6.669   2.941
 9247SOL    HW228641   3.467   6.580   3.056
 9248SOL     OW28642   2.870   0.290   0.177
 9248SOL    HW128643   2.881   0.229   0.256
 9248SOL    HW228644   2.816   0.370   0.204
 9249SOL     OW28645   3.803   0.391   0.672
 9249SOL    HW128646   3.737   0.446   0.620
 9249SOL    HW228647   3.894   0.432   0.665
 9250SOL     OW28648   0.457   3.772   2.828
 9250SOL    HW128649   0.536   3.716   2.802
 9250SOL    HW228650   0.467   3.863   2.789
 9251SOL     OW28651   4.240   1.766   1.265
 9251SOL    HW128652   4.146   1.749   1.295
 9251SOL    HW228653   4.266   1.698   1.196
 9252SOL     OW28654   5.602   1.756   4.734
 9252SOL    HW128655   5.696   1.730   4.712
 9252SOL    HW228656   5.573   1.710   4.817
 9253SOL     OW28657   2.563   4.823   3.691
 9253SOL    HW128658   2.467   4.802   3.671
 9253SOL    HW228659   2.568   4.900   3.755
 9254SOL     OW28660   0.038   6.151   2.377
 9254SOL    HW128661   6.996   6.135   2.302
 9254SOL    HW228662   0.047   6.067   2.432
 9255SOL     OW28663   6.580   3.444   0.888
 9255SOL    HW128664   6.578   3.492   0.800
 9255SOL    HW228665   6.502   3.381   0.893
 9256SOL     OW28666   2.464   6.296   1.037
 9256SOL    HW128667   2.397   6.360   1.074
 9256SOL    HW228668   2.430   6.259   0.950
 9257SOL     OW28669   6.426   6.214   4.920
 9257SOL    HW128670   6.459   6.305   4.946
 9257SOL    HW228671   6.471   6.186   4.835
 9258SOL     OW28672   5.375   4.733   2.764
 9258SOL    HW128673   5.382   4.833   2.764
 9258SOL    HW228674   5.329   4.703   2.847
 9259SOL     OW28675   0.915   2.632   6.720
 9259SOL    HW128676   0.869   2.557   6.674
 9259SOL    HW228677   0.880   2.720   6.686
 9260SOL     OW28678   5.283   4.503   4.962
 9260SOL    HW128679   5.260   4.405   4.961
 9260SOL    HW228680   5.306   4.532   4.869
 9261SOL     OW28681   1.492   3.557   1.475
 9261SOL    HW128682   1.468   3.518   1.386
 9261SOL    HW228683   1.570   3.508   1.513
 9262SOL     OW28684   0.706   6.893   6.580
 9262SOL    HW128685   0.752   6.982   6.580
 9262SOL    HW228686   0.731   6.842   6.498
 9263SOL     OW28687   2.616   4.752   2.760
 9263SOL    HW128688   2.517   4.755   2.756
 9263SOL    HW228689   2.652   4.714   2.675
 9264SOL     OW28690   5.130   3.185   5.877
 9264SOL    HW128691   5.105   3.281   5.868
 9264SOL    HW228692   5.204   3.164   5.813
 9265SOL     OW28693   4.904   0.161   2.438
 9265SOL    HW128694   4.817   0.197   2.406
 9265SOL    HW228695   4.901   0.061   2.439
 9266SOL     OW28696   0.580   4.809   1.190
 9266SOL    HW128697   0.547   4.878   1.126
 9266SOL    HW228698   0.518   4.731   1.190
 9267SOL     OW28699   6.994   1.342   3.638
 9267SOL    HW128700   0.072   1.330   3.625
 9267SOL    HW228701   6.954   1.255   3.667
 9268SOL     OW28702   0.335   1.127   1.071
 9268SOL    HW128703   0.389   1.113   0.988
 9268SOL    HW228704   0.238   1.127   1.049
 9269SOL     OW28705   3.401   6.894   0.826
 9269SOL    HW128706   3.474   6.962   0.819
 9269SOL    HW228707   3.313   6.939   0.814
 9270SOL     OW28708   2.319   0.880   5.155
 9270SOL    HW128709   2.227   0.865   5.191
 9270SOL    HW228710   2.333   0.978   5.137
 9271SOL     OW28711   1.761   4.428   5.860
 9271SOL    HW128712   1.820   4.498   5.820
 9271SOL    HW228713   1.760   4.347   5.801
 9272SOL     OW28714   6.997   6.553   5.272
 9272SOL    HW128715   6.903   6.528   5.249
 9272SOL    HW228716   0.014   6.485   5.335
 9273SOL     OW28717   6.541   3.579   3.535
 9273SOL    HW128718   6.502   3.487   3.531
 9273SOL    HW228719   6.485   3.637   3.593
 9274SOL     OW28720   6.869   3.310   0.073
 9274SOL    HW128721   6.832   3.244   0.009
 9274SOL    HW228722   6.858   3.402   0.037
 9275SOL     OW28723   5.151   2.140   0.093
 9275SOL    HW128724   5.160   2.062   0.031
 9275SOL    HW228725   5.136   2.224   0.040
 9276SOL     OW28726   1.729   3.568   6.928
 9276SOL    HW128727   1.803   3.635   6.928
 9276SOL    HW228728   1.707   3.542   0.001
 9277SOL     OW28729   3.925   5.796   2.471
 9277SOL    HW128730   4.000   5.855   2.500
 9277SOL    HW228731   3.882   5.834   2.390
 9278SOL     OW28732   0.810   0.392   5.754
 9278SOL    HW128733   0.746   0.435   5.691
 9278SOL    HW228734   0.858   0.463   5.806
 9279SOL     OW28735   3.448   6.023   1.493
 9279SOL    HW128736   3.495   5.965   1.560
 9279SOL    HW228737   3.352   5.997   1.488
 9280SOL     OW28738   1.292   5.136   1.379
 9280SOL    HW128739   1.198   5.168   1.366
 9280SOL    HW228740   1.315   5.141   1.476
 9281SOL     OW28741   1.355   5.750   0.963
 9281SOL    HW128742   1.371   5.677   0.897
 9281SOL    HW228743   1.391   5.836   0.926
 9282SOL     OW28744   2.052   0.340   4.911
 9282SOL    HW128745   2.046   0.311   4.815
 9282SOL    HW228746   1.990   0.285   4.967
 9283SOL     OW28747   4.777   5.421   0.039
 9283SOL    HW128748   4.709   5.454   0.105
 9283SOL    HW228749   4.775   5.480   6.979
 9284SOL     OW28750   4.744   6.615   1.143
 9284SOL    HW128751   4.693   6.535   1.176
 9284SOL    HW228752   4.706   6.644   1.055
 9285SOL     OW28753   6.668   5.937   3.421
 9285SOL    HW128754   6.573   5.968   3.422
 9285SOL    HW228755   6.672   5.839   3.443
 9286SOL     OW28756   4.999   6.747   1.498
 9286SOL    HW128757   4.911   6.705   1.516
 9286SOL    HW228758   5.071   6.698   1.546
 9287SOL     OW28759   4.806   4.574   0.547
 9287SOL    HW128760   4.830   4.493   0.493
 9287SOL    HW228761   4.791   4.652   0.486
 9288SOL     OW28762   3.833   1.652   2.634
 9288SOL    HW128763   3.815   1.628   2.729
 9288SOL    HW228764   3.802   1.577   2.575
 9289SOL     OW28765   4.421   5.848   2.531
 9289SOL    HW128766   4.343   5.796   2.497
 9289SOL    HW228767   4.406   5.869   2.628
 9290SOL     OW28768   5.196   1.322   3.842
 9290SOL    HW128769   5.239   1.318   3.932
 9290SOL    HW228770   5.261   1.360   3.775
 9291SOL     OW28771   0.712   4.107   5.419
 9291SOL    HW128772   0.752   4.175   5.358
 9291SOL    HW228773   0.784   4.070   5.478
 9292SOL     OW28774   1.286   1.919   6.761
 9292SOL    HW128775   1.323   1.895   6.850
 9292SOL    HW228776   1.245   2.010   6.765
 9293SOL     OW28777   4.867   1.107   5.043
 9293SOL    HW128778   4.849   1.196   4.999
 9293SOL    HW228779   4.826   1.106   5.134
 9294SOL     OW28780   5.151   6.162   6.020
 9294SOL    HW128781   5.099   6.077   6.023
 9294SOL    HW228782   5.231   6.155   6.080
 9295SOL     OW28783   6.517   0.754   2.979
 9295SOL    HW128784   6.432   0.726   3.023
 9295SOL    HW228785   6.510   0.849   2.950
 9296SOL     OW28786   1.395   4.140   5.259
 9296SOL    HW128787   1.417   4.053   5.212
 9296SOL    HW228788   1.462   4.209   5.231
 9297SOL     OW28789   6.910   5.487   2.114
 9297SOL    HW128790   6.968   5.449   2.041
 9297SOL    HW228791   6.820   5.511   2.076
 9298SOL     OW28792   0.366   4.461   6.216
 9298SOL    HW128793   0.448   4.515   6.198
 9298SOL    HW228794   0.365   4.382   6.156
 9299SOL     OW28795   2.935   1.961   3.799
 9299SOL    HW128796   2.853   1.979   3.854
 9299SOL    HW228797   2.932   1.868   3.764
 9300SOL     OW28798   2.197   5.322   5.786
 9300SOL    HW128799   2.187   5.224   5.800
 9300SOL    HW228800   2.286   5.352   5.821
 9301SOL     OW28801   0.725   3.647   4.321
 9301SOL    HW128802   0.728   3.713   4.246
 9301SOL    HW228803   0.742   3.694   4.408
 9302SOL     OW28804   3.181   5.447   3.928
 9302SOL    HW128805   3.208   5.498   4.010
 9302SOL    HW228806   3.170   5.511   3.852
 9303SOL     OW28807   2.323   4.541   0.276
 9303SOL    HW128808   2.302   4.522   0.181
 9303SOL    HW228809   2.400   4.484   0.305
 9304SOL     OW28810   5.870   5.801   6.163
 9304SOL    HW128811   5.807   5.877   6.178
 9304SOL    HW228812   5.848   5.755   6.077
 9305SOL     OW28813   1.703   1.728   1.016
 9305SOL    HW128814   1.711   1.820   1.056
 9305SOL    HW228815   1.788   1.678   1.029
 9306SOL     OW28816   6.811   6.125   4.472
 9306SOL    HW128817   6.784   6.108   4.377
 9306SOL    HW228818   6.831   6.222   4.485
 9307SOL     OW28819   2.257   4.113   1.230
 9307SOL    HW128820   2.341   4.164   1.248
 9307SOL    HW228821   2.194   4.126   1.306
 9308SOL     OW28822   2.474   3.842   1.368
 9308SOL    HW128823   2.549   3.859   1.305
 9308SOL    HW228824   2.401   3.908   1.351
 9309SOL     OW28825   4.440   5.087   5.795
 9309SOL    HW128826   4.368   5.019   5.809
 9309SOL    HW228827   4.466   5.088   5.698
 9310SOL     OW28828   6.932   6.287   6.151
 9310SOL    HW128829   6.835   6.310   6.137
 9310SOL    HW228830   6.981   6.367   6.185
 9311SOL     OW28831   5.891   4.504   0.755
 9311SOL    HW128832   5.880   4.414   0.712
 9311SOL    HW228833   5.802   4.535   0.789
 9312SOL     OW28834   5.893   3.059   4.018
 9312SOL    HW128835   5.820   3.093   4.077
 9312SOL    HW228836   5.854   3.000   3.948
 9313SOL     OW28837   0.341   0.399   2.304
 9313SOL    HW128838   0.364   0.376   2.399
 9313SOL    HW228839   0.418   0.446   2.261
 9314SOL     OW28840   4.840   4.958   1.396
 9314SOL    HW128841   4.893   5.028   1.444
 9314SOL    HW228842   4.900   4.908   1.334
 9315SOL     OW28843   6.122   5.343   5.666
 9315SOL    HW128844   6.147   5.247   5.677
 9315SOL    HW228845   6.200   5.394   5.630
 9316SOL     OW28846   5.551   6.268   0.787
 9316SOL    HW128847   5.526   6.180   0.748
 9316SOL    HW228848   5.499   6.340   0.741
 9317SOL     OW28849   2.434   6.123   3.089
 9317SOL    HW128850   2.509   6.162   3.036
 9317SOL    HW228851   2.353   6.182   3.082
 9318SOL     OW28852   3.234   6.816   3.569
 9318SOL    HW128853   3.280   6.795   3.656
 9318SOL    HW228854   3.276   6.762   3.496
 9319SOL     OW28855   3.593   2.032   0.320
 9319SOL    HW128856   3.523   2.087   0.274
 9319SOL    HW228857   3.679   2.040   0.269
 9320SOL     OW28858   6.755   6.342   7.019
 9320SOL    HW128859   6.826   6.291   0.046
 9320SOL    HW228860   6.786   6.436   7.004
 9321SOL     OW28861   0.869   2.764   3.718
 9321SOL    HW128862   0.848   2.666   3.719
 9321SOL    HW228863   0.925   2.786   3.798
 9322SOL     OW28864   5.080   3.001   6.922
 9322SOL    HW128865   5.121   2.911   6.931
 9322SOL    HW228866   4.984   2.997   6.950
 9323SOL     OW28867   0.480   1.808   5.259
 9323SOL    HW128868   0.568   1.829   5.303
 9323SOL    HW228869   0.461   1.877   5.189
 9324SOL     OW28870   0.467   4.436   0.613
 9324SOL    HW128871   0.392   4.502   0.615
 9324SOL    HW228872   0.462   4.377   0.693
 9325SOL     OW28873   1.047   4.677   3.080
 9325SOL    HW128874   1.001   4.606   3.028
 9325SOL    HW228875   0.979   4.743   3.112
 9326SOL     OW28876   4.869   4.943   1.693
 9326SOL    HW128877   4.813   4.881   1.638
 9326SOL    HW228878   4.934   4.891   1.747
 9327SOL     OW28879   2.343   1.434   3.351
 9327SOL    HW128880   2.422   1.458   3.294
 9327SOL    HW228881   2.259   1.450   3.299
 9328SOL     OW28882   1.146   6.822   3.208
 9328SOL    HW128883   1.217   6.765   3.249
 9328SOL    HW228884   1.183   6.914   3.191
 9329SOL     OW28885   2.088   4.922   6.201
 9329SOL    HW128886   2.053   4.842   6.152
 9329SOL    HW228887   2.117   4.895   6.293
 9330SOL     OW28888   0.340   6.510   0.931
 9330SOL    HW128889   0.369   6.523   1.026
 9330SOL    HW228890   0.274   6.581   0.906
 9331SOL     OW28891   2.050   4.973   4.648
 9331SOL    HW128892   2.142   4.999   4.678
 9331SOL    HW228893   2.015   5.041   4.584
 9332SOL     OW28894   6.296   5.146   0.042
 9332SOL    HW128895   6.208   5.156   0.089
 9332SOL    HW228896   6.367   5.197   0.091
 9333SOL     OW28897   1.726   4.867   0.873
 9333SOL    HW128898   1.675   4.923   0.938
 9333SOL    HW228899   1.736   4.916   0.787
 9334SOL     OW28900   6.942   5.244   0.081
 9334SOL    HW128901   6.985   5.162   0.120
 9334SOL    HW228902   7.008   5.290   0.021
 9335SOL     OW28903   0.211   3.408   0.838
 9335SOL    HW128904   0.112   3.394   0.846
 9335SOL    HW228905   0.250   3.427   0.928
 9336SOL     OW28906   3.840   6.055   5.313
 9336SOL    HW128907   3.938   6.045   5.294
 9336SOL    HW228908   3.796   6.101   5.236
 9337SOL     OW28909   3.018   1.547   4.616
 9337SOL    HW128910   3.038   1.616   4.546
 9337SOL    HW228911   2.962   1.474   4.575
 9338SOL     OW28912   4.899   6.297   0.734
 9338SOL    HW128913   4.917   6.388   0.771
 9338SOL    HW228914   4.801   6.283   0.724
 9339SOL     OW28915   6.937   3.524   5.025
 9339SOL    HW128916   6.914   3.571   5.110
 9339SOL    HW228917   6.855   3.517   4.968
 9340SOL     OW28918   2.417   4.771   2.307
 9340SOL    HW128919   2.428   4.819   2.220
 9340SOL    HW228920   2.322   4.743   2.318
 9341SOL     OW28921   5.867   5.529   0.160
 9341SOL    HW128922   5.849   5.446   0.108
 9341SOL    HW228923   5.964   5.551   0.155
 9342SOL     OW28924   2.813   0.180   5.218
 9342SOL    HW128925   2.895   0.220   5.177
 9342SOL    HW228926   2.775   0.243   5.285
 9343SOL     OW28927   5.240   3.573   1.459
 9343SOL    HW128928   5.261   3.543   1.552
 9343SOL    HW228929   5.144   3.600   1.453
 9344SOL     OW28930   5.768   0.257   4.938
 9344SOL    HW128931   5.677   0.263   4.898
 9344SOL    HW228932   5.762   0.271   5.037
 9345SOL     OW28933   0.167   4.470   6.452
 9345SOL    HW128934   0.218   4.552   6.476
 9345SOL    HW228935   0.159   4.462   6.353
 9346SOL     OW28936   5.138   0.320   2.015
 9346SOL    HW128937   5.175   0.404   2.055
 9346SOL    HW228938   5.038   0.320   2.025
 9347SOL     OW28939   4.830   6.890   1.946
 9347SOL    HW128940   4.743   6.873   1.992
 9347SOL    HW228941   4.819   6.961   1.876
 9348SOL     OW28942   2.278   5.236   1.954
 9348SOL    HW128943   2.350   5.295   1.918
 9348SOL    HW228944   2.318   5.173   2.021
 9349SOL     OW28945   6.527   5.850   0.875
 9349SOL    HW128946   6.619   5.886   0.893
 9349SOL    HW228947   6.511   5.846   0.777
 9350SOL     OW28948   6.384   0.170   6.977
 9350SOL    HW128949   6.287   0.187   6.998
 9350SOL    HW228950   6.403   0.072   6.987
 9351SOL     OW28951   4.908   3.884   6.279
 9351SOL    HW128952   4.880   3.912   6.187
 9351SOL    HW228953   4.843   3.921   6.346
 9352SOL     OW28954   2.080   2.233   0.266
 9352SOL    HW128955   1.991   2.270   0.241
 9352SOL    HW228956   2.150   2.267   0.203
 9353SOL     OW28957   1.210   3.183   2.011
 9353SOL    HW128958   1.148   3.162   1.936
 9353SOL    HW228959   1.202   3.113   2.082
 9354SOL     OW28960   5.430   2.308   2.263
 9354SOL    HW128961   5.523   2.272   2.255
 9354SOL    HW228962   5.434   2.407   2.273
 9355SOL     OW28963   0.216   1.407   2.288
 9355SOL    HW128964   0.132   1.425   2.339
 9355SOL    HW228965   0.284   1.477   2.310
 9356SOL     OW28966   4.670   2.725   2.521
 9356SOL    HW128967   4.764   2.750   2.499
 9356SOL    HW228968   4.667   2.683   2.612
 9357SOL     OW28969   2.405   5.055   0.214
 9357SOL    HW128970   2.450   4.982   0.265
 9357SOL    HW228971   2.306   5.041   0.216
 9358SOL     OW28972   5.153   3.322   2.155
 9358SOL    HW128973   5.204   3.237   2.168
 9358SOL    HW228974   5.062   3.301   2.121
 9359SOL     OW28975   4.704   5.561   6.139
 9359SOL    HW128976   4.760   5.572   6.058
 9359SOL    HW228977   4.759   5.576   6.221
 9360SOL     OW28978   1.358   1.225   4.920
 9360SOL    HW128979   1.374   1.163   4.996
 9360SOL    HW228980   1.261   1.221   4.894
 9361SOL     OW28981   2.212   1.107   2.635
 9361SOL    HW128982   2.206   1.134   2.539
 9361SOL    HW228983   2.170   1.177   2.692
 9362SOL     OW28984   2.021   1.481   2.930
 9362SOL    HW128985   2.005   1.421   2.851
 9362SOL    HW228986   2.029   1.575   2.898
 9363SOL     OW28987   1.048   6.305   1.935
 9363SOL    HW128988   0.976   6.351   1.988
 9363SOL    HW228989   1.029   6.315   1.837
 9364SOL     OW28990   5.348   4.260   1.146
 9364SOL    HW128991   5.287   4.326   1.103
 9364SOL    HW228992   5.431   4.250   1.091
 9365SOL     OW28993   1.928   1.393   3.644
 9365SOL    HW128994   1.904   1.310   3.594
 9365SOL    HW228995   1.911   1.378   3.742
 9366SOL     OW28996   3.181   1.727   2.047
 9366SOL    HW128997   3.213   1.818   2.022
 9366SOL    HW228998   3.138   1.683   1.967
 9367SOL     OW28999   5.948   6.722   3.690
 9367SOL    HW129000   5.896   6.805   3.708
 9367SOL    HW229001   5.932   6.692   3.596
 9368SOL     OW29002   5.279   2.972   0.767
 9368SOL    HW129003   5.378   2.974   0.773
 9368SOL    HW229004   5.243   3.064   0.782
 9369SOL     OW29005   0.212   1.622   4.909
 9369SOL    HW129006   0.185   1.558   4.981
 9369SOL    HW229007   0.260   1.572   4.837
 9370SOL     OW29008   5.640   5.602   2.979
 9370SOL    HW129009   5.586   5.518   2.978
 9370SOL    HW229010   5.619   5.655   3.062
 9371SOL     OW29011   1.248   6.983   0.389
 9371SOL    HW129012   1.251   6.993   0.489
 9371SOL    HW229013   1.265   0.051   0.347
 9372SOL     OW29014   5.471   5.993   7.016
 9372SOL    HW129015   5.559   6.021   6.979
 9372SOL    HW229016   5.400   6.006   6.947
 9373SOL     OW29017   5.432   2.479   4.213
 9373SOL    HW129018   5.379   2.478   4.128
 9373SOL    HW229019   5.414   2.564   4.262
 9374SOL     OW29020   5.204   4.076   6.910
 9374SOL    HW129021   5.191   4.151   6.844
 9374SOL    HW229022   5.302   4.061   6.923
 9375SOL     OW29023   6.322   0.798   4.606
 9375SOL    HW129024   6.309   0.884   4.656
 9375SOL    HW229025   6.274   0.724   4.654
 9376SOL     OW29026   2.242   3.244   1.541
 9376SOL    HW129027   2.286   3.182   1.476
 9376SOL    HW229028   2.311   3.301   1.584
 9377SOL     OW29029   6.293   5.076   3.331
 9377SOL    HW129030   6.233   5.073   3.411
 9377SOL    HW229031   6.238   5.063   3.248
 9378SOL     OW29032   3.597   6.336   1.134
 9378SOL    HW129033   3.664   6.378   1.196
 9378SOL    HW229034   3.636   6.252   1.096
 9379SOL     OW29035   5.524   5.266   5.107
 9379SOL    HW129036   5.619   5.295   5.120
 9379SOL    HW229037   5.502   5.269   5.009
 9380SOL     OW29038   6.084   5.650   5.795
 9380SOL    HW129039   6.083   5.737   5.746
 9380SOL    HW229040   6.009   5.593   5.762
 9381SOL     OW29041   1.463   0.690   0.035
 9381SOL    HW129042   1.491   0.741   0.117
 9381SOL    HW229043   1.544   0.668   7.001
 9382SOL     OW29044   5.598   1.709   3.040
 9382SOL    HW129045   5.560   1.741   2.953
 9382SOL    HW229046   5.626   1.614   3.031
 9383SOL     OW29047   6.696   5.318   5.996
 9383SOL    HW129048   6.599   5.339   5.984
 9383SOL    HW229049   6.750   5.375   5.933
 9384SOL     OW29050   3.994   6.538   3.273
 9384SOL    HW129051   4.062   6.608   3.295
 9384SOL    HW229052   3.969   6.488   3.355
 9385SOL     OW29053   3.662   0.805   4.194
 9385SOL    HW129054   3.758   0.806   4.169
 9385SOL    HW229055   3.638   0.891   4.239
 9386SOL     OW29056   4.071   0.166   5.241
 9386SOL    HW129057   4.164   0.130   5.242
 9386SOL    HW229058   4.010   0.098   5.202
 9387SOL     OW29059   4.406   5.759   0.668
 9387SOL    HW129060   4.464   5.786   0.592
 9387SOL    HW229061   4.460   5.703   0.732
 9388SOL     OW29062   6.740   7.011   2.055
 9388SOL    HW129063   6.654   0.010   2.008
 9388SOL    HW229064   6.760   6.913   2.048
 9389SOL     OW29065   3.047   1.637   6.777
 9389SOL    HW129066   3.103   1.612   6.698
 9389SOL    HW229067   3.046   1.561   6.842
 9390SOL     OW29068   3.236   5.624   1.297
 9390SOL    HW129069   3.169   5.559   1.333
 9390SOL    HW229070   3.319   5.620   1.352
 9391SOL     OW29071   6.532   1.332   4.807
 9391SOL    HW129072   6.535   1.389   4.888
 9391SOL    HW229073   6.522   1.390   4.726
 9392SOL     OW29074   0.865   6.901   4.471
 9392SOL    HW129075   0.917   6.902   4.557
 9392SOL    HW229076   0.929   6.901   4.394
 9393SOL     OW29077   4.066   1.897   4.710
 9393SOL    HW129078   3.983   1.848   4.683
 9393SOL    HW229079   4.066   1.988   4.669
 9394SOL     OW29080   6.302   2.048   2.049
 9394SOL    HW129081   6.333   1.970   1.994
 9394SOL    HW229082   6.223   2.021   2.104
 9395SOL     OW29083   1.989   2.967   6.191
 9395SOL    HW129084   2.002   3.063   6.219
 9395SOL    HW229085   2.046   2.948   6.111
 9396SOL     OW29086   0.078   1.192   6.040
 9396SOL    HW129087   0.033   1.262   6.096
 9396SOL    HW229088   0.087   1.226   5.946
 9397SOL     OW29089   2.013   2.419   0.626
 9397SOL    HW129090   2.026   2.519   0.622
 9397SOL    HW229091   1.983   2.393   0.718
 9398SOL     OW29092   2.762   1.539   1.064
 9398SOL    HW129093   2.761   1.444   1.093
 9398SOL    HW229094   2.687   1.589   1.109
 9399SOL     OW29095   0.466   0.357   6.053
 9399SOL    HW129096   0.562   0.352   6.028
 9399SOL    HW229097   0.443   0.280   6.113
 9400SOL     OW29098   4.298   1.882   3.197
 9400SOL    HW129099   4.230   1.811   3.216
 9400SOL    HW229100   4.338   1.913   3.283
 9401SOL     OW29101   4.771   6.805   4.079
 9401SOL    HW129102   4.787   6.804   4.178
 9401SOL    HW229103   4.816   6.884   4.039
 9402SOL     OW29104   2.619   5.337   6.914
 9402SOL    HW129105   2.553   5.262   6.902
 9402SOL    HW229106   2.608   5.402   6.839
 9403SOL     OW29107   5.848   0.214   4.312
 9403SOL    HW129108   5.795   0.159   4.247
 9403SOL    HW229109   5.870   0.302   4.271
 9404SOL     OW29110   1.316   3.951   5.898
 9404SOL    HW129111   1.282   3.903   5.816
 9404SOL    HW229112   1.267   4.038   5.908
 9405SOL     OW29113   0.885   0.445   1.207
 9405SOL    HW129114   0.787   0.462   1.211
 9405SOL    HW229115   0.934   0.532   1.209
 9406SOL     OW29116   6.655   1.102   5.256
 9406SOL    HW129117   6.599   1.028   5.293
 9406SOL    HW229118   6.663   1.092   5.157
 9407SOL     OW29119   3.841   5.528   3.182
 9407SOL    HW129120   3.792   5.514   3.268
 9407SOL    HW229121   3.927   5.477   3.183
 9408SOL     OW29122   4.024   2.066   6.873
 9408SOL    HW129123   3.997   2.155   6.911
 9408SOL    HW229124   4.014   1.995   6.943
 9409SOL     OW29125   6.277   3.474   3.273
 9409SOL    HW129126   6.339   3.410   3.229
 9409SOL    HW229127   6.183   3.455   3.242
 9410SOL     OW29128   4.374   6.636   1.501
 9410SOL    HW129129   4.326   6.713   1.543
 9410SOL    HW229130   4.459   6.668   1.461
 9411SOL     OW29131   4.867   5.683   1.708
 9411SOL    HW129132   4.827   5.696   1.798
 9411SOL    HW229133   4.841   5.594   1.671
 9412SOL     OW29134   6.297   2.981   3.404
 9412SOL    HW129135   6.254   2.985   3.494
 9412SOL    HW229136   6.242   2.925   3.343
 9413SOL     OW29137   3.661   5.096   3.678
 9413SOL    HW129138   3.579   5.116   3.626
 9413SOL    HW229139   3.636   5.055   3.766
 9414SOL     OW29140   2.163   0.371   2.279
 9414SOL    HW129141   2.143   0.281   2.317
 9414SOL    HW229142   2.088   0.400   2.221
 9415SOL     OW29143   2.242   1.209   2.334
 9415SOL    HW129144   2.153   1.170   2.307
 9415SOL    HW229145   2.313   1.173   2.275
 9416SOL     OW29146   1.320   2.679   1.529
 9416SOL    HW129147   1.358   2.587   1.532
 9416SOL    HW229148   1.381   2.740   1.478
 9417SOL     OW29149   1.633   0.023   5.016
 9417SOL    HW129150   1.607   6.959   5.063
 9417SOL    HW229151   1.659   0.002   4.922
 9418SOL     OW29152   5.024   4.018   1.057
 9418SOL    HW129153   4.978   3.942   1.012
 9418SOL    HW229154   4.985   4.032   1.148
 9419SOL     OW29155   2.802   5.301   4.315
 9419SOL    HW129156   2.709   5.299   4.279
 9419SOL    HW229157   2.868   5.297   4.239
 9420SOL     OW29158   1.755   0.974   3.973
 9420SOL    HW129159   1.664   1.010   3.995
 9420SOL    HW229160   1.750   0.875   3.959
 9421SOL     OW29161   2.012   5.114   4.398
 9421SOL    HW129162   1.938   5.136   4.462
 9421SOL    HW229163   2.015   5.183   4.326
 9422SOL     OW29164   4.119   1.153   2.547
 9422SOL    HW129165   4.075   1.080   2.496
 9422SOL    HW229166   4.053   1.192   2.612
 9423SOL     OW29167   4.785   0.245   4.786
 9423SOL    HW129168   4.873   0.234   4.832
 9423SOL    HW229169   4.800   0.277   4.693
 9424SOL     OW29170   3.452   6.015   3.991
 9424SOL    HW129171   3.478   6.105   4.026
 9424SOL    HW229172   3.483   5.945   4.055
 9425SOL     OW29173   1.151   5.214   3.383
 9425SOL    HW129174   1.237   5.251   3.348
 9425SOL    HW229175   1.128   5.258   3.470
 9426SOL     OW29176   3.451   5.604   0.907
 9426SOL    HW129177   3.383   5.545   0.950
 9426SOL    HW229178   3.439   5.602   0.808
 9427SOL     OW29179   2.832   5.104   3.968
 9427SOL    HW129180   2.873   5.028   4.018
 9427SOL    HW229181   2.883   5.188   3.987
 9428SOL     OW29182   4.757   6.381   2.713
 9428SOL    HW129183   4.816   6.377   2.794
 9428SOL    HW229184   4.739   6.476   2.689
 9429SOL     OW29185   0.516   3.486   2.906
 9429SOL    HW129186   0.480   3.395   2.886
 9429SOL    HW229187   0.557   3.486   2.997
 9430SOL     OW29188   5.872   0.119   1.950
 9430SOL    HW129189   5.906   0.212   1.962
 9430SOL    HW229190   5.930   0.071   1.884
 9431SOL     OW29191   6.483   4.239   0.071
 9431SOL    HW129192   6.576   4.240   0.107
 9431SOL    HW229193   6.422   4.284   0.137
 9432SOL     OW29194   6.779   6.985   3.863
 9432SOL    HW129195   6.732   0.052   3.875
 9432SOL    HW229196   6.724   6.926   3.804
 9433SOL     OW29197   2.558   5.596   4.198
 9433SOL    HW129198   2.626   5.611   4.270
 9433SOL    HW229199   2.561   5.673   4.133
 9434SOL     OW29200   5.631   4.236   3.052
 9434SOL    HW129201   5.621   4.325   3.008
 9434SOL    HW229202   5.611   4.164   2.986
 9435SOL     OW29203   1.887   2.262   5.032
 9435SOL    HW129204   1.979   2.277   5.068
 9435SOL    HW229205   1.856   2.170   5.059
 9436SOL     OW29206   3.082   1.851   5.416
 9436SOL    HW129207   3.118   1.898   5.496
 9436SOL    HW229208   3.023   1.912   5.364
 9437SOL     OW29209   0.389   5.571   4.034
 9437SOL    HW129210   0.428   5.510   3.964
 9437SOL    HW229211   0.455   5.583   4.108
 9438SOL     OW29212   0.634   6.461   2.358
 9438SOL    HW129213   0.688   6.517   2.296
 9438SOL    HW229214   0.684   6.448   2.444
 9439SOL     OW29215   1.168   3.867   1.296
 9439SOL    HW129216   1.147   3.792   1.359
 9439SOL    HW229217   1.122   3.851   1.209
 9440SOL     OW29218   3.803   5.659   4.959
 9440SOL    HW129219   3.813   5.638   4.862
 9440SOL    HW229220   3.746   5.589   5.003
 9441SOL     OW29221   1.638   5.842   5.165
 9441SOL    HW129222   1.557   5.870   5.217
 9441SOL    HW229223   1.705   5.916   5.164
 9442SOL     OW29224   0.732   3.879   1.308
 9442SOL    HW129225   0.733   3.810   1.235
 9442SOL    HW229226   0.696   3.965   1.273
 9443SOL     OW29227   1.252   3.237   1.411
 9443SOL    HW129228   1.267   3.271   1.504
 9443SOL    HW229229   1.338   3.244   1.359
 9444SOL     OW29230   1.404   4.299   5.566
 9444SOL    HW129231   1.483   4.253   5.607
 9444SOL    HW229232   1.352   4.345   5.638
 9445SOL     OW29233   6.273   3.077   1.507
 9445SOL    HW129234   6.238   2.991   1.472
 9445SOL    HW229235   6.209   3.115   1.574
 9446SOL     OW29236   5.615   4.346   0.288
 9446SOL    HW129237   5.628   4.380   0.382
 9446SOL    HW229238   5.598   4.248   0.290
 9447SOL     OW29239   5.789   1.654   1.961
 9447SOL    HW129240   5.690   1.664   1.945
 9447SOL    HW229241   5.821   1.727   2.022
 9448SOL     OW29242   5.974   6.086   0.311
 9448SOL    HW129243   5.885   6.046   0.292
 9448SOL    HW229244   6.002   6.063   0.404
 9449SOL     OW29245   6.191   5.337   5.299
 9449SOL    HW129246   6.248   5.386   5.366
 9449SOL    HW229247   6.181   5.242   5.327
 9450SOL     OW29248   2.701   6.075   3.899
 9450SOL    HW129249   2.697   5.986   3.855
 9450SOL    HW229250   2.671   6.067   3.994
 9451SOL     OW29251   4.437   3.549   5.790
 9451SOL    HW129252   4.488   3.615   5.735
 9451SOL    HW229253   4.340   3.552   5.763
 9452SOL     OW29254   3.028   4.136   1.153
 9452SOL    HW129255   3.083   4.076   1.211
 9452SOL    HW229256   2.932   4.128   1.180
 9453SOL     OW29257   2.938   5.247   1.348
 9453SOL    HW129258   2.853   5.242   1.294
 9453SOL    HW229259   2.993   5.166   1.330
 9454SOL     OW29260   2.237   1.892   5.311
 9454SOL    HW129261   2.175   1.872   5.236
 9454SOL    HW229262   2.276   1.807   5.346
 9455SOL     OW29263   2.056   1.854   2.582
 9455SOL    HW129264   2.146   1.897   2.570
 9455SOL    HW229265   1.985   1.916   2.549
 9456SOL     OW29266   0.853   3.298   0.850
 9456SOL    HW129267   0.846   3.379   0.791
 9456SOL    HW229268   0.871   3.217   0.794
 9457SOL     OW29269   6.462   3.419   0.024
 9457SOL    HW129270   6.425   3.342   6.993
 9457SOL    HW229271   6.503   3.485   6.982
 9458SOL     OW29272   0.930   6.290   4.607
 9458SOL    HW129273   0.933   6.330   4.516
 9458SOL    HW229274   0.897   6.196   4.602
 9459SOL     OW29275   4.210   5.847   1.751
 9459SOL    HW129276   4.153   5.841   1.669
 9459SOL    HW229277   4.305   5.859   1.725
 9460SOL     OW29278   1.358   3.089   5.500
 9460SOL    HW129279   1.273   3.127   5.465
 9460SOL    HW229280   1.382   3.133   5.586
 9461SOL     OW29281   1.686   0.354   2.613
 9461SOL    HW129282   1.632   0.438   2.618
 9461SOL    HW229283   1.781   0.374   2.635
 9462SOL     OW29284   0.419   2.766   2.950
 9462SOL    HW129285   0.331   2.792   2.991
 9462SOL    HW229286   0.493   2.812   2.999
 9463SOL     OW29287   6.018   1.800   6.689
 9463SOL    HW129288   5.934   1.853   6.677
 9463SOL    HW229289   6.003   1.729   6.758
 9464SOL     OW29290   4.362   6.714   5.625
 9464SOL    HW129291   4.279   6.702   5.569
 9464SOL    HW229292   4.387   6.627   5.666
 9465SOL     OW29293   5.328   6.271   4.253
 9465SOL    HW129294   5.380   6.249   4.336
 9465SOL    HW229295   5.236   6.302   4.278
 9466SOL     OW29296   3.051   1.820   0.265
 9466SOL    HW129297   2.953   1.832   0.250
 9466SOL    HW229298   3.089   1.904   0.304
 9467SOL     OW29299   2.038   3.383   2.201
 9467SOL    HW129300   2.096   3.437   2.140
 9467SOL    HW229301   1.962   3.439   2.232
 9468SOL     OW29302   0.662   2.714   6.373
 9468SOL    HW129303   0.613   2.722   6.460
 9468SOL    HW229304   0.596   2.710   6.298
 9469SOL     OW29305   0.142   4.445   2.644
 9469SOL    HW129306   0.102   4.461   2.735
 9469SOL    HW229307   0.069   4.442   2.576
 9470SOL     OW29308   6.404   3.331   1.446
 9470SOL    HW129309   6.412   3.346   1.347
 9470SOL    HW229310   6.372   3.238   1.463
 9471SOL     OW29311   0.449   2.742   6.162
 9471SOL    HW129312   0.458   2.836   6.129
 9471SOL    HW229313   0.352   2.719   6.170
 9472SOL     OW29314   6.629   2.147   4.694
 9472SOL    HW129315   6.704   2.210   4.676
 9472SOL    HW229316   6.549   2.174   4.641
 9473SOL     OW29317   3.096   5.655   5.238
 9473SOL    HW129318   3.138   5.704   5.162
 9473SOL    HW229319   3.166   5.604   5.288
 9474SOL     OW29320   3.236   5.202   3.487
 9474SOL    HW129321   3.152   5.204   3.541
 9474SOL    HW229322   3.259   5.107   3.466
 9475SOL     OW29323   1.767   3.243   1.455
 9475SOL    HW129324   1.770   3.337   1.490
 9475SOL    HW229325   1.856   3.200   1.468
 9476SOL     OW29326   2.998   3.798   5.555
 9476SOL    HW129327   3.067   3.830   5.490
 9476SOL    HW229328   2.928   3.868   5.566
 9477SOL     OW29329   0.436   2.295   1.129
 9477SOL    HW129330   0.378   2.364   1.085
 9477SOL    HW229331   0.500   2.340   1.191
 9478SOL     OW29332   5.423   3.948   5.522
 9478SOL    HW129333   5.347   3.924   5.462
 9478SOL    HW229334   5.435   3.876   5.591
 9479SOL     OW29335   5.791   5.718   5.022
 9479SOL    HW129336   5.851   5.708   4.942
 9479SOL    HW229337   5.708   5.767   4.995
 9480SOL     OW29338   5.726   3.898   6.121
 9480SOL    HW129339   5.657   3.878   6.191
 9480SOL    HW229340   5.691   3.871   6.031
 9481SOL     OW29341   6.705   3.553   2.698
 9481SOL    HW129342   6.702   3.576   2.601
 9481SOL    HW229343   6.646   3.616   2.749
 9482SOL     OW29344   4.261   0.168   2.612
 9482SOL    HW129345   4.168   0.178   2.578
 9482SOL    HW229346   4.300   0.258   2.630
 9483SOL     OW29347   1.700   1.626   0.546
 9483SOL    HW129348   1.657   1.604   0.634
 9483SOL    HW229349   1.781   1.683   0.562
 9484SOL     OW29350   5.811   0.794   3.044
 9484SOL    HW129351   5.754   0.789   3.126
 9484SOL    HW229352   5.888   0.731   3.053
 9485SOL     OW29353   1.042   0.061   2.649
 9485SOL    HW129354   1.140   0.080   2.642
 9485SOL    HW229355   0.992   0.147   2.651
 9486SOL     OW29356   2.821   6.249   2.385
 9486SOL    HW129357   2.837   6.169   2.326
 9486SOL    HW229358   2.782   6.219   2.472
 9487SOL     OW29359   2.914   3.769   3.896
 9487SOL    HW129360   2.847   3.842   3.887
 9487SOL    HW229361   2.994   3.790   3.841
 9488SOL     OW29362   1.078   1.382   1.370
 9488SOL    HW129363   1.121   1.463   1.330
 9488SOL    HW229364   0.980   1.383   1.349
 9489SOL     OW29365   2.865   4.211   0.786
 9489SOL    HW129366   2.815   4.275   0.728
 9489SOL    HW229367   2.964   4.222   0.771
 9490SOL     OW29368   4.933   1.362   6.968
 9490SOL    HW129369   4.921   1.461   6.975
 9490SOL    HW229370   4.885   1.317   0.022
 9491SOL     OW29371   6.802   5.273   5.652
 9491SOL    HW129372   6.898   5.247   5.642
 9491SOL    HW229373   6.794   5.347   5.718
 9492SOL     OW29374   2.554   4.345   1.462
 9492SOL    HW129375   2.639   4.390   1.488
 9492SOL    HW229376   2.554   4.251   1.497
 9493SOL     OW29377   5.411   6.392   2.544
 9493SOL    HW129378   5.428   6.426   2.451
 9493SOL    HW229379   5.399   6.469   2.606
 9494SOL     OW29380   3.126   3.126   6.063
 9494SOL    HW129381   3.175   3.139   5.978
 9494SOL    HW229382   3.090   3.214   6.095
 9495SOL     OW29383   5.561   2.309   4.614
 9495SOL    HW129384   5.608   2.231   4.656
 9495SOL    HW229385   5.486   2.276   4.557
 9496SOL     OW29386   6.246   3.817   0.274
 9496SOL    HW129387   6.197   3.892   0.319
 9496SOL    HW229388   6.186   3.737   0.268
 9497SOL     OW29389   0.735   5.877   6.080
 9497SOL    HW129390   0.644   5.844   6.106
 9497SOL    HW229391   0.725   5.956   6.019
 9498SOL     OW29392   3.811   0.333   6.927
 9498SOL    HW129393   3.832   0.425   6.895
 9498SOL    HW229394   3.803   0.333   0.006
 9499SOL     OW29395   4.275   4.217   6.160
 9499SOL    HW129396   4.343   4.148   6.136
 9499SOL    HW229397   4.212   4.229   6.083
 9500SOL     OW29398   5.324   5.931   1.770
 9500SOL    HW129399   5.225   5.943   1.781
 9500SOL    HW229400   5.361   5.884   1.850
 9501SOL     OW29401   3.189   1.968   4.737
 9501SOL    HW129402   3.158   1.932   4.824
 9501SOL    HW229403   3.155   2.061   4.725
 9502SOL     OW29404   3.887   3.129   6.046
 9502SOL    HW129405   3.871   3.217   6.000
 9502SOL    HW229406   3.964   3.082   6.004
 9503SOL     OW29407   1.352   6.824   1.618
 9503SOL    HW129408   1.347   6.743   1.676
 9503SOL    HW229409   1.434   6.876   1.640
 9504SOL     OW29410   0.882   2.965   0.221
 9504SOL    HW129411   0.895   2.873   0.183
 9504SOL    HW229412   0.838   3.023   0.153
 9505SOL     OW29413   4.861   3.136   3.280
 9505SOL    HW129414   4.940   3.074   3.281
 9505SOL    HW229415   4.891   3.227   3.311
 9506SOL     OW29416   0.316   2.046   1.129
 9506SOL    HW129417   0.363   2.006   1.050
 9506SOL    HW229418   0.343   2.142   1.139
 9507SOL     OW29419   1.260   2.133   4.845
 9507SOL    HW129420   1.309   2.176   4.768
 9507SOL    HW229421   1.319   2.066   4.888
 9508SOL     OW29422   4.664   1.557   6.243
 9508SOL    HW129423   4.738   1.611   6.283
 9508SOL    HW229424   4.632   1.490   6.309
 9509SOL     OW29425   3.310   6.807   6.141
 9509SOL    HW129426   3.281   6.818   6.236
 9509SOL    HW229427   3.239   6.843   6.080
 9510SOL     OW29428   6.538   4.536   2.751
 9510SOL    HW129429   6.526   4.438   2.739
 9510SOL    HW229430   6.462   4.584   2.707
 9511SOL     OW29431   2.271   1.137   1.232
 9511SOL    HW129432   2.173   1.152   1.229
 9511SOL    HW229433   2.292   1.045   1.199
 9512SOL     OW29434   1.361   3.254   4.889
 9512SOL    HW129435   1.456   3.280   4.870
 9512SOL    HW229436   1.324   3.204   4.811
 9513SOL     OW29437   2.312   4.223   4.240
 9513SOL    HW129438   2.244   4.290   4.270
 9513SOL    HW229439   2.388   4.221   4.305
 9514SOL     OW29440   2.837   3.015   5.974
 9514SOL    HW129441   2.934   3.034   5.960
 9514SOL    HW229442   2.807   3.055   6.060
 9515SOL     OW29443   2.369   5.007   5.652
 9515SOL    HW129444   2.446   4.992   5.714
 9515SOL    HW229445   2.287   5.027   5.706
 9516SOL     OW29446   5.379   4.239   5.603
 9516SOL    HW129447   5.390   4.140   5.613
 9516SOL    HW229448   5.352   4.260   5.509
 9517SOL     OW29449   0.867   5.113   2.234
 9517SOL    HW129450   0.896   5.067   2.150
 9517SOL    HW229451   0.947   5.148   2.282
 9518SOL     OW29452   0.688   3.007   5.387
 9518SOL    HW129453   0.641   2.958   5.314
 9518SOL    HW229454   0.710   2.944   5.462
 9519SOL     OW29455   3.785   2.927   3.159
 9519SOL    HW129456   3.704   2.922   3.218
 9519SOL    HW229457   3.857   2.978   3.206
 9520SOL     OW29458   5.139   0.696   6.406
 9520SOL    HW129459   5.073   0.688   6.481
 9520SOL    HW229460   5.229   0.665   6.438
 9521SOL     OW29461   3.645   1.330   1.299
 9521SOL    HW129462   3.648   1.360   1.203
 9521SOL    HW229463   3.713   1.381   1.352
 9522SOL     OW29464   3.685   6.473   1.521
 9522SOL    HW129465   3.706   6.377   1.540
 9522SOL    HW229466   3.709   6.495   1.427
 9523SOL     OW29467   3.050   4.946   4.400
 9523SOL    HW129468   3.070   5.034   4.444
 9523SOL    HW229469   2.951   4.935   4.390
 9524SOL     OW29470   2.063   4.280   0.170
 9524SOL    HW129471   2.127   4.226   0.224
 9524SOL    HW229472   2.111   4.321   0.093
 9525SOL     OW29473   2.274   3.232   6.398
 9525SOL    HW129474   2.294   3.269   6.489
 9525SOL    HW229475   2.178   3.247   6.376
 9526SOL     OW29476   5.308   5.648   6.858
 9526SOL    HW129477   5.380   5.661   6.926
 9526SOL    HW229478   5.283   5.552   6.854
 9527SOL     OW29479   4.016   6.806   4.900
 9527SOL    HW129480   4.068   6.826   4.982
 9527SOL    HW229481   4.043   6.717   4.864
 9528SOL     OW29482   4.931   2.606   0.425
 9528SOL    HW129483   5.005   2.622   0.360
 9528SOL    HW229484   4.846   2.592   0.375
 9529SOL     OW29485   5.436   0.925   1.861
 9529SOL    HW129486   5.477   0.962   1.778
 9529SOL    HW229487   5.412   1.000   1.922
 9530SOL     OW29488   1.077   5.392   3.825
 9530SOL    HW129489   1.151   5.359   3.768
 9530SOL    HW229490   0.992   5.396   3.772
 9531SOL     OW29491   3.263   5.516   2.255
 9531SOL    HW129492   3.233   5.531   2.160
 9531SOL    HW229493   3.340   5.577   2.275
 9532SOL     OW29494   6.446   4.938   3.741
 9532SOL    HW129495   6.417   4.842   3.740
 9532SOL    HW229496   6.365   4.997   3.740
 9533SOL     OW29497   1.568   4.022   2.908
 9533SOL    HW129498   1.629   4.096   2.938
 9533SOL    HW229499   1.515   3.989   2.986
 9534SOL     OW29500   4.890   5.489   4.202
 9534SOL    HW129501   4.978   5.537   4.207
 9534SOL    HW229502   4.873   5.444   4.290
 9535SOL     OW29503   0.247   1.358   4.404
 9535SOL    HW129504   0.196   1.427   4.352
 9535SOL    HW229505   0.198   1.271   4.400
 9536SOL     OW29506   3.045   3.945   5.016
 9536SOL    HW129507   2.961   3.963   5.067
 9536SOL    HW229508   3.031   3.869   4.954
 9537SOL     OW29509   6.550   1.019   4.038
 9537SOL    HW129510   6.559   1.052   3.944
 9537SOL    HW229511   6.571   0.921   4.041
 9538SOL     OW29512   5.566   0.230   4.757
 9538SOL    HW129513   5.591   0.241   4.661
 9538SOL    HW229514   5.468   0.242   4.768
 9539SOL     OW29515   3.398   4.098   3.085
 9539SOL    HW129516   3.456   4.093   3.166
 9539SOL    HW229517   3.456   4.093   3.003
 9540SOL     OW29518   4.363   4.655   3.567
 9540SOL    HW129519   4.441   4.634   3.625
 9540SOL    HW229520   4.288   4.690   3.623
 9541SOL     OW29521   2.028   5.591   5.549
 9541SOL    HW129522   1.972   5.529   5.604
 9541SOL    HW229523   1.995   5.591   5.454
 9542SOL     OW29524   6.556   4.262   2.765
 9542SOL    HW129525   6.654   4.271   2.748
 9542SOL    HW229526   6.540   4.249   2.863
 9543SOL     OW29527   2.206   0.628   5.919
 9543SOL    HW129528   2.299   0.663   5.922
 9543SOL    HW229529   2.153   0.678   5.851
 9544SOL     OW29530   6.026   3.701   4.629
 9544SOL    HW129531   6.041   3.619   4.575
 9544SOL    HW229532   6.018   3.780   4.568
 9545SOL     OW29533   6.569   4.320   2.014
 9545SOL    HW129534   6.619   4.392   1.967
 9545SOL    HW229535   6.500   4.281   1.952
 9546SOL     OW29536   2.747   2.857   1.403
 9546SOL    HW129537   2.791   2.773   1.435
 9546SOL    HW229538   2.810   2.907   1.343
 9547SOL     OW29539   4.673   0.403   3.477
 9547SOL    HW129540   4.608   0.434   3.407
 9547SOL    HW229541   4.638   0.427   3.567
 9548SOL     OW29542   0.856   4.932   6.488
 9548SOL    HW129543   0.804   5.006   6.532
 9548SOL    HW229544   0.810   4.905   6.403
 9549SOL     OW29545   3.928   1.904   1.396
 9549SOL    HW129546   4.013   1.950   1.369
 9549SOL    HW229547   3.915   1.822   1.341
 9550SOL     OW29548   6.250   3.167   1.929
 9550SOL    HW129549   6.295   3.107   1.864
 9550SOL    HW229550   6.317   3.229   1.970
 9551SOL     OW29551   5.861   2.885   6.451
 9551SOL    HW129552   5.817   2.882   6.541
 9551SOL    HW229553   5.815   2.820   6.391
 9552SOL     OW29554   2.719   2.088   0.693
 9552SOL    HW129555   2.687   1.994   0.705
 9552SOL    HW229556   2.719   2.135   0.781
 9553SOL     OW29557   5.541   1.445   6.783
 9553SOL    HW129558   5.442   1.442   6.794
 9553SOL    HW229559   5.575   1.353   6.764
 9554SOL     OW29560   2.965   0.624   3.574
 9554SOL    HW129561   3.060   0.595   3.588
 9554SOL    HW229562   2.952   0.715   3.614
 9555SOL     OW29563   0.072   6.745   3.216
 9555SOL    HW129564   0.091   6.728   3.312
 9555SOL    HW229565   0.075   6.843   3.198
 9556SOL     OW29566   2.267   4.932   6.782
 9556SOL    HW129567   2.194   4.876   6.743
 9556SOL    HW229568   2.307   4.886   6.861
 9557SOL     OW29569   5.668   0.752   1.061
 9557SOL    HW129570   5.596   0.784   1.122
 9557SOL    HW229571   5.719   0.678   1.105
 9558SOL     OW29572   4.874   6.361   6.373
 9558SOL    HW129573   4.791   6.327   6.416
 9558SOL    HW229574   4.954   6.324   6.420
 9559SOL     OW29575   1.922   4.579   6.866
 9559SOL    HW129576   1.913   4.479   6.860
 9559SOL    HW229577   1.831   4.619   6.876
 9560SOL     OW29578   2.686   0.198   2.465
 9560SOL    HW129579   2.706   0.292   2.437
 9560SOL    HW229580   2.601   0.168   2.422
 9561SOL     OW29581   0.910   0.436   0.639
 9561SOL    HW129582   0.980   0.414   0.571
 9561SOL    HW229583   0.954   0.474   0.721
 9562SOL     OW29584   2.449   6.265   2.699
 9562SOL    HW129585   2.532   6.212   2.682
 9562SOL    HW229586   2.371   6.202   2.709
 9563SOL     OW29587   1.006   5.931   6.258
 9563SOL    HW129588   1.048   6.020   6.279
 9563SOL    HW229589   0.932   5.945   6.192
 9564SOL     OW29590   1.915   1.335   0.776
 9564SOL    HW129591   1.943   1.312   0.683
 9564SOL    HW229592   1.818   1.356   0.777
 9565SOL     OW29593   2.727   1.611   4.429
 9565SOL    HW129594   2.772   1.655   4.507
 9565SOL    HW229595   2.757   1.516   4.422
 9566SOL     OW29596   3.108   0.346   0.393
 9566SOL    HW129597   3.122   0.384   0.302
 9566SOL    HW229598   3.140   0.251   0.395
 9567SOL     OW29599   6.946   4.134   0.924
 9567SOL    HW129600   0.007   4.080   0.946
 9567SOL    HW229601   6.948   4.220   0.975
 9568SOL     OW29602   4.384   1.660   6.649
 9568SOL    HW129603   4.340   1.666   6.738
 9568SOL    HW229604   4.421   1.749   6.623
 9569SOL     OW29605   5.723   0.182   2.222
 9569SOL    HW129606   5.670   0.266   2.231
 9569SOL    HW229607   5.764   0.177   2.130
 9570SOL     OW29608   0.561   3.669   1.537
 9570SOL    HW129609   0.542   3.634   1.445
 9570SOL    HW229610   0.481   3.655   1.595
 9571SOL     OW29611   1.922   1.495   6.939
 9571SOL    HW129612   1.975   1.493   6.854
 9571SOL    HW229613   1.825   1.485   6.918
 9572SOL     OW29614   2.461   4.506   4.511
 9572SOL    HW129615   2.526   4.523   4.585
 9572SOL    HW229616   2.383   4.454   4.545
 9573SOL     OW29617   6.584   0.056   4.282
 9573SOL    HW129618   6.562   0.063   4.185
 9573SOL    HW229619   6.567   0.143   4.327
 9574SOL     OW29620   4.188   3.177   0.820
 9574SOL    HW129621   4.092   3.169   0.794
 9574SOL    HW229622   4.234   3.090   0.803
 9575SOL     OW29623   5.422   6.891   2.103
 9575SOL    HW129624   5.342   6.896   2.162
 9575SOL    HW229625   5.407   6.948   2.022
 9576SOL     OW29626   0.846   0.448   6.655
 9576SOL    HW129627   0.919   0.386   6.625
 9576SOL    HW229628   0.886   0.530   6.695
 9577SOL     OW29629   6.345   5.501   2.786
 9577SOL    HW129630   6.252   5.516   2.752
 9577SOL    HW229631   6.402   5.464   2.713
 9578SOL     OW29632   1.841   3.545   2.318
 9578SOL    HW129633   1.847   3.563   2.417
 9578SOL    HW229634   1.851   3.631   2.269
 9579SOL     OW29635   5.905   5.970   2.449
 9579SOL    HW129636   5.931   6.004   2.539
 9579SOL    HW229637   5.806   5.977   2.438
 9580SOL     OW29638   4.949   4.104   3.356
 9580SOL    HW129639   4.943   4.032   3.425
 9580SOL    HW229640   5.041   4.143   3.356
 9581SOL     OW29641   5.788   1.685   0.245
 9581SOL    HW129642   5.720   1.690   0.172
 9581SOL    HW229643   5.853   1.612   0.225
 9582SOL     OW29644   5.517   6.462   5.014
 9582SOL    HW129645   5.610   6.476   4.980
 9582SOL    HW229646   5.475   6.386   4.966
 9583SOL     OW29647   3.639   5.027   1.877
 9583SOL    HW129648   3.628   4.937   1.921
 9583SOL    HW229649   3.551   5.059   1.844
 9584SOL     OW29650   2.689   5.377   4.028
 9584SOL    HW129651   2.646   5.466   4.039
 9584SOL    HW229652   2.624   5.305   4.056
 9585SOL     OW29653   4.544   6.026   0.929
 9585SOL    HW129654   4.447   6.014   0.947
 9585SOL    HW229655   4.597   5.995   1.008
 9586SOL     OW29656   3.755   5.525   2.903
 9586SOL    HW129657   3.811   5.524   2.985
 9586SOL    HW229658   3.813   5.542   2.823
 9587SOL     OW29659   3.280   6.193   0.962
 9587SOL    HW129660   3.347   6.126   0.994
 9587SOL    HW229661   3.222   6.220   1.039
 9588SOL     OW29662   6.411   5.710   0.163
 9588SOL    HW129663   6.494   5.729   0.110
 9588SOL    HW229664   6.405   5.774   0.239
 9589SOL     OW29665   2.006   3.022   6.485
 9589SOL    HW129666   2.021   2.940   6.430
 9589SOL    HW229667   1.912   3.054   6.472
 9590SOL     OW29668   6.407   0.321   0.846
 9590SOL    HW129669   6.400   0.239   0.789
 9590SOL    HW229670   6.373   0.301   0.938
 9591SOL     OW29671   4.628   0.833   0.617
 9591SOL    HW129672   4.726   0.826   0.636
 9591SOL    HW229673   4.614   0.850   0.520
 9592SOL     OW29674   2.312   6.653   5.758
 9592SOL    HW129675   2.336   6.556   5.768
 9592SOL    HW229676   2.395   6.708   5.767
 9593SOL     OW29677   1.822   2.455   3.714
 9593SOL    HW129678   1.915   2.455   3.677
 9593SOL    HW229679   1.785   2.548   3.713
 9594SOL     OW29680   6.966   6.597   3.506
 9594SOL    HW129681   6.907   6.528   3.465
 9594SOL    HW229682   0.038   6.560   3.514
 9595SOL     OW29683   0.540   3.138   3.310
 9595SOL    HW129684   0.539   3.234   3.336
 9595SOL    HW229685   0.446   3.102   3.312
 9596SOL     OW29686   0.806   6.536   0.864
 9596SOL    HW129687   0.833   6.442   0.883
 9596SOL    HW229688   0.862   6.574   0.791
 9597SOL     OW29689   1.197   3.581   1.959
 9597SOL    HW129690   1.279   3.523   1.962
 9597SOL    HW229691   1.123   3.530   1.915
 9598SOL     OW29692   2.284   4.141   3.969
 9598SOL    HW129693   2.295   4.161   4.066
 9598SOL    HW229694   2.190   4.111   3.952
 9599SOL     OW29695   4.233   6.558   4.572
 9599SOL    HW129696   4.162   6.595   4.513
 9599SOL    HW229697   4.205   6.567   4.668
 9600SOL     OW29698   3.852   1.468   1.461
 9600SOL    HW129699   3.950   1.460   1.479
 9600SOL    HW229700   3.820   1.558   1.490
 9601SOL     OW29701   1.385   3.701   0.643
 9601SOL    HW129702   1.299   3.652   0.653
 9601SOL    HW229703   1.436   3.697   0.729
 9602SOL     OW29704   4.093   5.124   5.146
 9602SOL    HW129705   4.069   5.204   5.201
 9602SOL    HW229706   4.010   5.075   5.120
 9603SOL     OW29707   4.716   6.816   5.575
 9603SOL    HW129708   4.770   6.801   5.658
 9603SOL    HW229709   4.648   6.743   5.566
 9604SOL     OW29710   5.431   6.710   0.283
 9604SOL    HW129711   5.334   6.728   0.267
 9604SOL    HW229712   5.471   6.785   0.336
 9605SOL     OW29713   5.858   5.818   1.887
 9605SOL    HW129714   5.853   5.763   1.804
 9605SOL    HW229715   5.792   5.893   1.882
 9606SOL     OW29716   1.822   1.103   6.951
 9606SOL    HW129717   1.840   1.192   6.909
 9606SOL    HW229718   1.843   1.031   6.884
 9607SOL     OW29719   2.187   2.225   5.845
 9607SOL    HW129720   2.116   2.157   5.825
 9607SOL    HW229721   2.149   2.317   5.835
 9608SOL     OW29722   6.018   3.016   4.271
 9608SOL    HW129723   6.105   3.064   4.274
 9608SOL    HW229724   5.958   3.059   4.203
 9609SOL     OW29725   4.239   2.851   6.521
 9609SOL    HW129726   4.310   2.878   6.457
 9609SOL    HW229727   4.219   2.753   6.510
 9610SOL     OW29728   0.521   4.920   3.189
 9610SOL    HW129729   0.498   4.954   3.280
 9610SOL    HW229730   0.498   4.990   3.121
 9611SOL     OW29731   2.232   0.455   0.567
 9611SOL    HW129732   2.308   0.482   0.509
 9611SOL    HW229733   2.244   0.495   0.658
 9612SOL     OW29734   6.901   2.668   4.151
 9612SOL    HW129735   6.849   2.752   4.138
 9612SOL    HW229736   6.998   2.684   4.129
 9613SOL     OW29737   5.987   5.424   3.171
 9613SOL    HW129738   6.003   5.479   3.253
 9613SOL    HW229739   6.061   5.439   3.105
 9614SOL     OW29740   4.755   2.532   3.569
 9614SOL    HW129741   4.708   2.504   3.652
 9614SOL    HW229742   4.808   2.615   3.586
 9615SOL     OW29743   2.146   4.255   0.966
 9615SOL    HW129744   2.130   4.220   1.058
 9615SOL    HW229745   2.238   4.230   0.936
 9616SOL     OW29746   4.016   3.385   7.000
 9616SOL    HW129747   3.995   3.374   6.903
 9616SOL    HW229748   3.970   3.315   0.032
 9617SOL     OW29749   1.735   2.565   2.850
 9617SOL    HW129750   1.798   2.640   2.870
 9617SOL    HW229751   1.731   2.550   2.752
 9618SOL     OW29752   2.353   1.757   1.262
 9618SOL    HW129753   2.257   1.784   1.248
 9618SOL    HW229754   2.366   1.728   1.357
 9619SOL     OW29755   2.698   0.528   5.884
 9619SOL    HW129756   2.703   0.511   5.786
 9619SOL    HW229757   2.624   0.475   5.924
 9620SOL     OW29758   5.854   1.407   5.472
 9620SOL    HW129759   5.822   1.312   5.472
 9620SOL    HW229760   5.855   1.441   5.566
 9621SOL     OW29761   1.812   3.536   3.370
 9621SOL    HW129762   1.809   3.543   3.271
 9621SOL    HW229763   1.731   3.581   3.409
 9622SOL     OW29764   5.530   6.754   0.982
 9622SOL    HW129765   5.589   6.716   0.911
 9622SOL    HW229766   5.444   6.783   0.940
 9623SOL     OW29767   2.620   3.559   6.361
 9623SOL    HW129768   2.673   3.637   6.394
 9623SOL    HW229769   2.575   3.584   6.275
 9624SOL     OW29770   6.450   3.015   4.400
 9624SOL    HW129771   6.510   3.093   4.417
 9624SOL    HW229772   6.388   3.004   4.477
 9625SOL     OW29773   5.838   5.691   1.274
 9625SOL    HW129774   5.767   5.761   1.268
 9625SOL    HW229775   5.828   5.627   1.197
 9626SOL     OW29776   3.514   6.722   0.242
 9626SOL    HW129777   3.541   6.788   0.313
 9626SOL    HW229778   3.574   6.642   0.246
 9627SOL     OW29779   1.502   6.506   6.673
 9627SOL    HW129780   1.497   6.604   6.688
 9627SOL    HW229781   1.446   6.481   6.594
 9628SOL     OW29782   3.116   6.677   2.624
 9628SOL    HW129783   3.125   6.733   2.542
 9628SOL    HW229784   3.200   6.623   2.636
 9629SOL     OW29785   2.307   6.998   1.203
 9629SOL    HW129786   2.364   0.014   1.277
 9629SOL    HW229787   2.366   6.954   1.135
 9630SOL     OW29788   6.744   1.716   6.418
 9630SOL    HW129789   6.721   1.660   6.498
 9630SOL    HW229790   6.662   1.730   6.362
 9631SOL     OW29791   5.911   6.164   7.019
 9631SOL    HW129792   5.835   6.228   0.008
 9631SOL    HW229793   5.982   6.185   0.065
 9632SOL     OW29794   0.924   5.863   2.096
 9632SOL    HW129795   0.999   5.886   2.034
 9632SOL    HW229796   0.897   5.944   2.147
 9633SOL     OW29797   6.935   4.916   6.127
 9633SOL    HW129798   6.982   4.885   6.209
 9633SOL    HW229799   6.959   4.857   6.050
 9634SOL     OW29800   1.248   6.115   5.879
 9634SOL    HW129801   1.201   6.195   5.917
 9634SOL    HW229802   1.242   6.039   5.943
 9635SOL     OW29803   0.959   5.643   5.551
 9635SOL    HW129804   0.925   5.678   5.638
 9635SOL    HW229805   1.058   5.628   5.557
 9636SOL     OW29806   4.221   1.209   6.666
 9636SOL    HW129807   4.129   1.241   6.692
 9636SOL    HW229808   4.217   1.112   6.642
 9637SOL     OW29809   2.149   1.157   0.081
 9637SOL    HW129810   2.174   1.162   7.005
 9637SOL    HW229811   2.089   1.233   0.104
 9638SOL     OW29812   6.796   2.266   6.580
 9638SOL    HW129813   6.720   2.252   6.643
 9638SOL    HW229814   6.772   2.335   6.512
 9639SOL     OW29815   4.021   0.698   2.365
 9639SOL    HW129816   3.957   0.699   2.443
 9639SOL    HW229817   3.986   0.635   2.295
 9640SOL     OW29818   1.860   2.010   2.490
 9640SOL    HW129819   1.892   2.094   2.446
 9640SOL    HW229820   1.784   1.973   2.437
 9641SOL     OW29821   5.716   5.791   6.944
 9641SOL    HW129822   5.662   5.804   0.006
 9641SOL    HW229823   5.697   5.700   6.906
 9642SOL     OW29824   3.569   0.377   3.558
 9642SOL    HW129825   3.668   0.371   3.569
 9642SOL    HW229826   3.540   0.472   3.566
 9643SOL     OW29827   4.133   4.811   2.850
 9643SOL    HW129828   4.169   4.784   2.761
 9643SOL    HW229829   4.195   4.781   2.922
 9644SOL     OW29830   2.975   2.177   0.279
 9644SOL    HW129831   3.051   2.121   0.312
 9644SOL    HW229832   2.974   2.176   0.179
 9645SOL     OW29833   3.332   5.194   5.523
 9645SOL    HW129834   3.414   5.161   5.475
 9645SOL    HW229835   3.254   5.189   5.461
 9646SOL     OW29836   4.060   5.146   4.212
 9646SOL    HW129837   4.120   5.102   4.146
 9646SOL    HW229838   4.048   5.243   4.188
 9647SOL     OW29839   6.518   3.024   6.268
 9647SOL    HW129840   6.579   3.052   6.193
 9647SOL    HW229841   6.451   3.095   6.285
 9648SOL     OW29842   4.088   3.858   0.912
 9648SOL    HW129843   3.994   3.837   0.885
 9648SOL    HW229844   4.136   3.773   0.932
 9649SOL     OW29845   2.178   5.528   2.013
 9649SOL    HW129846   2.107   5.501   1.947
 9649SOL    HW229847   2.204   5.448   2.068
 9650SOL     OW29848   0.421   6.659   0.626
 9650SOL    HW129849   0.337   6.619   0.665
 9650SOL    HW229850   0.485   6.679   0.700
 9651SOL     OW29851   0.579   1.751   6.582
 9651SOL    HW129852   0.540   1.734   6.492
 9651SOL    HW229853   0.530   1.826   6.627
 9652SOL     OW29854   0.449   5.020   2.421
 9652SOL    HW129855   0.406   5.099   2.376
 9652SOL    HW229856   0.385   4.944   2.422
 9653SOL     OW29857   6.422   6.286   4.456
 9653SOL    HW129858   6.485   6.329   4.391
 9653SOL    HW229859   6.386   6.355   4.518
 9654SOL     OW29860   2.028   3.143   2.931
 9654SOL    HW129861   1.979   3.224   2.901
 9654SOL    HW229862   2.097   3.169   2.999
 9655SOL     OW29863   6.193   1.528   6.512
 9655SOL    HW129864   6.237   1.542   6.601
 9655SOL    HW229865   6.180   1.616   6.466
 9656SOL     OW29866   3.053   1.431   3.073
 9656SOL    HW129867   3.006   1.519   3.069
 9656SOL    HW229868   3.039   1.382   2.987
 9657SOL     OW29869   0.100   6.983   4.933
 9657SOL    HW129870   0.070   6.887   4.935
 9657SOL    HW229871   0.037   0.015   4.876
 9658SOL     OW29872   5.555   2.217   3.141
 9658SOL    HW129873   5.614   2.253   3.068
 9658SOL    HW229874   5.472   2.273   3.147
 9659SOL     OW29875   1.377   4.758   6.999
 9659SOL    HW129876   1.386   4.714   0.067
 9659SOL    HW229877   1.464   4.753   6.950
 9660SOL     OW29878   0.897   5.292   0.641
 9660SOL    HW129879   0.822   5.326   0.585
 9660SOL    HW229880   0.875   5.306   0.738
 9661SOL     OW29881   4.443   6.849   1.078
 9661SOL    HW129882   4.368   6.799   1.120
 9661SOL    HW229883   4.497   6.787   1.022
 9662SOL     OW29884   4.875   1.102   4.392
 9662SOL    HW129885   4.803   1.170   4.403
 9662SOL    HW229886   4.922   1.090   4.480
 9663SOL     OW29887   2.231   6.293   3.084
 9663SOL    HW129888   2.156   6.230   3.104
 9663SOL    HW229889   2.224   6.374   3.142
 9664SOL     OW29890   2.345   5.668   1.833
 9664SOL    HW129891   2.410   5.735   1.869
 9664SOL    HW229892   2.314   5.608   1.906
 9665SOL     OW29893   5.216   4.113   4.104
 9665SOL    HW129894   5.311   4.082   4.108
 9665SOL    HW229895   5.176   4.085   4.017
 9666SOL     OW29896   5.073   4.700   4.971
 9666SOL    HW129897   4.988   4.650   4.987
 9666SOL    HW229898   5.149   4.636   4.968
 9667SOL     OW29899   3.354   2.915   3.374
 9667SOL    HW129900   3.358   2.914   3.474
 9667SOL    HW229901   3.266   2.953   3.345
 9668SOL     OW29902   0.681   1.108   5.456
 9668SOL    HW129903   0.656   1.144   5.366
 9668SOL    HW229904   0.761   1.049   5.448
 9669SOL     OW29905   1.572   6.412   6.932
 9669SOL    HW129906   1.565   6.459   6.844
 9669SOL    HW229907   1.668   6.403   6.958
 9670SOL     OW29908   5.762   4.689   6.173
 9670SOL    HW129909   5.748   4.775   6.222
 9670SOL    HW229910   5.760   4.706   6.074
 9671SOL     OW29911   0.145   0.366   6.830
 9671SOL    HW129912   0.063   0.327   6.789
 9671SOL    HW229913   0.221   0.301   6.823
 9672SOL     OW29914   1.569   6.495   5.208
 9672SOL    HW129915   1.472   6.494   5.235
 9672SOL    HW229916   1.626   6.486   5.290
 9673SOL     OW29917   1.830   2.802   5.888
 9673SOL    HW129918   1.915   2.788   5.838
 9673SOL    HW229919   1.820   2.899   5.911
 9674SOL     OW29920   2.749   6.775   2.333
 9674SOL    HW129921   2.797   6.710   2.391
 9674SOL    HW229922   2.772   6.759   2.237
 9675SOL     OW29923   0.443   1.891   2.498
 9675SOL    HW129924   0.366   1.827   2.501
 9675SOL    HW229925   0.454   1.934   2.588
 9676SOL     OW29926   0.320   2.800   4.711
 9676SOL    HW129927   0.412   2.762   4.718
 9676SOL    HW229928   0.273   2.758   4.633
 9677SOL     OW29929   1.630   3.575   5.541
 9677SOL    HW129930   1.721   3.552   5.507
 9677SOL    HW229931   1.568   3.498   5.528
 9678SOL     OW29932   3.662   3.306   3.140
 9678SOL    HW129933   3.616   3.290   3.227
 9678SOL    HW229934   3.639   3.233   3.076
 9679SOL     OW29935   0.486   3.782   1.080
 9679SOL    HW129936   0.462   3.855   1.016
 9679SOL    HW229937   0.532   3.708   1.031
 9680SOL     OW29938   4.907   4.796   3.286
 9680SOL    HW129939   4.977   4.860   3.317
 9680SOL    HW229940   4.838   4.786   3.358
 9681SOL     OW29941   0.792   0.643   4.441
 9681SOL    HW129942   0.737   0.710   4.392
 9681SOL    HW229943   0.734   0.565   4.467
 9682SOL     OW29944   0.478   5.132   3.016
 9682SOL    HW129945   0.547   5.200   2.994
 9682SOL    HW229946   0.449   5.086   2.932
 9683SOL     OW29947   5.244   6.619   5.957
 9683SOL    HW129948   5.226   6.597   6.053
 9683SOL    HW229949   5.340   6.601   5.936
 9684SOL     OW29950   1.045   4.659   3.478
 9684SOL    HW129951   1.130   4.639   3.429
 9684SOL    HW229952   1.043   4.756   3.502
 9685SOL     OW29953   2.002   2.251   6.768
 9685SOL    HW129954   1.930   2.256   6.699
 9685SOL    HW229955   1.971   2.195   6.845
 9686SOL     OW29956   5.402   1.864   1.667
 9686SOL    HW129957   5.330   1.804   1.631
 9686SOL    HW229958   5.377   1.895   1.759
 9687SOL     OW29959   3.855   1.429   4.569
 9687SOL    HW129960   3.947   1.396   4.592
 9687SOL    HW229961   3.797   1.424   4.650
 9688SOL     OW29962   6.640   1.694   4.122
 9688SOL    HW129963   6.669   1.700   4.026
 9688SOL    HW229964   6.584   1.774   4.144
 9689SOL     OW29965   1.988   5.806   5.754
 9689SOL    HW129966   2.004   5.743   5.678
 9689SOL    HW229967   1.917   5.769   5.814
 9690SOL     OW29968   5.990   3.655   0.534
 9690SOL    HW129969   6.022   3.641   0.441
 9690SOL    HW229970   5.910   3.597   0.551
 9691SOL     OW29971   1.435   4.390   0.806
 9691SOL    HW129972   1.491   4.311   0.830
 9691SOL    HW229973   1.491   4.473   0.811
 9692SOL     OW29974   2.980   5.787   0.955
 9692SOL    HW129975   2.977   5.708   0.894
 9692SOL    HW229976   2.919   5.772   1.033
 9693SOL     OW29977   5.891   5.608   1.540
 9693SOL    HW129978   5.866   5.531   1.599
 9693SOL    HW229979   5.829   5.611   1.461
 9694SOL     OW29980   1.114   2.161   0.836
 9694SOL    HW129981   1.213   2.166   0.822
 9694SOL    HW229982   1.068   2.151   0.747
 9695SOL     OW29983   6.788   4.355   0.502
 9695SOL    HW129984   6.778   4.287   0.575
 9695SOL    HW229985   6.885   4.371   0.485
 9696SOL     OW29986   3.846   4.545   0.720
 9696SOL    HW129987   3.761   4.493   0.735
 9696SOL    HW229988   3.924   4.490   0.748
 9697SOL     OW29989   0.701   6.062   5.786
 9697SOL    HW129990   0.732   6.075   5.692
 9697SOL    HW229991   0.643   5.981   5.792
 9698SOL     OW29992   4.729   1.086   5.280
 9698SOL    HW129993   4.683   1.174   5.291
 9698SOL    HW229994   4.683   1.032   5.210
 9699SOL     OW29995   2.242   2.724   6.856
 9699SOL    HW129996   2.229   2.823   6.854
 9699SOL    HW229997   2.172   2.681   6.799
 9700SOL     OW29998   3.791   3.901   3.514
 9700SOL    HW129999   3.746   3.817   3.482
 9700SOL    HW230000   3.840   3.943   3.438
 9701SOL     OW30001   4.769   4.363   4.724
 9701SOL    HW130002   4.702   4.371   4.798
 9701SOL    HW230003   4.722   4.338   4.639
 9702SOL     OW30004   5.088   0.188   0.564
 9702SOL    HW130005   5.188   0.178   0.558
 9702SOL    HW230006   5.048   0.100   0.587
 9703SOL     OW30007   2.803   5.813   3.806
 9703SOL    HW130008   2.835   5.874   3.733
 9703SOL    HW230009   2.843   5.723   3.793
 9704SOL     OW30010   2.712   1.428   3.639
 9704SOL    HW130011   2.708   1.389   3.547
 9704SOL    HW230012   2.629   1.405   3.689
 9705SOL     OW30013   3.854   3.758   0.803
 9705SOL    HW130014   3.871   3.668   0.843
 9705SOL    HW230015   3.764   3.758   0.759
 9706SOL     OW30016   6.793   2.770   3.847
 9706SOL    HW130017   6.876   2.827   3.849
 9706SOL    HW230018   6.781   2.732   3.755
 9707SOL     OW30019   2.491   4.976   3.093
 9707SOL    HW130020   2.453   4.904   3.151
 9707SOL    HW230021   2.518   5.054   3.149
 9708SOL     OW30022   1.653   1.879   2.325
 9708SOL    HW130023   1.618   1.794   2.285
 9708SOL    HW230024   1.614   1.957   2.276
 9709SOL     OW30025   1.793   5.512   3.018
 9709SOL    HW130026   1.858   5.582   2.989
 9709SOL    HW230027   1.715   5.511   2.955
 9710SOL     OW30028   0.504   0.548   4.098
 9710SOL    HW130029   0.525   0.646   4.105
 9710SOL    HW230030   0.407   0.536   4.079
 9711SOL     OW30031   1.742   3.140   6.500
 9711SOL    HW130032   1.684   3.155   6.420
 9711SOL    HW230033   1.796   3.222   6.519
 9712SOL     OW30034   4.933   3.469   4.599
 9712SOL    HW130035   4.951   3.493   4.504
 9712SOL    HW230036   4.907   3.373   4.605
 9713SOL     OW30037   6.765   5.511   2.610
 9713SOL    HW130038   6.675   5.548   2.635
 9713SOL    HW230039   6.769   5.415   2.635
 9714SOL     OW30040   2.080   2.242   2.481
 9714SOL    HW130041   2.030   2.287   2.556
 9714SOL    HW230042   2.173   2.277   2.476
 9715SOL     OW30043   6.357   5.471   5.594
 9715SOL    HW130044   6.430   5.438   5.534
 9715SOL    HW230045   6.343   5.569   5.578
 9716SOL     OW30046   3.825   1.466   5.711
 9716SOL    HW130047   3.767   1.491   5.789
 9716SOL    HW230048   3.894   1.399   5.741
 9717SOL     OW30049   5.518   5.847   3.330
 9717SOL    HW130050   5.542   5.937   3.366
 9717SOL    HW230051   5.430   5.818   3.368
 9718SOL     OW30052   4.660   3.268   1.675
 9718SOL    HW130053   4.619   3.211   1.745
 9718SOL    HW230054   4.667   3.217   1.589
 9719SOL     OW30055   0.248   1.578   0.474
 9719SOL    HW130056   0.325   1.547   0.418
 9719SOL    HW230057   0.282   1.617   0.559
 9720SOL     OW30058   0.971   0.113   0.405
 9720SOL    HW130059   0.934   0.069   0.487
 9720SOL    HW230060   1.053   0.165   0.429
 9721SOL     OW30061   0.003   2.806   3.515
 9721SOL    HW130062   6.982   2.716   3.503
 9721SOL    HW230063   0.036   2.839   3.427
 9722SOL     OW30064   6.898   0.326   4.487
 9722SOL    HW130065   6.832   0.350   4.557
 9722SOL    HW230066   6.976   0.279   4.529
 9723SOL     OW30067   6.845   1.091   3.655
 9723SOL    HW130068   6.901   1.026   3.706
 9723SOL    HW230069   6.768   1.121   3.711
 9724SOL     OW30070   3.528   2.751   0.950
 9724SOL    HW130071   3.588   2.690   1.001
 9724SOL    HW230072   3.578   2.791   0.873
 9725SOL     OW30073   4.125   3.614   5.765
 9725SOL    HW130074   4.060   3.680   5.727
 9725SOL    HW230075   4.129   3.624   5.865
 9726SOL     OW30076   5.827   5.896   4.132
 9726SOL    HW130077   5.850   5.837   4.209
 9726SOL    HW230078   5.907   5.907   4.074
 9727SOL     OW30079   1.855   0.778   0.137
 9727SOL    HW130080   1.904   0.831   0.206
 9727SOL    HW230081   1.911   0.701   0.108
 9728SOL     OW30082   3.154   5.960   0.030
 9728SOL    HW130083   3.166   6.008   0.117
 9728SOL    HW230084   3.057   5.950   0.009
 9729SOL     OW30085   2.940   5.218   2.303
 9729SOL    HW130086   2.925   5.184   2.210
 9729SOL    HW230087   3.039   5.218   2.322
 9730SOL     OW30088   5.902   3.356   2.983
 9730SOL    HW130089   5.881   3.267   3.024
 9730SOL    HW230090   5.817   3.402   2.958
 9731SOL     OW30091   5.095   5.261   0.930
 9731SOL    HW130092   5.074   5.356   0.906
 9731SOL    HW230093   5.017   5.221   0.979
 9732SOL     OW30094   5.934   6.095   3.885
 9732SOL    HW130095   6.018   6.077   3.834
 9732SOL    HW230096   5.909   6.192   3.874
 9733SOL     OW30097   5.507   4.771   5.931
 9733SOL    HW130098   5.510   4.819   5.844
 9733SOL    HW230099   5.412   4.754   5.957
 9734SOL     OW30100   5.697   2.039   5.693
 9734SOL    HW130101   5.784   2.083   5.714
 9734SOL    HW230102   5.646   2.025   5.779
 9735SOL     OW30103   3.278   4.428   0.507
 9735SOL    HW130104   3.290   4.358   0.578
 9735SOL    HW230105   3.310   4.516   0.540
 9736SOL     OW30106   3.382   1.901   1.706
 9736SOL    HW130107   3.439   1.887   1.626
 9736SOL    HW230108   3.405   1.987   1.750
 9737SOL     OW30109   4.304   2.244   4.666
 9737SOL    HW130110   4.205   2.237   4.650
 9737SOL    HW230111   4.331   2.177   4.735
 9738SOL     OW30112   2.774   0.576   2.157
 9738SOL    HW130113   2.853   0.536   2.113
 9738SOL    HW230114   2.729   0.640   2.094
 9739SOL     OW30115   5.566   4.705   1.585
 9739SOL    HW130116   5.586   4.646   1.508
 9739SOL    HW230117   5.589   4.659   1.670
 9740SOL     OW30118   6.815   3.953   3.014
 9740SOL    HW130119   6.887   3.923   2.951
 9740SOL    HW230120   6.732   3.975   2.961
 9741SOL     OW30121   3.983   1.417   1.927
 9741SOL    HW130122   3.890   1.386   1.950
 9741SOL    HW230123   4.009   1.491   1.990
 9742SOL     OW30124   4.480   1.670   3.773
 9742SOL    HW130125   4.394   1.653   3.821
 9742SOL    HW230126   4.557   1.660   3.837
 9743SOL     OW30127   1.151   1.733   5.609
 9743SOL    HW130128   1.079   1.764   5.547
 9743SOL    HW230129   1.235   1.717   5.557
 9744SOL     OW30130   2.365   0.365   1.783
 9744SOL    HW130131   2.409   0.307   1.852
 9744SOL    HW230132   2.409   0.455   1.782
 9745SOL     OW30133   0.637   0.991   4.809
 9745SOL    HW130134   0.592   0.916   4.857
 9745SOL    HW230135   0.727   0.961   4.776
 9746SOL     OW30136   6.560   0.712   3.909
 9746SOL    HW130137   6.481   0.708   3.848
 9746SOL    HW230138   6.530   0.708   4.004
 9747SOL     OW30139   0.409   0.432   6.441
 9747SOL    HW130140   0.363   0.344   6.431
 9747SOL    HW230141   0.371   0.481   6.520
 9748SOL     OW30142   1.121   4.672   4.187
 9748SOL    HW130143   1.087   4.613   4.113
 9748SOL    HW230144   1.052   4.678   4.259
 9749SOL     OW30145   0.451   5.020   4.244
 9749SOL    HW130146   0.533   4.977   4.207
 9749SOL    HW230147   0.474   5.110   4.282
 9750SOL     OW30148   3.143   5.218   2.703
 9750SOL    HW130149   3.054   5.219   2.659
 9750SOL    HW230150   3.204   5.156   2.653
 9751SOL     OW30151   1.380   2.680   0.675
 9751SOL    HW130152   1.309   2.728   0.622
 9751SOL    HW230153   1.468   2.725   0.661
 9752SOL     OW30154   3.977   0.531   5.736
 9752SOL    HW130155   4.058   0.585   5.711
 9752SOL    HW230156   3.901   0.557   5.676
 9753SOL     OW30157   0.188   6.710   6.602
 9753SOL    HW130158   0.257   6.759   6.549
 9753SOL    HW230159   0.182   6.616   6.570
 9754SOL     OW30160   0.079   2.784   6.343
 9754SOL    HW130161   0.062   2.809   6.438
 9754SOL    HW230162   0.116   2.691   6.339
 9755SOL     OW30163   3.509   5.457   5.869
 9755SOL    HW130164   3.558   5.427   5.951
 9755SOL    HW230165   3.450   5.383   5.836
 9756SOL     OW30166   5.482   2.541   5.438
 9756SOL    HW130167   5.425   2.543   5.356
 9756SOL    HW230168   5.454   2.464   5.496
 9757SOL     OW30169   6.612   1.094   3.782
 9757SOL    HW130170   6.565   1.178   3.809
 9757SOL    HW230171   6.545   1.021   3.767
 9758SOL     OW30172   3.309   0.766   6.979
 9758SOL    HW130173   3.391   0.732   0.002
 9758SOL    HW230174   3.235   0.775   0.025
 9759SOL     OW30175   3.202   5.943   1.451
 9759SOL    HW130176   3.202   5.930   1.352
 9759SOL    HW230177   3.108   5.947   1.485
 9760SOL     OW30178   5.774   4.756   5.891
 9760SOL    HW130179   5.792   4.853   5.875
 9760SOL    HW230180   5.677   4.743   5.910
 9761SOL     OW30181   5.522   5.368   3.011
 9761SOL    HW130182   5.565   5.291   3.060
 9761SOL    HW230183   5.425   5.349   2.998
 9762SOL     OW30184   3.295   0.749   2.902
 9762SOL    HW130185   3.306   0.847   2.887
 9762SOL    HW230186   3.262   0.705   2.819
 9763SOL     OW30187   2.031   1.712   2.324
 9763SOL    HW130188   2.002   1.742   2.233
 9763SOL    HW230189   2.060   1.791   2.378
 9764SOL     OW30190   1.097   2.621   2.413
 9764SOL    HW130191   1.001   2.638   2.432
 9764SOL    HW230192   1.108   2.599   2.316
 9765SOL     OW30193   0.195   0.799   5.477
 9765SOL    HW130194   0.161   0.880   5.429
 9765SOL    HW230195   0.278   0.766   5.432
 9766SOL     OW30196   2.244   0.663   3.022
 9766SOL    HW130197   2.298   0.596   2.971
 9766SOL    HW230198   2.283   0.754   3.010
 9767SOL     OW30199   5.099   0.407   5.380
 9767SOL    HW130200   5.086   0.500   5.413
 9767SOL    HW230201   5.156   0.357   5.445
 9768SOL     OW30202   4.946   2.616   4.423
 9768SOL    HW130203   4.875   2.675   4.385
 9768SOL    HW230204   5.026   2.672   4.446
 9769SOL     OW30205   0.374   1.698   1.069
 9769SOL    HW130206   0.449   1.636   1.092
 9769SOL    HW230207   0.292   1.670   1.118
 9770SOL     OW30208   0.228   2.993   5.580
 9770SOL    HW130209   0.206   2.991   5.482
 9770SOL    HW230210   0.221   2.901   5.618
 9771SOL     OW30211   2.813   5.422   3.529
 9771SOL    HW130212   2.850   5.330   3.540
 9771SOL    HW230213   2.781   5.456   3.618
 9772SOL     OW30214   6.075   6.587   0.867
 9772SOL    HW130215   6.160   6.567   0.915
 9772SOL    HW230216   6.002   6.604   0.934
 9773SOL     OW30217   4.894   5.216   3.819
 9773SOL    HW130218   4.849   5.127   3.805
 9773SOL    HW230219   4.877   5.248   3.912
 9774SOL     OW30220   6.984   4.981   4.603
 9774SOL    HW130221   6.905   5.008   4.548
 9774SOL    HW230222   0.010   4.905   4.560
 9775SOL     OW30223   2.933   2.216   4.444
 9775SOL    HW130224   3.016   2.232   4.498
 9775SOL    HW230225   2.959   2.183   4.354
 9776SOL     OW30226   0.416   4.676   4.094
 9776SOL    HW130227   0.426   4.609   4.168
 9776SOL    HW230228   0.494   4.739   4.095
 9777SOL     OW30229   5.299   5.211   6.229
 9777SOL    HW130230   5.259   5.253   6.310
 9777SOL    HW230231   5.295   5.111   6.238
 9778SOL     OW30232   3.642   0.776   4.575
 9778SOL    HW130233   3.637   0.875   4.566
 9778SOL    HW230234   3.687   0.738   4.494
 9779SOL     OW30235   3.213   2.034   6.667
 9779SOL    HW130236   3.138   2.008   6.606
 9779SOL    HW230237   3.255   2.119   6.635
 9780SOL     OW30238   2.740   4.383   0.630
 9780SOL    HW130239   2.768   4.395   0.534
 9780SOL    HW230240   2.746   4.471   0.677
 9781SOL     OW30241   1.407   6.622   4.484
 9781SOL    HW130242   1.451   6.537   4.513
 9781SOL    HW230243   1.320   6.633   4.532
 9782SOL     OW30244   5.668   0.173   0.273
 9782SOL    HW130245   5.677   0.270   0.248
 9782SOL    HW230246   5.731   0.152   0.347
 9783SOL     OW30247   6.265   0.498   3.484
 9783SOL    HW130248   6.204   0.419   3.489
 9783SOL    HW230249   6.347   0.473   3.432
 9784SOL     OW30250   5.528   0.546   4.459
 9784SOL    HW130251   5.550   0.542   4.361
 9784SOL    HW230252   5.610   0.530   4.513
 9785SOL     OW30253   0.476   3.019   1.583
 9785SOL    HW130254   0.395   3.078   1.578
 9785SOL    HW230255   0.527   3.040   1.667
 9786SOL     OW30256   2.633   7.011   4.839
 9786SOL    HW130257   2.723   6.985   4.803
 9786SOL    HW230258   2.561   6.975   4.779
 9787SOL     OW30259   6.270   4.390   1.274
 9787SOL    HW130260   6.272   4.295   1.244
 9787SOL    HW230261   6.180   4.411   1.313
 9788SOL     OW30262   6.495   0.802   5.617
 9788SOL    HW130263   6.416   0.747   5.644
 9788SOL    HW230264   6.548   0.827   5.698
 9789SOL     OW30265   1.735   5.326   4.855
 9789SOL    HW130266   1.792   5.254   4.895
 9789SOL    HW230267   1.749   5.328   4.756
 9790SOL     OW30268   6.713   1.330   3.407
 9790SOL    HW130269   6.694   1.296   3.315
 9790SOL    HW230270   6.765   1.260   3.457
 9791SOL     OW30271   1.308   2.206   1.219
 9791SOL    HW130272   1.336   2.142   1.148
 9791SOL    HW230273   1.293   2.157   1.305
 9792SOL     OW30274   3.462   5.734   2.237
 9792SOL    HW130275   3.524   5.750   2.160
 9792SOL    HW230276   3.386   5.799   2.234
 9793SOL     OW30277   5.339   5.847   2.508
 9793SOL    HW130278   5.347   5.928   2.450
 9793SOL    HW230279   5.424   5.834   2.559
 9794SOL     OW30280   3.387   3.042   6.491
 9794SOL    HW130281   3.399   2.950   6.527
 9794SOL    HW230282   3.472   3.072   6.448
 9795SOL     OW30283   2.009   4.986   3.529
 9795SOL    HW130284   2.019   4.944   3.619
 9795SOL    HW230285   2.068   4.938   3.464
 9796SOL     OW30286   3.740   4.861   0.441
 9796SOL    HW130287   3.715   4.843   0.346
 9796SOL    HW230288   3.836   4.887   0.446
 9797SOL     OW30289   5.394   3.452   5.403
 9797SOL    HW130290   5.446   3.529   5.365
 9797SOL    HW230291   5.325   3.423   5.336
 9798SOL     OW30292   2.553   1.779   1.706
 9798SOL    HW130293   2.609   1.861   1.692
 9798SOL    HW230294   2.613   1.699   1.710
 9799SOL     OW30295   3.374   4.161   2.605
 9799SOL    HW130296   3.299   4.105   2.639
 9799SOL    HW230297   3.450   4.159   2.670
 9800SOL     OW30298   3.991   5.366   0.398
 9800SOL    HW130299   3.943   5.338   0.316
 9800SOL    HW230300   3.937   5.343   0.479
 9801SOL     OW30301   4.872   5.138   1.037
 9801SOL    HW130302   4.789   5.152   1.090
 9801SOL    HW230303   4.902   5.043   1.046
 9802SOL     OW30304   0.464   5.406   1.646
 9802SOL    HW130305   0.392   5.415   1.577
 9802SOL    HW230306   0.518   5.490   1.649
 9803SOL     OW30307   4.981   0.307   6.439
 9803SOL    HW130308   4.957   0.212   6.424
 9803SOL    HW230309   5.062   0.313   6.497
 9804SOL     OW30310   4.655   5.519   4.055
 9804SOL    HW130311   4.642   5.587   3.983
 9804SOL    HW230312   4.748   5.525   4.090
 9805SOL     OW30313   3.500   3.999   1.148
 9805SOL    HW130314   3.473   3.993   1.052
 9805SOL    HW230315   3.594   3.965   1.158
 9806SOL     OW30316   6.850   1.559   2.493
 9806SOL    HW130317   6.857   1.560   2.394
 9806SOL    HW230318   6.938   1.531   2.533
 9807SOL     OW30319   2.077   3.290   1.269
 9807SOL    HW130320   2.149   3.353   1.296
 9807SOL    HW230321   2.000   3.342   1.232
 9808SOL     OW30322   1.893   1.889   4.066
 9808SOL    HW130323   1.818   1.871   4.130
 9808SOL    HW230324   1.900   1.988   4.051
 9809SOL     OW30325   0.651   0.863   4.287
 9809SOL    HW130326   0.728   0.888   4.227
 9809SOL    HW230327   0.646   0.927   4.363
 9810SOL     OW30328   4.153   1.619   2.504
 9810SOL    HW130329   4.144   1.520   2.492
 9810SOL    HW230330   4.077   1.665   2.459
 9811SOL     OW30331   1.170   0.472   2.802
 9811SOL    HW130332   1.260   0.483   2.844
 9811SOL    HW230333   1.102   0.453   2.872
 9812SOL     OW30334   5.940   3.079   5.924
 9812SOL    HW130335   5.965   3.107   6.016
 9812SOL    HW230336   5.968   3.149   5.858
 9813SOL     OW30337   6.388   4.064   0.314
 9813SOL    HW130338   6.391   4.035   0.410
 9813SOL    HW230339   6.351   3.989   0.258
 9814SOL     OW30340   6.373   0.591   5.861
 9814SOL    HW130341   6.422   0.644   5.931
 9814SOL    HW230342   6.305   0.649   5.816
 9815SOL     OW30343   6.768   4.612   2.275
 9815SOL    HW130344   6.836   4.577   2.339
 9815SOL    HW230345   6.782   4.571   2.185
 9816SOL     OW30346   6.244   1.287   5.533
 9816SOL    HW130347   6.259   1.216   5.602
 9816SOL    HW230348   6.260   1.249   5.442
 9817SOL     OW30349   2.621   1.071   0.495
 9817SOL    HW130350   2.621   1.034   0.402
 9817SOL    HW230351   2.705   1.042   0.542
 9818SOL     OW30352   0.226   6.693   2.341
 9818SOL    HW130353   0.305   6.719   2.396
 9818SOL    HW230354   0.248   6.614   2.284
 9819SOL     OW30355   6.381   1.851   4.548
 9819SOL    HW130356   6.476   1.826   4.566
 9819SOL    HW230357   6.340   1.886   4.632
 9820SOL     OW30358   3.994   0.954   5.976
 9820SOL    HW130359   3.935   1.027   5.942
 9820SOL    HW230360   4.009   0.966   6.074
 9821SOL     OW30361   4.431   3.306   0.377
 9821SOL    HW130362   4.522   3.303   0.420
 9821SOL    HW230363   4.373   3.370   0.428
 9822SOL     OW30364   3.477   5.010   4.184
 9822SOL    HW130365   3.555   4.947   4.175
 9822SOL    HW230366   3.511   5.102   4.202
 9823SOL     OW30367   4.197   6.719   3.299
 9823SOL    HW130368   4.265   6.738   3.370
 9823SOL    HW230369   4.174   6.803   3.251
 9824SOL     OW30370   1.132   5.839   5.313
 9824SOL    HW130371   1.112   5.811   5.220
 9824SOL    HW230372   1.048   5.871   5.358
 9825SOL     OW30373   0.765   6.241   5.122
 9825SOL    HW130374   0.791   6.263   5.216
 9825SOL    HW230375   0.820   6.165   5.088
 9826SOL     OW30376   1.683   5.891   6.585
 9826SOL    HW130377   1.741   5.810   6.596
 9826SOL    HW230378   1.724   5.968   6.635
 9827SOL     OW30379   1.881   4.761   1.310
 9827SOL    HW130380   1.933   4.687   1.268
 9827SOL    HW230381   1.942   4.839   1.327
 9828SOL     OW30382   4.706   2.312   4.425
 9828SOL    HW130383   4.712   2.218   4.394
 9828SOL    HW230384   4.771   2.327   4.499
 9829SOL     OW30385   5.228   4.712   5.781
 9829SOL    HW130386   5.284   4.712   5.699
 9829SOL    HW230387   5.135   4.683   5.758
 9830SOL     OW30388   6.274   1.154   3.558
 9830SOL    HW130389   6.234   1.145   3.650
 9830SOL    HW230390   6.344   1.226   3.560
 9831SOL     OW30391   6.749   5.007   1.776
 9831SOL    HW130392   6.767   4.939   1.704
 9831SOL    HW230393   6.836   5.048   1.804
 9832SOL     OW30394   5.039   6.058   4.823
 9832SOL    HW130395   5.128   6.017   4.807
 9832SOL    HW230396   4.973   5.986   4.847
 9833SOL     OW30397   3.826   3.246   4.868
 9833SOL    HW130398   3.817   3.150   4.895
 9833SOL    HW230399   3.788   3.258   4.776
 9834SOL     OW30400   2.856   5.802   6.152
 9834SOL    HW130401   2.892   5.711   6.171
 9834SOL    HW230402   2.928   5.859   6.112
 9835SOL     OW30403   3.698   3.148   3.971
 9835SOL    HW130404   3.601   3.161   3.993
 9835SOL    HW230405   3.731   3.064   4.013
 9836SOL     OW30406   6.634   3.367   5.261
 9836SOL    HW130407   6.627   3.454   5.309
 9836SOL    HW230408   6.615   3.382   5.163
 9837SOL     OW30409   6.846   0.954   3.397
 9837SOL    HW130410   6.825   1.003   3.482
 9837SOL    HW230411   6.937   0.980   3.365
 9838SOL     OW30412   0.230   5.361   0.730
 9838SOL    HW130413   0.138   5.400   0.741
 9838SOL    HW230414   0.279   5.367   0.817
 9839SOL     OW30415   4.353   6.468   3.438
 9839SOL    HW130416   4.404   6.538   3.388
 9839SOL    HW230417   4.322   6.506   3.525
 9840SOL     OW30418   6.375   1.924   0.028
 9840SOL    HW130419   6.324   2.003   0.063
 9840SOL    HW230420   6.362   1.846   0.090
 9841SOL     OW30421   0.256   6.196   2.222
 9841SOL    HW130422   0.188   6.220   2.291
 9841SOL    HW230423   0.232   6.109   2.180
 9842SOL     OW30424   4.032   0.514   0.636
 9842SOL    HW130425   4.091   0.450   0.587
 9842SOL    HW230426   4.079   0.602   0.647
 9843SOL     OW30427   0.392   0.522   0.656
 9843SOL    HW130428   0.489   0.518   0.632
 9843SOL    HW230429   0.342   0.568   0.583
 9844SOL     OW30430   5.044   0.235   4.944
 9844SOL    HW130431   5.077   0.158   4.890
 9844SOL    HW230432   5.119   0.299   4.960
 9845SOL     OW30433   1.053   3.782   2.185
 9845SOL    HW130434   1.081   3.752   2.094
 9845SOL    HW230435   1.134   3.793   2.242
 9846SOL     OW30436   5.410   2.076   2.474
 9846SOL    HW130437   5.472   2.014   2.522
 9846SOL    HW230438   5.459   2.158   2.446
 9847SOL     OW30439   4.040   4.493   6.799
 9847SOL    HW130440   3.979   4.569   6.774
 9847SOL    HW230441   4.005   4.448   6.881
 9848SOL     OW30442   2.978   4.275   5.495
 9848SOL    HW130443   2.922   4.354   5.469
 9848SOL    HW230444   3.016   4.234   5.412
 9849SOL     OW30445   2.257   2.247   3.213
 9849SOL    HW130446   2.172   2.297   3.229
 9849SOL    HW230447   2.286   2.261   3.118
 9850SOL     OW30448   1.050   0.278   4.561
 9850SOL    HW130449   1.000   0.313   4.482
 9850SOL    HW230450   0.985   0.254   4.633
 9851SOL     OW30451   3.412   5.330   3.634
 9851SOL    HW130452   3.341   5.285   3.581
 9851SOL    HW230453   3.404   5.303   3.730
 9852SOL     OW30454   2.243   6.764   0.056
 9852SOL    HW130455   2.233   6.703   0.134
 9852SOL    HW230456   2.180   6.841   0.065
 9853SOL     OW30457   0.264   4.223   3.956
 9853SOL    HW130458   0.179   4.270   3.934
 9853SOL    HW230459   0.279   4.226   4.055
 9854SOL     OW30460   6.342   3.183   6.899
 9854SOL    HW130461   6.286   3.255   6.857
 9854SOL    HW230462   6.405   3.146   6.832
 9855SOL     OW30463   1.006   5.727   6.928
 9855SOL    HW130464   1.006   5.718   0.007
 9855SOL    HW230465   1.080   5.789   6.901
 9856SOL     OW30466   5.334   3.698   3.509
 9856SOL    HW130467   5.314   3.743   3.422
 9856SOL    HW230468   5.428   3.720   3.537
 9857SOL     OW30469   5.110   0.496   6.196
 9857SOL    HW130470   5.169   0.423   6.229
 9857SOL    HW230471   5.098   0.565   6.268
 9858SOL     OW30472   6.838   5.638   2.376
 9858SOL    HW130473   6.810   5.580   2.453
 9858SOL    HW230474   6.844   5.582   2.293
 9859SOL     OW30475   0.763   5.110   2.489
 9859SOL    HW130476   0.818   5.091   2.408
 9859SOL    HW230477   0.666   5.097   2.468
 9860SOL     OW30478   1.689   3.532   3.833
 9860SOL    HW130479   1.740   3.618   3.836
 9860SOL    HW230480   1.609   3.544   3.774
 9861SOL     OW30481   3.281   1.620   3.508
 9861SOL    HW130482   3.308   1.585   3.418
 9861SOL    HW230483   3.201   1.679   3.498
 9862SOL     OW30484   1.733   2.910   6.646
 9862SOL    HW130485   1.686   2.845   6.586
 9862SOL    HW230486   1.760   2.990   6.593
 9863SOL     OW30487   4.081   6.756   1.851
 9863SOL    HW130488   4.041   6.664   1.847
 9863SOL    HW230489   4.179   6.750   1.832
 9864SOL     OW30490   2.972   6.253   5.543
 9864SOL    HW130491   3.004   6.348   5.541
 9864SOL    HW230492   2.968   6.217   5.450
 9865SOL     OW30493   2.234   5.941   5.785
 9865SOL    HW130494   2.155   5.888   5.753
 9865SOL    HW230495   2.211   5.984   5.873
 9866SOL     OW30496   6.972   5.300   6.397
 9866SOL    HW130497   6.950   5.251   6.312
 9866SOL    HW230498   6.910   5.377   6.408
 9867SOL     OW30499   4.842   1.375   2.431
 9867SOL    HW130500   4.835   1.350   2.334
 9867SOL    HW230501   4.758   1.420   2.459
 9868SOL     OW30502   2.544   4.749   3.369
 9868SOL    HW130503   2.569   4.685   3.296
 9868SOL    HW230504   2.572   4.711   3.458
 9869SOL     OW30505   6.292   2.542   3.009
 9869SOL    HW130506   6.257   2.471   2.948
 9869SOL    HW230507   6.302   2.505   3.101
 9870SOL     OW30508   2.016   2.518   2.950
 9870SOL    HW130509   1.964   2.468   2.881
 9870SOL    HW230510   1.990   2.487   3.041
 9871SOL     OW30511   5.728   5.978   3.089
 9871SOL    HW130512   5.630   5.970   3.107
 9871SOL    HW230513   5.773   6.019   3.169
 9872SOL     OW30514   0.941   6.553   5.731
 9872SOL    HW130515   1.002   6.590   5.801
 9872SOL    HW230516   0.994   6.504   5.662
 9873SOL     OW30517   0.232   0.804   5.033
 9873SOL    HW130518   0.171   0.785   4.956
 9873SOL    HW230519   0.318   0.843   4.999
 9874SOL     OW30520   0.226   1.885   3.442
 9874SOL    HW130521   0.221   1.872   3.542
 9874SOL    HW230522   0.134   1.904   3.407
 9875SOL     OW30523   6.406   6.248   0.729
 9875SOL    HW130524   6.408   6.345   0.756
 9875SOL    HW230525   6.464   6.195   0.790
 9876SOL     OW30526   0.221   0.024   3.566
 9876SOL    HW130527   0.164   6.965   3.548
 9876SOL    HW230528   0.317   7.019   3.564
 9877SOL     OW30529   1.335   6.161   5.155
 9877SOL    HW130530   1.433   6.182   5.159
 9877SOL    HW230531   1.301   6.177   5.063
 9878SOL     OW30532   3.894   2.654   0.004
 9878SOL    HW130533   3.808   2.676   0.050
 9878SOL    HW230534   3.945   2.738   7.008
 9879SOL     OW30535   5.657   6.082   4.266
 9879SOL    HW130536   5.701   6.028   4.194
 9879SOL    HW230537   5.678   6.179   4.252
 9880SOL     OW30538   3.784   1.153   0.926
 9880SOL    HW130539   3.721   1.222   0.962
 9880SOL    HW230540   3.876   1.192   0.923
 9881SOL     OW30541   6.454   0.197   3.331
 9881SOL    HW130542   6.506   0.250   3.398
 9881SOL    HW230543   6.402   0.259   3.273
 9882SOL     OW30544   3.418   3.383   4.572
 9882SOL    HW130545   3.400   3.354   4.478
 9882SOL    HW230546   3.373   3.471   4.588
 9883SOL     OW30547   1.861   6.056   2.744
 9883SOL    HW130548   1.868   5.956   2.739
 9883SOL    HW230549   1.943   6.098   2.705
 9884SOL     OW30550   3.253   2.616   5.353
 9884SOL    HW130551   3.233   2.547   5.283
 9884SOL    HW230552   3.243   2.708   5.313
 9885SOL     OW30553   4.839   2.272   5.475
 9885SOL    HW130554   4.927   2.254   5.518
 9885SOL    HW230555   4.770   2.289   5.545
 9886SOL     OW30556   2.522   6.425   1.416
 9886SOL    HW130557   2.514   6.325   1.412
 9886SOL    HW230558   2.605   6.454   1.368
 9887SOL     OW30559   3.648   1.147   6.798
 9887SOL    HW130560   3.629   1.058   6.839
 9887SOL    HW230561   3.724   1.191   6.847
 9888SOL     OW30562   6.665   6.311   3.668
 9888SOL    HW130563   6.646   6.339   3.574
 9888SOL    HW230564   6.634   6.382   3.731
 9889SOL     OW30565   6.083   6.065   2.228
 9889SOL    HW130566   6.052   6.160   2.214
 9889SOL    HW230567   6.033   6.025   2.305
 9890SOL     OW30568   1.757   3.030   2.661
 9890SOL    HW130569   1.682   3.096   2.671
 9890SOL    HW230570   1.842   3.079   2.642
 9891SOL     OW30571   4.369   6.711   1.826
 9891SOL    HW130572   4.395   6.804   1.855
 9891SOL    HW230573   4.451   6.663   1.795
 9892SOL     OW30574   1.743   6.217   3.206
 9892SOL    HW130575   1.702   6.273   3.134
 9892SOL    HW230576   1.670   6.179   3.263
 9893SOL     OW30577   5.629   4.525   5.488
 9893SOL    HW130578   5.679   4.452   5.535
 9893SOL    HW230579   5.632   4.510   5.390
 9894SOL     OW30580   4.074   3.915   5.735
 9894SOL    HW130581   3.985   3.893   5.774
 9894SOL    HW230582   4.093   4.012   5.747
 9895SOL     OW30583   5.413   2.083   6.100
 9895SOL    HW130584   5.445   2.035   6.018
 9895SOL    HW230585   5.465   2.167   6.111
 9896SOL     OW30586   4.082   4.012   0.278
 9896SOL    HW130587   4.105   4.073   0.203
 9896SOL    HW230588   4.024   4.060   0.344
 9897SOL     OW30589   0.935   1.593   2.709
 9897SOL    HW130590   0.897   1.530   2.642
 9897SOL    HW230591   0.910   1.563   2.801
 9898SOL     OW30592   0.522   5.092   0.513
 9898SOL    HW130593   0.452   5.100   0.442
 9898SOL    HW230594   0.598   5.036   0.478
 9899SOL     OW30595   4.027   5.520   2.333
 9899SOL    HW130596   4.076   5.606   2.318
 9899SOL    HW230597   3.933   5.529   2.298
 9900SOL     OW30598   2.512   4.903   4.040
 9900SOL    HW130599   2.568   4.861   4.112
 9900SOL    HW230600   2.428   4.938   4.081
 9901SOL     OW30601   2.726   1.581   5.810
 9901SOL    HW130602   2.812   1.626   5.788
 9901SOL    HW230603   2.708   1.588   5.908
 9902SOL     OW30604   4.075   3.955   6.856
 9902SOL    HW130605   3.980   3.987   6.864
 9902SOL    HW230606   4.077   3.855   6.866
 9903SOL     OW30607   3.084   1.142   1.304
 9903SOL    HW130608   3.081   1.084   1.385
 9903SOL    HW230609   3.172   1.190   1.301
 9904SOL     OW30610   6.779   6.325   2.342
 9904SOL    HW130611   6.793   6.360   2.435
 9904SOL    HW230612   6.682   6.314   2.324
 9905SOL     OW30613   2.590   6.966   6.357
 9905SOL    HW130614   2.652   0.021   6.338
 9905SOL    HW230615   2.642   6.890   6.397
 9906SOL     OW30616   3.270   4.351   6.132
 9906SOL    HW130617   3.221   4.398   6.206
 9906SOL    HW230618   3.368   4.365   6.143
 9907SOL     OW30619   0.784   6.456   3.083
 9907SOL    HW130620   0.833   6.530   3.037
 9907SOL    HW230621   0.823   6.368   3.055
 9908SOL     OW30622   6.626   2.794   5.382
 9908SOL    HW130623   6.671   2.846   5.455
 9908SOL    HW230624   6.608   2.701   5.414
 9909SOL     OW30625   2.698   6.900   2.776
 9909SOL    HW130626   2.628   6.841   2.817
 9909SOL    HW230627   2.693   6.991   2.817
 9910SOL     OW30628   0.791   5.705   0.379
 9910SOL    HW130629   0.785   5.768   0.301
 9910SOL    HW230630   0.859   5.739   0.444
 9911SOL     OW30631   3.770   4.879   2.480
 9911SOL    HW130632   3.789   4.853   2.386
 9911SOL    HW230633   3.672   4.892   2.492
 9912SOL     OW30634   5.826   6.618   0.132
 9912SOL    HW130635   5.790   6.584   0.219
 9912SOL    HW230636   5.805   6.715   0.122
 9913SOL     OW30637   5.323   2.332   3.126
 9913SOL    HW130638   5.260   2.389   3.180
 9913SOL    HW230639   5.273   2.290   3.051
 9914SOL     OW30640   2.293   5.612   4.141
 9914SOL    HW130641   2.381   5.606   4.188
 9914SOL    HW230642   2.253   5.703   4.155
 9915SOL     OW30643   6.040   4.225   4.300
 9915SOL    HW130644   6.053   4.309   4.354
 9915SOL    HW230645   6.077   4.147   4.351
 9916SOL     OW30646   2.113   3.717   0.338
 9916SOL    HW130647   2.013   3.721   0.342
 9916SOL    HW230648   2.149   3.684   0.425
 9917SOL     OW30649   2.238   2.879   4.419
 9917SOL    HW130650   2.281   2.924   4.341
 9917SOL    HW230651   2.308   2.830   4.471
 9918SOL     OW30652   2.351   0.876   4.445
 9918SOL    HW130653   2.333   0.782   4.472
 9918SOL    HW230654   2.279   0.907   4.383
 9919SOL     OW30655   0.818   5.387   1.472
 9919SOL    HW130656   0.735   5.333   1.484
 9919SOL    HW230657   0.794   5.482   1.451
 9920SOL     OW30658   3.752   0.287   3.014
 9920SOL    HW130659   3.714   0.293   3.106
 9920SOL    HW230660   3.688   0.329   2.949
 9921SOL     OW30661   4.532   0.963   2.376
 9921SOL    HW130662   4.465   0.896   2.408
 9921SOL    HW230663   4.498   1.056   2.393
 9922SOL     OW30664   5.253   2.621   2.466
 9922SOL    HW130665   5.322   2.612   2.394
 9922SOL    HW230666   5.163   2.600   2.428
 9923SOL     OW30667   6.424   0.543   6.646
 9923SOL    HW130668   6.341   0.593   6.670
 9923SOL    HW230669   6.422   0.452   6.687
 9924SOL     OW30670   5.279   1.390   4.077
 9924SOL    HW130671   5.359   1.450   4.066
 9924SOL    HW230672   5.277   1.354   4.170
 9925SOL     OW30673   4.046   2.198   4.927
 9925SOL    HW130674   4.098   2.283   4.939
 9925SOL    HW230675   3.976   2.192   4.997
 9926SOL     OW30676   2.287   1.447   5.845
 9926SOL    HW130677   2.312   1.357   5.810
 9926SOL    HW230678   2.191   1.465   5.824
 9927SOL     OW30679   1.149   3.795   3.579
 9927SOL    HW130680   1.138   3.830   3.672
 9927SOL    HW230681   1.246   3.793   3.555
 9928SOL     OW30682   6.890   2.615   2.084
 9928SOL    HW130683   6.977   2.577   2.114
 9928SOL    HW230684   6.883   2.610   1.985
 9929SOL     OW30685   1.563   5.145   5.769
 9929SOL    HW130686   1.515   5.118   5.685
 9929SOL    HW230687   1.496   5.160   5.842
 9930SOL     OW30688   6.372   5.489   6.550
 9930SOL    HW130689   6.458   5.447   6.577
 9930SOL    HW230690   6.307   5.483   6.625
 9931SOL     OW30691   2.329   4.325   6.959
 9931SOL    HW130692   2.410   4.354   7.010
 9931SOL    HW230693   2.353   4.248   6.900
 9932SOL     OW30694   1.991   2.388   1.388
 9932SOL    HW130695   1.944   2.417   1.471
 9932SOL    HW230696   2.048   2.463   1.354
 9933SOL     OW30697   0.854   1.556   3.388
 9933SOL    HW130698   0.886   1.530   3.479
 9933SOL    HW230699   0.823   1.475   3.339
 9934SOL     OW30700   5.074   0.918   6.261
 9934SOL    HW130701   5.094   0.830   6.304
 9934SOL    HW230702   4.976   0.929   6.252
 9935SOL     OW30703   2.498   3.376   0.353
 9935SOL    HW130704   2.461   3.303   0.297
 9935SOL    HW230705   2.465   3.464   0.320
 9936SOL     OW30706   5.277   6.553   0.022
 9936SOL    HW130707   5.196   6.602   7.011
 9936SOL    HW230708   5.355   6.615   0.022
 9937SOL     OW30709   1.545   6.727   4.143
 9937SOL    HW130710   1.555   6.823   4.172
 9937SOL    HW230711   1.575   6.667   4.216
 9938SOL     OW30712   6.931   1.466   2.828
 9938SOL    HW130713   6.934   1.448   2.926
 9938SOL    HW230714   6.838   1.452   2.794
 9939SOL     OW30715   2.720   3.664   1.439
 9939SOL    HW130716   2.624   3.637   1.453
 9939SOL    HW230717   2.780   3.597   1.482
 9940SOL     OW30718   0.428   1.161   3.135
 9940SOL    HW130719   0.494   1.195   3.203
 9940SOL    HW230720   0.391   1.074   3.167
 9941SOL     OW30721   6.043   3.063   0.590
 9941SOL    HW130722   6.049   3.159   0.617
 9941SOL    HW230723   6.110   3.009   0.640
 9942SOL     OW30724   6.104   5.642   2.754
 9942SOL    HW130725   6.122   5.648   2.655
 9942SOL    HW230726   6.015   5.682   2.774
 9943SOL     OW30727   1.137   4.198   5.515
 9943SOL    HW130728   1.182   4.273   5.563
 9943SOL    HW230729   1.204   4.145   5.463
 9944SOL     OW30730   2.395   5.602   6.944
 9944SOL    HW130731   2.423   5.617   6.849
 9944SOL    HW230732   2.458   5.649   7.006
 9945SOL     OW30733   6.462   3.497   6.227
 9945SOL    HW130734   6.433   3.453   6.142
 9945SOL    HW230735   6.388   3.557   6.260
 9946SOL     OW30736   5.777   2.103   1.925
 9946SOL    HW130737   5.771   2.088   1.827
 9946SOL    HW230738   5.686   2.116   1.964
 9947SOL     OW30739   0.947   0.568   3.273
 9947SOL    HW130740   0.977   0.627   3.198
 9947SOL    HW230741   0.847   0.569   3.278
 9948SOL     OW30742   5.849   1.095   5.392
 9948SOL    HW130743   5.821   1.004   5.422
 9948SOL    HW230744   5.850   1.098   5.292
 9949SOL     OW30745   6.874   3.376   2.773
 9949SOL    HW130746   6.936   3.364   2.695
 9949SOL    HW230747   6.799   3.436   2.748
 9950SOL     OW30748   4.633   5.397   5.900
 9950SOL    HW130749   4.646   5.432   5.993
 9950SOL    HW230750   4.538   5.414   5.872
 9951SOL     OW30751   6.897   2.182   2.929
 9951SOL    HW130752   6.931   2.223   2.845
 9951SOL    HW230753   6.884   2.084   2.915
 9952SOL     OW30754   1.429   4.629   1.250
 9952SOL    HW130755   1.345   4.613   1.303
 9952SOL    HW230756   1.498   4.562   1.276
 9953SOL     OW30757   5.992   4.612   4.813
 9953SOL    HW130758   6.016   4.689   4.754
 9953SOL    HW230759   6.043   4.531   4.784
 9954SOL     OW30760   4.436   1.192   1.850
 9954SOL    HW130761   4.446   1.102   1.892
 9954SOL    HW230762   4.338   1.214   1.842
 9955SOL     OW30763   6.064   5.010   0.839
 9955SOL    HW130764   5.971   4.976   0.825
 9955SOL    HW230765   6.084   5.014   0.937
 9956SOL     OW30766   1.410   3.862   3.492
 9956SOL    HW130767   1.400   3.951   3.448
 9956SOL    HW230768   1.504   3.852   3.526
 9957SOL     OW30769   5.556   6.916   0.394
 9957SOL    HW130770   5.585   6.926   0.489
 9957SOL    HW230771   5.572   7.002   0.345
 9958SOL     OW30772   5.999   6.066   5.955
 9958SOL    HW130773   6.050   6.029   6.033
 9958SOL    HW230774   5.989   6.165   5.965
 9959SOL     OW30775   5.681   4.990   6.690
 9959SOL    HW130776   5.733   5.045   6.624
 9959SOL    HW230777   5.731   4.985   6.776
 9960SOL     OW30778   6.958   0.235   6.680
 9960SOL    HW130779   0.009   0.189   6.627
 9960SOL    HW230780   6.876   0.245   6.623
 9961SOL     OW30781   3.379   0.237   0.628
 9961SOL    HW130782   3.285   0.251   0.597
 9961SOL    HW230783   3.380   0.228   0.728
 9962SOL     OW30784   3.486   0.249   1.321
 9962SOL    HW130785   3.433   0.316   1.373
 9962SOL    HW230786   3.438   0.161   1.320
 9963SOL     OW30787   1.523   0.302   6.681
 9963SOL    HW130788   1.438   0.334   6.722
 9963SOL    HW230789   1.598   0.312   6.747
 9964SOL     OW30790   4.594   5.678   5.566
 9964SOL    HW130791   4.614   5.586   5.599
 9964SOL    HW230792   4.603   5.743   5.641
 9965SOL     OW30793   2.325   4.810   4.375
 9965SOL    HW130794   2.364   4.878   4.436
 9965SOL    HW230795   2.396   4.743   4.350
 9966SOL     OW30796   2.433   5.553   2.292
 9966SOL    HW130797   2.479   5.607   2.222
 9966SOL    HW230798   2.440   5.600   2.380
 9967SOL     OW30799   0.228   0.597   2.574
 9967SOL    HW130800   0.176   0.579   2.657
 9967SOL    HW230801   0.166   0.601   2.496
 9968SOL     OW30802   4.599   6.509   7.015
 9968SOL    HW130803   4.679   6.450   6.996
 9968SOL    HW230804   4.608   6.549   0.085
 9969SOL     OW30805   0.360   5.950   2.715
 9969SOL    HW130806   0.341   6.048   2.721
 9969SOL    HW230807   0.378   5.914   2.806
 9970SOL     OW30808   0.063   3.398   1.933
 9970SOL    HW130809   0.157   3.426   1.913
 9970SOL    HW230810   0.004   3.424   1.857
 9971SOL     OW30811   7.000   5.384   5.399
 9971SOL    HW130812   0.005   5.301   5.449
 9971SOL    HW230813   0.031   5.389   5.314
 9972SOL     OW30814   3.043   4.861   6.038
 9972SOL    HW130815   2.969   4.834   5.976
 9972SOL    HW230816   3.108   4.786   6.047
 9973SOL     OW30817   3.104   2.212   2.903
 9973SOL    HW130818   3.012   2.221   2.940
 9973SOL    HW230819   3.154   2.298   2.912
 9974SOL     OW30820   0.942   2.729   2.842
 9974SOL    HW130821   0.955   2.680   2.927
 9974SOL    HW230822   0.990   2.817   2.846
 9975SOL     OW30823   1.795   3.835   6.683
 9975SOL    HW130824   1.787   3.909   6.617
 9975SOL    HW230825   1.751   3.862   6.769
 9976SOL     OW30826   3.821   6.335   5.556
 9976SOL    HW130827   3.866   6.246   5.557
 9976SOL    HW230828   3.747   6.336   5.624
 9977SOL     OW30829   4.286   0.309   5.528
 9977SOL    HW130830   4.292   0.232   5.465
 9977SOL    HW230831   4.281   0.275   5.622
 9978SOL     OW30832   6.664   2.940   0.321
 9978SOL    HW130833   6.632   2.871   0.386
 9978SOL    HW230834   6.593   2.958   0.254
 9979SOL     OW30835   3.815   3.741   4.043
 9979SOL    HW130836   3.729   3.780   4.010
 9979SOL    HW230837   3.855   3.684   3.971
 9980SOL     OW30838   0.570   0.233   0.054
 9980SOL    HW130839   0.602   0.147   0.094
 9980SOL    HW230840   0.550   0.298   0.128
 9981SOL     OW30841   5.737   0.909   0.124
 9981SOL    HW130842   5.808   0.975   0.099
 9981SOL    HW230843   5.758   0.870   0.214
 9982SOL     OW30844   2.699   2.379   4.447
 9982SOL    HW130845   2.693   2.416   4.354
 9982SOL    HW230846   2.784   2.327   4.457
 9983SOL     OW30847   0.132   2.517   2.218
 9983SOL    HW130848   0.179   2.457   2.282
 9983SOL    HW230849   0.164   2.611   2.231
 9984SOL     OW30850   0.927   4.533   0.944
 9984SOL    HW130851   1.019   4.554   0.976
 9984SOL    HW230852   0.925   4.440   0.906
 9985SOL     OW30853   5.161   4.446   0.013
 9985SOL    HW130854   5.164   4.346   0.012
 9985SOL    HW230855   5.077   4.478   6.990
 9986SOL     OW30856   5.328   4.891   6.661
 9986SOL    HW130857   5.292   4.887   6.568
 9986SOL    HW230858   5.404   4.827   6.671
 9987SOL     OW30859   4.674   2.290   0.934
 9987SOL    HW130860   4.764   2.308   0.895
 9987SOL    HW230861   4.684   2.249   1.025
 9988SOL     OW30862   6.042   6.878   3.345
 9988SOL    HW130863   6.021   6.802   3.283
 9988SOL    HW230864   6.140   6.900   3.338
 9989SOL     OW30865   5.646   5.990   1.516
 9989SOL    HW130866   5.641   5.980   1.416
 9989SOL    HW230867   5.639   5.900   1.559
 9990SOL     OW30868   0.712   5.932   2.737
 9990SOL    HW130869   0.668   5.842   2.744
 9990SOL    HW230870   0.769   5.935   2.655
 9991SOL     OW30871   1.788   4.223   1.656
 9991SOL    HW130872   1.771   4.134   1.698
 9991SOL    HW230873   1.856   4.273   1.709
 9992SOL     OW30874   2.357   4.987   6.415
 9992SOL    HW130875   2.435   4.991   6.478
 9992SOL    HW230876   2.303   5.071   6.423
 9993SOL     OW30877   3.752   6.891   4.954
 9993SOL    HW130878   3.825   6.845   4.905
 9993SOL    HW230879   3.673   6.903   4.893
 9994SOL     OW30880   5.743   5.125   4.524
 9994SOL    HW130881   5.769   5.217   4.553
 9994SOL    HW230882   5.748   5.063   4.602
 9995SOL     OW30883   4.364   1.325   6.302
 9995SOL    HW130884   4.316   1.344   6.387
 9995SOL    HW230885   4.462   1.317   6.320
 9996SOL     OW30886   2.648   4.900   0.827
 9996SOL    HW130887   2.638   4.831   0.899
 9996SOL    HW230888   2.558   4.936   0.802
 9997SOL     OW30889   6.303   1.089   3.018
 9997SOL    HW130890   6.317   1.126   3.109
 9997SOL    HW230891   6.387   1.099   2.965
 9998SOL     OW30892   5.466   3.559   2.495
 9998SOL    HW130893   5.407   3.551   2.415
 9998SOL    HW230894   5.439   3.489   2.562
 9999SOL     OW30895   0.649   6.883   4.775
 9999SOL    HW130896   0.689   6.974   4.785
 9999SOL    HW230897   0.567   6.876   4.832
10000SOL     OW30898   4.581   2.685   1.493
10000SOL    HW130899   4.640   2.708   1.570
10000SOL    HW230900   4.486   2.704   1.517
10001SOL     OW30901   3.899   6.657   1.542
10001SOL    HW130902   3.945   6.605   1.470
10001SOL    HW230903   3.801   6.635   1.542
10002SOL     OW30904   2.174   6.505   2.546
10002SOL    HW130905   2.077   6.488   2.530
10002SOL    HW230906   2.193   6.499   2.644
10003SOL     OW30907   1.064   0.740   2.244
10003SOL    HW130908   1.101   0.829   2.269
10003SOL    HW230909   1.027   0.744   2.152
10004SOL     OW30910   7.009   3.423   3.896
10004SOL    HW130911   0.072   3.399   3.847
10004SOL    HW230912   6.931   3.418   3.833
10005SOL     OW30913   2.313   5.194   2.916
10005SOL    HW130914   2.407   5.169   2.937
10005SOL    HW230915   2.251   5.124   2.952
10006SOL     OW30916   5.339   1.965   5.689
10006SOL    HW130917   5.240   1.980   5.683
10006SOL    HW230918   5.386   2.028   5.627
10007SOL     OW30919   1.514   5.382   3.954
10007SOL    HW130920   1.537   5.296   4.001
10007SOL    HW230921   1.558   5.384   3.864
10008SOL     OW30922   4.226   0.682   5.742
10008SOL    HW130923   4.246   0.779   5.734
10008SOL    HW230924   4.291   0.629   5.687
10009SOL     OW30925   1.018   4.683   1.875
10009SOL    HW130926   0.920   4.700   1.867
10009SOL    HW230927   1.069   4.752   1.823
10010SOL     OW30928   2.122   4.555   0.899
10010SOL    HW130929   2.085   4.500   0.974
10010SOL    HW230930   2.116   4.503   0.814
10011SOL     OW30931   3.265   3.397   0.450
10011SOL    HW130932   3.232   3.357   0.536
10011SOL    HW230933   3.321   3.330   0.402
10012SOL     OW30934   5.532   2.050   3.771
10012SOL    HW130935   5.549   2.053   3.673
10012SOL    HW230936   5.439   2.016   3.788
10013SOL     OW30937   0.809   6.494   4.760
10013SOL    HW130938   0.847   6.421   4.704
10013SOL    HW230939   0.790   6.574   4.704
10014SOL     OW30940   1.116   1.150   3.631
10014SOL    HW130941   1.075   1.118   3.545
10014SOL    HW230942   1.062   1.115   3.708
10015SOL     OW30943   4.438   6.871   6.547
10015SOL    HW130944   4.422   6.896   6.642
10015SOL    HW230945   4.355   6.831   6.507
10016SOL     OW30946   3.048   0.905   4.622
10016SOL    HW130947   3.015   0.837   4.558
10016SOL    HW230948   3.056   0.994   4.576
10017SOL     OW30949   3.224   1.540   2.758
10017SOL    HW130950   3.252   1.534   2.662
10017SOL    HW230951   3.302   1.517   2.817
10018SOL     OW30952   0.088   4.830   5.317
10018SOL    HW130953   0.040   4.874   5.392
10018SOL    HW230954   0.096   4.894   5.240
10019SOL     OW30955   6.855   1.869   2.332
10019SOL    HW130956   6.763   1.886   2.298
10019SOL    HW230957   6.881   1.775   2.313
10020SOL     OW30958   6.224   0.754   2.189
10020SOL    HW130959   6.160   0.829   2.175
10020SOL    HW230960   6.227   0.697   2.106
10021SOL     OW30961   1.063   3.716   1.666
10021SOL    HW130962   0.975   3.751   1.634
10021SOL    HW230963   1.048   3.630   1.716
10022SOL     OW30964   1.706   6.255   5.831
10022SOL    HW130965   1.788   6.202   5.808
10022SOL    HW230966   1.646   6.200   5.888
10023SOL     OW30967   0.568   1.679   5.830
10023SOL    HW130968   0.539   1.750   5.894
10023SOL    HW230969   0.511   1.598   5.842
10024SOL     OW30970   2.205   4.434   3.307
10024SOL    HW130971   2.238   4.354   3.257
10024SOL    HW230972   2.265   4.450   3.386
10025SOL     OW30973   0.693   2.662   1.357
10025SOL    HW130974   0.644   2.745   1.333
10025SOL    HW230975   0.748   2.678   1.439
10026SOL     OW30976   6.138   0.923   5.004
10026SOL    HW130977   6.126   0.926   5.104
10026SOL    HW230978   6.061   0.874   4.963
10027SOL     OW30979   3.722   1.398   5.286
10027SOL    HW130980   3.770   1.331   5.228
10027SOL    HW230981   3.653   1.351   5.341
10028SOL     OW30982   3.644   0.086   2.167
10028SOL    HW130983   3.601   0.030   2.096
10028SOL    HW230984   3.715   0.032   2.213
10029SOL     OW30985   6.921   4.375   3.725
10029SOL    HW130986   6.944   4.300   3.663
10029SOL    HW230987   6.831   4.358   3.766
10030SOL     OW30988   2.131   7.007   4.485
10030SOL    HW130989   2.182   0.014   4.567
10030SOL    HW230990   2.034   7.000   4.507
10031SOL     OW30991   1.896   6.249   3.735
10031SOL    HW130992   1.973   6.276   3.791
10031SOL    HW230993   1.818   6.308   3.753
10032SOL     OW30994   3.207   5.915   4.017
10032SOL    HW130995   3.292   5.960   3.989
10032SOL    HW230996   3.129   5.962   3.978
10033SOL     OW30997   2.886   1.351   5.177
10033SOL    HW130998   2.825   1.279   5.143
10033SOL    HW230999   2.856   1.379   5.268
10034SOL     OW31000   2.603   1.219   2.155
10034SOL    HW131001   2.702   1.210   2.139
10034SOL    HW231002   2.561   1.129   2.154
10035SOL     OW31003   6.868   3.097   2.766
10035SOL    HW131004   6.877   3.197   2.772
10035SOL    HW231005   6.790   3.067   2.819
10036SOL     OW31006   0.994   0.645   6.757
10036SOL    HW131007   1.013   0.717   6.824
10036SOL    HW231008   1.079   0.614   6.716
10037SOL     OW31009   5.761   6.983   6.011
10037SOL    HW131010   5.698   6.999   6.087
10037SOL    HW231011   5.772   0.047   5.959
10038SOL     OW31012   5.162   6.355   6.634
10038SOL    HW131013   5.146   6.318   6.543
10038SOL    HW231014   5.127   6.448   6.639
10039SOL     OW31015   0.071   5.629   1.826
10039SOL    HW131016   0.151   5.660   1.776
10039SOL    HW231017   0.031   5.706   1.877
10040SOL     OW31018   2.620   0.151   0.364
10040SOL    HW131019   2.548   0.108   0.309
10040SOL    HW231020   2.704   0.097   0.358
10041SOL     OW31021   5.776   5.357   5.056
10041SOL    HW131022   5.857   5.415   5.064
10041SOL    HW231023   5.803   5.261   5.064
10042SOL     OW31024   6.738   0.721   5.317
10042SOL    HW131025   6.669   0.785   5.347
10042SOL    HW231026   6.758   0.656   5.391
10043SOL     OW31027   0.480   0.595   2.959
10043SOL    HW131028   0.392   0.642   2.957
10043SOL    HW231029   0.545   0.644   2.900
10044SOL     OW31030   2.990   2.077   6.997
10044SOL    HW131031   2.911   2.076   6.936
10044SOL    HW231032   3.050   2.000   6.975
10045SOL     OW31033   3.452   6.582   4.363
10045SOL    HW131034   3.472   6.677   4.339
10045SOL    HW231035   3.362   6.577   4.406
10046SOL     OW31036   6.820   2.004   2.025
10046SOL    HW131037   6.846   1.917   1.984
10046SOL    HW231038   6.762   1.988   2.104
10047SOL     OW31039   0.986   2.350   3.232
10047SOL    HW131040   0.911   2.288   3.212
10047SOL    HW231041   0.995   2.361   3.331
10048SOL     OW31042   3.760   2.488   1.633
10048SOL    HW131043   3.784   2.583   1.651
10048SOL    HW231044   3.748   2.439   1.719
10049SOL     OW31045   1.893   6.196   4.480
10049SOL    HW131046   1.837   6.114   4.474
10049SOL    HW231047   1.865   6.262   4.411
10050SOL     OW31048   5.801   1.316   5.018
10050SOL    HW131049   5.786   1.391   5.083
10050SOL    HW231050   5.895   1.320   4.984
10051SOL     OW31051   6.239   2.438   0.317
10051SOL    HW131052   6.318   2.485   0.354
10051SOL    HW231053   6.268   2.376   0.244
10052SOL     OW31054   1.629   4.834   1.275
10052SOL    HW131055   1.570   4.754   1.268
10052SOL    HW231056   1.723   4.805   1.291
10053SOL     OW31057   3.086   6.503   3.383
10053SOL    HW131058   3.078   6.544   3.474
10053SOL    HW231059   3.179   6.518   3.348
10054SOL     OW31060   4.320   5.678   3.906
10054SOL    HW131061   4.297   5.694   4.002
10054SOL    HW231062   4.288   5.588   3.878
10055SOL     OW31063   5.970   3.070   6.783
10055SOL    HW131064   5.894   3.057   6.846
10055SOL    HW231065   5.953   3.151   6.726
10056SOL     OW31066   5.929   4.580   2.341
10056SOL    HW131067   5.902   4.579   2.437
10056SOL    HW231068   5.931   4.675   2.308
10057SOL     OW31069   2.325   2.134   3.712
10057SOL    HW131070   2.300   2.227   3.739
10057SOL    HW231071   2.309   2.121   3.615
10058SOL     OW31072   1.074   5.008   3.719
10058SOL    HW131073   1.168   5.013   3.753
10058SOL    HW231074   1.075   4.997   3.619
10059SOL     OW31075   5.583   0.594   1.466
10059SOL    HW131076   5.570   0.496   1.485
10059SOL    HW231077   5.519   0.623   1.395
10060SOL     OW31078   2.402   2.711   2.278
10060SOL    HW131079   2.347   2.772   2.334
10060SOL    HW231080   2.392   2.736   2.182
10061SOL     OW31081   6.268   1.915   4.792
10061SOL    HW131082   6.337   1.950   4.856
10061SOL    HW231083   6.250   1.819   4.812
10062SOL     OW31084   5.419   5.797   2.844
10062SOL    HW131085   5.431   5.761   2.936
10062SOL    HW231086   5.348   5.867   2.845
10063SOL     OW31087   0.800   2.595   2.392
10063SOL    HW131088   0.709   2.575   2.354
10063SOL    HW231089   0.790   2.627   2.487
10064SOL     OW31090   5.428   5.645   5.476
10064SOL    HW131091   5.423   5.704   5.395
10064SOL    HW231092   5.439   5.702   5.558
10065SOL     OW31093   0.763   6.521   3.364
10065SOL    HW131094   0.681   6.509   3.420
10065SOL    HW231095   0.751   6.473   3.277
10066SOL     OW31096   0.677   0.517   3.307
10066SOL    HW131097   0.657   0.601   3.356
10066SOL    HW231098   0.642   0.439   3.358
10067SOL     OW31099   4.970   6.767   3.501
10067SOL    HW131100   5.015   6.773   3.411
10067SOL    HW231101   4.977   6.673   3.535
10068SOL     OW31102   5.051   3.734   5.735
10068SOL    HW131103   5.042   3.730   5.835
10068SOL    HW231104   4.961   3.746   5.694
10069SOL     OW31105   4.823   1.087   3.766
10069SOL    HW131106   4.786   1.019   3.830
10069SOL    HW231107   4.776   1.174   3.779
10070SOL     OW31108   1.478   6.896   4.516
10070SOL    HW131109   1.471   6.797   4.518
10070SOL    HW231110   1.387   6.936   4.529
10071SOL     OW31111   5.180   4.948   5.142
10071SOL    HW131112   5.273   4.973   5.171
10071SOL    HW231113   5.178   4.853   5.114
10072SOL     OW31114   1.256   0.164   3.784
10072SOL    HW131115   1.251   0.264   3.785
10072SOL    HW231116   1.336   0.135   3.836
10073SOL     OW31117   6.833   5.530   6.393
10073SOL    HW131118   6.808   5.592   6.467
10073SOL    HW231119   6.752   5.507   6.339
10074SOL     OW31120   2.612   0.254   5.762
10074SOL    HW131121   2.711   0.256   5.747
10074SOL    HW231122   2.567   0.222   5.679
10075SOL     OW31123   1.430   2.452   3.654
10075SOL    HW131124   1.337   2.489   3.656
10075SOL    HW231125   1.496   2.527   3.647
10076SOL     OW31126   5.964   0.190   3.925
10076SOL    HW131127   5.883   0.241   3.896
10076SOL    HW231128   5.949   0.153   4.017
10077SOL     OW31129   2.773   1.337   6.898
10077SOL    HW131130   2.805   1.263   6.839
10077SOL    HW231131   2.712   1.300   6.968
10078SOL     OW31132   5.492   5.885   5.665
10078SOL    HW131133   5.423   5.954   5.685
10078SOL    HW231134   5.571   5.928   5.622
10079SOL     OW31135   6.721   2.599   6.065
10079SOL    HW131136   6.773   2.638   6.140
10079SOL    HW231137   6.749   2.504   6.051
10080SOL     OW31138   1.320   2.507   5.618
10080SOL    HW131139   1.369   2.491   5.532
10080SOL    HW231140   1.229   2.543   5.598
10081SOL     OW31141   0.231   1.282   0.151
10081SOL    HW131142   0.202   1.201   0.203
10081SOL    HW231143   0.282   1.253   0.070
10082SOL     OW31144   0.219   0.341   0.784
10082SOL    HW131145   0.293   0.386   0.734
10082SOL    HW231146   0.131   0.381   0.757
10083SOL     OW31147   5.282   1.197   4.713
10083SOL    HW131148   5.334   1.260   4.655
10083SOL    HW231149   5.312   1.103   4.696
10084SOL     OW31150   2.437   1.165   6.501
10084SOL    HW131151   2.466   1.093   6.439
10084SOL    HW231152   2.338   1.158   6.516
10085SOL     OW31153   0.631   5.470   2.420
10085SOL    HW131154   0.683   5.435   2.343
10085SOL    HW231155   0.552   5.522   2.387
10086SOL     OW31156   6.747   3.582   2.425
10086SOL    HW131157   6.767   3.489   2.395
10086SOL    HW231158   6.833   3.632   2.437
10087SOL     OW31159   1.537   0.131   3.898
10087SOL    HW131160   1.592   0.213   3.909
10087SOL    HW231161   1.517   0.092   3.988
10088SOL     OW31162   6.667   0.582   4.872
10088SOL    HW131163   6.590   0.537   4.917
10088SOL    HW231164   6.724   0.627   4.941
10089SOL     OW31165   1.591   2.706   2.444
10089SOL    HW131166   1.652   2.652   2.502
10089SOL    HW231167   1.609   2.686   2.348
10090SOL     OW31168   6.915   4.797   1.676
10090SOL    HW131169   6.950   4.749   1.757
10090SOL    HW231170   6.868   4.733   1.617
10091SOL     OW31171   0.619   2.227   3.890
10091SOL    HW131172   0.699   2.224   3.830
10091SOL    HW231173   0.538   2.202   3.837
10092SOL     OW31174   2.109   2.861   4.858
10092SOL    HW131175   2.119   2.950   4.901
10092SOL    HW231176   2.082   2.793   4.927
10093SOL     OW31177   0.416   5.836   6.480
10093SOL    HW131178   0.379   5.751   6.519
10093SOL    HW231179   0.341   5.901   6.467
10094SOL     OW31180   1.322   1.194   1.978
10094SOL    HW131181   1.393   1.217   2.044
10094SOL    HW231182   1.364   1.159   1.895
10095SOL     OW31183   0.387   1.477   5.781
10095SOL    HW131184   0.355   1.428   5.700
10095SOL    HW231185   0.316   1.541   5.811
10096SOL     OW31186   0.025   5.370   1.923
10096SOL    HW131187   0.106   5.338   1.972
10096SOL    HW231188   0.038   5.466   1.897
10097SOL     OW31189   1.618   2.478   5.984
10097SOL    HW131190   1.570   2.417   5.920
10097SOL    HW231191   1.572   2.567   5.985
10098SOL     OW31192   3.454   5.366   6.693
10098SOL    HW131193   3.472   5.328   6.602
10098SOL    HW231194   3.419   5.459   6.684
10099SOL     OW31195   6.876   4.749   4.698
10099SOL    HW131196   6.863   4.848   4.691
10099SOL    HW231197   6.971   4.729   4.721
10100SOL     OW31198   5.456   1.059   5.434
10100SOL    HW131199   5.389   1.025   5.500
10100SOL    HW231200   5.443   1.013   5.346
10101SOL     OW31201   6.971   5.008   2.475
10101SOL    HW131202   7.017   5.019   2.387
10101SOL    HW231203   6.982   4.914   2.507
10102SOL     OW31204   3.843   0.329   3.569
10102SOL    HW131205   3.872   0.237   3.593
10102SOL    HW231206   3.919   0.379   3.528
10103SOL     OW31207   1.621   1.929   0.344
10103SOL    HW131208   1.718   1.903   0.350
10103SOL    HW231209   1.564   1.848   0.357
10104SOL     OW31210   1.625   5.895   5.681
10104SOL    HW131211   1.716   5.908   5.721
10104SOL    HW231212   1.573   5.830   5.736
10105SOL     OW31213   2.966   0.439   7.009
10105SOL    HW131214   2.946   0.369   0.056
10105SOL    HW231215   2.922   0.414   6.922
10106SOL     OW31216   5.168   5.553   1.204
10106SOL    HW131217   5.259   5.542   1.243
10106SOL    HW231218   5.175   5.558   1.104
10107SOL     OW31219   5.638   1.037   5.650
10107SOL    HW131220   5.578   1.041   5.570
10107SOL    HW231221   5.624   0.949   5.697
10108SOL     OW31222   5.885   6.585   6.733
10108SOL    HW131223   5.859   6.489   6.722
10108SOL    HW231224   5.954   6.592   6.805
10109SOL     OW31225   4.586   5.802   3.530
10109SOL    HW131226   4.665   5.863   3.539
10109SOL    HW231227   4.569   5.757   3.618
10110SOL     OW31228   3.205   1.323   5.526
10110SOL    HW131229   3.212   1.378   5.443
10110SOL    HW231230   3.109   1.303   5.545
10111SOL     OW31231   0.184   2.514   2.712
10111SOL    HW131232   0.253   2.452   2.750
10111SOL    HW231233   0.225   2.570   2.641
10112SOL     OW31234   4.351   3.960   6.090
10112SOL    HW131235   4.286   3.916   6.029
10112SOL    HW231236   4.444   3.936   6.064
10113SOL     OW31237   4.336   6.651   0.698
10113SOL    HW131238   4.289   6.592   0.764
10113SOL    HW231239   4.418   6.604   0.664
10114SOL     OW31240   4.108   1.782   1.597
10114SOL    HW131241   4.058   1.786   1.683
10114SOL    HW231242   4.045   1.801   1.521
10115SOL     OW31243   1.135   1.910   3.907
10115SOL    HW131244   1.133   1.828   3.849
10115SOL    HW231245   1.041   1.941   3.923
10116SOL     OW31246   0.715   0.742   0.776
10116SOL    HW131247   0.800   0.716   0.821
10116SOL    HW231248   0.649   0.776   0.843
10117SOL     OW31249   4.919   0.931   5.798
10117SOL    HW131250   4.854   0.955   5.871
10117SOL    HW231251   4.996   0.882   5.838
10118SOL     OW31252   5.885   4.967   2.465
10118SOL    HW131253   5.972   4.993   2.421
10118SOL    HW231254   5.880   5.010   2.556
10119SOL     OW31255   2.406   0.495   5.686
10119SOL    HW131256   2.437   0.445   5.767
10119SOL    HW231257   2.340   0.438   5.635
10120SOL     OW31258   5.922   3.258   3.497
10120SOL    HW131259   5.930   3.326   3.425
10120SOL    HW231260   5.827   3.249   3.525
10121SOL     OW31261   5.722   4.856   4.176
10121SOL    HW131262   5.747   4.793   4.250
10121SOL    HW231263   5.805   4.898   4.140
10122SOL     OW31264   5.299   3.401   6.513
10122SOL    HW131265   5.273   3.329   6.577
10122SOL    HW231266   5.217   3.440   6.471
10123SOL     OW31267   6.791   6.666   0.342
10123SOL    HW131268   6.807   6.676   0.244
10123SOL    HW231269   6.876   6.679   0.392
10124SOL     OW31270   2.910   4.666   1.004
10124SOL    HW131271   2.916   4.757   1.044
10124SOL    HW231272   2.998   4.619   1.015
10125SOL     OW31273   1.837   0.462   1.094
10125SOL    HW131274   1.778   0.417   1.161
10125SOL    HW231275   1.823   0.420   1.004
10126SOL     OW31276   5.252   5.071   6.985
10126SOL    HW131277   5.313   5.100   6.911
10126SOL    HW231278   5.305   5.031   0.038
10127SOL     OW31279   3.541   4.564   5.405
10127SOL    HW131280   3.473   4.504   5.363
10127SOL    HW231281   3.496   4.646   5.441
10128SOL     OW31282   0.025   1.970   1.182
10128SOL    HW131283   0.107   2.024   1.162
10128SOL    HW231284   6.997   1.951   1.098
10129SOL     OW31285   5.038   2.923   3.514
10129SOL    HW131286   4.947   2.905   3.476
10129SOL    HW231287   5.041   3.016   3.551
10130SOL     OW31288   6.250   5.831   1.310
10130SOL    HW131289   6.156   5.865   1.312
10130SOL    HW231290   6.309   5.902   1.270
10131SOL     OW31291   6.694   0.310   0.482
10131SOL    HW131292   6.745   0.319   0.396
10131SOL    HW231293   6.596   0.300   0.462
10132SOL     OW31294   2.455   7.020   2.857
10132SOL    HW131295   2.368   0.014   2.903
10132SOL    HW231296   2.484   0.083   2.812
10133SOL     OW31297   5.670   4.861   2.739
10133SOL    HW131298   5.619   4.907   2.667
10133SOL    HW231299   5.741   4.803   2.699
10134SOL     OW31300   0.340   1.230   2.112
10134SOL    HW131301   0.424   1.227   2.166
10134SOL    HW231302   0.276   1.294   2.153
10135SOL     OW31303   2.840   5.998   2.639
10135SOL    HW131304   2.777   6.075   2.636
10135SOL    HW231305   2.934   6.032   2.642
10136SOL     OW31306   6.816   0.309   2.375
10136SOL    HW131307   6.830   0.211   2.388
10136SOL    HW231308   6.887   0.345   2.314
10137SOL     OW31309   5.640   5.122   4.274
10137SOL    HW131310   5.673   5.135   4.367
10137SOL    HW231311   5.654   5.026   4.247
10138SOL     OW31312   5.529   2.376   6.680
10138SOL    HW131313   5.454   2.410   6.735
10138SOL    HW231314   5.574   2.300   6.728
10139SOL     OW31315   3.920   3.329   3.235
10139SOL    HW131316   3.833   3.306   3.191
10139SOL    HW231317   3.976   3.382   3.172
10140SOL     OW31318   0.791   5.222   4.705
10140SOL    HW131319   0.754   5.134   4.733
10140SOL    HW231320   0.755   5.294   4.766
10141SOL     OW31321   2.160   0.787   3.745
10141SOL    HW131322   2.233   0.799   3.677
10141SOL    HW231323   2.086   0.851   3.725
10142SOL     OW31324   4.792   6.153   4.277
10142SOL    HW131325   4.818   6.136   4.182
10142SOL    HW231326   4.741   6.074   4.312
10143SOL     OW31327   4.722   6.090   1.416
10143SOL    HW131328   4.684   6.114   1.505
10143SOL    HW231329   4.804   6.035   1.428
10144SOL     OW31330   2.527   5.211   3.253
10144SOL    HW131331   2.609   5.167   3.290
10144SOL    HW231332   2.522   5.305   3.286
10145SOL     OW31333   3.095   6.668   5.708
10145SOL    HW131334   3.006   6.630   5.685
10145SOL    HW231335   3.118   6.645   5.803
10146SOL     OW31336   5.420   4.821   4.345
10146SOL    HW131337   5.491   4.774   4.398
10146SOL    HW231338   5.377   4.756   4.283
10147SOL     OW31339   4.825   5.760   4.486
10147SOL    HW131340   4.900   5.817   4.451
10147SOL    HW231341   4.863   5.685   4.541
10148SOL     OW31342   5.937   5.138   0.118
10148SOL    HW131343   5.918   5.148   0.216
10148SOL    HW231344   5.873   5.193   0.065
10149SOL     OW31345   4.455   3.819   0.839
10149SOL    HW131346   4.373   3.801   0.785
10149SOL    HW231347   4.433   3.814   0.936
10150SOL     OW31348   5.581   4.150   0.978
10150SOL    HW131349   5.667   4.151   0.926
10150SOL    HW231350   5.563   4.057   1.009
10151SOL     OW31351   1.184   6.126   5.500
10151SOL    HW131352   1.171   6.118   5.401
10151SOL    HW231353   1.254   6.062   5.530
10152SOL     OW31354   0.026   5.439   3.748
10152SOL    HW131355   6.959   5.486   3.739
10152SOL    HW231356   0.016   5.358   3.806
10153SOL     OW31357   5.797   6.399   3.898
10153SOL    HW131358   5.872   6.383   3.834
10153SOL    HW231359   5.720   6.442   3.851
10154SOL     OW31360   6.554   5.697   5.509
10154SOL    HW131361   6.522   5.735   5.595
10154SOL    HW231362   6.652   5.714   5.499
10155SOL     OW31363   3.614   1.374   6.091
10155SOL    HW131364   3.595   1.454   6.149
10155SOL    HW231365   3.637   1.405   5.999
10156SOL     OW31366   5.580   0.107   2.458
10156SOL    HW131367   5.503   0.170   2.458
10156SOL    HW231368   5.633   0.119   2.375
10157SOL     OW31369   4.789   0.738   4.605
10157SOL    HW131370   4.855   0.755   4.532
10157SOL    HW231371   4.748   0.824   4.633
10158SOL     OW31372   4.583   3.714   6.053
10158SOL    HW131373   4.638   3.631   6.040
10158SOL    HW231374   4.567   3.758   5.965
10159SOL     OW31375   1.400   1.113   6.548
10159SOL    HW131376   1.465   1.079   6.480
10159SOL    HW231377   1.349   1.190   6.510
10160SOL     OW31378   1.167   5.639   3.501
10160SOL    HW131379   1.157   5.676   3.408
10160SOL    HW231380   1.111   5.556   3.510
10161SOL     OW31381   2.181   6.134   6.047
10161SOL    HW131382   2.168   6.202   5.974
10161SOL    HW231383   2.112   6.147   6.117
10162SOL     OW31384   3.545   2.249   7.010
10162SOL    HW131385   3.615   2.203   6.956
10162SOL    HW231386   3.473   2.283   6.949
10163SOL     OW31387   6.960   2.722   5.477
10163SOL    HW131388   6.924   2.776   5.552
10163SOL    HW231389   7.018   2.779   5.419
10164SOL     OW31390   0.825   2.385   5.287
10164SOL    HW131391   0.921   2.358   5.281
10164SOL    HW231392   0.766   2.308   5.262
10165SOL     OW31393   6.806   2.153   3.523
10165SOL    HW131394   6.860   2.135   3.605
10165SOL    HW231395   6.797   2.069   3.469
10166SOL     OW31396   0.527   1.094   2.296
10166SOL    HW131397   0.623   1.078   2.273
10166SOL    HW231398   0.489   1.010   2.336
10167SOL     OW31399   4.849   0.604   1.086
10167SOL    HW131400   4.859   0.546   1.167
10167SOL    HW231401   4.930   0.595   1.028
10168SOL     OW31402   6.601   4.120   4.410
10168SOL    HW131403   6.680   4.181   4.418
10168SOL    HW231404   6.584   4.076   4.498
10169SOL     OW31405   6.398   4.148   4.231
10169SOL    HW131406   6.426   4.081   4.162
10169SOL    HW231407   6.472   4.159   4.297
10170SOL     OW31408   1.485   3.843   4.813
10170SOL    HW131409   1.550   3.911   4.846
10170SOL    HW231410   1.505   3.822   4.718
10171SOL     OW31411   6.338   3.102   5.659
10171SOL    HW131412   6.350   3.192   5.618
10171SOL    HW231413   6.358   3.107   5.757
10172SOL     OW31414   4.410   0.971   4.170
10172SOL    HW131415   4.390   0.965   4.268
10172SOL    HW231416   4.324   0.971   4.119
10173SOL     OW31417   2.278   1.969   2.459
10173SOL    HW131418   2.294   2.064   2.431
10173SOL    HW231419   2.306   1.907   2.385
10174SOL     OW31420   6.074   4.669   0.699
10174SOL    HW131421   6.011   4.595   0.723
10174SOL    HW231422   6.046   4.753   0.746
10175SOL     OW31423   6.302   2.242   6.482
10175SOL    HW131424   6.263   2.185   6.410
10175SOL    HW231425   6.271   2.336   6.471
10176SOL     OW31426   2.256   3.746   0.127
10176SOL    HW131427   2.217   3.700   0.048
10176SOL    HW231428   2.208   3.717   0.210
10177SOL     OW31429   2.120   0.335   5.897
10177SOL    HW131430   2.060   0.404   5.856
10177SOL    HW231431   2.214   0.367   5.896
10178SOL     OW31432   5.779   3.020   5.118
10178SOL    HW131433   5.701   3.039   5.058
10178SOL    HW231434   5.747   3.014   5.213
10179SOL     OW31435   0.642   3.124   6.251
10179SOL    HW131436   0.615   3.216   6.281
10179SOL    HW231437   0.726   3.130   6.197
10180SOL     OW31438   2.559   6.779   5.728
10180SOL    HW131439   2.636   6.842   5.725
10180SOL    HW231440   2.514   6.778   5.638
10181SOL     OW31441   5.980   3.612   1.677
10181SOL    HW131442   5.952   3.572   1.764
10181SOL    HW231443   6.065   3.570   1.647
10182SOL     OW31444   4.778   1.992   0.434
10182SOL    HW131445   4.852   2.046   0.395
10182SOL    HW231446   4.770   1.905   0.385
10183SOL     OW31447   1.700   1.622   6.667
10183SOL    HW131448   1.621   1.683   6.659
10183SOL    HW231449   1.781   1.676   6.691
10184SOL     OW31450   4.711   0.268   6.739
10184SOL    HW131451   4.724   0.176   6.778
10184SOL    HW231452   4.627   0.307   6.775
10185SOL     OW31453   4.618   1.191   6.954
10185SOL    HW131454   4.636   1.264   6.888
10185SOL    HW231455   4.634   1.225   0.025
10186SOL     OW31456   4.368   2.002   2.959
10186SOL    HW131457   4.334   1.962   3.044
10186SOL    HW231458   4.322   1.959   2.881
10187SOL     OW31459   0.817   2.428   2.114
10187SOL    HW131460   0.750   2.365   2.153
10187SOL    HW231461   0.852   2.390   2.028
10188SOL     OW31462   3.686   4.918   1.223
10188SOL    HW131463   3.700   4.860   1.303
10188SOL    HW231464   3.723   4.874   1.142
10189SOL     OW31465   1.321   6.542   5.602
10189SOL    HW131466   1.327   6.637   5.572
10189SOL    HW231467   1.412   6.506   5.618
10190SOL     OW31468   4.785   2.563   0.137
10190SOL    HW131469   4.758   2.466   0.138
10190SOL    HW231470   4.858   2.576   0.071
10191SOL     OW31471   6.955   4.677   6.633
10191SOL    HW131472   6.995   4.659   6.544
10191SOL    HW231473   0.003   4.663   6.704
10192SOL     OW31474   3.585   1.372   0.137
10192SOL    HW131475   3.556   1.455   0.089
10192SOL    HW231476   3.516   1.301   0.124
10193SOL     OW31477   3.970   4.192   0.470
10193SOL    HW131478   3.934   4.272   0.421
10193SOL    HW231479   4.032   4.223   0.543
10194SOL     OW31480   5.255   3.214   5.566
10194SOL    HW131481   5.173   3.166   5.599
10194SOL    HW231482   5.232   3.310   5.549
10195SOL     OW31483   6.106   4.205   1.832
10195SOL    HW131484   6.054   4.134   1.879
10195SOL    HW231485   6.045   4.260   1.775
10196SOL     OW31486   0.437   1.584   4.505
10196SOL    HW131487   0.379   1.513   4.465
10196SOL    HW231488   0.423   1.586   4.604
10197SOL     OW31489   5.520   0.734   6.857
10197SOL    HW131490   5.439   0.785   6.828
10197SOL    HW231491   5.517   0.642   6.817
10198SOL     OW31492   4.563   6.797   3.410
10198SOL    HW131493   4.568   6.705   3.449
10198SOL    HW231494   4.537   6.862   3.482
10199SOL     OW31495   0.809   2.071   5.572
10199SOL    HW131496   0.737   2.139   5.583
10199SOL    HW231497   0.824   2.024   5.660
10200SOL     OW31498   5.243   1.672   1.502
10200SOL    HW131499   5.306   1.599   1.527
10200SOL    HW231500   5.150   1.648   1.531
10201SOL     OW31501   0.977   3.763   0.686
10201SOL    HW131502   0.928   3.781   0.771
10201SOL    HW231503   1.037   3.841   0.665
10202SOL     OW31504   4.570   0.696   4.264
10202SOL    HW131505   4.480   0.676   4.223
10202SOL    HW231506   4.606   0.780   4.223
10203SOL     OW31507   6.893   2.707   4.734
10203SOL    HW131508   6.795   2.723   4.737
10203SOL    HW231509   6.913   2.615   4.770
10204SOL     OW31510   5.519   4.873   6.202
10204SOL    HW131511   5.542   4.812   6.127
10204SOL    HW231512   5.578   4.954   6.199
10205SOL     OW31513   1.082   0.772   6.187
10205SOL    HW131514   1.138   0.843   6.143
10205SOL    HW231515   1.066   0.798   6.282
10206SOL     OW31516   1.633   0.769   4.896
10206SOL    HW131517   1.534   0.782   4.903
10206SOL    HW231518   1.671   0.750   4.986
10207SOL     OW31519   2.403   2.097   4.714
10207SOL    HW131520   2.410   2.190   4.750
10207SOL    HW231521   2.485   2.046   4.738
10208SOL     OW31522   6.879   6.211   5.558
10208SOL    HW131523   6.907   6.122   5.521
10208SOL    HW231524   6.859   6.273   5.483
10209SOL     OW31525   0.346   6.905   5.852
10209SOL    HW131526   0.345   6.861   5.762
10209SOL    HW231527   0.441   6.924   5.879
10210SOL     OW31528   3.116   0.226   1.672
10210SOL    HW131529   3.055   0.234   1.751
10210SOL    HW231530   3.097   0.141   1.623
10211SOL     OW31531   5.282   5.711   5.887
10211SOL    HW131532   5.377   5.741   5.889
10211SOL    HW231533   5.241   5.735   5.799
10212SOL     OW31534   0.910   0.451   6.316
10212SOL    HW131535   0.846   0.415   6.248
10212SOL    HW231536   0.859   0.489   6.393
10213SOL     OW31537   6.691   2.356   1.123
10213SOL    HW131538   6.781   2.368   1.080
10213SOL    HW231539   6.703   2.328   1.218
10214SOL     OW31540   1.181   2.176   6.782
10214SOL    HW131541   1.261   2.213   6.828
10214SOL    HW231542   1.179   2.208   6.687
10215SOL     OW31543   2.935   3.595   2.185
10215SOL    HW131544   2.861   3.529   2.199
10215SOL    HW231545   2.910   3.682   2.229
10216SOL     OW31546   0.513   6.259   2.190
10216SOL    HW131547   0.418   6.238   2.212
10216SOL    HW231548   0.560   6.294   2.271
10217SOL     OW31549   3.131   1.632   4.861
10217SOL    HW131550   3.072   1.623   4.781
10217SOL    HW231551   3.225   1.609   4.836
10218SOL     OW31552   1.004   3.238   2.528
10218SOL    HW131553   0.975   3.148   2.496
10218SOL    HW231554   1.052   3.286   2.455
10219SOL     OW31555   7.009   5.778   3.135
10219SOL    HW131556   6.978   5.704   3.196
10219SOL    HW231557   0.019   5.739   3.049
10220SOL     OW31558   3.420   3.163   0.300
10220SOL    HW131559   3.368   3.078   0.292
10220SOL    HW231560   3.438   3.200   0.209
10221SOL     OW31561   0.746   5.519   4.141
10221SOL    HW131562   0.817   5.514   4.212
10221SOL    HW231563   0.663   5.559   4.180
10222SOL     OW31564   3.446   3.747   3.834
10222SOL    HW131565   3.456   3.753   3.734
10222SOL    HW231566   3.511   3.810   3.877
10223SOL     OW31567   2.302   6.602   0.765
10223SOL    HW131568   2.228   6.602   0.832
10223SOL    HW231569   2.389   6.619   0.812
10224SOL     OW31570   6.852   4.267   2.751
10224SOL    HW131571   6.937   4.273   2.804
10224SOL    HW231572   6.874   4.238   2.657
10225SOL     OW31573   1.979   4.027   6.103
10225SOL    HW131574   2.064   3.976   6.094
10225SOL    HW231575   1.925   4.015   6.019
10226SOL     OW31576   5.229   3.800   0.355
10226SOL    HW131577   5.163   3.725   0.346
10226SOL    HW231578   5.227   3.857   0.273
10227SOL     OW31579   5.753   3.491   1.433
10227SOL    HW131580   5.852   3.503   1.444
10227SOL    HW231581   5.733   3.396   1.411
10228SOL     OW31582   4.999   0.350   0.808
10228SOL    HW131583   5.018   0.289   0.732
10228SOL    HW231584   5.030   0.308   0.893
10229SOL     OW31585   0.394   2.522   5.049
10229SOL    HW131586   0.491   2.499   5.045
10229SOL    HW231587   0.342   2.440   5.072
10230SOL     OW31588   6.825   6.121   1.625
10230SOL    HW131589   6.847   6.095   1.719
10230SOL    HW231590   6.785   6.043   1.577
10231SOL     OW31591   0.503   4.555   2.737
10231SOL    HW131592   0.585   4.510   2.701
10231SOL    HW231593   0.440   4.486   2.773
10232SOL     OW31594   4.810   4.640   2.806
10232SOL    HW131595   4.733   4.609   2.750
10232SOL    HW231596   4.877   4.567   2.813
10233SOL     OW31597   2.681   4.312   5.665
10233SOL    HW131598   2.587   4.280   5.658
10233SOL    HW231599   2.728   4.298   5.578
10234SOL     OW31600   0.844   1.022   2.270
10234SOL    HW131601   0.910   1.013   2.196
10234SOL    HW231602   0.868   1.102   2.326
10235SOL     OW31603   1.281   1.390   2.828
10235SOL    HW131604   1.271   1.325   2.753
10235SOL    HW231605   1.240   1.352   2.911
10236SOL     OW31606   1.574   6.612   2.479
10236SOL    HW131607   1.622   6.584   2.396
10236SOL    HW231608   1.488   6.658   2.453
10237SOL     OW31609   0.470   3.714   4.521
10237SOL    HW131610   0.522   3.703   4.606
10237SOL    HW231611   0.373   3.725   4.543
10238SOL     OW31612   2.695   0.116   1.594
10238SOL    HW131613   2.619   0.126   1.529
10238SOL    HW231614   2.766   0.183   1.572
10239SOL     OW31615   0.622   1.816   4.541
10239SOL    HW131616   0.573   1.836   4.626
10239SOL    HW231617   0.586   1.732   4.501
10240SOL     OW31618   1.837   6.198   0.697
10240SOL    HW131619   1.898   6.233   0.626
10240SOL    HW231620   1.762   6.263   0.711
10241SOL     OW31621   4.359   3.256   1.303
10241SOL    HW131622   4.362   3.270   1.204
10241SOL    HW231623   4.378   3.342   1.349
10242SOL     OW31624   6.826   2.867   0.013
10242SOL    HW131625   6.907   2.910   0.054
10242SOL    HW231626   6.797   2.920   6.954
10243SOL     OW31627   3.023   6.244   2.157
10243SOL    HW131628   3.088   6.281   2.090
10243SOL    HW231629   2.936   6.292   2.148
10244SOL     OW31630   2.880   5.487   2.180
10244SOL    HW131631   2.929   5.401   2.196
10244SOL    HW231632   2.781   5.470   2.188
10245SOL     OW31633   5.212   4.477   0.998
10245SOL    HW131634   5.173   4.515   0.914
10245SOL    HW231635   5.139   4.464   1.065
10246SOL     OW31636   3.307   3.015   4.023
10246SOL    HW131637   3.352   3.103   4.009
10246SOL    HW231638   3.290   3.000   4.120
10247SOL     OW31639   1.103   3.302   4.536
10247SOL    HW131640   1.141   3.213   4.559
10247SOL    HW231641   1.005   3.303   4.555
10248SOL     OW31642   0.828   0.942   5.129
10248SOL    HW131643   0.876   0.941   5.041
10248SOL    HW231644   0.772   0.859   5.137
10249SOL     OW31645   2.436   5.201   6.183
10249SOL    HW131646   2.440   5.293   6.222
10249SOL    HW231647   2.524   5.155   6.197
10250SOL     OW31648   3.250   2.182   0.650
10250SOL    HW131649   3.298   2.252   0.703
10250SOL    HW231650   3.151   2.197   0.656
10251SOL     OW31651   1.728   0.657   4.494
10251SOL    HW131652   1.662   0.706   4.551
10251SOL    HW231653   1.697   0.563   4.479
10252SOL     OW31654   4.945   4.867   5.782
10252SOL    HW131655   4.863   4.856   5.837
10252SOL    HW231656   4.929   4.934   5.710
10253SOL     OW31657   4.045   6.167   6.499
10253SOL    HW131658   3.953   6.160   6.536
10253SOL    HW231659   4.066   6.084   6.446
10254SOL     OW31660   6.588   1.580   5.382
10254SOL    HW131661   6.585   1.606   5.478
10254SOL    HW231662   6.547   1.489   5.371
10255SOL     OW31663   3.934   4.394   1.588
10255SOL    HW131664   4.027   4.399   1.625
10255SOL    HW231665   3.876   4.345   1.652
10256SOL     OW31666   3.577   1.175   4.731
10256SOL    HW131667   3.534   1.103   4.786
10256SOL    HW231668   3.585   1.258   4.786
10257SOL     OW31669   3.976   6.019   3.226
10257SOL    HW131670   3.944   5.927   3.200
10257SOL    HW231671   3.968   6.080   3.147
10258SOL     OW31672   2.718   1.475   2.143
10258SOL    HW131673   2.658   1.555   2.134
10258SOL    HW231674   2.666   1.398   2.178
10259SOL     OW31675   1.766   4.101   3.936
10259SOL    HW131676   1.672   4.080   3.910
10259SOL    HW231677   1.777   4.088   4.035
10260SOL     OW31678   0.473   0.113   3.213
10260SOL    HW131679   0.379   0.085   3.232
10260SOL    HW231680   0.477   0.161   3.125
10261SOL     OW31681   0.310   4.067   0.754
10261SOL    HW131682   0.260   3.988   0.720
10261SOL    HW231683   0.246   4.143   0.770
10262SOL     OW31684   3.709   0.877   6.946
10262SOL    HW131685   3.784   0.943   6.954
10262SOL    HW231686   3.730   0.795   7.000
10263SOL     OW31687   5.638   0.712   2.789
10263SOL    HW131688   5.595   0.657   2.861
10263SOL    HW231689   5.665   0.801   2.826
10264SOL     OW31690   6.685   0.518   6.615
10264SOL    HW131691   6.713   0.432   6.573
10264SOL    HW231692   6.586   0.530   6.606
10265SOL     OW31693   1.772   1.899   1.401
10265SOL    HW131694   1.817   1.810   1.400
10265SOL    HW231695   1.691   1.896   1.459
10266SOL     OW31696   2.488   3.530   1.705
10266SOL    HW131697   2.492   3.627   1.679
10266SOL    HW231698   2.398   3.511   1.745
10267SOL     OW31699   6.405   0.175   0.403
10267SOL    HW131700   6.415   0.095   0.344
10267SOL    HW231701   6.319   0.220   0.384
10268SOL     OW31702   3.747   6.209   2.235
10268SOL    HW131703   3.726   6.201   2.138
10268SOL    HW231704   3.664   6.232   2.285
10269SOL     OW31705   2.195   1.883   0.917
10269SOL    HW131706   2.222   1.944   0.842
10269SOL    HW231707   2.209   1.788   0.889
10270SOL     OW31708   2.919   0.345   3.201
10270SOL    HW131709   2.966   0.346   3.290
10270SOL    HW231710   2.912   0.438   3.166
10271SOL     OW31711   1.895   1.274   6.698
10271SOL    HW131712   1.941   1.357   6.669
10271SOL    HW231713   1.827   1.247   6.629
10272SOL     OW31714   6.298   0.126   4.548
10272SOL    HW131715   6.220   0.109   4.488
10272SOL    HW231716   6.371   0.171   4.496
10273SOL     OW31717   2.319   5.347   4.055
10273SOL    HW131718   2.410   5.309   4.075
10273SOL    HW231719   2.318   5.445   4.075
10274SOL     OW31720   0.694   4.461   4.788
10274SOL    HW131721   0.774   4.450   4.729
10274SOL    HW231722   0.700   4.396   4.864
10275SOL     OW31723   6.526   0.806   1.818
10275SOL    HW131724   6.607   0.861   1.838
10275SOL    HW231725   6.539   0.714   1.853
10276SOL     OW31726   2.931   5.422   5.338
10276SOL    HW131727   2.963   5.515   5.320
10276SOL    HW231728   2.876   5.422   5.421
10277SOL     OW31729   1.278   5.938   4.190
10277SOL    HW131730   1.214   5.906   4.260
10277SOL    HW231731   1.227   5.975   4.113
10278SOL     OW31732   6.590   6.967   4.859
10278SOL    HW131733   6.633   6.938   4.773
10278SOL    HW231734   6.648   0.014   4.904
10279SOL     OW31735   1.301   5.533   3.921
10279SOL    HW131736   1.355   5.449   3.918
10279SOL    HW231737   1.207   5.514   3.891
10280SOL     OW31738   6.485   4.704   0.436
10280SOL    HW131739   6.385   4.706   0.446
10280SOL    HW231740   6.518   4.794   0.409
10281SOL     OW31741   6.343   1.137   3.291
10281SOL    HW131742   6.430   1.090   3.278
10281SOL    HW231743   6.316   1.132   3.387
10282SOL     OW31744   5.052   3.200   3.566
10282SOL    HW131745   5.145   3.203   3.602
10282SOL    HW231746   5.041   3.272   3.496
10283SOL     OW31747   0.717   2.555   0.891
10283SOL    HW131748   0.755   2.598   0.973
10283SOL    HW231749   0.648   2.615   0.851
10284SOL     OW31750   6.926   4.103   3.913
10284SOL    HW131751   6.917   4.199   3.939
10284SOL    HW231752   6.922   4.096   3.813
10285SOL     OW31753   6.596   6.935   5.731
10285SOL    HW131754   6.651   6.905   5.808
10285SOL    HW231755   6.637   7.018   5.691
10286SOL     OW31756   2.717   1.552   3.195
10286SOL    HW131757   2.808   1.573   3.232
10286SOL    HW231758   2.662   1.635   3.191
10287SOL     OW31759   1.377   5.523   2.450
10287SOL    HW131760   1.444   5.452   2.430
10287SOL    HW231761   1.380   5.593   2.379
10288SOL     OW31762   3.738   5.938   4.955
10288SOL    HW131763   3.733   5.840   4.936
10288SOL    HW231764   3.656   5.967   5.005
10289SOL     OW31765   4.009   6.217   0.163
10289SOL    HW131766   4.039   6.121   0.162
10289SOL    HW231767   4.089   6.276   0.154
10290SOL     OW31768   3.207   3.238   1.843
10290SOL    HW131769   3.262   3.285   1.773
10290SOL    HW231770   3.162   3.306   1.901
10291SOL     OW31771   2.341   1.849   2.217
10291SOL    HW131772   2.427   1.867   2.170
10291SOL    HW231773   2.267   1.900   2.172
10292SOL     OW31774   0.115   6.962   6.006
10292SOL    HW131775   0.205   6.940   5.968
10292SOL    HW231776   0.055   6.883   5.995
10293SOL     OW31777   1.307   3.730   5.269
10293SOL    HW131778   1.353   3.816   5.293
10293SOL    HW231779   1.296   3.725   5.170
10294SOL     OW31780   3.395   0.752   2.440
10294SOL    HW131781   3.354   0.752   2.349
10294SOL    HW231782   3.477   0.695   2.440
10295SOL     OW31783   1.046   1.288   6.694
10295SOL    HW131784   1.132   1.332   6.720
10295SOL    HW231785   0.986   1.357   6.651
10296SOL     OW31786   6.240   1.662   5.787
10296SOL    HW131787   6.298   1.605   5.729
10296SOL    HW231788   6.149   1.670   5.747
10297SOL     OW31789   3.714   1.348   0.401
10297SOL    HW131790   3.650   1.325   0.327
10297SOL    HW231791   3.808   1.343   0.367
10298SOL     OW31792   0.554   2.411   2.409
10298SOL    HW131793   0.594   2.415   2.501
10298SOL    HW231794   0.607   2.348   2.352
10299SOL     OW31795   4.416   0.373   2.647
10299SOL    HW131796   4.422   0.404   2.743
10299SOL    HW231797   4.506   0.339   2.618
10300SOL     OW31798   1.326   3.992   1.469
10300SOL    HW131799   1.255   3.955   1.410
10300SOL    HW231800   1.298   3.985   1.565
10301SOL     OW31801   3.838   0.678   0.195
10301SOL    HW131802   3.903   0.641   0.262
10301SOL    HW231803   3.802   0.765   0.228
10302SOL     OW31804   2.797   6.358   4.880
10302SOL    HW131805   2.755   6.269   4.860
10302SOL    HW231806   2.840   6.355   4.970
10303SOL     OW31807   0.389   4.996   4.724
10303SOL    HW131808   0.306   5.049   4.710
10303SOL    HW231809   0.367   4.909   4.768
10304SOL     OW31810   5.819   6.326   0.801
10304SOL    HW131811   5.850   6.371   0.885
10304SOL    HW231812   5.725   6.294   0.813
10305SOL     OW31813   3.079   3.686   5.981
10305SOL    HW131814   3.142   3.642   5.919
10305SOL    HW231815   3.019   3.748   5.930
10306SOL     OW31816   4.095   0.295   0.882
10306SOL    HW131817   4.174   0.354   0.867
10306SOL    HW231818   4.011   0.347   0.867
10307SOL     OW31819   1.682   0.351   5.695
10307SOL    HW131820   1.734   0.282   5.646
10307SOL    HW231821   1.637   0.308   5.774
10308SOL     OW31822   3.080   4.608   1.719
10308SOL    HW131823   3.163   4.562   1.688
10308SOL    HW231824   3.012   4.540   1.746
10309SOL     OW31825   0.187   0.669   5.717
10309SOL    HW131826   0.206   0.670   5.619
10309SOL    HW231827   0.215   0.757   5.757
10310SOL     OW31828   2.538   3.940   5.532
10310SOL    HW131829   2.618   3.914   5.585
10310SOL    HW231830   2.505   3.862   5.480
10311SOL     OW31831   5.064   5.508   0.022
10311SOL    HW131832   5.061   5.604   7.016
10311SOL    HW231833   4.975   5.480   0.057
10312SOL     OW31834   3.615   6.816   2.084
10312SOL    HW131835   3.660   6.728   2.080
10312SOL    HW231836   3.641   6.871   2.005
10313SOL     OW31837   5.273   6.687   2.510
10313SOL    HW131838   5.256   6.664   2.606
10313SOL    HW231839   5.322   6.775   2.505
10314SOL     OW31840   0.474   0.373   0.888
10314SOL    HW131841   0.379   0.358   0.914
10314SOL    HW231842   0.478   0.443   0.817
10315SOL     OW31843   5.775   5.436   3.623
10315SOL    HW131844   5.834   5.467   3.548
10315SOL    HW231845   5.679   5.449   3.597
10316SOL     OW31846   0.640   1.273   0.120
10316SOL    HW131847   0.566   1.223   0.074
10316SOL    HW231848   0.723   1.268   0.064
10317SOL     OW31849   3.199   6.028   5.170
10317SOL    HW131850   3.298   6.044   5.170
10317SOL    HW231851   3.177   5.952   5.109
10318SOL     OW31852   6.612   0.237   0.101
10318SOL    HW131853   6.691   0.258   0.044
10318SOL    HW231854   6.539   0.199   0.044
10319SOL     OW31855   0.662   4.409   3.910
10319SOL    HW131856   0.624   4.480   3.850
10319SOL    HW231857   0.617   4.322   3.889
10320SOL     OW31858   0.549   6.872   3.143
10320SOL    HW131859   0.648   6.861   3.133
10320SOL    HW231860   0.526   6.969   3.140
10321SOL     OW31861   5.594   2.879   2.303
10321SOL    HW131862   5.650   2.870   2.386
10321SOL    HW231863   5.627   2.957   2.249
10322SOL     OW31864   4.613   4.418   4.941
10322SOL    HW131865   4.592   4.393   5.036
10322SOL    HW231866   4.530   4.450   4.896
10323SOL     OW31867   1.158   4.143   5.961
10323SOL    HW131868   1.090   4.070   5.962
10323SOL    HW231869   1.180   4.170   6.055
10324SOL     OW31870   3.100   3.000   2.073
10324SOL    HW131871   3.063   2.989   1.981
10324SOL    HW231872   3.182   2.942   2.083
10325SOL     OW31873   6.001   5.597   4.030
10325SOL    HW131874   5.949   5.591   4.115
10325SOL    HW231875   6.048   5.685   4.025
10326SOL     OW31876   5.532   3.520   6.606
10326SOL    HW131877   5.534   3.617   6.583
10326SOL    HW231878   5.465   3.473   6.549
10327SOL     OW31879   2.490   5.307   0.295
10327SOL    HW131880   2.482   5.208   0.279
10327SOL    HW231881   2.420   5.355   0.242
10328SOL     OW31882   5.752   2.311   2.235
10328SOL    HW131883   5.758   2.407   2.261
10328SOL    HW231884   5.808   2.295   2.153
10329SOL     OW31885   3.371   1.920   2.578
10329SOL    HW131886   3.416   1.831   2.591
10329SOL    HW231887   3.277   1.905   2.548
10330SOL     OW31888   5.369   0.514   1.692
10330SOL    HW131889   5.341   0.591   1.749
10330SOL    HW231890   5.467   0.500   1.701
10331SOL     OW31891   5.788   5.956   5.767
10331SOL    HW131892   5.853   5.990   5.834
10331SOL    HW231893   5.695   5.980   5.796
10332SOL     OW31894   1.667   1.543   6.405
10332SOL    HW131895   1.589   1.581   6.356
10332SOL    HW231896   1.661   1.568   6.502
10333SOL     OW31897   1.544   3.762   4.557
10333SOL    HW131898   1.464   3.724   4.510
10333SOL    HW231899   1.615   3.783   4.489
10334SOL     OW31900   3.178   1.549   4.164
10334SOL    HW131901   3.138   1.606   4.091
10334SOL    HW231902   3.277   1.544   4.151
10335SOL     OW31903   1.124   2.349   4.953
10335SOL    HW131904   1.158   2.405   4.878
10335SOL    HW231905   1.156   2.255   4.942
10336SOL     OW31906   5.461   6.754   3.173
10336SOL    HW131907   5.501   6.664   3.192
10336SOL    HW231908   5.394   6.746   3.099
10337SOL     OW31909   6.783   5.358   6.860
10337SOL    HW131910   6.777   5.415   6.942
10337SOL    HW231911   6.842   5.279   6.879
10338SOL     OW31912   1.023   6.347   1.658
10338SOL    HW131913   1.113   6.365   1.618
10338SOL    HW231914   0.973   6.284   1.599
10339SOL     OW31915   6.052   2.499   5.834
10339SOL    HW131916   5.984   2.553   5.784
10339SOL    HW231917   6.007   2.450   5.908
10340SOL     OW31918   2.526   3.932   6.350
10340SOL    HW131919   2.463   3.897   6.420
10340SOL    HW231920   2.475   3.991   6.288
10341SOL     OW31921   2.329   4.259   3.130
10341SOL    HW131922   2.325   4.200   3.049
10341SOL    HW231923   2.375   4.344   3.106
10342SOL     OW31924   0.263   0.732   3.710
10342SOL    HW131925   0.271   0.824   3.670
10342SOL    HW231926   0.256   0.665   3.637
10343SOL     OW31927   3.664   5.434   1.751
10343SOL    HW131928   3.657   5.429   1.652
10343SOL    HW231929   3.654   5.529   1.781
10344SOL     OW31930   4.462   6.984   6.855
10344SOL    HW131931   4.554   0.001   6.845
10344SOL    HW231932   4.469   6.887   6.881
10345SOL     OW31933   2.091   3.463   4.096
10345SOL    HW131934   2.060   3.417   4.013
10345SOL    HW231935   2.088   3.399   4.173
10346SOL     OW31936   0.237   5.939   6.982
10346SOL    HW131937   0.262   5.872   6.912
10346SOL    HW231938   0.168   5.900   0.021
10347SOL     OW31939   5.191   2.148   5.226
10347SOL    HW131940   5.280   2.169   5.185
10347SOL    HW231941   5.118   2.185   5.167
10348SOL     OW31942   6.492   4.909   1.009
10348SOL    HW131943   6.447   4.833   0.961
10348SOL    HW231944   6.589   4.888   1.021
10349SOL     OW31945   0.550   6.971   6.194
10349SOL    HW131946   0.591   6.981   6.103
10349SOL    HW231947   0.471   6.910   6.189
10350SOL     OW31948   3.051   0.654   6.417
10350SOL    HW131949   3.084   0.717   6.487
10350SOL    HW231950   2.976   0.599   6.453
10351SOL     OW31951   3.716   5.472   6.291
10351SOL    HW131952   3.783   5.407   6.327
10351SOL    HW231953   3.625   5.449   6.326
10352SOL     OW31954   3.717   4.101   6.293
10352SOL    HW131955   3.759   4.049   6.367
10352SOL    HW231956   3.705   4.196   6.321
10353SOL     OW31957   1.039   3.030   5.108
10353SOL    HW131958   1.127   3.077   5.098
10353SOL    HW231959   1.038   2.948   5.051
10354SOL     OW31960   5.444   1.565   1.300
10354SOL    HW131961   5.458   1.480   1.351
10354SOL    HW231962   5.401   1.633   1.359
10355SOL     OW31963   1.081   4.736   2.781
10355SOL    HW131964   1.001   4.684   2.810
10355SOL    HW231965   1.085   4.823   2.831
10356SOL     OW31966   0.374   2.054   4.395
10356SOL    HW131967   0.310   2.073   4.468
10356SOL    HW231968   0.394   2.139   4.345
10357SOL     OW31969   3.665   2.640   6.727
10357SOL    HW131970   3.571   2.621   6.698
10357SOL    HW231971   3.665   2.672   6.821
10358SOL     OW31972   6.940   1.104   2.280
10358SOL    HW131973   6.943   1.080   2.183
10358SOL    HW231974   6.848   1.135   2.304
10359SOL     OW31975   1.339   1.377   0.862
10359SOL    HW131976   1.342   1.369   0.962
10359SOL    HW231977   1.247   1.404   0.834
10360SOL     OW31978   6.779   4.802   3.073
10360SOL    HW131979   6.806   4.894   3.048
10360SOL    HW231980   6.802   4.785   3.169
10361SOL     OW31981   2.101   5.172   1.449
10361SOL    HW131982   2.044   5.180   1.368
10361SOL    HW231983   2.189   5.218   1.432
10362SOL     OW31984   1.644   4.890   5.050
10362SOL    HW131985   1.656   4.796   5.019
10362SOL    HW231986   1.601   4.944   4.978
10363SOL     OW31987   5.812   6.955   3.770
10363SOL    HW131988   5.856   0.009   3.820
10363SOL    HW231989   5.815   6.975   3.672
10364SOL     OW31990   1.614   4.131   0.867
10364SOL    HW131991   1.608   4.068   0.790
10364SOL    HW231992   1.709   4.145   0.893
10365SOL     OW31993   4.584   5.520   0.239
10365SOL    HW131994   4.497   5.498   0.285
10365SOL    HW231995   4.565   5.577   0.159
10366SOL     OW31996   3.873   6.225   3.862
10366SOL    HW131997   3.797   6.170   3.827
10366SOL    HW231998   3.959   6.175   3.848
10367SOL     OW31999   6.397   1.494   3.369
10367SOL    HW132000   6.422   1.409   3.415
10367SOL    HW232001   6.459   1.509   3.291
10368SOL     OW32002   2.259   0.546   1.047
10368SOL    HW132003   2.159   0.547   1.046
10368SOL    HW232004   2.291   0.576   1.136
10369SOL     OW32005   4.317   2.757   0.012
10369SOL    HW132006   4.246   2.758   6.962
10369SOL    HW232007   4.315   2.845   0.060
10370SOL     OW32008   3.932   0.884   5.195
10370SOL    HW132009   3.842   0.862   5.158
10370SOL    HW232010   3.942   0.845   5.286
10371SOL     OW32011   5.243   6.403   5.565
10371SOL    HW132012   5.273   6.313   5.534
10371SOL    HW232013   5.228   6.401   5.664
10372SOL     OW32014   1.285   0.876   3.182
10372SOL    HW132015   1.198   0.890   3.135
10372SOL    HW232016   1.339   0.961   3.179
10373SOL     OW32017   1.265   5.381   5.116
10373SOL    HW132018   1.246   5.368   5.213
10373SOL    HW232019   1.361   5.407   5.104
10374SOL     OW32020   2.975   1.884   4.231
10374SOL    HW132021   2.986   1.814   4.160
10374SOL    HW232022   2.989   1.842   4.321
10375SOL     OW32023   0.211   2.064   0.514
10375SOL    HW132024   0.305   2.033   0.501
10375SOL    HW232025   0.195   2.146   0.458
10376SOL     OW32026   6.500   0.728   3.457
10376SOL    HW132027   6.521   0.685   3.545
10376SOL    HW232028   6.558   0.689   3.386
10377SOL     OW32029   0.336   6.611   4.325
10377SOL    HW132030   0.423   6.574   4.356
10377SOL    HW232031   0.289   6.655   4.402
10378SOL     OW32032   6.224   6.826   6.035
10378SOL    HW132033   6.273   6.895   5.982
10378SOL    HW232034   6.276   6.741   6.038
10379SOL     OW32035   4.720   2.002   4.358
10379SOL    HW132036   4.656   1.962   4.423
10379SOL    HW232037   4.814   1.983   4.388
10380SOL     OW32038   4.242   1.019   3.744
10380SOL    HW132039   4.330   1.051   3.711
10380SOL    HW232040   4.254   0.935   3.797
10381SOL     OW32041   4.372   5.492   4.709
10381SOL    HW132042   4.440   5.487   4.636
10381SOL    HW232043   4.405   5.554   4.780
10382SOL     OW32044   1.231   5.931   0.268
10382SOL    HW132045   1.281   5.852   0.303
10382SOL    HW232046   1.212   5.917   0.171
10383SOL     OW32047   5.380   2.491   0.263
10383SOL    HW132048   5.471   2.511   0.228
10383SOL    HW232049   5.371   2.393   0.280
10384SOL     OW32050   6.287   0.963   6.692
10384SOL    HW132051   6.237   1.026   6.632
10384SOL    HW232052   6.381   0.954   6.659
10385SOL     OW32053   6.504   2.479   6.817
10385SOL    HW132054   6.526   2.524   6.730
10385SOL    HW232055   6.416   2.511   6.851
10386SOL     OW32056   6.533   1.685   6.241
10386SOL    HW132057   6.565   1.659   6.150
10386SOL    HW232058   6.455   1.747   6.233
10387SOL     OW32059   1.621   3.883   2.169
10387SOL    HW132060   1.714   3.852   2.148
10387SOL    HW232061   1.609   3.887   2.268
10388SOL     OW32062   1.730   4.755   2.424
10388SOL    HW132063   1.774   4.693   2.489
10388SOL    HW232064   1.671   4.819   2.474
10389SOL     OW32065   0.815   5.697   3.536
10389SOL    HW132066   0.757   5.674   3.614
10389SOL    HW232067   0.865   5.615   3.506
10390SOL     OW32068   2.198   3.847   3.483
10390SOL    HW132069   2.204   3.884   3.576
10390SOL    HW232070   2.256   3.901   3.422
10391SOL     OW32071   3.520   6.202   4.597
10391SOL    HW132072   3.556   6.142   4.669
10391SOL    HW232073   3.462   6.272   4.638
10392SOL     OW32074   6.128   5.183   6.715
10392SOL    HW132075   6.128   5.279   6.689
10392SOL    HW232076   6.218   5.143   6.699
10393SOL     OW32077   0.350   1.065   4.309
10393SOL    HW132078   0.382   1.057   4.403
10393SOL    HW232079   0.250   1.061   4.308
10394SOL     OW32080   3.103   6.874   1.114
10394SOL    HW132081   3.018   6.827   1.091
10394SOL    HW232082   3.174   6.807   1.134
10395SOL     OW32083   1.683   1.311   4.615
10395SOL    HW132084   1.771   1.332   4.573
10395SOL    HW232085   1.655   1.386   4.675
10396SOL     OW32086   0.541   0.070   4.987
10396SOL    HW132087   0.637   0.042   4.979
10396SOL    HW232088   0.482   7.014   4.963
10397SOL     OW32089   4.653   1.728   2.868
10397SOL    HW132090   4.721   1.656   2.853
10397SOL    HW232091   4.689   1.815   2.834
10398SOL     OW32092   6.726   3.325   2.300
10398SOL    HW132093   6.740   3.338   2.202
10398SOL    HW232094   6.749   3.230   2.325
10399SOL     OW32095   6.010   2.848   5.229
10399SOL    HW132096   6.093   2.890   5.267
10399SOL    HW232097   6.028   2.818   5.136
10400SOL     OW32098   1.488   4.828   1.741
10400SOL    HW132099   1.494   4.751   1.806
10400SOL    HW232100   1.545   4.808   1.661
10401SOL     OW32101   1.386   5.338   1.103
10401SOL    HW132102   1.372   5.240   1.087
10401SOL    HW232103   1.360   5.360   1.197
10402SOL     OW32104   1.031   2.044   4.739
10402SOL    HW132105   1.113   2.086   4.780
10402SOL    HW232106   1.030   1.947   4.759
10403SOL     OW32107   5.640   0.861   2.334
10403SOL    HW132108   5.721   0.919   2.338
10403SOL    HW232109   5.663   0.768   2.361
10404SOL     OW32110   6.956   0.282   4.201
10404SOL    HW132111   6.951   0.186   4.172
10404SOL    HW232112   6.908   0.293   4.288
10405SOL     OW32113   2.543   6.515   6.869
10405SOL    HW132114   2.454   6.476   6.893
10405SOL    HW232115   2.614   6.446   6.878
10406SOL     OW32116   1.680   6.070   5.461
10406SOL    HW132117   1.663   6.000   5.530
10406SOL    HW232118   1.777   6.096   5.462
10407SOL     OW32119   1.842   1.357   6.274
10407SOL    HW132120   1.919   1.405   6.233
10407SOL    HW232121   1.785   1.422   6.324
10408SOL     OW32122   4.195   6.842   2.870
10408SOL    HW132123   4.095   6.844   2.867
10408SOL    HW232124   4.232   6.869   2.781
10409SOL     OW32125   6.646   5.129   2.268
10409SOL    HW132126   6.577   5.079   2.321
10409SOL    HW232127   6.604   5.212   2.231
10410SOL     OW32128   5.181   6.037   1.005
10410SOL    HW132129   5.098   6.055   1.058
10410SOL    HW232130   5.221   6.124   0.976
10411SOL     OW32131   1.626   4.680   2.202
10411SOL    HW132132   1.682   4.699   2.282
10411SOL    HW232133   1.630   4.583   2.180
10412SOL     OW32134   0.387   2.134   6.191
10412SOL    HW132135   0.468   2.188   6.169
10412SOL    HW232136   0.413   2.038   6.203
10413SOL     OW32137   6.918   1.687   5.066
10413SOL    HW132138   6.983   1.762   5.054
10413SOL    HW232139   6.835   1.721   5.110
10414SOL     OW32140   5.701   5.852   5.341
10414SOL    HW132141   5.711   5.900   5.428
10414SOL    HW232142   5.769   5.887   5.276
10415SOL     OW32143   6.595   5.495   3.211
10415SOL    HW132144   6.546   5.578   3.183
10415SOL    HW232145   6.528   5.423   3.233
10416SOL     OW32146   4.832   0.264   0.455
10416SOL    HW132147   4.775   0.336   0.496
10416SOL    HW232148   4.920   0.260   0.502
10417SOL     OW32149   4.670   4.376   3.999
10417SOL    HW132150   4.658   4.351   3.902
10417SOL    HW232151   4.743   4.444   4.007
10418SOL     OW32152   6.120   3.588   0.278
10418SOL    HW132153   6.212   3.547   0.282
10418SOL    HW232154   6.067   3.543   0.207
10419SOL     OW32155   1.885   0.556   4.953
10419SOL    HW132156   1.930   0.481   4.905
10419SOL    HW232157   1.788   0.558   4.928
10420SOL     OW32158   6.267   3.958   4.691
10420SOL    HW132159   6.230   3.869   4.720
10420SOL    HW232160   6.262   4.023   4.767
10421SOL     OW32161   0.961   3.875   4.292
10421SOL    HW132162   0.925   3.849   4.381
10421SOL    HW232163   0.887   3.881   4.226
10422SOL     OW32164   6.040   3.231   5.720
10422SOL    HW132165   6.039   3.192   5.628
10422SOL    HW232166   6.078   3.324   5.717
10423SOL     OW32167   2.614   5.126   2.905
10423SOL    HW132168   2.593   5.055   2.972
10423SOL    HW232169   2.713   5.134   2.896
10424SOL     OW32170   4.143   0.886   1.961
10424SOL    HW132171   4.198   0.846   2.034
10424SOL    HW232172   4.132   0.984   1.976
10425SOL     OW32173   1.140   3.833   0.415
10425SOL    HW132174   1.179   3.913   0.368
10425SOL    HW232175   1.041   3.834   0.405
10426SOL     OW32176   6.647   2.018   6.987
10426SOL    HW132177   6.549   2.000   6.995
10426SOL    HW232178   6.672   2.028   6.891
10427SOL     OW32179   5.916   0.715   4.013
10427SOL    HW132180   6.015   0.727   4.001
10427SOL    HW232181   5.876   0.800   4.048
10428SOL     OW32182   1.551   6.394   4.605
10428SOL    HW132183   1.579   6.305   4.570
10428SOL    HW232184   1.581   6.405   4.699
10429SOL     OW32185   2.166   4.289   1.640
10429SOL    HW132186   2.223   4.351   1.587
10429SOL    HW232187   2.220   4.209   1.667
10430SOL     OW32188   3.616   6.986   4.535
10430SOL    HW132189   3.633   0.064   4.540
10430SOL    HW232190   3.593   6.951   4.625
10431SOL     OW32191   3.940   2.020   4.209
10431SOL    HW132192   3.937   2.017   4.110
10431SOL    HW232193   3.973   1.933   4.245
10432SOL     OW32194   0.691   4.905   0.431
10432SOL    HW132195   0.787   4.931   0.422
10432SOL    HW232196   0.667   4.841   0.358
10433SOL     OW32197   3.586   6.343   4.369
10433SOL    HW132198   3.544   6.432   4.388
10433SOL    HW232199   3.551   6.276   4.435
10434SOL     OW32200   4.380   0.940   6.622
10434SOL    HW132201   4.448   1.003   6.584
10434SOL    HW232202   4.292   0.954   6.575
10435SOL     OW32203   2.614   1.470   1.434
10435SOL    HW132204   2.558   1.542   1.477
10435SOL    HW232205   2.698   1.511   1.400
10436SOL     OW32206   0.858   3.552   5.190
10436SOL    HW132207   0.951   3.514   5.196
10436SOL    HW232208   0.820   3.535   5.099
10437SOL     OW32209   6.854   6.400   4.595
10437SOL    HW132210   6.928   6.398   4.528
10437SOL    HW232211   6.790   6.473   4.571
10438SOL     OW32212   6.752   5.740   6.562
10438SOL    HW132213   6.665   5.759   6.517
10438SOL    HW232214   6.735   5.704   6.654
10439SOL     OW32215   6.062   5.565   4.336
10439SOL    HW132216   6.129   5.638   4.349
10439SOL    HW232217   6.108   5.483   4.300
10440SOL     OW32218   5.909   2.456   1.290
10440SOL    HW132219   5.856   2.409   1.220
10440SOL    HW232220   5.915   2.400   1.372
10441SOL     OW32221   4.246   1.944   6.763
10441SOL    HW132222   4.266   1.854   6.802
10441SOL    HW232223   4.169   1.985   6.811
10442SOL     OW32224   2.763   1.126   5.061
10442SOL    HW132225   2.832   1.057   5.083
10442SOL    HW232226   2.678   1.106   5.111
10443SOL     OW32227   1.145   0.497   0.140
10443SOL    HW132228   1.149   0.566   0.068
10443SOL    HW232229   1.054   0.496   0.181
10444SOL     OW32230   4.234   5.225   3.778
10444SOL    HW132231   4.187   5.145   3.740
10444SOL    HW232232   4.187   5.308   3.749
10445SOL     OW32233   1.028   3.495   3.825
10445SOL    HW132234   0.996   3.424   3.888
10445SOL    HW232235   1.085   3.453   3.754
10446SOL     OW32236   2.325   4.965   4.761
10446SOL    HW132237   2.375   4.909   4.827
10446SOL    HW232238   2.351   5.061   4.772
10447SOL     OW32239   1.237   1.956   2.753
10447SOL    HW132240   1.199   1.865   2.766
10447SOL    HW232241   1.170   2.025   2.782
10448SOL     OW32242   0.932   5.887   2.561
10448SOL    HW132243   1.009   5.823   2.555
10448SOL    HW232244   0.865   5.865   2.490
10449SOL     OW32245   3.926   4.939   4.799
10449SOL    HW132246   4.005   4.914   4.743
10449SOL    HW232247   3.842   4.929   4.746
10450SOL     OW32248   0.852   2.222   3.698
10450SOL    HW132249   0.943   2.180   3.700
10450SOL    HW232250   0.812   2.210   3.607
10451SOL     OW32251   3.568   1.799   4.187
10451SOL    HW132252   3.600   1.894   4.184
10451SOL    HW232253   3.589   1.754   4.100
10452SOL     OW32254   0.053   2.907   4.739
10452SOL    HW132255   7.001   2.842   4.718
10452SOL    HW232256   0.141   2.859   4.742
10453SOL     OW32257   3.816   4.877   4.458
10453SOL    HW132258   3.755   4.939   4.507
10453SOL    HW232259   3.762   4.803   4.418
10454SOL     OW32260   6.818   1.056   6.682
10454SOL    HW132261   6.840   1.150   6.707
10454SOL    HW232262   6.896   1.015   6.634
10455SOL     OW32263   0.563   6.168   2.429
10455SOL    HW132264   0.659   6.162   2.456
10455SOL    HW232265   0.552   6.127   2.338
10456SOL     OW32266   1.543   5.408   6.606
10456SOL    HW132267   1.522   5.461   6.689
10456SOL    HW232268   1.585   5.469   6.538
10457SOL     OW32269   3.960   1.364   0.245
10457SOL    HW132270   4.028   1.431   0.217
10457SOL    HW232271   4.000   1.272   0.244
10458SOL     OW32272   1.435   6.326   0.198
10458SOL    HW132273   1.451   6.336   0.100
10458SOL    HW232274   1.485   6.397   0.248
10459SOL     OW32275   5.855   6.137   1.366
10459SOL    HW132276   5.804   6.103   1.445
10459SOL    HW232277   5.891   6.060   1.314
10460SOL     OW32278   5.919   0.774   6.784
10460SOL    HW132279   5.889   0.679   6.797
10460SOL    HW232280   5.851   0.836   6.821
10461SOL     OW32281   0.336   3.856   5.751
10461SOL    HW132282   0.274   3.813   5.818
10461SOL    HW232283   0.284   3.918   5.693
10462SOL     OW32284   3.905   4.049   6.640
10462SOL    HW132285   3.965   4.015   6.568
10462SOL    HW232286   3.825   3.989   6.648
10463SOL     OW32287   4.928   2.496   6.025
10463SOL    HW132288   4.916   2.594   6.012
10463SOL    HW232289   5.003   2.464   5.967
10464SOL     OW32290   6.377   4.256   1.845
10464SOL    HW132291   6.290   4.210   1.866
10464SOL    HW232292   6.361   4.354   1.838
10465SOL     OW32293   5.295   4.223   1.600
10465SOL    HW132294   5.227   4.259   1.665
10465SOL    HW232295   5.360   4.166   1.649
10466SOL     OW32296   5.850   3.827   5.367
10466SOL    HW132297   5.943   3.861   5.381
10466SOL    HW232298   5.837   3.803   5.271
10467SOL     OW32299   0.285   2.461   0.047
10467SOL    HW132300   0.315   2.376   0.002
10467SOL    HW232301   0.185   2.459   0.057
10468SOL     OW32302   1.513   3.952   3.965
10468SOL    HW132303   1.554   3.883   4.024
10468SOL    HW232304   1.447   4.006   4.018
10469SOL     OW32305   1.311   1.632   4.016
10469SOL    HW132306   1.275   1.713   4.063
10469SOL    HW232307   1.409   1.624   4.035
10470SOL     OW32308   2.130   4.040   1.863
10470SOL    HW132309   2.161   4.129   1.831
10470SOL    HW232310   2.162   3.969   1.799
10471SOL     OW32311   2.640   4.891   0.003
10471SOL    HW132312   2.635   4.871   6.926
10471SOL    HW232313   2.551   4.876   0.044
10472SOL     OW32314   4.046   5.380   6.074
10472SOL    HW132315   4.139   5.415   6.063
10472SOL    HW232316   3.999   5.383   5.986
10473SOL     OW32317   6.453   5.191   6.847
10473SOL    HW132318   6.406   5.153   6.926
10473SOL    HW232319   6.547   5.155   6.843
10474SOL     OW32320   6.356   6.351   5.228
10474SOL    HW132321   6.404   6.436   5.251
10474SOL    HW232322   6.331   6.351   5.132
10475SOL     OW32323   0.623   5.205   1.521
10475SOL    HW132324   0.544   5.242   1.571
10475SOL    HW232325   0.646   5.115   1.557
10476SOL     OW32326   5.435   6.968   1.296
10476SOL    HW132327   5.352   6.992   1.245
10476SOL    HW232328   5.446   0.010   1.373
10477SOL     OW32329   6.820   5.601   3.727
10477SOL    HW132330   6.859   5.693   3.738
10477SOL    HW232331   6.758   5.601   3.649
10478SOL     OW32332   0.122   0.777   6.343
10478SOL    HW132333   0.189   0.749   6.274
10478SOL    HW232334   0.048   0.709   6.348
10479SOL     OW32335   0.645   3.757   1.909
10479SOL    HW132336   0.646   3.684   1.978
10479SOL    HW232337   0.574   3.736   1.841
10480SOL     OW32338   2.630   0.651   3.050
10480SOL    HW132339   2.627   0.729   2.988
10480SOL    HW232340   2.541   0.606   3.051
10481SOL     OW32341   6.512   1.114   1.345
10481SOL    HW132342   6.465   1.048   1.403
10481SOL    HW232343   6.598   1.141   1.388
10482SOL     OW32344   5.578   3.826   4.289
10482SOL    HW132345   5.492   3.839   4.339
10482SOL    HW232346   5.575   3.739   4.239
10483SOL     OW32347   5.799   0.456   6.825
10483SOL    HW132348   5.897   0.469   6.816
10483SOL    HW232349   5.754   0.476   6.738
10484SOL     OW32350   6.252   0.713   1.759
10484SOL    HW132351   6.202   0.659   1.826
10484SOL    HW232352   6.338   0.745   1.799
10485SOL     OW32353   5.576   3.263   5.320
10485SOL    HW132354   5.656   3.317   5.293
10485SOL    HW232355   5.499   3.325   5.338
10486SOL     OW32356   5.419   2.574   2.666
10486SOL    HW132357   5.431   2.657   2.721
10486SOL    HW232358   5.359   2.593   2.589
10487SOL     OW32359   4.247   6.925   2.635
10487SOL    HW132360   4.312   6.879   2.576
10487SOL    HW232361   4.254   0.003   2.622
10488SOL     OW32362   3.735   4.247   6.725
10488SOL    HW132363   3.813   4.187   6.709
10488SOL    HW232364   3.737   4.323   6.659
10489SOL     OW32365   1.581   5.095   4.867
10489SOL    HW132366   1.491   5.123   4.901
10489SOL    HW232367   1.637   5.176   4.852
10490SOL     OW32368   6.128   0.388   4.071
10490SOL    HW132369   6.146   0.294   4.102
10490SOL    HW232370   6.211   0.427   4.031
10491SOL     OW32371   0.129   5.231   5.203
10491SOL    HW132372   0.071   5.162   5.160
10491SOL    HW232373   0.109   5.320   5.164
10492SOL     OW32374   4.831   4.056   5.758
10492SOL    HW132375   4.755   4.109   5.722
10492SOL    HW232376   4.912   4.069   5.701
10493SOL     OW32377   3.833   1.491   0.950
10493SOL    HW132378   3.907   1.432   0.981
10493SOL    HW232379   3.797   1.544   1.027
10494SOL     OW32380   5.224   1.590   5.619
10494SOL    HW132381   5.206   1.655   5.692
10494SOL    HW232382   5.179   1.503   5.640
10495SOL     OW32383   1.821   6.909   6.559
10495SOL    HW132384   1.903   6.871   6.515
10495SOL    HW232385   1.838   7.004   6.585
10496SOL     OW32386   6.397   0.170   5.460
10496SOL    HW132387   6.352   0.082   5.446
10496SOL    HW232388   6.377   0.204   5.552
10497SOL     OW32389   1.266   1.422   6.428
10497SOL    HW132390   1.256   1.439   6.526
10497SOL    HW232391   1.333   1.486   6.390
10498SOL     OW32392   3.396   5.041   6.213
10498SOL    HW132393   3.367   5.128   6.174
10498SOL    HW232394   3.321   4.975   6.207
10499SOL     OW32395   2.931   5.929   2.888
10499SOL    HW132396   2.899   5.958   2.798
10499SOL    HW232397   2.944   6.009   2.946
10500SOL     OW32398   2.272   2.073   6.845
10500SOL    HW132399   2.283   2.074   6.745
10500SOL    HW232400   2.276   2.166   6.880
10501SOL     OW32401   1.519   3.619   3.105
10501SOL    HW132402   1.501   3.705   3.058
10501SOL    HW232403   1.607   3.581   3.073
10502SOL     OW32404   3.309   5.611   4.748
10502SOL    HW132405   3.229   5.552   4.742
10502SOL    HW232406   3.325   5.656   4.660
10503SOL     OW32407   2.403   3.040   5.950
10503SOL    HW132408   2.401   3.101   5.872
10503SOL    HW232409   2.475   2.971   5.936
10504SOL     OW32410   2.205   3.657   1.177
10504SOL    HW132411   2.122   3.679   1.229
10504SOL    HW232412   2.230   3.734   1.119
10505SOL     OW32413   0.494   6.454   0.448
10505SOL    HW132414   0.466   6.507   0.529
10505SOL    HW232415   0.557   6.381   0.476
10506SOL     OW32416   0.116   4.103   5.270
10506SOL    HW132417   0.052   4.122   5.196
10506SOL    HW232418   0.141   4.006   5.269
10507SOL     OW32419   1.761   0.114   3.329
10507SOL    HW132420   1.742   0.197   3.382
10507SOL    HW232421   1.716   0.036   3.374
10508SOL     OW32422   5.967   3.846   2.764
10508SOL    HW132423   5.946   3.905   2.686
10508SOL    HW232424   5.884   3.802   2.796
10509SOL     OW32425   2.444   0.773   5.955
10509SOL    HW132426   2.530   0.748   5.911
10509SOL    HW232427   2.452   0.762   6.054
10510SOL     OW32428   5.779   6.959   6.992
10510SOL    HW132429   5.858   6.920   6.944
10510SOL    HW232430   5.756   0.026   6.950
10511SOL     OW32431   7.000   2.602   1.439
10511SOL    HW132432   6.907   2.568   1.451
10511SOL    HW232433   0.005   2.594   1.342
10512SOL     OW32434   2.516   0.433   6.284
10512SOL    HW132435   2.592   0.390   6.235
10512SOL    HW232436   2.508   0.392   6.375
10513SOL     OW32437   0.413   1.804   0.176
10513SOL    HW132438   0.409   1.704   0.174
10513SOL    HW232439   0.493   1.835   0.124
10514SOL     OW32440   0.538   3.071   1.883
10514SOL    HW132441   0.598   3.151   1.880
10514SOL    HW232442   0.578   3.002   1.943
10515SOL     OW32443   6.351   3.031   4.712
10515SOL    HW132444   6.287   2.955   4.714
10515SOL    HW232445   6.432   3.009   4.766
10516SOL     OW32446   2.776   6.601   0.879
10516SOL    HW132447   2.814   6.512   0.904
10516SOL    HW232448   2.765   6.606   0.780
10517SOL     OW32449   0.376   2.345   2.823
10517SOL    HW132450   0.374   2.378   2.918
10517SOL    HW232451   0.466   2.363   2.784
10518SOL     OW32452   0.821   6.172   2.512
10518SOL    HW132453   0.849   6.249   2.568
10518SOL    HW232454   0.869   6.089   2.542
10519SOL     OW32455   4.224   3.675   6.082
10519SOL    HW132456   4.319   3.666   6.112
10519SOL    HW232457   4.173   3.593   6.109
10520SOL     OW32458   3.617   5.135   6.707
10520SOL    HW132459   3.575   5.079   6.779
10520SOL    HW232460   3.575   5.225   6.706
10521SOL     OW32461   6.338   5.710   1.946
10521SOL    HW132462   6.260   5.719   1.885
10521SOL    HW232463   6.347   5.615   1.976
10522SOL     OW32464   0.044   0.010   2.000
10522SOL    HW132465   0.084   6.942   1.979
10522SOL    HW232466   6.968   0.010   1.975
10523SOL     OW32467   6.800   6.277   5.808
10523SOL    HW132468   6.709   6.318   5.804
10523SOL    HW232469   6.833   6.259   5.716
10524SOL     OW32470   4.909   0.757   4.310
10524SOL    HW132471   4.890   0.674   4.257
10524SOL    HW232472   4.832   0.820   4.300
10525SOL     OW32473   3.135   6.288   4.995
10525SOL    HW132474   3.234   6.270   5.001
10525SOL    HW232475   3.092   6.219   4.937
10526SOL     OW32476   4.985   6.756   2.650
10526SOL    HW132477   5.045   6.835   2.637
10526SOL    HW232478   4.987   6.728   2.746
10527SOL     OW32479   1.599   3.091   4.567
10527SOL    HW132480   1.526   3.124   4.507
10527SOL    HW232481   1.558   3.058   4.652
10528SOL     OW32482   6.106   5.069   5.366
10528SOL    HW132483   6.192   5.024   5.389
10528SOL    HW232484   6.040   5.054   5.440
10529SOL     OW32485   0.169   5.937   3.914
10529SOL    HW132486   0.150   5.959   3.819
10529SOL    HW232487   0.178   6.021   3.967
10530SOL     OW32488   1.579   1.807   5.343
10530SOL    HW132489   1.520   1.745   5.395
10530SOL    HW232490   1.539   1.899   5.343
10531SOL     OW32491   1.731   1.875   4.830
10531SOL    HW132492   1.684   1.956   4.796
10531SOL    HW232493   1.684   1.841   4.912
10532SOL     OW32494   3.127   3.242   5.048
10532SOL    HW132495   3.150   3.158   4.999
10532SOL    HW232496   3.070   3.300   4.990
10533SOL     OW32497   3.244   1.137   6.653
10533SOL    HW132498   3.145   1.127   6.665
10533SOL    HW232499   3.291   1.095   6.731
10534SOL     OW32500   5.466   5.173   1.290
10534SOL    HW132501   5.370   5.180   1.266
10534SOL    HW232502   5.485   5.233   1.368
10535SOL     OW32503   0.132   0.914   1.450
10535SOL    HW132504   0.041   0.957   1.453
10535SOL    HW232505   0.134   0.836   1.513
10536SOL     OW32506   5.461   6.018   3.113
10536SOL    HW132507   5.457   5.966   3.198
10536SOL    HW232508   5.392   5.984   3.050
10537SOL     OW32509   6.216   5.588   1.144
10537SOL    HW132510   6.205   5.650   1.222
10537SOL    HW232511   6.195   5.636   1.059
10538SOL     OW32512   4.426   3.795   6.945
10538SOL    HW132513   4.373   3.795   0.009
10538SOL    HW232514   4.369   3.829   6.870
10539SOL     OW32515   0.980   3.067   5.373
10539SOL    HW132516   0.978   3.048   5.275
10539SOL    HW232517   0.890   3.048   5.413
10540SOL     OW32518   3.563   0.660   0.351
10540SOL    HW132519   3.540   0.592   0.421
10540SOL    HW232520   3.567   0.616   0.261
10541SOL     OW32521   3.964   2.535   0.832
10541SOL    HW132522   3.883   2.528   0.773
10541SOL    HW232523   4.039   2.483   0.793
10542SOL     OW32524   1.520   2.083   0.100
10542SOL    HW132525   1.492   2.170   0.142
10542SOL    HW232526   1.595   2.043   0.153
10543SOL     OW32527   2.742   0.403   4.986
10543SOL    HW132528   2.824   0.441   4.943
10543SOL    HW232529   2.768   0.323   5.040
10544SOL     OW32530   6.897   2.313   1.625
10544SOL    HW132531   6.847   2.227   1.629
10544SOL    HW232532   6.960   2.320   1.702
10545SOL     OW32533   4.767   1.405   3.131
10545SOL    HW132534   4.733   1.320   3.170
10545SOL    HW232535   4.718   1.482   3.171
10546SOL     OW32536   4.191   1.368   5.195
10546SOL    HW132537   4.235   1.340   5.109
10546SOL    HW232538   4.108   1.315   5.209
10547SOL     OW32539   4.948   6.994   1.364
10547SOL    HW132540   4.895   0.036   1.421
10547SOL    HW232541   4.989   6.923   1.421
10548SOL     OW32542   4.408   4.607   5.351
10548SOL    HW132543   4.362   4.569   5.271
10548SOL    HW232544   4.344   4.614   5.427
10549SOL     OW32545   0.813   1.405   1.326
10549SOL    HW132546   0.765   1.483   1.367
10549SOL    HW232547   0.775   1.320   1.363
10550SOL     OW32548   5.188   6.369   5.065
10550SOL    HW132549   5.217   6.462   5.084
10550SOL    HW232550   5.231   6.337   4.979
10551SOL     OW32551   1.170   2.730   5.794
10551SOL    HW132552   1.079   2.771   5.782
10551SOL    HW232553   1.162   2.631   5.799
10552SOL     OW32554   3.096   2.210   4.782
10552SOL    HW132555   3.142   2.260   4.855
10552SOL    HW232556   3.003   2.187   4.811
10553SOL     OW32557   3.106   5.093   5.957
10553SOL    HW132558   3.180   5.150   5.993
10553SOL    HW232559   3.096   5.012   6.013
10554SOL     OW32560   6.157   4.150   5.952
10554SOL    HW132561   6.160   4.050   5.948
10554SOL    HW232562   6.070   4.182   5.914
10555SOL     OW32563   3.556   2.864   1.262
10555SOL    HW132564   3.601   2.793   1.208
10555SOL    HW232565   3.564   2.952   1.216
10556SOL     OW32566   1.474   3.529   3.647
10556SOL    HW132567   1.509   3.539   3.554
10556SOL    HW232568   1.409   3.453   3.650
10557SOL     OW32569   5.601   1.343   3.860
10557SOL    HW132570   5.620   1.292   3.776
10557SOL    HW232571   5.532   1.413   3.841
10558SOL     OW32572   5.289   6.102   5.139
10558SOL    HW132573   5.250   6.192   5.120
10558SOL    HW232574   5.221   6.044   5.183
10559SOL     OW32575   4.521   2.638   0.845
10559SOL    HW132576   4.442   2.610   0.792
10559SOL    HW232577   4.519   2.593   0.934
10560SOL     OW32578   0.142   2.307   4.350
10560SOL    HW132579   0.138   2.339   4.256
10560SOL    HW232580   0.117   2.210   4.353
10561SOL     OW32581   2.173   4.004   6.399
10561SOL    HW132582   2.120   4.069   6.453
10561SOL    HW232583   2.194   4.044   6.310
10562SOL     OW32584   3.669   1.784   0.407
10562SOL    HW132585   3.595   1.718   0.394
10562SOL    HW232586   3.632   1.877   0.400
10563SOL     OW32587   1.211   2.272   2.548
10563SOL    HW132588   1.254   2.356   2.515
10563SOL    HW232589   1.201   2.208   2.471
10564SOL     OW32590   0.206   1.862   2.219
10564SOL    HW132591   0.160   1.823   2.298
10564SOL    HW232592   0.149   1.934   2.179
10565SOL     OW32593   5.420   1.478   4.626
10565SOL    HW132594   5.406   1.496   4.723
10565SOL    HW232595   5.511   1.508   4.599
10566SOL     OW32596   4.338   5.364   6.947
10566SOL    HW132597   4.355   5.386   6.851
10566SOL    HW232598   4.248   5.320   6.955
10567SOL     OW32599   2.289   5.061   4.165
10567SOL    HW132600   2.201   5.106   4.180
10567SOL    HW232601   2.329   5.038   4.254
10568SOL     OW32602   3.678   1.392   2.992
10568SOL    HW132603   3.601   1.405   3.054
10568SOL    HW232604   3.756   1.354   3.044
10569SOL     OW32605   6.519   2.797   3.414
10569SOL    HW132606   6.559   2.768   3.327
10569SOL    HW232607   6.462   2.878   3.399
10570SOL     OW32608   1.342   4.107   0.918
10570SOL    HW132609   1.435   4.135   0.896
10570SOL    HW232610   1.293   4.085   0.834
10571SOL     OW32611   6.353   6.826   4.584
10571SOL    HW132612   6.387   6.920   4.595
10571SOL    HW232613   6.316   6.793   4.671
10572SOL     OW32614   6.845   3.372   1.776
10572SOL    HW132615   6.885   3.459   1.744
10572SOL    HW232616   6.829   3.312   1.698
10573SOL     OW32617   5.996   4.651   5.789
10573SOL    HW132618   5.922   4.709   5.824
10573SOL    HW232619   6.044   4.609   5.866
10574SOL     OW32620   0.421   2.447   3.332
10574SOL    HW132621   0.442   2.543   3.310
10574SOL    HW232622   0.450   2.389   3.255
10575SOL     OW32623   1.159   6.953   6.238
10575SOL    HW132624   1.155   0.027   6.208
10575SOL    HW232625   1.072   6.908   6.218
10576SOL     OW32626   1.102   5.690   3.244
10576SOL    HW132627   1.117   5.606   3.192
10576SOL    HW232628   1.005   5.716   3.238
10577SOL     OW32629   0.500   2.699   5.689
10577SOL    HW132630   0.443   2.624   5.724
10577SOL    HW232631   0.491   2.778   5.750
10578SOL     OW32632   5.549   1.356   5.423
10578SOL    HW132633   5.643   1.382   5.399
10578SOL    HW232634   5.543   1.256   5.428
10579SOL     OW32635   5.615   6.875   0.656
10579SOL    HW132636   5.642   6.779   0.644
10579SOL    HW232637   5.517   6.879   0.677
10580SOL     OW32638   0.595   5.979   0.387
10580SOL    HW132639   0.525   6.032   0.339
10580SOL    HW232640   0.676   6.036   0.400
10581SOL     OW32641   4.683   2.695   3.900
10581SOL    HW132642   4.777   2.668   3.918
10581SOL    HW232643   4.679   2.749   3.816
10582SOL     OW32644   3.039   4.777   0.109
10582SOL    HW132645   3.051   4.845   0.036
10582SOL    HW232646   3.119   4.717   0.113
10583SOL     OW32647   4.663   1.008   1.464
10583SOL    HW132648   4.567   0.994   1.490
10583SOL    HW232649   4.691   0.936   1.400
10584SOL     OW32650   6.329   6.525   1.029
10584SOL    HW132651   6.273   6.442   1.035
10584SOL    HW232652   6.332   6.569   1.119
10585SOL     OW32653   2.607   4.591   6.454
10585SOL    HW132654   2.512   4.605   6.427
10585SOL    HW232655   2.611   4.526   6.530
10586SOL     OW32656   4.978   1.603   0.901
10586SOL    HW132657   5.037   1.591   0.821
10586SOL    HW232658   5.022   1.665   0.965
10587SOL     OW32659   5.859   3.137   0.417
10587SOL    HW132660   5.783   3.073   0.428
10587SOL    HW232661   5.934   3.111   0.479
10588SOL     OW32662   1.218   4.972   2.888
10588SOL    HW132663   1.196   4.987   2.984
10588SOL    HW232664   1.303   5.020   2.866
10589SOL     OW32665   5.781   1.774   4.222
10589SOL    HW132666   5.793   1.872   4.206
10589SOL    HW232667   5.860   1.739   4.272
10590SOL     OW32668   1.318   0.134   5.200
10590SOL    HW132669   1.268   0.185   5.271
10590SOL    HW232670   1.414   0.127   5.226
10591SOL     OW32671   1.530   2.479   1.605
10591SOL    HW132672   1.591   2.543   1.558
10591SOL    HW232673   1.567   2.456   1.694
10592SOL     OW32674   5.913   1.320   6.421
10592SOL    HW132675   5.925   1.386   6.495
10592SOL    HW232676   5.943   1.361   6.335
10593SOL     OW32677   0.925   4.612   1.610
10593SOL    HW132678   0.994   4.562   1.557
10593SOL    HW232679   0.869   4.547   1.661
10594SOL     OW32680   1.832   1.126   4.188
10594SOL    HW132681   1.808   1.036   4.154
10594SOL    HW232682   1.784   1.143   4.274
10595SOL     OW32683   2.444   6.063   4.637
10595SOL    HW132684   2.415   6.015   4.554
10595SOL    HW232685   2.388   6.033   4.714
10596SOL     OW32686   3.255   1.141   1.805
10596SOL    HW132687   3.325   1.116   1.871
10596SOL    HW232688   3.256   1.076   1.729
10597SOL     OW32689   1.172   0.768   4.168
10597SOL    HW132690   1.100   0.704   4.139
10597SOL    HW232691   1.220   0.802   4.087
10598SOL     OW32692   2.198   1.132   0.439
10598SOL    HW132693   2.249   1.091   0.515
10598SOL    HW232694   2.261   1.153   0.365
10599SOL     OW32695   4.928   0.739   6.573
10599SOL    HW132696   4.869   0.821   6.577
10599SOL    HW232697   4.873   0.660   6.546
10600SOL     OW32698   1.637   2.898   5.041
10600SOL    HW132699   1.655   2.896   5.140
10600SOL    HW232700   1.612   2.806   5.010
10601SOL     OW32701   3.203   5.986   5.446
10601SOL    HW132702   3.224   6.022   5.355
10601SOL    HW232703   3.118   5.933   5.442
10602SOL     OW32704   4.610   1.292   1.647
10602SOL    HW132705   4.559   1.255   1.725
10602SOL    HW232706   4.547   1.310   1.571
10603SOL     OW32707   0.792   5.516   5.066
10603SOL    HW132708   0.777   5.614   5.063
10603SOL    HW232709   0.884   5.495   5.036
10604SOL     OW32710   0.504   3.845   5.431
10604SOL    HW132711   0.410   3.878   5.421
10604SOL    HW232712   0.564   3.921   5.455
10605SOL     OW32713   1.787   4.942   6.580
10605SOL    HW132714   1.807   5.036   6.608
10605SOL    HW232715   1.761   4.941   6.483
10606SOL     OW32716   0.088   0.832   2.258
10606SOL    HW132717   0.145   0.873   2.188
10606SOL    HW232718   7.016   0.869   2.252
10607SOL     OW32719   5.470   4.521   6.335
10607SOL    HW132720   5.513   4.573   6.260
10607SOL    HW232721   5.396   4.465   6.298
10608SOL     OW32722   5.503   7.008   2.817
10608SOL    HW132723   5.512   0.028   2.726
10608SOL    HW232724   5.540   0.050   2.885
10609SOL     OW32725   3.941   7.012   2.560
10609SOL    HW132726   3.969   6.972   2.647
10609SOL    HW232727   3.856   0.043   2.573
10610SOL     OW32728   2.024   4.463   4.611
10610SOL    HW132729   2.056   4.552   4.578
10610SOL    HW232730   1.926   4.468   4.630
10611SOL     OW32731   4.780   2.190   6.572
10611SOL    HW132732   4.815   2.233   6.655
10611SOL    HW232733   4.687   2.223   6.555
10612SOL     OW32734   1.662   0.351   1.238
10612SOL    HW132735   1.645   0.324   1.333
10612SOL    HW232736   1.578   0.338   1.185
10613SOL     OW32737   0.564   6.434   0.047
10613SOL    HW132738   0.625   6.446   0.125
10613SOL    HW232739   0.555   6.521   7.019
10614SOL     OW32740   6.894   0.716   2.798
10614SOL    HW132741   6.971   0.652   2.795
10614SOL    HW232742   6.833   0.690   2.873
10615SOL     OW32743   0.268   6.402   5.116
10615SOL    HW132744   0.321   6.336   5.063
10615SOL    HW232745   0.286   6.389   5.213
10616SOL     OW32746   2.721   5.991   1.514
10616SOL    HW132747   2.795   6.028   1.459
10616SOL    HW232748   2.677   5.916   1.464
10617SOL     OW32749   0.416   1.494   6.988
10617SOL    HW132750   0.466   1.418   6.946
10617SOL    HW232751   0.430   1.491   0.066
10618SOL     OW32752   6.103   3.855   0.681
10618SOL    HW132753   6.063   3.779   0.630
10618SOL    HW232754   6.201   3.836   0.696
10619SOL     OW32755   0.760   3.715   3.045
10619SOL    HW132756   0.689   3.783   3.062
10619SOL    HW232757   0.782   3.713   2.948
10620SOL     OW32758   1.669   5.268   4.569
10620SOL    HW132759   1.646   5.174   4.545
10620SOL    HW232760   1.598   5.306   4.628
10621SOL     OW32761   3.492   6.195   0.699
10621SOL    HW132762   3.469   6.126   0.630
10621SOL    HW232763   3.500   6.151   0.788
10622SOL     OW32764   4.212   1.906   0.871
10622SOL    HW132765   4.285   1.906   0.939
10622SOL    HW232766   4.149   1.982   0.889
10623SOL     OW32767   0.141   1.065   4.769
10623SOL    HW132768   0.048   1.098   4.783
10623SOL    HW232769   0.193   1.131   4.715
10624SOL     OW32770   2.943   0.863   3.696
10624SOL    HW132771   2.903   0.953   3.715
10624SOL    HW232772   3.021   0.847   3.757
10625SOL     OW32773   0.707   2.943   0.534
10625SOL    HW132774   0.633   2.964   0.470
10625SOL    HW232775   0.792   2.932   0.484
10626SOL     OW32776   5.914   2.565   2.105
10626SOL    HW132777   5.998   2.601   2.063
10626SOL    HW232778   5.900   2.471   2.073
10627SOL     OW32779   5.525   6.023   4.740
10627SOL    HW132780   5.472   5.992   4.819
10627SOL    HW232781   5.592   5.953   4.716
10628SOL     OW32782   0.059   5.797   5.875
10628SOL    HW132783   0.036   5.893   5.887
10628SOL    HW232784   0.003   5.741   5.936
10629SOL     OW32785   2.553   4.346   0.075
10629SOL    HW132786   2.649   4.358   0.049
10629SOL    HW232787   2.548   4.304   0.165
10630SOL     OW32788   6.147   0.567   1.949
10630SOL    HW132789   6.187   0.524   2.029
10630SOL    HW232790   6.065   0.517   1.920
10631SOL     OW32791   1.371   6.788   4.965
10631SOL    HW132792   1.462   6.774   5.004
10631SOL    HW232793   1.346   6.709   4.909
10632SOL     OW32794   6.918   3.091   6.250
10632SOL    HW132795   6.881   3.120   6.162
10632SOL    HW232796   7.007   3.048   6.237
10633SOL     OW32797   1.237   5.183   0.390
10633SOL    HW132798   1.142   5.153   0.383
10633SOL    HW232799   1.277   5.151   0.476
10634SOL     OW32800   3.511   6.359   2.351
10634SOL    HW132801   3.422   6.398   2.330
10634SOL    HW232802   3.583   6.423   2.324
10635SOL     OW32803   1.734   1.261   1.185
10635SOL    HW132804   1.722   1.247   1.284
10635SOL    HW232805   1.705   1.353   1.160
10636SOL     OW32806   5.099   1.327   1.012
10636SOL    HW132807   5.176   1.390   1.025
10636SOL    HW232808   5.037   1.334   1.090
10637SOL     OW32809   2.773   4.261   6.192
10637SOL    HW132810   2.850   4.282   6.132
10637SOL    HW232811   2.808   4.237   6.283
10638SOL     OW32812   6.678   6.900   6.028
10638SOL    HW132813   6.658   6.997   6.015
10638SOL    HW232814   6.768   6.890   6.071
10639SOL     OW32815   3.413   2.108   5.002
10639SOL    HW132816   3.342   2.178   4.985
10639SOL    HW232817   3.377   2.040   5.066
10640SOL     OW32818   4.621   6.259   0.756
10640SOL    HW132819   4.567   6.234   0.675
10640SOL    HW232820   4.600   6.196   0.830
10641SOL     OW32821   3.454   6.954   6.818
10641SOL    HW132822   3.432   6.943   6.915
10641SOL    HW232823   3.551   6.975   6.807
10642SOL     OW32824   6.984   5.055   0.311
10642SOL    HW132825   0.009   5.138   0.343
10642SOL    HW232826   6.913   5.029   0.376
10643SOL     OW32827   4.160   3.165   5.365
10643SOL    HW132828   4.125   3.235   5.303
10643SOL    HW232829   4.258   3.178   5.378
10644SOL     OW32830   3.778   1.240   5.061
10644SOL    HW132831   3.789   1.339   5.068
10644SOL    HW232832   3.842   1.203   4.994
10645SOL     OW32833   2.287   0.024   4.706
10645SOL    HW132834   2.261   7.019   4.800
10645SOL    HW232835   2.332   0.113   4.707
10646SOL     OW32836   0.189   4.699   6.757
10646SOL    HW132837   0.229   4.659   6.675
10646SOL    HW232838   0.262   4.733   6.816
10647SOL     OW32839   0.736   5.865   0.594
10647SOL    HW132840   0.790   5.944   0.624
10647SOL    HW232841   0.678   5.892   0.517
10648SOL     OW32842   4.849   4.801   6.204
10648SOL    HW132843   4.922   4.846   6.153
10648SOL    HW232844   4.887   4.723   6.254
10649SOL     OW32845   0.309   4.216   6.145
10649SOL    HW132846   0.340   4.148   6.077
10649SOL    HW232847   0.318   4.178   6.237
10650SOL     OW32848   2.870   0.503   5.619
10650SOL    HW132849   2.891   0.595   5.586
10650SOL    HW232850   2.823   0.452   5.548
10651SOL     OW32851   2.735   0.778   5.533
10651SOL    HW132852   2.637   0.769   5.548
10651SOL    HW232853   2.761   0.732   5.448
10652SOL     OW32854   3.917   1.636   0.402
10652SOL    HW132855   3.922   1.561   0.337
10652SOL    HW232856   3.928   1.723   0.353
10653SOL     OW32857   6.451   3.913   4.083
10653SOL    HW132858   6.504   3.830   4.067
10653SOL    HW232859   6.432   3.958   3.996
10654SOL     OW32860   4.499   0.680   1.979
10654SOL    HW132861   4.502   0.621   2.060
10654SOL    HW232862   4.514   0.625   1.897
10655SOL     OW32863   2.465   5.496   1.653
10655SOL    HW132864   2.424   5.548   1.729
10655SOL    HW232865   2.394   5.440   1.610
10656SOL     OW32866   6.518   2.610   6.581
10656SOL    HW132867   6.605   2.653   6.604
10656SOL    HW232868   6.475   2.659   6.505
10657SOL     OW32869   6.497   0.182   1.097
10657SOL    HW132870   6.581   0.149   1.053
10657SOL    HW232871   6.522   0.239   1.176
10658SOL     OW32872   0.096   6.200   4.109
10658SOL    HW132873   0.018   6.217   4.049
10658SOL    HW232874   0.063   6.178   4.201
10659SOL     OW32875   4.854   1.219   1.466
10659SOL    HW132876   4.811   1.133   1.441
10659SOL    HW232877   4.815   1.253   1.552
10660SOL     OW32878   5.778   5.654   5.963
10660SOL    HW132879   5.825   5.635   5.877
10660SOL    HW232880   5.698   5.712   5.946
10661SOL     OW32881   0.239   0.606   2.160
10661SOL    HW132882   0.185   0.661   2.225
10661SOL    HW232883   0.228   0.510   2.182
10662SOL     OW32884   6.844   1.955   0.136
10662SOL    HW132885   6.755   1.978   0.097
10662SOL    HW232886   6.831   1.891   0.211
10663SOL     OW32887   0.862   2.331   0.488
10663SOL    HW132888   0.772   2.359   0.456
10663SOL    HW232889   0.933   2.371   0.429
10664SOL     OW32890   2.157   5.032   5.843
10664SOL    HW132891   2.183   5.070   5.932
10664SOL    HW232892   2.073   4.978   5.854
10665SOL     OW32893   5.940   1.592   6.883
10665SOL    HW132894   6.003   1.570   6.957
10665SOL    HW232895   5.853   1.544   6.897
10666SOL     OW32896   0.612   6.970   0.392
10666SOL    HW132897   0.661   6.945   0.477
10666SOL    HW232898   0.515   6.952   0.403
10667SOL     OW32899   2.591   2.645   5.783
10667SOL    HW132900   2.564   2.581   5.854
10667SOL    HW232901   2.634   2.596   5.708
10668SOL     OW32902   2.149   0.889   6.285
10668SOL    HW132903   2.126   0.973   6.236
10668SOL    HW232904   2.235   0.901   6.334
10669SOL     OW32905   1.758   6.265   6.310
10669SOL    HW132906   1.717   6.175   6.298
10669SOL    HW232907   1.750   6.293   6.406
10670SOL     OW32908   6.324   4.109   4.918
10670SOL    HW132909   6.270   4.184   4.955
10670SOL    HW232910   6.422   4.129   4.930
10671SOL     OW32911   1.929   2.912   3.007
10671SOL    HW132912   1.836   2.898   2.973
10671SOL    HW232913   1.965   2.999   2.972
10672SOL     OW32914   6.893   2.401   0.940
10672SOL    HW132915   6.878   2.422   0.843
10672SOL    HW232916   6.968   2.336   0.949
10673SOL     OW32917   3.315   3.857   4.055
10673SOL    HW132918   3.342   3.953   4.060
10673SOL    HW232919   3.346   3.818   3.969
10674SOL     OW32920   4.055   1.377   2.402
10674SOL    HW132921   4.086   1.292   2.443
10674SOL    HW232922   3.958   1.369   2.377
10675SOL     OW32923   1.051   1.255   5.448
10675SOL    HW132924   0.974   1.319   5.445
10675SOL    HW232925   1.072   1.233   5.543
10676SOL     OW32926   6.905   0.638   6.765
10676SOL    HW132927   6.833   0.587   6.718
10676SOL    HW232928   6.993   0.594   6.746
10677SOL     OW32929   5.741   1.088   0.738
10677SOL    HW132930   5.752   1.176   0.690
10677SOL    HW232931   5.793   1.089   0.823
10678SOL     OW32932   1.660   5.294   3.354
10678SOL    HW132933   1.722   5.216   3.369
10678SOL    HW232934   1.681   5.336   3.266
10679SOL     OW32935   5.151   4.956   3.820
10679SOL    HW132936   5.136   5.019   3.896
10679SOL    HW232937   5.242   4.916   3.827
10680SOL     OW32938   0.479   2.689   3.534
10680SOL    HW132939   0.454   2.635   3.614
10680SOL    HW232940   0.399   2.700   3.474
10681SOL     OW32941   0.376   2.687   6.916
10681SOL    HW132942   0.347   2.626   6.990
10681SOL    HW232943   0.406   2.632   6.838
10682SOL     OW32944   6.410   1.884   3.274
10682SOL    HW132945   6.445   1.850   3.187
10682SOL    HW232946   6.449   1.831   3.349
10683SOL     OW32947   0.982   0.584   4.154
10683SOL    HW132948   0.913   0.523   4.113
10683SOL    HW232949   0.954   0.608   4.247
10684SOL     OW32950   5.120   5.836   0.811
10684SOL    HW132951   5.040   5.859   0.755
10684SOL    HW232952   5.153   5.919   0.856
10685SOL     OW32953   6.042   2.853   2.397
10685SOL    HW132954   6.009   2.763   2.426
10685SOL    HW232955   6.139   2.861   2.418
10686SOL     OW32956   4.386   4.436   1.456
10686SOL    HW132957   4.387   4.394   1.365
10686SOL    HW232958   4.403   4.535   1.447
10687SOL     OW32959   6.601   5.257   1.073
10687SOL    HW132960   6.524   5.198   1.050
10687SOL    HW232961   6.626   5.243   1.169
10688SOL     OW32962   0.826   4.913   1.198
10688SOL    HW132963   0.744   4.855   1.193
10688SOL    HW232964   0.892   4.871   1.260
10689SOL     OW32965   1.180   0.342   0.774
10689SOL    HW132966   1.128   0.317   0.856
10689SOL    HW232967   1.277   0.324   0.788
10690SOL     OW32968   4.557   6.959   3.184
10690SOL    HW132969   4.551   6.912   3.272
10690SOL    HW232970   4.465   6.981   3.151
10691SOL     OW32971   5.757   0.950   1.622
10691SOL    HW132972   5.844   0.985   1.657
10691SOL    HW232973   5.724   0.877   1.681
10692SOL     OW32974   6.519   6.738   3.871
10692SOL    HW132975   6.472   6.759   3.785
10692SOL    HW232976   6.454   6.743   3.947
10693SOL     OW32977   4.884   3.215   4.591
10693SOL    HW132978   4.790   3.181   4.602
10693SOL    HW232979   4.935   3.199   4.676
10694SOL     OW32980   2.458   6.030   0.441
10694SOL    HW132981   2.434   6.073   0.528
10694SOL    HW232982   2.493   6.100   0.379
10695SOL     OW32983   5.615   3.482   5.801
10695SOL    HW132984   5.713   3.470   5.819
10695SOL    HW232985   5.586   3.418   5.731
10696SOL     OW32986   6.723   6.843   1.040
10696SOL    HW132987   6.678   6.770   1.092
10696SOL    HW232988   6.768   6.804   0.960
10697SOL     OW32989   1.991   6.120   3.130
10697SOL    HW132990   1.902   6.136   3.171
10697SOL    HW232991   2.029   6.034   3.165
10698SOL     OW32992   3.028   0.506   4.767
10698SOL    HW132993   2.954   0.563   4.732
10698SOL    HW232994   3.019   0.413   4.731
10699SOL     OW32995   1.560   2.698   3.755
10699SOL    HW132996   1.536   2.655   3.842
10699SOL    HW232997   1.496   2.772   3.736
10700SOL     OW32998   0.951   2.981   2.506
10700SOL    HW132999   0.932   2.919   2.430
10700SOL    HW233000   0.923   2.937   2.592
10701SOL     OW33001   2.599   0.109   1.134
10701SOL    HW133002   2.533   0.093   1.061
10701SOL    HW233003   2.689   0.129   1.094
10702SOL     OW33004   4.890   2.261   0.636
10702SOL    HW133005   4.877   2.332   0.706
10702SOL    HW233006   4.973   2.280   0.585
10703SOL     OW33007   3.670   3.197   4.296
10703SOL    HW133008   3.573   3.178   4.304
10703SOL    HW233009   3.693   3.277   4.351
10704SOL     OW33010   5.625   5.351   2.352
10704SOL    HW133011   5.665   5.290   2.421
10704SOL    HW233012   5.613   5.442   2.391
10705SOL     OW33013   1.314   3.194   6.443
10705SOL    HW133014   1.225   3.236   6.429
10705SOL    HW233015   1.371   3.209   6.362
10706SOL     OW33016   3.652   3.165   0.905
10706SOL    HW133017   3.677   3.087   0.962
10706SOL    HW233018   3.733   3.200   0.859
10707SOL     OW33019   5.877   6.965   6.552
10707SOL    HW133020   5.959   7.008   6.590
10707SOL    HW233021   5.874   6.978   6.453
10708SOL     OW33022   4.844   1.857   1.710
10708SOL    HW133023   4.830   1.859   1.809
10708SOL    HW233024   4.756   1.868   1.664
10709SOL     OW33025   0.944   0.218   6.134
10709SOL    HW133026   0.947   0.272   6.218
10709SOL    HW233027   0.912   0.126   6.155
10710SOL     OW33028   0.349   6.019   3.510
10710SOL    HW133029   0.305   5.977   3.431
10710SOL    HW233030   0.442   6.045   3.487
10711SOL     OW33031   2.061   4.404   5.621
10711SOL    HW133032   1.971   4.371   5.593
10711SOL    HW233033   2.109   4.442   5.543
10712SOL     OW33034   3.427   1.864   6.636
10712SOL    HW133035   3.404   1.777   6.680
10712SOL    HW233036   3.351   1.928   6.648
10713SOL     OW33037   2.380   0.033   0.264
10713SOL    HW133038   2.303   0.096   0.258
10713SOL    HW233039   2.398   7.014   0.175
10714SOL     OW33040   5.223   5.403   4.235
10714SOL    HW133041   5.124   5.418   4.238
10714SOL    HW233042   5.243   5.308   4.260
10715SOL     OW33043   6.037   0.586   3.025
10715SOL    HW133044   6.026   0.629   2.936
10715SOL    HW233045   6.006   0.491   3.021
10716SOL     OW33046   6.832   0.982   2.013
10716SOL    HW133047   6.758   0.916   2.028
10716SOL    HW233048   6.903   0.941   1.956
10717SOL     OW33049   0.628   6.520   1.981
10717SOL    HW133050   0.644   6.424   1.956
10717SOL    HW233051   0.558   6.559   1.920
10718SOL     OW33052   1.028   4.452   5.145
10718SOL    HW133053   0.982   4.533   5.106
10718SOL    HW233054   1.067   4.397   5.071
10719SOL     OW33055   3.794   6.524   2.934
10719SOL    HW133056   3.762   6.434   2.905
10719SOL    HW233057   3.746   6.552   3.017
10720SOL     OW33058   0.487   2.944   5.825
10720SOL    HW133059   0.421   2.982   5.890
10720SOL    HW233060   0.486   2.999   5.741
10721SOL     OW33061   5.509   1.581   4.068
10721SOL    HW133062   5.529   1.631   4.153
10721SOL    HW233063   5.592   1.534   4.037
10722SOL     OW33064   0.737   5.458   0.474
10722SOL    HW133065   0.656   5.447   0.530
10722SOL    HW233066   0.733   5.546   0.427
10723SOL     OW33067   6.664   4.088   6.478
10723SOL    HW133068   6.637   4.080   6.574
10723SOL    HW233069   6.762   4.107   6.472
10724SOL     OW33070   3.457   6.772   5.875
10724SOL    HW133071   3.446   6.860   5.828
10724SOL    HW233072   3.382   6.762   5.942
10725SOL     OW33073   0.245   6.778   5.391
10725SOL    HW133074   0.207   6.692   5.357
10725SOL    HW233075   0.172   6.845   5.401
10726SOL     OW33076   6.978   0.323   3.161
10726SOL    HW133077   7.012   0.285   3.247
10726SOL    HW233078   6.939   0.249   3.105
10727SOL     OW33079   4.627   6.377   6.174
10727SOL    HW133080   4.693   6.303   6.180
10727SOL    HW233081   4.642   6.429   6.090
10728SOL     OW33082   5.884   5.718   3.549
10728SOL    HW133083   5.846   5.809   3.534
10728SOL    HW233084   5.886   5.699   3.648
10729SOL     OW33085   0.143   2.951   4.356
10729SOL    HW133086   0.073   2.882   4.375
10729SOL    HW233087   0.223   2.907   4.317
10730SOL     OW33088   1.599   6.190   4.420
10730SOL    HW133089   1.557   6.209   4.331
10730SOL    HW233090   1.609   6.092   4.432
10731SOL     OW33091   4.960   4.475   6.064
10731SOL    HW133092   4.879   4.507   6.015
10731SOL    HW233093   4.959   4.511   6.158
10732SOL     OW33094   6.083   6.094   1.969
10732SOL    HW133095   6.085   6.069   2.066
10732SOL    HW233096   6.166   6.061   1.924
10733SOL     OW33097   0.557   1.472   6.037
10733SOL    HW133098   0.531   1.376   6.052
10733SOL    HW233099   0.573   1.516   6.125
10734SOL     OW33100   0.674   1.060   4.484
10734SOL    HW133101   0.756   1.118   4.483
10734SOL    HW233102   0.647   1.044   4.579
10735SOL     OW33103   6.638   0.430   1.423
10735SOL    HW133104   6.727   0.412   1.467
10735SOL    HW233105   6.652   0.484   1.340
10736SOL     OW33106   5.680   6.011   3.796
10736SOL    HW133107   5.764   6.005   3.850
10736SOL    HW233108   5.606   6.046   3.853
10737SOL     OW33109   6.999   0.584   0.921
10737SOL    HW133110   6.934   0.644   0.967
10737SOL    HW233111   6.973   0.489   0.936
10738SOL     OW33112   1.391   6.578   2.018
10738SOL    HW133113   1.296   6.607   2.003
10738SOL    HW233114   1.394   6.512   2.092
10739SOL     OW33115   4.809   2.904   4.613
10739SOL    HW133116   4.879   2.876   4.546
10739SOL    HW233117   4.721   2.863   4.588
10740SOL     OW33118   2.824   0.567   6.159
10740SOL    HW133119   2.800   0.541   6.066
10740SOL    HW233120   2.922   0.585   6.164
10741SOL     OW33121   1.486   2.674   4.263
10741SOL    HW133122   1.394   2.638   4.279
10741SOL    HW233123   1.553   2.621   4.316
10742SOL     OW33124   0.272   0.143   2.233
10742SOL    HW133125   0.333   0.108   2.162
10742SOL    HW233126   0.302   0.234   2.261
10743SOL     OW33127   3.867   2.378   5.717
10743SOL    HW133128   3.816   2.368   5.631
10743SOL    HW233129   3.962   2.400   5.696
10744SOL     OW33130   1.881   2.347   1.122
10744SOL    HW133131   1.793   2.325   1.164
10744SOL    HW233132   1.952   2.349   1.192
10745SOL     OW33133   2.860   5.625   1.467
10745SOL    HW133134   2.782   5.569   1.493
10745SOL    HW233135   2.940   5.566   1.452
10746SOL     OW33136   2.385   5.471   6.349
10746SOL    HW133137   2.301   5.466   6.294
10746SOL    HW233138   2.448   5.535   6.306
10747SOL     OW33139   6.727   6.943   4.593
10747SOL    HW133140   6.769   6.992   4.517
10747SOL    HW233141   6.753   6.847   4.591
10748SOL     OW33142   2.859   6.593   2.732
10748SOL    HW133143   2.810   6.660   2.787
10748SOL    HW233144   2.940   6.635   2.691
10749SOL     OW33145   4.847   3.560   1.951
10749SOL    HW133146   4.872   3.569   2.047
10749SOL    HW233147   4.801   3.643   1.920
10750SOL     OW33148   3.889   1.859   3.897
10750SOL    HW133149   3.900   1.894   3.804
10750SOL    HW233150   3.831   1.921   3.950
10751SOL     OW33151   6.367   6.181   3.805
10751SOL    HW133152   6.410   6.247   3.743
10751SOL    HW233153   6.424   6.099   3.810
10752SOL     OW33154   0.505   5.806   6.757
10752SOL    HW133155   0.505   5.767   6.665
10752SOL    HW233156   0.580   5.765   6.810
10753SOL     OW33157   5.315   6.603   5.147
10753SOL    HW133158   5.402   6.568   5.111
10753SOL    HW233159   5.300   6.696   5.113
10754SOL     OW33160   0.148   5.533   2.218
10754SOL    HW133161   0.054   5.543   2.186
10754SOL    HW233162   0.148   5.495   2.310
10755SOL     OW33163   0.245   2.003   1.827
10755SOL    HW133164   0.243   1.905   1.847
10755SOL    HW233165   0.282   2.017   1.735
10756SOL     OW33166   1.304   6.878   6.024
10756SOL    HW133167   1.282   6.907   6.117
10756SOL    HW233168   1.289   6.779   6.016
10757SOL     OW33169   0.161   2.777   1.915
10757SOL    HW133170   0.152   2.756   1.818
10757SOL    HW233171   0.146   2.875   1.929
10758SOL     OW33172   0.959   1.664   0.576
10758SOL    HW133173   0.863   1.691   0.588
10758SOL    HW233174   0.963   1.581   0.520
10759SOL     OW33175   3.833   4.020   5.410
10759SOL    HW133176   3.924   4.057   5.393
10759SOL    HW233177   3.764   4.088   5.386
10760SOL     OW33178   0.757   4.894   0.032
10760SOL    HW133179   0.857   4.900   0.034
10760SOL    HW233180   0.721   4.957   6.985
10761SOL     OW33181   1.543   1.149   6.793
10761SOL    HW133182   1.501   1.131   6.704
10761SOL    HW233183   1.568   1.063   6.837
10762SOL     OW33184   1.664   6.432   0.802
10762SOL    HW133185   1.736   6.469   0.861
10762SOL    HW233186   1.638   6.500   0.734
10763SOL     OW33187   5.097   1.415   2.544
10763SOL    HW133188   5.168   1.344   2.548
10763SOL    HW233189   5.010   1.373   2.517
10764SOL     OW33190   5.333   6.164   5.473
10764SOL    HW133191   5.323   6.067   5.496
10764SOL    HW233192   5.405   6.176   5.405
10765SOL     OW33193   0.175   2.718   0.996
10765SOL    HW133194   0.234   2.769   1.059
10765SOL    HW233195   0.119   2.782   0.944
10766SOL     OW33196   3.081   4.757   6.599
10766SOL    HW133197   3.059   4.698   6.676
10766SOL    HW233198   3.000   4.768   6.541
10767SOL     OW33199   2.032   4.781   6.706
10767SOL    HW133200   1.999   4.706   6.764
10767SOL    HW233201   1.955   4.840   6.682
10768SOL     OW33202   5.396   6.281   6.775
10768SOL    HW133203   5.307   6.313   6.740
10768SOL    HW233204   5.469   6.331   6.729
10769SOL     OW33205   2.985   3.757   4.832
10769SOL    HW133206   2.944   3.668   4.811
10769SOL    HW233207   3.023   3.797   4.749
10770SOL     OW33208   4.860   6.999   3.896
10770SOL    HW133209   4.819   0.067   3.915
10770SOL    HW233210   4.876   6.990   3.797
10771SOL     OW33211   4.489   5.854   5.943
10771SOL    HW133212   4.439   5.823   6.023
10771SOL    HW233213   4.478   5.952   5.932
10772SOL     OW33214   4.853   4.040   3.084
10772SOL    HW133215   4.862   4.055   3.182
10772SOL    HW233216   4.766   4.078   3.052
10773SOL     OW33217   0.576   4.005   0.852
10773SOL    HW133218   0.502   4.039   0.793
10773SOL    HW233219   0.584   4.064   0.932
10774SOL     OW33220   0.132   3.190   0.638
10774SOL    HW133221   0.156   3.278   0.678
10774SOL    HW233222   0.199   3.164   0.569
10775SOL     OW33223   2.219   4.828   0.024
10775SOL    HW133224   2.178   4.907   0.070
10775SOL    HW233225   2.179   4.744   0.061
10776SOL     OW33226   0.667   3.491   3.182
10776SOL    HW133227   0.742   3.454   3.239
10776SOL    HW233228   0.689   3.585   3.156
10777SOL     OW33229   1.607   6.963   1.647
10777SOL    HW133230   1.687   6.927   1.695
10777SOL    HW233231   1.586   0.034   1.682
10778SOL     OW33232   4.782   0.300   3.863
10778SOL    HW133233   4.694   0.274   3.823
10778SOL    HW233234   4.772   0.304   3.963
10779SOL     OW33235   5.714   2.707   5.940
10779SOL    HW133236   5.669   2.781   5.991
10779SOL    HW233237   5.657   2.625   5.942
10780SOL     OW33238   1.085   5.186   5.109
10780SOL    HW133239   1.071   5.167   5.012
10780SOL    HW233240   1.141   5.268   5.120
10781SOL     OW33241   6.255   2.311   6.053
10781SOL    HW133242   6.298   2.401   6.042
10781SOL    HW233243   6.319   2.250   6.101
10782SOL     OW33244   1.044   3.322   5.469
10782SOL    HW133245   1.116   3.344   5.403
10782SOL    HW233246   0.995   3.240   5.439
10783SOL     OW33247   1.500   4.280   3.861
10783SOL    HW133248   1.500   4.229   3.775
10783SOL    HW233249   1.444   4.232   3.928
10784SOL     OW33250   4.742   5.474   3.669
10784SOL    HW133251   4.662   5.532   3.654
10784SOL    HW233252   4.712   5.384   3.701
10785SOL     OW33253   1.663   5.435   1.709
10785SOL    HW133254   1.658   5.338   1.682
10785SOL    HW233255   1.616   5.447   1.796
10786SOL     OW33256   4.876   1.543   2.737
10786SOL    HW133257   4.814   1.497   2.674
10786SOL    HW233258   4.952   1.483   2.759
10787SOL     OW33259   3.500   1.257   3.596
10787SOL    HW133260   3.570   1.221   3.535
10787SOL    HW233261   3.543   1.303   3.674
10788SOL     OW33262   1.650   3.074   6.942
10788SOL    HW133263   1.745   3.049   6.921
10788SOL    HW233264   1.593   3.058   6.862
10789SOL     OW33265   6.285   1.804   2.781
10789SOL    HW133266   6.275   1.752   2.697
10789SOL    HW233267   6.240   1.893   2.772
10790SOL     OW33268   0.234   2.025   5.308
10790SOL    HW133269   0.174   2.105   5.312
10790SOL    HW233270   0.216   1.966   5.387
10791SOL     OW33271   1.933   3.641   3.678
10791SOL    HW133272   1.994   3.595   3.613
10791SOL    HW233273   1.957   3.615   3.771
10792SOL     OW33274   3.880   1.048   2.173
10792SOL    HW133275   3.833   0.984   2.111
10792SOL    HW233276   3.900   1.003   2.259
10793SOL     OW33277   3.752   2.034   4.700
10793SOL    HW133278   3.787   1.940   4.695
10793SOL    HW233279   3.771   2.081   4.614
10794SOL     OW33280   4.763   2.749   6.376
10794SOL    HW133281   4.731   2.837   6.410
10794SOL    HW233282   4.692   2.680   6.388
10795SOL     OW33283   6.181   2.966   3.659
10795SOL    HW133284   6.223   2.881   3.693
10795SOL    HW233285   6.176   3.032   3.734
10796SOL     OW33286   0.688   1.611   6.779
10796SOL    HW133287   0.781   1.639   6.805
10796SOL    HW233288   0.650   1.678   6.714
10797SOL     OW33289   5.425   5.127   6.752
10797SOL    HW133290   5.384   5.036   6.746
10797SOL    HW233291   5.519   5.123   6.717
10798SOL     OW33292   1.902   5.913   0.699
10798SOL    HW133293   1.856   6.002   0.695
10798SOL    HW233294   2.001   5.928   0.692
10799SOL     OW33295   1.968   0.628   2.897
10799SOL    HW133296   1.995   0.656   2.804
10799SOL    HW233297   2.048   0.629   2.956
10800SOL     OW33298   2.200   0.625   4.521
10800SOL    HW133299   2.120   0.685   4.528
10800SOL    HW233300   2.190   0.565   4.442
10801SOL     OW33301   2.774   6.270   6.587
10801SOL    HW133302   2.757   6.201   6.517
10801SOL    HW233303   2.845   6.332   6.555
10802SOL     OW33304   0.923   4.933   4.164
10802SOL    HW133305   0.996   5.001   4.162
10802SOL    HW233306   0.878   4.936   4.253
10803SOL     OW33307   6.630   4.455   4.252
10803SOL    HW133308   6.704   4.455   4.320
10803SOL    HW233309   6.646   4.528   4.186
10804SOL     OW33310   4.245   4.747   0.274
10804SOL    HW133311   4.220   4.815   0.343
10804SOL    HW233312   4.219   4.656   0.306
10805SOL     OW33313   4.541   6.347   0.371
10805SOL    HW133314   4.563   6.421   0.308
10805SOL    HW233315   4.605   6.272   0.358
10806SOL     OW33316   5.131   2.880   5.593
10806SOL    HW133317   5.198   2.907   5.662
10806SOL    HW233318   5.053   2.943   5.596
10807SOL     OW33319   4.532   2.605   5.028
10807SOL    HW133320   4.544   2.572   5.121
10807SOL    HW233321   4.603   2.673   5.008
10808SOL     OW33322   0.511   2.577   0.190
10808SOL    HW133323   0.513   2.669   0.230
10808SOL    HW233324   0.421   2.560   0.150
10809SOL     OW33325   1.043   0.628   2.597
10809SOL    HW133326   0.945   0.633   2.616
10809SOL    HW233327   1.090   0.588   2.676
10810SOL     OW33328   1.555   1.300   6.091
10810SOL    HW133329   1.619   1.224   6.103
10810SOL    HW233330   1.471   1.282   6.142
10811SOL     OW33331   4.003   6.422   6.393
10811SOL    HW133332   3.987   6.443   6.296
10811SOL    HW233333   4.013   6.323   6.405
10812SOL     OW33334   6.706   3.081   3.309
10812SOL    HW133335   6.738   3.067   3.402
10812SOL    HW233336   6.610   3.107   3.310
10813SOL     OW33337   3.063   5.868   2.467
10813SOL    HW133338   2.982   5.927   2.470
10813SOL    HW233339   3.035   5.775   2.446
10814SOL     OW33340   2.404   6.329   4.620
10814SOL    HW133341   2.393   6.232   4.639
10814SOL    HW233342   2.466   6.342   4.543
10815SOL     OW33343   5.463   1.737   5.565
10815SOL    HW133344   5.422   1.828   5.577
10815SOL    HW233345   5.395   1.667   5.588
10816SOL     OW33346   2.141   2.103   1.349
10816SOL    HW133347   2.096   2.114   1.438
10816SOL    HW233348   2.224   2.159   1.347
10817SOL     OW33349   3.639   1.761   2.040
10817SOL    HW133350   3.592   1.715   1.964
10817SOL    HW233351   3.605   1.854   2.048
10818SOL     OW33352   4.695   3.297   6.237
10818SOL    HW133353   4.688   3.269   6.332
10818SOL    HW233354   4.746   3.228   6.185
10819SOL     OW33355   2.101   3.991   5.145
10819SOL    HW133356   2.184   4.022   5.099
10819SOL    HW233357   2.111   3.895   5.171
10820SOL     OW33358   0.899   6.115   5.577
10820SOL    HW133359   0.986   6.139   5.533
10820SOL    HW233360   0.825   6.170   5.539
10821SOL     OW33361   0.311   0.549   6.668
10821SOL    HW133362   0.250   0.502   6.732
10821SOL    HW233363   0.366   0.616   6.719
10822SOL     OW33364   0.779   4.598   6.261
10822SOL    HW133365   0.846   4.663   6.224
10822SOL    HW233366   0.736   4.548   6.185
10823SOL     OW33367   1.734   2.143   0.762
10823SOL    HW133368   1.649   2.109   0.723
10823SOL    HW233369   1.802   2.069   0.762
10824SOL     OW33370   5.631   1.291   4.773
10824SOL    HW133371   5.689   1.278   4.854
10824SOL    HW233372   5.678   1.352   4.709
10825SOL     OW33373   3.154   1.095   2.082
10825SOL    HW133374   3.110   1.168   2.133
10825SOL    HW233375   3.233   1.132   2.031
10826SOL     OW33376   6.772   3.537   1.399
10826SOL    HW133377   6.764   3.607   1.470
10826SOL    HW233378   6.692   3.541   1.340
10827SOL     OW33379   0.778   2.600   4.298
10827SOL    HW133380   0.704   2.563   4.242
10827SOL    HW233381   0.767   2.572   4.393
10828SOL     OW33382   2.500   4.813   0.311
10828SOL    HW133383   2.586   4.763   0.314
10828SOL    HW233384   2.424   4.749   0.311
10829SOL     OW33385   2.367   4.142   1.698
10829SOL    HW133386   2.394   4.230   1.736
10829SOL    HW233387   2.449   4.093   1.667
10830SOL     OW33388   6.425   0.942   3.658
10830SOL    HW133389   6.359   0.996   3.606
10830SOL    HW233390   6.462   0.869   3.599
10831SOL     OW33391   5.025   2.284   2.146
10831SOL    HW133392   4.944   2.258   2.094
10831SOL    HW233393   5.001   2.300   2.241
10832SOL     OW33394   1.227   2.949   2.197
10832SOL    HW133395   1.302   2.893   2.163
10832SOL    HW233396   1.200   2.917   2.288
10833SOL     OW33397   3.236   6.736   4.542
10833SOL    HW133398   3.267   6.763   4.451
10833SOL    HW233399   3.315   6.712   4.598
10834SOL     OW33400   0.157   1.600   5.837
10834SOL    HW133401   0.070   1.558   5.814
10834SOL    HW233402   0.162   1.617   5.936
10835SOL     OW33403   0.988   2.099   0.618
10835SOL    HW133404   0.905   2.066   0.664
10835SOL    HW233405   0.970   2.190   0.579
10836SOL     OW33406   0.526   2.404   1.359
10836SOL    HW133407   0.591   2.472   1.389
10836SOL    HW233408   0.436   2.446   1.348
10837SOL     OW33409   1.004   5.558   0.737
10837SOL    HW133410   1.060   5.549   0.819
10837SOL    HW233411   0.993   5.468   0.695
10838SOL     OW33412   6.793   5.980   0.642
10838SOL    HW133413   6.710   5.981   0.698
10838SOL    HW233414   6.870   5.948   0.697
10839SOL     OW33415   2.306   1.788   6.818
10839SOL    HW133416   2.359   1.764   6.737
10839SOL    HW233417   2.293   1.887   6.822
10840SOL     OW33418   1.966   0.303   3.249
10840SOL    HW133419   1.979   0.245   3.330
10840SOL    HW233420   1.890   0.266   3.194
10841SOL     OW33421   4.619   4.185   0.648
10841SOL    HW133422   4.612   4.251   0.573
10841SOL    HW233423   4.616   4.234   0.735
10842SOL     OW33424   6.376   1.799   1.918
10842SOL    HW133425   6.436   1.739   1.970
10842SOL    HW233426   6.311   1.744   1.866
10843SOL     OW33427   0.966   2.404   1.201
10843SOL    HW133428   1.024   2.485   1.185
10843SOL    HW233429   1.016   2.322   1.174
10844SOL     OW33430   5.317   7.000   4.516
10844SOL    HW133431   5.385   6.949   4.569
10844SOL    HW233432   5.341   6.995   4.419
10845SOL     OW33433   2.328   3.481   1.318
10845SOL    HW133434   2.298   3.519   1.406
10845SOL    HW233435   2.295   3.538   1.244
10846SOL     OW33436   3.438   3.088   1.865
10846SOL    HW133437   3.515   3.146   1.891
10846SOL    HW233438   3.359   3.146   1.844
10847SOL     OW33439   4.637   1.838   5.529
10847SOL    HW133440   4.675   1.855   5.620
10847SOL    HW233441   4.711   1.827   5.463
10848SOL     OW33442   1.714   0.615   6.885
10848SOL    HW133443   1.691   0.675   6.809
10848SOL    HW233444   1.812   0.621   6.904
10849SOL     OW33445   1.140   4.544   4.547
10849SOL    HW133446   1.132   4.542   4.647
10849SOL    HW233447   1.235   4.528   4.521
10850SOL     OW33448   5.775   0.959   2.833
10850SOL    HW133449   5.811   0.914   2.915
10850SOL    HW233450   5.696   1.016   2.859
10851SOL     OW33451   4.864   2.628   6.674
10851SOL    HW133452   4.839   2.718   6.640
10851SOL    HW233453   4.849   2.559   6.603
10852SOL     OW33454   5.828   0.927   6.044
10852SOL    HW133455   5.754   0.967   6.098
10852SOL    HW233456   5.790   0.890   5.959
10853SOL     OW33457   3.097   0.540   5.226
10853SOL    HW133458   3.084   0.459   5.170
10853SOL    HW233459   3.152   0.607   5.177
10854SOL     OW33460   6.356   6.917   7.008
10854SOL    HW133461   6.259   6.907   0.006
10854SOL    HW233462   6.398   6.826   7.003
10855SOL     OW33463   0.745   5.617   1.359
10855SOL    HW133464   0.668   5.575   1.312
10855SOL    HW233465   0.745   5.716   1.344
10856SOL     OW33466   4.926   6.692   6.857
10856SOL    HW133467   4.999   6.752   6.822
10856SOL    HW233468   4.840   6.743   6.858
10857SOL     OW33469   6.537   6.559   4.656
10857SOL    HW133470   6.462   6.624   4.641
10857SOL    HW233471   6.590   6.551   4.572
10858SOL     OW33472   1.766   2.217   0.420
10858SOL    HW133473   1.814   2.204   0.507
10858SOL    HW233474   1.669   2.199   0.432
10859SOL     OW33475   2.575   5.748   2.174
10859SOL    HW133476   2.673   5.761   2.163
10859SOL    HW233477   2.526   5.813   2.116
10860SOL     OW33478   6.198   1.355   1.518
10860SOL    HW133479   6.259   1.331   1.594
10860SOL    HW233480   6.104   1.355   1.550
10861SOL     OW33481   1.781   4.128   1.340
10861SOL    HW133482   1.761   4.143   1.437
10861SOL    HW233483   1.704   4.082   1.296
10862SOL     OW33484   3.547   4.096   5.412
10862SOL    HW133485   3.508   4.182   5.378
10862SOL    HW233486   3.473   4.036   5.444
10863SOL     OW33487   1.291   0.032   3.115
10863SOL    HW133488   1.323   0.084   3.194
10863SOL    HW233489   1.208   0.074   3.079
10864SOL     OW33490   3.017   3.997   1.932
10864SOL    HW133491   3.034   4.020   2.027
10864SOL    HW233492   3.021   4.080   1.876
10865SOL     OW33493   2.815   1.666   2.576
10865SOL    HW133494   2.780   1.728   2.505
10865SOL    HW233495   2.886   1.608   2.538
10866SOL     OW33496   0.966   3.556   4.376
10866SOL    HW133497   1.006   3.563   4.285
10866SOL    HW233498   0.871   3.588   4.373
10867SOL     OW33499   4.731   2.921   0.261
10867SOL    HW133500   4.808   2.940   0.322
10867SOL    HW233501   4.649   2.901   0.314
10868SOL     OW33502   0.952   6.988   5.535
10868SOL    HW133503   0.967   0.057   5.494
10868SOL    HW233504   1.023   6.925   5.504
10869NA      NA33505   0.149   0.978   6.469
10870NA      NA33506   4.697   4.879   5.003
10871NA      NA33507   0.663   4.754   3.139
10872NA      NA33508   6.453   3.690   3.291
10873NA      NA33509   4.113   2.371   5.309
10874NA      NA33510   2.383   3.916   0.000
10875NA      NA33511   1.654   5.599   0.632
10876NA      NA33512   4.242   4.888   2.251
10877NA      NA33513   5.289   3.419   1.268
10878NA      NA33514   3.830   1.782   0.564
10879NA      NA33515   5.572   6.769   1.394
10880NA      NA33516   2.888   6.528   4.726
10881NA      NA33517   3.527   5.466   2.905
10882NA      NA33518   4.040   5.221   6.577
   7.02102   7.02102   7.02102
