Generated by trjconv : CNT in water t= 265.00000
33518
    1C        C    1   2.840   2.769   4.743
    1C        C    2   2.896   2.720   4.863
    1C        C    3   2.837   2.770   4.980
    1C        C    4   2.848   2.775   4.259
    1C        C    5   2.898   2.724   4.381
    1C        C    6   2.843   2.771   4.502
    1C        C    7   3.011   2.638   4.621
    1C        C    8   2.895   2.718   4.623
    1C        C    9   3.075   2.601   4.742
    1C        C   10   3.004   2.629   4.860
    1C        C   11   3.181   2.492   4.973
    1C        C   12   3.058   2.560   4.970
    1C        C   13   2.850   2.770   3.770
    1C        C   14   2.897   2.720   3.894
    1C        C   15   2.846   2.773   4.015
    1C        C   16   3.018   2.648   4.136
    1C        C   17   2.904   2.731   4.137
    1C        C   18   3.079   2.614   4.258
    1C        C   19   3.014   2.643   4.380
    1C        C   20   3.206   2.551   4.501
    1C        C   21   3.072   2.598   4.500
    1C        C   22   3.277   2.532   4.622
    1C        C   23   3.207   2.549   4.744
    1C        C   24   3.412   2.479   4.862
    1C        C   25   3.271   2.503   4.862
    1C        C   26   3.486   2.476   4.981
    1C        C   27   2.848   2.767   3.280
    1C        C   28   2.902   2.721   3.402
    1C        C   29   2.849   2.767   3.524
    1C        C   30   3.011   2.634   3.647
    1C        C   31   2.899   2.720   3.648
    1C        C   32   3.070   2.599   3.770
    1C        C   33   3.015   2.642   3.893
    1C        C   34   3.207   2.549   4.014
    1C        C   35   3.078   2.607   4.015
    1C        C   36   3.276   2.532   4.136
    1C        C   37   3.210   2.561   4.257
    1C        C   38   3.413   2.501   4.377
    1C        C   39   3.275   2.533   4.380
    1C        C   40   3.485   2.492   4.498
    1C        C   41   3.414   2.499   4.620
    1C        C   42   3.628   2.476   4.740
    1C        C   43   3.486   2.482   4.740
    1C        C   44   3.704   2.479   4.860
    1C        C   45   3.625   2.473   4.975
    1C        C   46   2.829   2.745   2.793
    1C        C   47   2.887   2.707   2.916
    1C        C   48   2.836   2.758   3.037
    1C        C   49   3.012   2.635   3.158
    1C        C   50   2.894   2.712   3.158
    1C        C   51   3.076   2.600   3.279
    1C        C   52   3.015   2.636   3.401
    1C        C   53   3.205   2.548   3.525
    1C        C   54   3.073   2.600   3.524
    1C        C   55   3.272   2.527   3.647
    1C        C   56   3.202   2.550   3.768
    1C        C   57   3.410   2.504   3.889
    1C        C   58   3.271   2.527   3.890
    1C        C   59   3.483   2.505   4.010
    1C        C   60   3.415   2.507   4.134
    1C        C   61   3.627   2.495   4.255
    1C        C   62   3.485   2.494   4.256
    1C        C   63   3.698   2.495   4.377
    1C        C   64   3.626   2.487   4.498
    1C        C   65   3.833   2.537   4.618
    1C        C   66   3.698   2.496   4.619
    1C        C   67   3.901   2.556   4.740
    1C        C   68   3.839   2.518   4.861
    1C        C   69   4.052   2.578   4.976
    1C        C   70   3.921   2.528   4.974
    1C        C   71   2.821   2.733   2.305
    1C        C   72   2.882   2.693   2.426
    1C        C   73   2.828   2.741   2.547
    1C        C   74   3.002   2.624   2.670
    1C        C   75   2.882   2.698   2.670
    1C        C   76   3.065   2.591   2.792
    1C        C   77   3.005   2.629   2.914
    1C        C   78   3.202   2.543   3.034
    1C        C   79   3.073   2.600   3.035
    1C        C   80   3.272   2.526   3.156
    1C        C   81   3.207   2.547   3.279
    1C        C   82   3.410   2.499   3.398
    1C        C   83   3.271   2.523   3.402
    1C        C   84   3.481   2.492   3.521
    1C        C   85   3.411   2.499   3.643
    1C        C   86   3.621   2.498   3.765
    1C        C   87   3.479   2.494   3.766
    1C        C   88   3.692   2.505   3.886
    1C        C   89   3.624   2.503   4.010
    1C        C   90   3.832   2.541   4.130
    1C        C   91   3.695   2.508   4.132
    1C        C   92   3.897   2.566   4.253
    1C        C   93   3.833   2.536   4.375
    1C        C   94   4.027   2.625   4.495
    1C        C   95   3.903   2.556   4.496
    1C        C   96   4.088   2.662   4.617
    1C        C   97   4.028   2.620   4.737
    1C        C   98   4.179   2.765   4.859
    1C        C   99   4.096   2.649   4.859
    1C        C  100   4.202   2.846   4.971
    1C        C  101   2.820   2.728   2.068
    1C        C  102   2.986   2.586   2.189
    1C        C  103   2.872   2.674   2.186
    1C        C  104   3.060   2.567   2.309
    1C        C  105   3.000   2.614   2.428
    1C        C  106   3.193   2.528   2.546
    1C        C  107   3.063   2.582   2.550
    1C        C  108   3.265   2.521   2.667
    1C        C  109   3.198   2.543   2.790
    1C        C  110   3.407   2.497   2.910
    1C        C  111   3.268   2.523   2.911
    1C        C  112   3.479   2.487   3.031
    1C        C  113   3.411   2.503   3.154
    1C        C  114   3.623   2.493   3.276
    1C        C  115   3.482   2.499   3.276
    1C        C  116   3.694   2.501   3.398
    1C        C  117   3.622   2.496   3.520
    1C        C  118   3.827   2.541   3.643
    1C        C  119   3.691   2.505   3.643
    1C        C  120   3.893   2.567   3.766
    1C        C  121   3.829   2.542   3.889
    1C        C  122   4.024   2.632   4.008
    1C        C  123   3.900   2.565   4.008
    1C        C  124   4.082   2.670   4.131
    1C        C  125   4.020   2.635   4.253
    1C        C  126   4.188   2.767   4.373
    1C        C  127   4.080   2.676   4.375
    1C        C  128   4.233   2.820   4.495
    1C        C  129   4.186   2.764   4.616
    1C        C  130   4.310   2.938   4.737
    1C        C  131   4.231   2.820   4.738
    1C        C  132   4.346   3.004   4.857
    1C        C  133   4.279   2.961   4.973
    1C        C  134   3.169   2.461   2.075
    1C        C  135   3.038   2.510   2.079
    1C        C  136   3.254   2.472   2.186
    1C        C  137   3.191   2.512   2.305
    1C        C  138   3.401   2.473   2.423
    1C        C  139   3.261   2.496   2.426
    1C        C  140   3.475   2.481   2.543
    1C        C  141   3.404   2.495   2.665
    1C        C  142   3.617   2.496   2.788
    1C        C  143   3.476   2.494   2.786
    1C        C  144   3.689   2.501   2.909
    1C        C  145   3.621   2.489   3.032
    1C        C  146   3.831   2.531   3.152
    1C        C  147   3.693   2.500   3.153
    1C        C  148   3.899   2.555   3.274
    1C        C  149   3.831   2.535   3.396
    1C        C  150   4.020   2.624   3.518
    1C        C  151   3.893   2.561   3.520
    1C        C  152   4.080   2.660   3.640
    1C        C  153   4.020   2.630   3.764
    1C        C  154   4.191   2.761   3.884
    1C        C  155   4.079   2.675   3.884
    1C        C  156   4.237   2.811   4.008
    1C        C  157   4.189   2.762   4.131
    1C        C  158   4.335   2.920   4.250
    1C        C  159   4.245   2.811   4.251
    1C        C  160   4.372   2.982   4.372
    1C        C  161   4.321   2.930   4.493
    1C        C  162   4.431   3.112   4.611
    1C        C  163   4.357   2.992   4.615
    1C        C  164   4.464   3.178   4.731
    1C        C  165   4.423   3.122   4.854
    1C        C  166   4.506   3.317   4.967
    1C        C  167   4.468   3.183   4.972
    1C        C  168   3.471   2.432   2.068
    1C        C  169   3.394   2.454   2.184
    1C        C  170   3.614   2.467   2.303
    1C        C  171   3.472   2.461   2.302
    1C        C  172   3.688   2.484   2.422
    1C        C  173   3.616   2.481   2.543
    1C        C  174   3.822   2.537   2.662
    1C        C  175   3.687   2.496   2.665
    1C        C  176   3.888   2.558   2.785
    1C        C  177   3.826   2.536   2.909
    1C        C  178   4.022   2.623   3.025
    1C        C  179   3.896   2.558   3.030
    1C        C  180   4.082   2.659   3.148
    1C        C  181   4.023   2.623   3.271
    1C        C  182   4.190   2.748   3.395
    1C        C  183   4.080   2.660   3.395
    1C        C  184   4.242   2.798   3.518
    1C        C  185   4.190   2.749   3.640
    1C        C  186   4.329   2.914   3.763
    1C        C  187   4.242   2.803   3.760
    1C        C  188   4.367   2.980   3.883
    1C        C  189   4.324   2.923   4.004
    1C        C  190   4.440   3.100   4.124
    1C        C  191   4.371   2.977   4.126
    1C        C  192   4.469   3.165   4.246
    1C        C  193   4.441   3.106   4.371
    1C        C  194   4.506   3.313   4.489
    1C        C  195   4.463   3.178   4.490
    1C        C  196   4.519   3.384   4.610
    1C        C  197   4.502   3.315   4.733
    1C        C  198   4.548   3.532   4.847
    1C        C  199   4.528   3.390   4.850
    1C        C  200   4.579   3.616   4.959
    1C        C  201   3.609   2.412   2.070
    1C        C  202   3.821   2.508   2.181
    1C        C  203   3.688   2.455   2.182
    1C        C  204   3.894   2.538   2.299
    1C        C  205   3.824   2.522   2.421
    1C        C  206   4.021   2.612   2.543
    1C        C  207   3.892   2.555   2.541
    1C        C  208   4.082   2.653   2.664
    1C        C  209   4.016   2.619   2.784
    1C        C  210   4.193   2.747   2.904
    1C        C  211   4.083   2.658   2.902
    1C        C  212   4.246   2.792   3.026
    1C        C  213   4.191   2.749   3.149
    1C        C  214   4.329   2.907   3.270
    1C        C  215   4.238   2.799   3.272
    1C        C  216   4.365   2.966   3.393
    1C        C  217   4.329   2.909   3.517
    1C        C  218   4.426   3.098   3.633
    1C        C  219   4.364   2.971   3.639
    1C        C  220   4.447   3.169   3.754
    1C        C  221   4.428   3.107   3.879
    1C        C  222   4.502   3.304   4.002
    1C        C  223   4.464   3.168   4.002
    1C        C  224   4.515   3.375   4.124
    1C        C  225   4.504   3.301   4.244
    1C        C  226   4.520   3.518   4.363
    1C        C  227   4.510   3.377   4.363
    1C        C  228   4.514   3.592   4.483
    1C        C  229   4.522   3.525   4.607
    1C        C  230   4.496   3.740   4.724
    1C        C  231   4.529   3.602   4.725
    1C        C  232   4.498   3.818   4.841
    1C        C  233   4.543   3.752   4.956
    1C        C  234   4.016   2.601   2.060
    1C        C  235   3.892   2.538   2.064
    1C        C  236   4.081   2.642   2.177
    1C        C  237   4.020   2.604   2.298
    1C        C  238   4.196   2.728   2.416
    1C        C  239   4.079   2.647   2.419
    1C        C  240   4.251   2.778   2.536
    1C        C  241   4.197   2.736   2.659
    1C        C  242   4.339   2.895   2.781
    1C        C  243   4.249   2.786   2.780
    1C        C  244   4.374   2.959   2.902
    1C        C  245   4.333   2.904   3.025
    1C        C  246   4.431   3.092   3.145
    1C        C  247   4.370   2.965   3.147
    1C        C  248   4.448   3.160   3.268
    1C        C  249   4.422   3.095   3.391
    1C        C  250   4.496   3.298   3.508
    1C        C  251   4.453   3.163   3.511
    1C        C  252   4.503   3.369   3.630
    1C        C  253   4.492   3.303   3.754
    1C        C  254   4.522   3.511   3.874
    1C        C  255   4.512   3.370   3.877
    1C        C  256   4.511   3.584   3.995
    1C        C  257   4.521   3.516   4.119
    1C        C  258   4.494   3.728   4.238
    1C        C  259   4.517   3.588   4.240
    1C        C  260   4.475   3.799   4.358
    1C        C  261   4.487   3.731   4.481
    1C        C  262   4.423   3.938   4.598
    1C        C  263   4.467   3.804   4.601
    1C        C  264   4.400   4.006   4.720
    1C        C  265   4.432   3.943   4.842
    1C        C  266   4.323   4.132   4.955
    1C        C  267   4.388   4.009   4.958
    1C        C  268   4.262   2.767   2.059
    1C        C  269   4.194   2.726   2.175
    1C        C  270   4.336   2.890   2.295
    1C        C  271   4.246   2.780   2.294
    1C        C  272   4.376   2.951   2.416
    1C        C  273   4.338   2.889   2.537
    1C        C  274   4.447   3.074   2.656
    1C        C  275   4.383   2.948   2.658
    1C        C  276   4.465   3.148   2.775
    1C        C  277   4.438   3.085   2.898
    1C        C  278   4.496   3.289   3.021
    1C        C  279   4.460   3.152   3.021
    1C        C  280   4.502   3.362   3.141
    1C        C  281   4.484   3.297   3.265
    1C        C  282   4.511   3.509   3.384
    1C        C  283   4.505   3.367   3.386
    1C        C  284   4.518   3.578   3.507
    1C        C  285   4.519   3.509   3.630
    1C        C  286   4.490   3.720   3.748
    1C        C  287   4.517   3.581   3.752
    1C        C  288   4.472   3.788   3.871
    1C        C  289   4.485   3.723   3.995
    1C        C  290   4.428   3.929   4.112
    1C        C  291   4.473   3.795   4.116
    1C        C  292   4.402   3.998   4.233
    1C        C  293   4.430   3.933   4.355
    1C        C  294   4.323   4.122   4.475
    1C        C  295   4.394   4.000   4.475
    1C        C  296   4.278   4.181   4.595
    1C        C  297   4.322   4.125   4.718
    1C        C  298   4.195   4.308   4.835
    1C        C  299   4.279   4.191   4.836
    1C        C  300   4.168   4.398   4.943
    1C        C  301   4.349   2.875   2.057
    1C        C  302   4.459   3.066   2.174
    1C        C  303   4.391   2.940   2.174
    1C        C  304   4.474   3.143   2.293
    1C        C  305   4.439   3.077   2.413
    1C        C  306   4.507   3.278   2.533
    1C        C  307   4.472   3.141   2.534
    1C        C  308   4.520   3.352   2.653
    1C        C  309   4.501   3.285   2.776
    1C        C  310   4.525   3.497   2.894
    1C        C  311   4.512   3.356   2.898
    1C        C  312   4.514   3.572   3.013
    1C        C  313   4.517   3.503   3.136
    1C        C  314   4.487   3.712   3.259
    1C        C  315   4.513   3.573   3.259
    1C        C  316   4.477   3.785   3.380
    1C        C  317   4.498   3.718   3.503
    1C        C  318   4.430   3.920   3.620
    1C        C  319   4.478   3.788   3.624
    1C        C  320   4.393   3.982   3.742
    1C        C  321   4.419   3.918   3.866
    1C        C  322   4.316   4.104   3.986
    1C        C  323   4.393   3.986   3.988
    1C        C  324   4.280   4.167   4.108
    1C        C  325   4.328   4.119   4.231
    1C        C  326   4.185   4.278   4.351
    1C        C  327   4.288   4.181   4.351
    1C        C  328   4.134   4.335   4.469
    1C        C  329   4.187   4.289   4.591
    1C        C  330   4.019   4.425   4.712
    1C        C  331   4.136   4.344   4.711
    1C        C  332   3.967   4.483   4.829
    1C        C  333   4.049   4.472   4.943
    1C        C  334   4.548   3.263   2.056
    1C        C  335   4.526   3.125   2.063
    1C        C  336   4.534   3.348   2.167
    1C        C  337   4.513   3.279   2.289
    1C        C  338   4.517   3.490   2.407
    1C        C  339   4.516   3.349   2.412
    1C        C  340   4.516   3.564   2.528
    1C        C  341   4.522   3.493   2.650
    1C        C  342   4.489   3.704   2.770
    1C        C  343   4.519   3.566   2.771
    1C        C  344   4.470   3.774   2.890
    1C        C  345   4.487   3.710   3.015
    1C        C  346   4.425   3.914   3.133
    1C        C  347   4.468   3.780   3.137
    1C        C  348   4.396   3.980   3.255
    1C        C  349   4.425   3.916   3.377
    1C        C  350   4.312   4.097   3.500
    1C        C  351   4.392   3.981   3.499
    1C        C  352   4.271   4.156   3.622
    1C        C  353   4.312   4.097   3.744
    1C        C  354   4.175   4.262   3.863
    1C        C  355   4.268   4.156   3.864
    1C        C  356   4.122   4.312   3.984
    1C        C  357   4.178   4.265   4.105
    1C        C  358   4.010   4.395   4.228
    1C        C  359   4.126   4.313   4.227
    1C        C  360   3.949   4.441   4.347
    1C        C  361   4.015   4.412   4.469
    1C        C  362   3.827   4.513   4.590
    1C        C  363   3.957   4.457   4.589
    1C        C  364   3.761   4.546   4.710
    1C        C  365   3.838   4.540   4.829
    1C        C  366   3.623   4.586   4.948
    1C        C  367   3.761   4.565   4.943
    1C        C  368   4.509   3.561   2.046
    1C        C  369   4.526   3.489   2.166
    1C        C  370   4.499   3.702   2.282
    1C        C  371   4.516   3.562   2.286
    1C        C  372   4.485   3.774   2.403
    1C        C  373   4.494   3.703   2.525
    1C        C  374   4.418   3.902   2.646
    1C        C  375   4.468   3.770   2.647
    1C        C  376   4.384   3.968   2.766
    1C        C  377   4.420   3.906   2.888
    1C        C  378   4.315   4.092   3.008
    1C        C  379   4.392   3.974   3.009
    1C        C  380   4.269   4.147   3.131
    1C        C  381   4.312   4.094   3.254
    1C        C  382   4.171   4.252   3.373
    1C        C  383   4.267   4.149   3.376
    1C        C  384   4.118   4.301   3.494
    1C        C  385   4.172   4.257   3.617
    1C        C  386   4.001   4.381   3.742
    1C        C  387   4.122   4.307   3.739
    1C        C  388   3.941   4.424   3.863
    1C        C  389   4.005   4.391   3.984
    1C        C  390   3.816   4.482   4.106
    1C        C  391   3.947   4.429   4.107
    1C        C  392   3.746   4.507   4.226
    1C        C  393   3.818   4.493   4.347
    1C        C  394   3.614   4.542   4.472
    1C        C  395   3.754   4.524   4.469
    1C        C  396   3.543   4.560   4.594
    1C        C  397   3.620   4.559   4.712
    1C        C  398   3.407   4.550   4.835
    1C        C  399   3.546   4.570   4.832
    1C        C  400   3.337   4.506   4.949
    1C        C  401   4.506   3.700   2.047
    1C        C  402   4.444   3.911   2.159
    1C        C  403   4.489   3.777   2.162
    1C        C  404   4.406   3.972   2.280
    1C        C  405   4.433   3.905   2.402
    1C        C  406   4.320   4.087   2.522
    1C        C  407   4.397   3.968   2.523
    1C        C  408   4.274   4.147   2.641
    1C        C  409   4.306   4.086   2.764
    1C        C  410   4.169   4.247   2.886
    1C        C  411   4.268   4.146   2.886
    1C        C  412   4.118   4.296   3.008
    1C        C  413   4.174   4.251   3.130
    1C        C  414   3.999   4.375   3.250
    1C        C  415   4.119   4.301   3.251
    1C        C  416   3.939   4.408   3.373
    1C        C  417   4.000   4.378   3.498
    1C        C  418   3.808   4.467   3.617
    1C        C  419   3.939   4.414   3.620
    1C        C  420   3.743   4.497   3.739
    1C        C  421   3.812   4.481   3.861
    1C        C  422   3.608   4.532   3.985
    1C        C  423   3.746   4.500   3.985
    1C        C  424   3.537   4.543   4.106
    1C        C  425   3.607   4.530   4.229
    1C        C  426   3.398   4.544   4.350
    1C        C  427   3.539   4.540   4.352
    1C        C  428   3.329   4.546   4.474
    1C        C  429   3.402   4.555   4.594
    1C        C  430   3.191   4.520   4.716
    1C        C  431   3.331   4.544   4.716
    1C        C  432   3.118   4.500   4.836
    1C        C  433   3.199   4.489   4.950
    1C        C  434   4.382   4.119   2.048
    1C        C  435   4.439   3.991   2.044
    1C        C  436   4.300   4.159   2.158
    1C        C  437   4.331   4.092   2.280
    1C        C  438   4.180   4.246   2.398
    1C        C  439   4.281   4.147   2.400
    1C        C  440   4.121   4.295   2.517
    1C        C  441   4.176   4.249   2.639
    1C        C  442   4.001   4.367   2.762
    1C        C  443   4.122   4.294   2.761
    1C        C  444   3.936   4.406   2.881
    1C        C  445   4.000   4.374   3.002
    1C        C  446   3.813   4.468   3.128
    1C        C  447   3.940   4.406   3.125
    1C        C  448   3.745   4.489   3.250
    1C        C  449   3.812   4.470   3.373
    1C        C  450   3.607   4.528   3.491
    1C        C  451   3.744   4.494   3.494
    1C        C  452   3.538   4.543   3.614
    1C        C  453   3.606   4.531   3.737
    1C        C  454   3.398   4.540   3.860
    1C        C  455   3.539   4.537   3.862
    1C        C  456   3.328   4.531   3.983
    1C        C  457   3.396   4.543   4.106
    1C        C  458   3.190   4.503   4.232
    1C        C  459   3.327   4.536   4.229
    1C        C  460   3.123   4.486   4.355
    1C        C  461   3.192   4.513   4.476
    1C        C  462   2.991   4.438   4.598
    1C        C  463   3.120   4.496   4.596
    1C        C  464   2.923   4.406   4.718
    1C        C  465   2.984   4.449   4.839
    1C        C  466   2.799   4.334   4.957
    1C        C  467   2.903   4.427   4.955
    1C        C  468   4.118   4.281   2.038
    1C        C  469   4.188   4.248   2.155
    1C        C  470   4.006   4.367   2.273
    1C        C  471   4.127   4.293   2.276
    1C        C  472   3.940   4.396   2.394
    1C        C  473   4.003   4.373   2.518
    1C        C  474   3.812   4.462   2.641
    1C        C  475   3.942   4.407   2.640
    1C        C  476   3.742   4.487   2.761
    1C        C  477   3.808   4.467   2.884
    1C        C  478   3.604   4.517   3.007
    1C        C  479   3.742   4.489   3.007
    1C        C  480   3.532   4.532   3.128
    1C        C  481   3.607   4.523   3.247
    1C        C  482   3.395   4.528   3.374
    1C        C  483   3.536   4.526   3.369
    1C        C  484   3.323   4.527   3.495
    1C        C  485   3.397   4.537   3.616
    1C        C  486   3.190   4.494   3.741
    1C        C  487   3.327   4.530   3.738
    1C        C  488   3.125   4.470   3.864
    1C        C  489   3.190   4.501   3.985
    1C        C  490   2.998   4.418   4.111
    1C        C  491   3.123   4.482   4.109
    1C        C  492   2.937   4.387   4.235
    1C        C  493   2.994   4.428   4.357
    1C        C  494   2.825   4.299   4.480
    1C        C  495   2.933   4.390   4.479
    1C        C  496   2.773   4.253   4.603
    1C        C  497   2.817   4.312   4.723
    1C        C  498   2.663   4.159   4.842
    1C        C  499   2.754   4.268   4.842
    1C        C  500   2.601   4.103   4.954
    1C        C  501   3.997   4.350   2.033
    1C        C  502   3.813   4.458   2.154
    1C        C  503   3.943   4.403   2.151
    1C        C  504   3.740   4.471   2.275
    1C        C  505   3.810   4.452   2.396
    1C        C  506   3.606   4.509   2.519
    1C        C  507   3.744   4.479   2.518
    1C        C  508   3.533   4.515   2.640
    1C        C  509   3.602   4.508   2.763
    1C        C  510   3.390   4.526   2.883
    1C        C  511   3.532   4.518   2.885
    1C        C  512   3.320   4.523   3.005
    1C        C  513   3.391   4.535   3.127
    1C        C  514   3.187   4.488   3.251
    1C        C  515   3.325   4.521   3.251
    1C        C  516   3.121   4.463   3.373
    1C        C  517   3.187   4.490   3.495
    1C        C  518   2.994   4.412   3.620
    1C        C  519   3.121   4.474   3.619
    1C        C  520   2.936   4.375   3.743
    1C        C  521   2.997   4.412   3.865
    1C        C  522   2.836   4.280   3.993
    1C        C  523   2.940   4.375   3.989
    1C        C  524   2.786   4.233   4.116
    1C        C  525   2.834   4.290   4.236
    1C        C  526   2.699   4.127   4.363
    1C        C  527   2.783   4.241   4.358
    1C        C  528   2.656   4.069   4.484
    1C        C  529   2.692   4.138   4.602
    1C        C  530   2.581   3.957   4.726
    1C        C  531   2.638   4.087   4.723
    1C        C  532   2.538   3.895   4.846
    1C        C  533   2.529   3.984   4.958
    1C        C  534   3.614   4.555   2.037
    1C        C  535   3.746   4.511   2.043
    1C        C  536   3.536   4.531   2.154
    1C        C  537   3.601   4.501   2.277
    1C        C  538   3.390   4.513   2.397
    1C        C  539   3.531   4.511   2.399
    1C        C  540   3.319   4.507   2.519
    1C        C  541   3.392   4.516   2.640
    1C        C  542   3.182   4.482   2.764
    1C        C  543   3.320   4.511   2.761
    1C        C  544   3.113   4.468   2.887
    1C        C  545   3.183   4.489   3.008
    1C        C  546   2.990   4.404   3.131
    1C        C  547   3.116   4.468   3.130
    1C        C  548   2.932   4.364   3.254
    1C        C  549   2.993   4.402   3.375
    1C        C  550   2.832   4.272   3.501
    1C        C  551   2.933   4.370   3.499
    1C        C  552   2.781   4.226   3.625
    1C        C  553   2.831   4.281   3.745
    1C        C  554   2.704   4.117   3.872
    1C        C  555   2.786   4.232   3.870
    1C        C  556   2.668   4.060   3.996
    1C        C  557   2.705   4.118   4.120
    1C        C  558   2.609   3.932   4.243
    1C        C  559   2.664   4.062   4.243
    1C        C  560   2.570   3.872   4.365
    1C        C  561   2.595   3.942   4.486
    1C        C  562   2.527   3.743   4.611
    1C        C  563   2.560   3.881   4.609
    1C        C  564   2.512   3.675   4.734
    1C        C  565   2.515   3.754   4.853
    1C        C  566   2.533   3.543   4.975
    1C        C  567   2.526   3.682   4.973
    1C        C  568   3.326   4.473   2.039
    1C        C  569   3.395   4.509   2.155
    1C        C  570   3.181   4.475   2.276
    1C        C  571   3.319   4.509   2.275
    1C        C  572   3.115   4.455   2.399
    1C        C  573   3.180   4.480   2.521
    1C        C  574   2.985   4.398   2.643
    1C        C  575   3.112   4.460   2.644
    1C        C  576   2.930   4.357   2.766
    1C        C  577   2.991   4.397   2.887
    1C        C  578   2.825   4.268   3.012
    1C        C  579   2.932   4.360   3.010
    1C        C  580   2.778   4.216   3.135
    1C        C  581   2.829   4.268   3.256
    1C        C  582   2.696   4.107   3.382
    1C        C  583   2.784   4.217   3.380
    1C        C  584   2.661   4.049   3.506
    1C        C  585   2.702   4.109   3.627
    1C        C  586   2.601   3.928   3.755
    1C        C  587   2.664   4.054   3.751
    1C        C  588   2.577   3.866   3.880
    1C        C  589   2.608   3.932   4.001
    1C        C  590   2.532   3.733   4.124
    1C        C  591   2.577   3.867   4.122
    1C        C  592   2.517   3.667   4.248
    1C        C  593   2.530   3.737   4.371
    1C        C  594   2.508   3.526   4.496
    1C        C  595   2.516   3.667   4.493
    1C        C  596   2.509   3.457   4.619
    1C        C  597   2.507   3.533   4.738
    1C        C  598   2.529   3.323   4.860
    1C        C  599   2.522   3.464   4.860
    1C        C  600   2.532   3.248   4.978
    1C        C  601   3.193   4.435   2.042
    1C        C  602   2.981   4.382   2.155
    1C        C  603   3.113   4.440   2.157
    1C        C  604   2.923   4.354   2.281
    1C        C  605   2.988   4.393   2.401
    1C        C  606   2.818   4.265   2.525
    1C        C  607   2.924   4.358   2.522
    1C        C  608   2.773   4.209   2.647
    1C        C  609   2.826   4.261   2.767
    1C        C  610   2.689   4.103   2.892
    1C        C  611   2.777   4.214   2.891
    1C        C  612   2.650   4.047   3.015
    1C        C  613   2.693   4.104   3.137
    1C        C  614   2.591   3.921   3.263
    1C        C  615   2.652   4.048   3.261
    1C        C  616   2.566   3.859   3.388
    1C        C  617   2.602   3.921   3.510
    1C        C  618   2.534   3.724   3.636
    1C        C  619   2.577   3.859   3.635
    1C        C  620   2.516   3.660   3.761
    1C        C  621   2.533   3.732   3.881
    1C        C  622   2.504   3.522   4.007
    1C        C  623   2.515   3.663   4.003
    1C        C  624   2.504   3.452   4.130
    1C        C  625   2.501   3.527   4.249
    1C        C  626   2.525   3.319   4.377
    1C        C  627   2.502   3.458   4.372
    1C        C  628   2.546   3.249   4.498
    1C        C  629   2.526   3.317   4.621
    1C        C  630   2.587   3.111   4.742
    1C        C  631   2.544   3.247   4.742
    1C        C  632   2.609   3.044   4.865
    1C        C  633   2.558   3.110   4.981
    1C        C  634   2.777   4.296   2.048
    1C        C  635   2.887   4.383   2.047
    1C        C  636   2.748   4.222   2.163
    1C        C  637   2.809   4.270   2.281
    1C        C  638   2.680   4.104   2.406
    1C        C  639   2.764   4.217   2.404
    1C        C  640   2.642   4.039   2.526
    1C        C  641   2.684   4.099   2.647
    1C        C  642   2.585   3.916   2.775
    1C        C  643   2.649   4.042   2.771
    1C        C  644   2.562   3.850   2.898
    1C        C  645   2.591   3.919   3.018
    1C        C  646   2.524   3.719   3.145
    1C        C  647   2.568   3.853   3.141
    1C        C  648   2.513   3.650   3.268
    1C        C  649   2.530   3.723   3.389
    1C        C  650   2.509   3.515   3.517
    1C        C  651   2.522   3.656   3.513
    1C        C  652   2.513   3.447   3.641
    1C        C  653   2.511   3.519   3.762
    1C        C  654   2.528   3.310   3.887
    1C        C  655   2.506   3.449   3.885
    1C        C  656   2.547   3.246   4.012
    1C        C  657   2.533   3.313   4.135
    1C        C  658   2.594   3.113   4.256
    1C        C  659   2.544   3.245   4.258
    1C        C  660   2.621   3.047   4.378
    1C        C  661   2.591   3.115   4.498
    1C        C  662   2.703   2.934   4.622
    1C        C  663   2.625   3.051   4.619
    1C        C  664   2.744   2.873   4.743
    1C        C  665   2.688   2.924   4.864
    1C        C  666   2.734   2.864   4.981
    1C        C  667   2.679   4.019   2.047
    1C        C  668   2.687   4.094   2.165
    1C        C  669   2.591   3.904   2.291
    1C        C  670   2.648   4.035   2.287
    1C        C  671   2.556   3.841   2.412
    1C        C  672   2.579   3.913   2.532
    1C        C  673   2.513   3.713   2.657
    1C        C  674   2.550   3.850   2.655
    1C        C  675   2.505   3.642   2.779
    1C        C  676   2.526   3.713   2.899
    1C        C  677   2.503   3.507   3.028
    1C        C  678   2.518   3.647   3.023
    1C        C  679   2.503   3.436   3.150
    1C        C  680   2.503   3.509   3.271
    1C        C  681   2.526   3.303   3.396
    1C        C  682   2.505   3.443   3.396
    1C        C  683   2.549   3.239   3.519
    1C        C  684   2.529   3.307   3.642
    1C        C  685   2.600   3.110   3.767
    1C        C  686   2.549   3.242   3.766
    1C        C  687   2.634   3.050   3.890
    1C        C  688   2.598   3.114   4.011
    1C        C  689   2.708   2.934   4.137
    1C        C  690   2.626   3.049   4.134
    1C        C  691   2.752   2.878   4.260
    1C        C  692   2.703   2.933   4.381
    1C        C  693   2.747   2.875   4.502
    1C        C  694   2.625   3.890   2.054
    1C        C  695   2.531   3.697   2.173
    1C        C  696   2.580   3.829   2.172
    1C        C  697   2.503   3.632   2.296
    1C        C  698   2.513   3.707   2.415
    1C        C  699   2.486   3.498   2.540
    1C        C  700   2.500   3.638   2.538
    1C        C  701   2.488   3.428   2.663
    1C        C  702   2.492   3.501   2.784
    1C        C  703   2.512   3.292   2.910
    1C        C  704   2.499   3.433   2.907
    1C        C  705   2.530   3.221   3.031
    1C        C  706   2.524   3.296   3.151
    1C        C  707   2.591   3.099   3.276
    1C        C  708   2.543   3.232   3.275
    1C        C  709   2.631   3.042   3.399
    1C        C  710   2.606   3.110   3.521
    1C        C  711   2.709   2.928   3.647
    1C        C  712   2.630   3.046   3.645
    1C        C  713   2.759   2.878   3.769
    1C        C  714   2.713   2.934   3.891
    1C        C  715   2.753   2.879   4.015
    1C        C  716   2.455   3.492   2.057
    1C        C  717   2.492   3.627   2.058
    1C        C  718   2.466   3.415   2.177
    1C        C  719   2.478   3.492   2.296
    1C        C  720   2.507   3.285   2.420
    1C        C  721   2.486   3.424   2.419
    1C        C  722   2.532   3.222   2.544
    1C        C  723   2.517   3.290   2.667
    1C        C  724   2.590   3.092   2.788
    1C        C  725   2.532   3.221   2.789
    1C        C  726   2.613   3.028   2.911
    1C        C  727   2.572   3.086   3.033
    1C        C  728   2.700   2.917   3.156
    1C        C  729   2.612   3.028   3.156
    1C        C  730   2.750   2.869   3.280
    1C        C  731   2.711   2.926   3.403
    1C        C  732   2.751   2.869   3.526
    1C        C  733   2.480   3.190   2.066
    1C        C  734   2.485   3.273   2.178
    1C        C  735   2.586   3.084   2.303
    1C        C  736   2.522   3.211   2.301
    1C        C  737   2.614   3.019   2.425
    1C        C  738   2.585   3.091   2.544
    1C        C  739   2.699   2.910   2.667
    1C        C  740   2.624   3.030   2.665
    1C        C  741   2.733   2.848   2.789
    1C        C  742   2.691   2.910   2.909
    1C        C  743   2.741   2.862   3.033
    1C        C  744   2.537   3.063   2.072
    1C        C  745   2.681   2.894   2.180
    1C        C  746   2.608   3.014   2.182
    1C        C  747   2.725   2.838   2.302
    1C        C  748   2.685   2.897   2.424
    1C        C  749   2.738   2.850   2.546
    1C        C  750   2.733   2.837   2.063
    1C        C  751   3.659   2.303   1.983
    1C        O  752   3.681   2.185   2.023
    1C        O  753   3.673   2.307   1.844
    1C        C  754   4.631   3.046   1.993
    1C        O  755   4.612   3.024   1.871
    1C        O  756   4.762   3.031   2.040
    1C        C  757   4.448   4.216   1.957
    1C        O  758   4.518   4.313   1.996
    1C        O  759   4.412   4.231   1.823
    1C        C  760   3.579   4.650   1.929
    1C        O  761   3.524   4.760   1.955
    1C        O  762   3.625   4.631   1.798
    1C        C  763   2.867   4.511   1.975
    1C        O  764   2.885   4.525   1.851
    1C        O  765   2.779   4.612   2.015
    1C        C  766   2.340   3.460   1.969
    1C        O  767   2.351   3.462   1.843
    1C        O  768   2.211   3.452   2.022
    1C        C  769   4.694   3.593   5.050
    1C        O  770   4.693   3.618   5.173
    1C        O  771   4.824   3.616   5.005
    1C        C  772   4.258   4.446   5.051
    1C        O  773   4.219   4.450   5.170
    1C        O  774   4.395   4.476   5.045
    1C        C  775   4.142   2.512   5.074
    1C        O  776   4.205   2.410   5.035
    1C        O  777   4.109   2.492   5.208
    1C        C  778   2.893   4.531   5.061
    1C        O  779   2.870   4.650   5.029
    1C        O  780   2.951   4.512   5.187
    1C        C  781   2.465   3.039   5.072
    1C        O  782   2.346   3.036   5.033
    1C        O  783   2.498   2.979   5.193
    1C        C  784   2.409   3.981   5.045
    1C        O  785   2.292   3.986   5.000
    1C        O  786   2.416   3.954   5.182
    1C        C  787   2.946   2.450   1.980
    1C        O  788   2.950   2.483   1.859
    1C        O  789   2.884   2.328   2.006
    1C        C  790   3.168   2.376   5.064
    1C        O  791   3.152   2.257   5.025
    1C        O  792   3.200   2.378   5.200
    1C        H  793   4.272   3.025   5.059
    1C        H  794   4.139   2.832   5.056
    1C        H  795   4.449   3.149   5.071
    1C        H  796   4.541   3.349   5.063
    1C        H  797   4.577   3.811   5.038
    1C        H  798   4.375   3.946   5.043
    1C        H  799   4.339   4.197   5.038
    1C        H  800   4.030   4.535   5.027
    1C        H  801   3.798   4.556   5.043
    1C        H  802   3.584   4.659   5.016
    1C        H  803   3.399   4.455   5.020
    1C        H  804   3.152   4.463   5.042
    1C        H  805   3.885   2.490   5.067
    1C        H  806   3.675   2.475   5.070
    1C        H  807   2.990   2.539   5.049
    1C        H  808   3.440   2.457   5.076
    1C        H  809   2.870   2.730   5.074
    1C        H  810   2.698   2.895   5.077
    1C        H  811   2.543   3.294   5.074
    1C        H  812   2.560   3.496   5.067
    1C        H  813   2.505   3.728   5.067
    1C        H  814   2.607   4.153   5.049
    1C        H  815   2.740   4.323   5.046
    1C        H  816   2.760   2.910   1.990
    1C        H  817   2.827   2.676   1.975
    1C        H  818   3.197   2.403   1.990
    1C        H  819   3.439   2.491   1.985
    1C        H  820   3.841   2.544   1.971
    1C        H  821   4.074   2.576   1.973
    1C        H  822   4.273   2.695   1.981
    1C        H  823   4.364   2.922   1.961
    1C        H  824   4.621   3.295   1.984
    1C        H  825   4.516   3.508   1.953
    1C        H  826   4.474   3.743   1.954
    1C        H  827   3.808   4.532   1.958
    1C        H  828   3.949   4.353   1.938
    1C        H  829   4.162   4.264   1.943
    1C        H  830   4.497   3.968   1.958
    1C        H  831   2.654   3.827   1.972
    1C        H  832   2.721   4.055   1.956
    1C        H  833   2.690   4.333   1.998
    1C        H  834   3.354   4.515   1.944
    1C        H  835   3.147   4.412   1.948
    1C        H  836   2.495   2.992   2.003
    1C        H  837   2.411   3.220   1.990
    1C        H  838   2.466   3.681   1.970
    2V3OU   H29  839   2.798   3.540   2.554
    2V3OU   C27  840   2.786   3.497   2.657
    2V3OU   H27  841   2.729   3.566   2.724
    2V3OU   H28  842   2.734   3.399   2.639
    2V3OU   O11  843   2.912   3.473   2.720
    2V3OU   C15  844   2.923   3.393   2.833
    2V3OU   C13  845   3.050   3.369   2.888
    2V3OU   C14  846   3.075   3.265   2.979
    2V3OU   C16  847   2.972   3.188   3.032
    2V3OU    H6  848   2.990   3.104   3.100
    2V3OU   C12  849   3.211   3.232   3.026
    2V3OU    O2  850   3.233   3.127   3.091
    2V3OU   C10  851   3.323   3.301   2.960
    2V3OU    C8  852   3.453   3.264   2.990
    2V3OU   O10  853   3.482   3.154   3.065
    2V3OU   H26  854   3.394   3.114   3.072
    2V3OU    C6  855   3.562   3.346   2.946
    2V3OU    C5  856   3.537   3.463   2.874
    2V3OU    C4  857   3.699   3.290   2.952
    2V3OU    H4  858   3.712   3.227   3.045
    2V3OU    H5  859   3.709   3.221   2.862
    2V3OU    C2  860   3.811   3.395   2.948
    2V3OU    O6  861   3.806   3.473   3.067
    2V3OU   H21  862   3.759   3.557   3.050
    2V3OU    C3  863   3.780   3.489   2.831
    2V3OU    H2  864   3.854   3.573   2.828
    2V3OU    H3  865   3.779   3.438   2.731
    2V3OU   C25  866   3.947   3.326   2.936
    2V3OU    O7  867   3.998   3.291   2.830
    2V3OU   C26  868   4.026   3.284   3.059
    2V3OU   H22  869   4.064   3.377   3.107
    2V3OU   H23  870   4.112   3.218   3.029
    2V3OU    O8  871   3.953   3.207   3.151
    2V3OU   H24  872   3.922   3.262   3.225
    2V3OU    C1  873   3.647   3.562   2.850
    2V3OU    H1  874   3.623   3.613   2.752
    2V3OU    O3  875   3.651   3.653   2.960
    2V3OU   C19  876   3.618   3.791   2.946
    2V3OU    H9  877   3.519   3.798   2.892
    2V3OU    O4  878   3.710   3.850   2.856
    2V3OU   C20  879   3.841   3.871   2.910
    2V3OU   H10  880   3.879   3.768   2.935
    2V3OU   C24  881   3.606   3.853   3.085
    2V3OU   H16  882   3.542   3.785   3.147
    2V3OU   H17  883   3.553   3.951   3.076
    2V3OU   C23  884   3.746   3.877   3.143
    2V3OU   H15  885   3.782   3.773   3.169
    2V3OU    N1  886   3.732   3.952   3.267
    2V3OU   H19  887   3.798   3.919   3.334
    2V3OU   H20  888   3.643   3.937   3.308
    2V3OU   C21  889   3.845   3.945   3.044
    2V3OU   H11  890   3.945   3.925   3.092
    2V3OU    O5  891   3.817   4.084   3.036
    2V3OU   H18  892   3.776   4.103   3.122
    2V3OU   C22  893   3.906   3.947   2.796
    2V3OU   H12  894   3.864   4.050   2.786
    2V3OU   H13  895   3.903   3.885   2.702
    2V3OU   H14  896   4.016   3.953   2.814
    2V3OU   C11  897   3.157   3.467   2.865
    2V3OU    O1  898   3.130   3.587   2.843
    2V3OU    C9  899   3.296   3.419   2.885
    2V3OU    C7  900   3.402   3.498   2.843
    2V3OU    O9  901   3.383   3.610   2.765
    2V3OU   H25  902   3.288   3.627   2.751
    2V3OU   C17  903   2.823   3.312   2.891
    2V3OU    H7  904   2.726   3.344   2.854
    2V3OU   C18  905   2.844   3.213   2.986
    2V3OU    H8  906   2.775   3.166   3.058
    3SOL     OW  907   2.234   5.381   6.868
    3SOL    HW1  908   2.148   5.424   6.896
    3SOL    HW2  909   2.220   5.332   6.782
    4SOL     OW  910   6.838   0.506   1.913
    4SOL    HW1  911   6.830   0.499   2.013
    4SOL    HW2  912   6.772   0.444   1.870
    5SOL     OW  913   4.334   1.757   2.358
    5SOL    HW1  914   4.246   1.711   2.349
    5SOL    HW2  915   4.332   1.843   2.307
    6SOL     OW  916   4.031   0.740   1.562
    6SOL    HW1  917   3.976   0.809   1.515
    6SOL    HW2  918   4.037   0.658   1.505
    7SOL     OW  919   0.666   3.958   3.403
    7SOL    HW1  920   0.577   3.999   3.383
    7SOL    HW2  921   0.693   3.980   3.497
    8SOL     OW  922   3.111   1.005   5.842
    8SOL    HW1  923   3.113   0.934   5.912
    8SOL    HW2  924   3.137   0.965   5.754
    9SOL     OW  925   4.612   0.963   5.607
    9SOL    HW1  926   4.552   0.883   5.610
    9SOL    HW2  927   4.590   1.018   5.526
   10SOL     OW  928   1.723   4.916   5.169
   10SOL    HW1  929   1.822   4.924   5.172
   10SOL    HW2  930   1.693   4.904   5.074
   11SOL     OW  931   2.926   0.839   5.545
   11SOL    HW1  932   2.942   0.771   5.617
   11SOL    HW2  933   3.010   0.892   5.531
   12SOL     OW  934   3.055   5.725   3.670
   12SOL    HW1  935   3.051   5.775   3.756
   12SOL    HW2  936   3.148   5.728   3.634
   13SOL     OW  937   3.936   6.454   4.066
   13SOL    HW1  938   3.837   6.458   4.070
   13SOL    HW2  939   3.966   6.445   3.971
   14SOL     OW  940   3.752   5.002   6.286
   14SOL    HW1  941   3.712   5.064   6.218
   14SOL    HW2  942   3.843   5.035   6.311
   15SOL     OW  943   1.008   6.631   1.706
   15SOL    HW1  944   1.024   6.667   1.614
   15SOL    HW2  945   0.934   6.564   1.702
   16SOL     OW  946   5.639   2.476   6.329
   16SOL    HW1  947   5.543   2.466   6.353
   16SOL    HW2  948   5.676   2.387   6.301
   17SOL     OW  949   5.710   6.335   6.272
   17SOL    HW1  950   5.778   6.397   6.311
   17SOL    HW2  951   5.640   6.316   6.341
   18SOL     OW  952   3.542   1.335   5.540
   18SOL    HW1  953   3.476   1.260   5.529
   18SOL    HW2  954   3.618   1.322   5.476
   19SOL     OW  955   0.223   1.013   2.592
   19SOL    HW1  956   0.274   0.929   2.610
   19SOL    HW2  957   0.236   1.078   2.667
   20SOL     OW  958   4.845   1.802   4.276
   20SOL    HW1  959   4.763   1.806   4.334
   20SOL    HW2  960   4.823   1.755   4.191
   21SOL     OW  961   3.160   0.494   2.050
   21SOL    HW1  962   3.111   0.580   2.037
   21SOL    HW2  963   3.221   0.501   2.128
   22SOL     OW  964   1.037   6.372   6.894
   22SOL    HW1  965   0.990   6.450   6.855
   22SOL    HW2  966   1.084   6.321   6.821
   23SOL     OW  967   5.964   5.360   2.347
   23SOL    HW1  968   5.884   5.401   2.303
   23SOL    HW2  969   6.034   5.343   2.278
   24SOL     OW  970   3.768   0.223   3.048
   24SOL    HW1  971   3.727   0.272   2.971
   24SOL    HW2  972   3.741   0.266   3.134
   25SOL     OW  973   3.920   0.565   4.308
   25SOL    HW1  974   3.876   0.600   4.390
   25SOL    HW2  975   3.932   0.640   4.243
   26SOL     OW  976   6.930   1.132   0.380
   26SOL    HW1  977   6.956   1.046   0.424
   26SOL    HW2  978   6.976   1.208   0.426
   27SOL     OW  979   1.820   1.283   2.453
   27SOL    HW1  980   1.879   1.361   2.474
   27SOL    HW2  981   1.876   1.206   2.424
   28SOL     OW  982   2.677   1.154   5.760
   28SOL    HW1  983   2.636   1.170   5.670
   28SOL    HW2  984   2.614   1.185   5.832
   29SOL     OW  985   6.280   1.631   2.022
   29SOL    HW1  986   6.185   1.617   1.994
   29SOL    HW2  987   6.301   1.570   2.099
   30SOL     OW  988   3.705   0.888   3.447
   30SOL    HW1  989   3.639   0.813   3.439
   30SOL    HW2  990   3.662   0.964   3.495
   31SOL     OW  991   0.495   2.434   6.398
   31SOL    HW1  992   0.414   2.380   6.375
   31SOL    HW2  993   0.538   2.397   6.480
   32SOL     OW  994   0.258   1.859   2.855
   32SOL    HW1  995   0.255   1.786   2.787
   32SOL    HW2  996   0.333   1.842   2.919
   33SOL     OW  997   0.689   4.358   5.446
   33SOL    HW1  998   0.620   4.376   5.516
   33SOL    HW2  999   0.764   4.304   5.486
   34SOL     OW 1000   2.642   6.685   4.924
   34SOL    HW1 1001   2.652   6.635   4.838
   34SOL    HW2 1002   2.563   6.747   4.918
   35SOL     OW 1003   4.962   2.977   6.189
   35SOL    HW1 1004   4.887   2.944   6.132
   35SOL    HW2 1005   5.049   2.956   6.144
   36SOL     OW 1006   4.893   1.316   4.820
   36SOL    HW1 1007   4.913   1.406   4.859
   36SOL    HW2 1008   4.819   1.325   4.752
   37SOL     OW 1009   1.220   2.242   6.085
   37SOL    HW1 1010   1.241   2.210   6.177
   37SOL    HW2 1011   1.204   2.164   6.025
   38SOL     OW 1012   0.856   5.297   2.705
   38SOL    HW1 1013   0.926   5.262   2.643
   38SOL    HW2 1014   0.855   5.397   2.702
   39SOL     OW 1015   6.539   4.483   6.227
   39SOL    HW1 1016   6.531   4.385   6.248
   39SOL    HW2 1017   6.525   4.497   6.129
   40SOL     OW 1018   4.721   1.639   0.562
   40SOL    HW1 1019   4.648   1.678   0.618
   40SOL    HW2 1020   4.804   1.692   0.574
   41SOL     OW 1021   6.938   4.696   3.591
   41SOL    HW1 1022   6.961   4.789   3.618
   41SOL    HW2 1023   6.919   4.641   3.673
   42SOL     OW 1024   3.084   5.013   4.122
   42SOL    HW1 1025   3.094   5.010   4.221
   42SOL    HW2 1026   3.099   5.106   4.089
   43SOL     OW 1027   4.938   0.020   5.683
   43SOL    HW1 1028   4.839   0.023   5.694
   43SOL    HW2 1029   4.978   0.105   5.716
   44SOL     OW 1030   5.026   2.117   5.724
   44SOL    HW1 1031   4.978   2.125   5.636
   44SOL    HW2 1032   4.966   2.151   5.797
   45SOL     OW 1033   4.985   5.725   1.486
   45SOL    HW1 1034   4.898   5.695   1.524
   45SOL    HW2 1035   5.042   5.763   1.560
   46SOL     OW 1036   0.959   2.897   3.239
   46SOL    HW1 1037   0.943   2.974   3.301
   46SOL    HW2 1038   0.873   2.847   3.225
   47SOL     OW 1039   4.487   4.271   0.895
   47SOL    HW1 1040   4.514   4.264   0.799
   47SOL    HW2 1041   4.387   4.271   0.902
   48SOL     OW 1042   6.423   2.871   6.113
   48SOL    HW1 1043   6.451   2.950   6.168
   48SOL    HW2 1044   6.326   2.852   6.128
   49SOL     OW 1045   5.873   3.729   1.873
   49SOL    HW1 1046   5.845   3.818   1.908
   49SOL    HW2 1047   5.969   3.713   1.897
   50SOL     OW 1048   5.761   1.134   4.788
   50SOL    HW1 1049   5.809   1.207   4.837
   50SOL    HW2 1050   5.765   1.152   4.690
   51SOL     OW 1051   2.430   6.472   3.226
   51SOL    HW1 1052   2.488   6.452   3.147
   51SOL    HW2 1053   2.354   6.408   3.229
   52SOL     OW 1054   5.958   3.431   2.442
   52SOL    HW1 1055   5.967   3.440   2.343
   52SOL    HW2 1056   5.962   3.334   2.467
   53SOL     OW 1057   4.574   0.049   3.767
   53SOL    HW1 1058   4.617   0.014   3.850
   53SOL    HW2 1059   4.576   6.994   3.696
   54SOL     OW 1060   4.765   5.362   0.936
   54SOL    HW1 1061   4.688   5.346   0.874
   54SOL    HW2 1062   4.732   5.401   1.022
   55SOL     OW 1063   1.825   2.832   5.946
   55SOL    HW1 1064   1.728   2.810   5.942
   55SOL    HW2 1065   1.857   2.827   6.041
   56SOL     OW 1066   0.545   0.702   1.320
   56SOL    HW1 1067   0.477   0.638   1.286
   56SOL    HW2 1068   0.590   0.748   1.244
   57SOL     OW 1069   4.408   0.977   1.375
   57SOL    HW1 1070   4.469   1.052   1.399
   57SOL    HW2 1071   4.365   0.995   1.287
   58SOL     OW 1072   0.896   0.218   5.371
   58SOL    HW1 1073   0.825   0.157   5.407
   58SOL    HW2 1074   0.919   0.192   5.278
   59SOL     OW 1075   0.577   2.664   6.004
   59SOL    HW1 1076   0.508   2.735   5.992
   59SOL    HW2 1077   0.656   2.684   5.946
   60SOL     OW 1078   5.263   2.677   4.408
   60SOL    HW1 1079   5.322   2.680   4.327
   60SOL    HW2 1080   5.188   2.742   4.397
   61SOL     OW 1081   6.520   2.066   3.802
   61SOL    HW1 1082   6.466   2.144   3.770
   61SOL    HW2 1083   6.567   2.092   3.887
   62SOL     OW 1084   1.354   0.738   1.773
   62SOL    HW1 1085   1.262   0.709   1.801
   62SOL    HW2 1086   1.422   0.694   1.832
   63SOL     OW 1087   5.223   1.314   4.100
   63SOL    HW1 1088   5.226   1.286   4.195
   63SOL    HW2 1089   5.136   1.285   4.059
   64SOL     OW 1090   0.348   2.982   6.169
   64SOL    HW1 1091   0.365   2.892   6.209
   64SOL    HW2 1092   0.352   3.051   6.241
   65SOL     OW 1093   0.852   4.235   6.342
   65SOL    HW1 1094   0.762   4.197   6.366
   65SOL    HW2 1095   0.840   4.319   6.290
   66SOL     OW 1096   3.933   0.904   4.643
   66SOL    HW1 1097   4.012   0.961   4.622
   66SOL    HW2 1098   3.876   0.894   4.561
   67SOL     OW 1099   0.025   2.873   6.094
   67SOL    HW1 1100   7.009   2.853   6.001
   67SOL    HW2 1101   7.015   2.967   6.117
   68SOL     OW 1102   6.664   1.443   6.972
   68SOL    HW1 1103   6.623   1.356   7.001
   68SOL    HW2 1104   6.762   1.431   6.958
   69SOL     OW 1105   0.951   3.194   6.250
   69SOL    HW1 1106   0.915   3.287   6.251
   69SOL    HW2 1107   0.876   3.129   6.239
   70SOL     OW 1108   5.521   4.617   4.730
   70SOL    HW1 1109   5.572   4.573   4.656
   70SOL    HW2 1110   5.455   4.552   4.768
   71SOL     OW 1111   4.227   1.760   3.280
   71SOL    HW1 1112   4.259   1.788   3.371
   71SOL    HW2 1113   4.134   1.794   3.266
   72SOL     OW 1114   1.579   1.045   3.520
   72SOL    HW1 1115   1.514   1.121   3.518
   72SOL    HW2 1116   1.672   1.082   3.518
   73SOL     OW 1117   3.763   0.431   1.090
   73SOL    HW1 1118   3.845   0.373   1.093
   73SOL    HW2 1119   3.720   0.432   1.179
   74SOL     OW 1120   3.840   0.729   0.129
   74SOL    HW1 1121   3.884   0.776   0.051
   74SOL    HW2 1122   3.911   0.697   0.192
   75SOL     OW 1123   4.509   0.854   0.936
   75SOL    HW1 1124   4.456   0.775   0.906
   75SOL    HW2 1125   4.574   0.826   1.006
   76SOL     OW 1126   2.779   3.300   1.056
   76SOL    HW1 1127   2.758   3.264   1.147
   76SOL    HW2 1128   2.769   3.227   0.988
   77SOL     OW 1129   0.913   0.541   3.912
   77SOL    HW1 1130   0.921   0.470   3.841
   77SOL    HW2 1131   0.836   0.518   3.973
   78SOL     OW 1132   5.668   1.706   0.528
   78SOL    HW1 1133   5.708   1.639   0.466
   78SOL    HW2 1134   5.739   1.768   0.562
   79SOL     OW 1135   3.138   5.919   1.487
   79SOL    HW1 1136   3.168   5.900   1.393
   79SOL    HW2 1137   3.112   5.834   1.532
   80SOL     OW 1138   4.128   1.116   3.717
   80SOL    HW1 1139   4.195   1.087   3.648
   80SOL    HW2 1140   4.164   1.195   3.767
   81SOL     OW 1141   2.310   0.066   2.245
   81SOL    HW1 1142   2.274   0.029   2.159
   81SOL    HW2 1143   2.233   0.087   2.306
   82SOL     OW 1144   6.082   4.925   0.280
   82SOL    HW1 1145   6.067   4.947   0.183
   82SOL    HW2 1146   6.058   4.830   0.296
   83SOL     OW 1147   6.758   0.392   0.242
   83SOL    HW1 1148   6.770   0.384   0.144
   83SOL    HW2 1149   6.815   0.466   0.277
   84SOL     OW 1150   5.923   3.174   2.518
   84SOL    HW1 1151   5.834   3.217   2.533
   84SOL    HW2 1152   5.910   3.084   2.476
   85SOL     OW 1153   1.668   1.418   4.044
   85SOL    HW1 1154   1.727   1.369   4.108
   85SOL    HW2 1155   1.577   1.430   4.086
   86SOL     OW 1156   0.867   1.469   6.392
   86SOL    HW1 1157   0.784   1.458   6.337
   86SOL    HW2 1158   0.934   1.522   6.341
   87SOL     OW 1159   5.057   4.436   0.817
   87SOL    HW1 1160   4.984   4.368   0.809
   87SOL    HW2 1161   5.123   4.423   0.743
   88SOL     OW 1162   2.963   1.838   6.365
   88SOL    HW1 1163   3.058   1.858   6.337
   88SOL    HW2 1164   2.921   1.922   6.399
   89SOL     OW 1165   2.443   2.162   6.810
   89SOL    HW1 1166   2.473   2.157   6.714
   89SOL    HW2 1167   2.344   2.170   6.814
   90SOL     OW 1168   4.135   5.430   1.697
   90SOL    HW1 1169   4.168   5.361   1.762
   90SOL    HW2 1170   4.156   5.521   1.732
   91SOL     OW 1171   6.122   3.778   6.081
   91SOL    HW1 1172   6.184   3.715   6.128
   91SOL    HW2 1173   6.165   3.868   6.075
   92SOL     OW 1174   4.604   4.482   1.012
   92SOL    HW1 1175   4.537   4.554   1.028
   92SOL    HW2 1176   4.558   4.399   0.981
   93SOL     OW 1177   3.352   3.465   0.842
   93SOL    HW1 1178   3.423   3.534   0.859
   93SOL    HW2 1179   3.343   3.450   0.744
   94SOL     OW 1180   2.846   5.732   6.241
   94SOL    HW1 1181   2.917   5.669   6.209
   94SOL    HW2 1182   2.758   5.685   6.242
   95SOL     OW 1183   1.428   0.334   2.839
   95SOL    HW1 1184   1.365   0.405   2.871
   95SOL    HW2 1185   1.390   0.290   2.758
   96SOL     OW 1186   3.935   0.127   5.328
   96SOL    HW1 1187   3.855   0.186   5.330
   96SOL    HW2 1188   3.923   0.053   5.394
   97SOL     OW 1189   2.166   3.080   5.816
   97SOL    HW1 1190   2.193   3.103   5.910
   97SOL    HW2 1191   2.238   3.110   5.753
   98SOL     OW 1192   1.124   2.665   0.793
   98SOL    HW1 1193   1.158   2.582   0.838
   98SOL    HW2 1194   1.191   2.697   0.726
   99SOL     OW 1195   4.225   2.832   1.538
   99SOL    HW1 1196   4.251   2.926   1.562
   99SOL    HW2 1197   4.211   2.826   1.439
  100SOL     OW 1198   0.894   6.795   3.769
  100SOL    HW1 1199   0.969   6.730   3.780
  100SOL    HW2 1200   0.808   6.745   3.764
  101SOL     OW 1201   1.832   4.342   2.114
  101SOL    HW1 1202   1.825   4.407   2.190
  101SOL    HW2 1203   1.912   4.284   2.127
  102SOL     OW 1204   2.806   5.509   1.702
  102SOL    HW1 1205   2.752   5.444   1.649
  102SOL    HW2 1206   2.862   5.459   1.769
  103SOL     OW 1207   2.392   1.508   2.106
  103SOL    HW1 1208   2.421   1.552   2.191
  103SOL    HW2 1209   2.473   1.477   2.056
  104SOL     OW 1210   1.219   5.509   2.720
  104SOL    HW1 1211   1.120   5.506   2.707
  104SOL    HW2 1212   1.241   5.581   2.786
  105SOL     OW 1213   6.113   0.938   6.439
  105SOL    HW1 1214   6.016   0.959   6.424
  105SOL    HW2 1215   6.169   0.992   6.375
  106SOL     OW 1216   3.775   6.062   4.097
  106SOL    HW1 1217   3.705   6.075   4.027
  106SOL    HW2 1218   3.863   6.091   4.061
  107SOL     OW 1219   1.119   1.278   6.810
  107SOL    HW1 1220   1.043   1.301   6.750
  107SOL    HW2 1221   1.084   1.261   6.903
  108SOL     OW 1222   3.691   0.124   5.896
  108SOL    HW1 1223   3.651   0.035   5.919
  108SOL    HW2 1224   3.650   0.195   5.953
  109SOL     OW 1225   2.003   1.127   2.721
  109SOL    HW1 1226   2.085   1.180   2.742
  109SOL    HW2 1227   1.999   1.109   2.622
  110SOL     OW 1228   3.067   5.547   3.951
  110SOL    HW1 1229   3.140   5.547   3.882
  110SOL    HW2 1230   3.060   5.456   3.991
  111SOL     OW 1231   1.953   1.220   3.963
  111SOL    HW1 1232   2.029   1.165   3.929
  111SOL    HW2 1233   1.983   1.315   3.972
  112SOL     OW 1234   3.110   5.930   6.951
  112SOL    HW1 1235   3.114   5.850   7.010
  112SOL    HW2 1236   3.126   5.902   6.856
  113SOL     OW 1237   1.288   5.859   2.440
  113SOL    HW1 1238   1.286   5.909   2.527
  113SOL    HW2 1239   1.217   5.894   2.379
  114SOL     OW 1240   0.786   6.473   1.671
  114SOL    HW1 1241   0.712   6.522   1.716
  114SOL    HW2 1242   0.753   6.384   1.639
  115SOL     OW 1243   4.579   1.442   2.950
  115SOL    HW1 1244   4.650   1.445   3.021
  115SOL    HW2 1245   4.617   1.401   2.867
  116SOL     OW 1246   6.526   6.025   1.063
  116SOL    HW1 1247   6.623   6.046   1.069
  116SOL    HW2 1248   6.473   6.110   1.068
  117SOL     OW 1249   0.964   1.622   1.278
  117SOL    HW1 1250   0.953   1.707   1.227
  117SOL    HW2 1251   0.878   1.571   1.276
  118SOL     OW 1252   1.748   0.707   2.159
  118SOL    HW1 1253   1.661   0.686   2.115
  118SOL    HW2 1254   1.750   0.669   2.251
  119SOL     OW 1255   0.337   0.593   6.931
  119SOL    HW1 1256   0.334   0.519   6.863
  119SOL    HW2 1257   0.388   0.670   6.893
  120SOL     OW 1258   5.283   1.751   5.926
  120SOL    HW1 1259   5.224   1.670   5.930
  120SOL    HW2 1260   5.282   1.789   5.834
  121SOL     OW 1261   2.142   2.902   0.177
  121SOL    HW1 1262   2.212   2.912   0.106
  121SOL    HW2 1263   2.128   2.806   0.197
  122SOL     OW 1264   1.273   3.855   0.024
  122SOL    HW1 1265   1.257   3.790   0.097
  122SOL    HW2 1266   1.341   3.923   0.054
  123SOL     OW 1267   0.963   1.544   2.836
  123SOL    HW1 1268   0.991   1.449   2.829
  123SOL    HW2 1269   1.034   1.596   2.883
  124SOL     OW 1270   3.774   2.509   0.658
  124SOL    HW1 1271   3.805   2.432   0.602
  124SOL    HW2 1272   3.674   2.512   0.659
  125SOL     OW 1273   4.173   2.076   0.316
  125SOL    HW1 1274   4.089   2.119   0.350
  125SOL    HW2 1275   4.237   2.147   0.287
  126SOL     OW 1276   3.510   3.866   1.605
  126SOL    HW1 1277   3.598   3.895   1.643
  126SOL    HW2 1278   3.448   3.944   1.602
  127SOL     OW 1279   0.890   5.332   6.343
  127SOL    HW1 1280   0.920   5.260   6.280
  127SOL    HW2 1281   0.823   5.294   6.407
  128SOL     OW 1282   4.736   3.201   1.152
  128SOL    HW1 1283   4.748   3.240   1.060
  128SOL    HW2 1284   4.638   3.201   1.175
  129SOL     OW 1285   3.324   3.726   6.670
  129SOL    HW1 1286   3.239   3.702   6.718
  129SOL    HW2 1287   3.400   3.678   6.713
  130SOL     OW 1288   1.426   1.423   4.122
  130SOL    HW1 1289   1.352   1.419   4.055
  130SOL    HW2 1290   1.413   1.503   4.181
  131SOL     OW 1291   4.690   0.371   3.142
  131SOL    HW1 1292   4.766   0.308   3.155
  131SOL    HW2 1293   4.604   0.320   3.139
  132SOL     OW 1294   2.951   2.705   1.702
  132SOL    HW1 1295   2.996   2.783   1.745
  132SOL    HW2 1296   2.964   2.623   1.759
  133SOL     OW 1297   5.623   0.836   4.592
  133SOL    HW1 1298   5.632   0.935   4.585
  133SOL    HW2 1299   5.624   0.810   4.689
  134SOL     OW 1300   6.947   1.086   2.544
  134SOL    HW1 1301   0.026   1.102   2.572
  134SOL    HW2 1302   6.940   0.999   2.496
  135SOL     OW 1303   5.266   3.794   3.844
  135SOL    HW1 1304   5.177   3.758   3.816
  135SOL    HW2 1305   5.336   3.764   3.779
  136SOL     OW 1306   1.725   5.297   5.383
  136SOL    HW1 1307   1.764   5.260   5.467
  136SOL    HW2 1308   1.718   5.396   5.390
  137SOL     OW 1309   4.786   1.869   3.110
  137SOL    HW1 1310   4.794   1.959   3.066
  137SOL    HW2 1311   4.691   1.850   3.132
  138SOL     OW 1312   1.533   3.579   2.845
  138SOL    HW1 1313   1.477   3.578   2.762
  138SOL    HW2 1314   1.628   3.562   2.821
  139SOL     OW 1315   1.637   6.756   5.434
  139SOL    HW1 1316   1.602   6.687   5.372
  139SOL    HW2 1317   1.717   6.721   5.482
  140SOL     OW 1318   1.844   0.172   3.873
  140SOL    HW1 1319   1.883   0.258   3.907
  140SOL    HW2 1320   1.749   0.187   3.845
  141SOL     OW 1321   0.583   2.695   4.775
  141SOL    HW1 1322   0.638   2.612   4.783
  141SOL    HW2 1323   0.487   2.672   4.788
  142SOL     OW 1324   2.003   4.139   2.116
  142SOL    HW1 1325   1.959   4.116   2.029
  142SOL    HW2 1326   2.102   4.134   2.105
  143SOL     OW 1327   5.633   4.815   0.331
  143SOL    HW1 1328   5.584   4.739   0.287
  143SOL    HW2 1329   5.680   4.782   0.413
  144SOL     OW 1330   1.745   4.747   5.784
  144SOL    HW1 1331   1.716   4.823   5.726
  144SOL    HW2 1332   1.836   4.716   5.757
  145SOL     OW 1333   1.857   4.386   1.674
  145SOL    HW1 1334   1.816   4.454   1.613
  145SOL    HW2 1335   1.790   4.359   1.743
  146SOL     OW 1336   5.240   0.032   5.994
  146SOL    HW1 1337   5.309   0.015   6.065
  146SOL    HW2 1338   5.270   7.007   5.908
  147SOL     OW 1339   5.444   2.296   6.215
  147SOL    HW1 1340   5.491   2.270   6.131
  147SOL    HW2 1341   5.358   2.342   6.192
  148SOL     OW 1342   6.789   5.063   0.689
  148SOL    HW1 1343   6.763   4.976   0.731
  148SOL    HW2 1344   6.869   5.048   0.630
  149SOL     OW 1345   3.632   2.095   4.467
  149SOL    HW1 1346   3.563   2.039   4.421
  149SOL    HW2 1347   3.597   2.188   4.478
  150SOL     OW 1348   5.724   6.712   0.009
  150SOL    HW1 1349   5.793   6.755   0.067
  150SOL    HW2 1350   5.668   6.782   6.981
  151SOL     OW 1351   3.228   0.943   1.466
  151SOL    HW1 1352   3.213   0.859   1.415
  151SOL    HW2 1353   3.296   0.927   1.538
  152SOL     OW 1354   0.041   1.070   0.846
  152SOL    HW1 1355   0.134   1.089   0.878
  152SOL    HW2 1356   7.005   1.025   0.918
  153SOL     OW 1357   2.702   0.272   3.690
  153SOL    HW1 1358   2.715   0.253   3.593
  153SOL    HW2 1359   2.783   0.317   3.727
  154SOL     OW 1360   1.151   3.293   0.943
  154SOL    HW1 1361   1.117   3.387   0.942
  154SOL    HW2 1362   1.189   3.270   0.853
  155SOL     OW 1363   1.049   1.100   5.219
  155SOL    HW1 1364   1.048   1.200   5.222
  155SOL    HW2 1365   0.963   1.064   5.257
  156SOL     OW 1366   0.079   0.321   0.683
  156SOL    HW1 1367   0.049   0.250   0.747
  156SOL    HW2 1368   0.053   0.294   0.590
  157SOL     OW 1369   5.939   3.675   1.022
  157SOL    HW1 1370   5.928   3.746   0.953
  157SOL    HW2 1371   5.876   3.691   1.098
  158SOL     OW 1372   0.918   3.148   1.864
  158SOL    HW1 1373   0.953   3.212   1.932
  158SOL    HW2 1374   0.924   3.055   1.899
  159SOL     OW 1375   4.641   5.418   1.865
  159SOL    HW1 1376   4.599   5.505   1.841
  159SOL    HW2 1377   4.721   5.402   1.807
  160SOL     OW 1378   5.772   6.450   0.871
  160SOL    HW1 1379   5.696   6.424   0.811
  160SOL    HW2 1380   5.758   6.543   0.905
  161SOL     OW 1381   1.292   6.655   3.591
  161SOL    HW1 1382   1.277   6.754   3.596
  161SOL    HW2 1383   1.299   6.627   3.496
  162SOL     OW 1384   3.886   6.208   0.332
  162SOL    HW1 1385   3.885   6.295   0.381
  162SOL    HW2 1386   3.972   6.198   0.282
  163SOL     OW 1387   6.663   5.849   2.489
  163SOL    HW1 1388   6.759   5.839   2.463
  163SOL    HW2 1389   6.656   5.884   2.582
  164SOL     OW 1390   0.799   4.156   3.241
  164SOL    HW1 1391   0.772   4.070   3.283
  164SOL    HW2 1392   0.899   4.167   3.247
  165SOL     OW 1393   4.593   4.273   0.631
  165SOL    HW1 1394   4.636   4.185   0.653
  165SOL    HW2 1395   4.660   4.334   0.589
  166SOL     OW 1396   0.957   2.905   2.026
  166SOL    HW1 1397   0.976   2.909   2.124
  166SOL    HW2 1398   0.997   2.822   1.988
  167SOL     OW 1399   5.543   2.514   0.128
  167SOL    HW1 1400   5.540   2.512   0.228
  167SOL    HW2 1401   5.638   2.505   0.098
  168SOL     OW 1402   3.734   2.282   0.488
  168SOL    HW1 1403   3.674   2.299   0.410
  168SOL    HW2 1404   3.719   2.189   0.523
  169SOL     OW 1405   6.321   2.043   1.466
  169SOL    HW1 1406   6.231   2.029   1.425
  169SOL    HW2 1407   6.391   1.999   1.410
  170SOL     OW 1408   6.890   6.767   2.259
  170SOL    HW1 1409   6.953   6.829   2.307
  170SOL    HW2 1410   6.818   6.738   2.322
  171SOL     OW 1411   2.756   4.208   6.896
  171SOL    HW1 1412   2.711   4.218   6.807
  171SOL    HW2 1413   2.802   4.294   6.920
  172SOL     OW 1414   6.059   1.525   2.837
  172SOL    HW1 1415   6.035   1.430   2.818
  172SOL    HW2 1416   6.034   1.548   2.931
  173SOL     OW 1417   6.062   1.220   3.595
  173SOL    HW1 1418   6.149   1.201   3.550
  173SOL    HW2 1419   5.988   1.220   3.527
  174SOL     OW 1420   4.271   5.494   3.959
  174SOL    HW1 1421   4.244   5.498   3.863
  174SOL    HW2 1422   4.225   5.566   4.010
  175SOL     OW 1423   3.229   0.143   1.805
  175SOL    HW1 1424   3.159   0.098   1.750
  175SOL    HW2 1425   3.189   0.220   1.855
  176SOL     OW 1426   6.970   4.469   1.919
  176SOL    HW1 1427   0.041   4.481   1.966
  176SOL    HW2 1428   6.965   4.532   1.841
  177SOL     OW 1429   5.387   3.633   4.142
  177SOL    HW1 1430   5.319   3.703   4.119
  177SOL    HW2 1431   5.358   3.585   4.225
  178SOL     OW 1432   3.370   4.267   5.639
  178SOL    HW1 1433   3.360   4.277   5.540
  178SOL    HW2 1434   3.326   4.344   5.685
  179SOL     OW 1435   4.149   1.325   5.796
  179SOL    HW1 1436   4.104   1.333   5.707
  179SOL    HW2 1437   4.104   1.255   5.851
  180SOL     OW 1438   1.868   6.735   1.015
  180SOL    HW1 1439   1.927   6.740   0.934
  180SOL    HW2 1440   1.919   6.694   1.091
  181SOL     OW 1441   3.620   3.336   6.309
  181SOL    HW1 1442   3.670   3.386   6.380
  181SOL    HW2 1443   3.533   3.305   6.346
  182SOL     OW 1444   4.011   1.888   6.014
  182SOL    HW1 1445   3.985   1.943   5.935
  182SOL    HW2 1446   4.078   1.937   6.069
  183SOL     OW 1447   3.132   1.820   3.592
  183SOL    HW1 1448   3.181   1.881   3.529
  183SOL    HW2 1449   3.091   1.874   3.666
  184SOL     OW 1450   0.692   6.301   3.871
  184SOL    HW1 1451   0.620   6.233   3.889
  184SOL    HW2 1452   0.707   6.308   3.772
  185SOL     OW 1453   1.500   1.138   4.902
  185SOL    HW1 1454   1.430   1.197   4.942
  185SOL    HW2 1455   1.499   1.148   4.802
  186SOL     OW 1456   6.079   1.553   4.305
  186SOL    HW1 1457   6.174   1.534   4.331
  186SOL    HW2 1458   6.056   1.502   4.222
  187SOL     OW 1459   4.780   6.405   2.674
  187SOL    HW1 1460   4.859   6.346   2.693
  187SOL    HW2 1461   4.711   6.391   2.744
  188SOL     OW 1462   1.487   3.149   3.164
  188SOL    HW1 1463   1.450   3.192   3.082
  188SOL    HW2 1464   1.463   3.052   3.166
  189SOL     OW 1465   2.099   5.786   0.246
  189SOL    HW1 1466   2.147   5.741   0.170
  189SOL    HW2 1467   2.075   5.717   0.314
  190SOL     OW 1468   6.079   3.747   5.428
  190SOL    HW1 1469   6.039   3.798   5.352
  190SOL    HW2 1470   6.026   3.663   5.443
  191SOL     OW 1471   5.997   0.416   6.990
  191SOL    HW1 1472   6.087   0.424   6.947
  191SOL    HW2 1473   6.008   0.384   0.068
  192SOL     OW 1474   0.723   5.376   2.192
  192SOL    HW1 1475   0.721   5.438   2.271
  192SOL    HW2 1476   0.698   5.284   2.221
  193SOL     OW 1477   4.710   3.713   5.409
  193SOL    HW1 1478   4.614   3.740   5.423
  193SOL    HW2 1479   4.722   3.679   5.316
  194SOL     OW 1480   4.365   6.685   3.186
  194SOL    HW1 1481   4.278   6.669   3.233
  194SOL    HW2 1482   4.365   6.635   3.099
  195SOL     OW 1483   1.459   0.516   4.197
  195SOL    HW1 1484   1.557   0.501   4.187
  195SOL    HW2 1485   1.419   0.439   4.246
  196SOL     OW 1486   2.487   0.069   0.134
  196SOL    HW1 1487   2.581   0.104   0.137
  196SOL    HW2 1488   2.490   6.985   0.134
  197SOL     OW 1489   2.624   0.009   1.300
  197SOL    HW1 1490   2.629   0.095   1.249
  197SOL    HW2 1491   2.544   0.011   1.360
  198SOL     OW 1492   4.925   0.047   1.919
  198SOL    HW1 1493   4.944   7.002   1.842
  198SOL    HW2 1494   4.986   0.126   1.914
  199SOL     OW 1495   6.139   1.523   3.577
  199SOL    HW1 1496   6.068   1.586   3.607
  199SOL    HW2 1497   6.105   1.429   3.584
  200SOL     OW 1498   1.035   4.187   1.869
  200SOL    HW1 1499   1.039   4.250   1.947
  200SOL    HW2 1500   1.116   4.129   1.869
  201SOL     OW 1501   6.540   0.116   6.321
  201SOL    HW1 1502   6.540   0.026   6.366
  201SOL    HW2 1503   6.480   0.178   6.372
  202SOL     OW 1504   5.175   0.593   5.545
  202SOL    HW1 1505   5.214   0.583   5.637
  202SOL    HW2 1506   5.242   0.565   5.477
  203SOL     OW 1507   4.367   2.315   4.097
  203SOL    HW1 1508   4.448   2.344   4.046
  203SOL    HW2 1509   4.363   2.363   4.184
  204SOL     OW 1510   6.961   0.697   6.077
  204SOL    HW1 1511   6.987   0.684   5.982
  204SOL    HW2 1512   6.866   0.668   6.090
  205SOL     OW 1513   0.607   0.711   3.527
  205SOL    HW1 1514   0.660   0.717   3.611
  205SOL    HW2 1515   0.617   0.795   3.474
  206SOL     OW 1516   0.432   5.211   2.161
  206SOL    HW1 1517   0.370   5.239   2.234
  206SOL    HW2 1518   0.421   5.274   2.083
  207SOL     OW 1519   4.887   0.826   4.024
  207SOL    HW1 1520   4.800   0.876   4.026
  207SOL    HW2 1521   4.959   0.885   4.060
  208SOL     OW 1522   5.466   3.155   5.274
  208SOL    HW1 1523   5.481   3.082   5.207
  208SOL    HW2 1524   5.502   3.125   5.363
  209SOL     OW 1525   0.789   4.903   4.761
  209SOL    HW1 1526   0.834   4.939   4.679
  209SOL    HW2 1527   0.801   4.968   4.836
  210SOL     OW 1528   4.293   2.505   1.003
  210SOL    HW1 1529   4.319   2.434   0.938
  210SOL    HW2 1530   4.363   2.577   1.003
  211SOL     OW 1531   2.334   6.264   3.591
  211SOL    HW1 1532   2.338   6.348   3.646
  211SOL    HW2 1533   2.254   6.210   3.618
  212SOL     OW 1534   1.887   4.552   1.335
  212SOL    HW1 1535   1.974   4.527   1.377
  212SOL    HW2 1536   1.812   4.527   1.396
  213SOL     OW 1537   3.305   0.793   5.870
  213SOL    HW1 1538   3.320   0.702   5.831
  213SOL    HW2 1539   3.302   0.786   5.970
  214SOL     OW 1540   4.478   5.626   1.822
  214SOL    HW1 1541   4.483   5.721   1.852
  214SOL    HW2 1542   4.392   5.610   1.775
  215SOL     OW 1543   2.102   3.693   0.901
  215SOL    HW1 1544   2.153   3.628   0.844
  215SOL    HW2 1545   2.098   3.782   0.856
  216SOL     OW 1546   2.103   5.939   4.426
  216SOL    HW1 1547   2.197   5.974   4.429
  216SOL    HW2 1548   2.102   5.843   4.456
  217SOL     OW 1549   2.062   2.657   3.755
  217SOL    HW1 1550   2.029   2.649   3.661
  217SOL    HW2 1551   2.055   2.568   3.801
  218SOL     OW 1552   1.336   2.789   4.722
  218SOL    HW1 1553   1.263   2.831   4.669
  218SOL    HW2 1554   1.311   2.791   4.819
  219SOL     OW 1555   4.174   6.552   6.279
  219SOL    HW1 1556   4.123   6.574   6.362
  219SOL    HW2 1557   4.227   6.631   6.250
  220SOL     OW 1558   3.583   6.602   0.838
  220SOL    HW1 1559   3.621   6.675   0.780
  220SOL    HW2 1560   3.506   6.559   0.790
  221SOL     OW 1561   6.390   3.477   2.562
  221SOL    HW1 1562   6.402   3.378   2.552
  221SOL    HW2 1563   6.459   3.525   2.509
  222SOL     OW 1564   2.768   5.081   5.728
  222SOL    HW1 1565   2.701   5.091   5.802
  222SOL    HW2 1566   2.722   5.047   5.646
  223SOL     OW 1567   5.633   3.380   1.021
  223SOL    HW1 1568   5.646   3.371   0.922
  223SOL    HW2 1569   5.712   3.424   1.062
  224SOL     OW 1570   2.405   1.994   4.281
  224SOL    HW1 1571   2.414   2.041   4.194
  224SOL    HW2 1572   2.421   1.896   4.268
  225SOL     OW 1573   5.507   2.061   5.941
  225SOL    HW1 1574   5.416   2.064   5.983
  225SOL    HW2 1575   5.552   2.150   5.954
  226SOL     OW 1576   1.582   0.471   6.386
  226SOL    HW1 1577   1.626   0.381   6.388
  226SOL    HW2 1578   1.636   0.535   6.441
  227SOL     OW 1579   1.842   3.628   3.010
  227SOL    HW1 1580   1.847   3.541   2.962
  227SOL    HW2 1581   1.838   3.702   2.943
  228SOL     OW 1582   3.572   6.406   3.323
  228SOL    HW1 1583   3.603   6.312   3.336
  228SOL    HW2 1584   3.614   6.444   3.241
  229SOL     OW 1585   4.920   6.127   6.661
  229SOL    HW1 1586   4.866   6.043   6.659
  229SOL    HW2 1587   5.013   6.107   6.631
  230SOL     OW 1588   3.122   4.891   2.840
  230SOL    HW1 1589   3.024   4.871   2.844
  230SOL    HW2 1590   3.136   4.984   2.804
  231SOL     OW 1591   6.227   2.028   6.309
  231SOL    HW1 1592   6.137   2.066   6.326
  231SOL    HW2 1593   6.220   1.929   6.293
  232SOL     OW 1594   1.462   4.053   5.936
  232SOL    HW1 1595   1.415   4.127   5.983
  232SOL    HW2 1596   1.560   4.071   5.934
  233SOL     OW 1597   1.988   2.287   4.223
  233SOL    HW1 1598   2.074   2.332   4.198
  233SOL    HW2 1599   1.933   2.272   4.140
  234SOL     OW 1600   4.608   6.484   5.167
  234SOL    HW1 1601   4.698   6.514   5.199
  234SOL    HW2 1602   4.542   6.494   5.241
  235SOL     OW 1603   3.575   3.018   1.892
  235SOL    HW1 1604   3.598   3.112   1.918
  235SOL    HW2 1605   3.658   2.962   1.892
  236SOL     OW 1606   5.464   3.015   6.699
  236SOL    HW1 1607   5.562   3.037   6.696
  236SOL    HW2 1608   5.452   2.916   6.700
  237SOL     OW 1609   6.251   5.565   1.991
  237SOL    HW1 1610   6.344   5.568   1.956
  237SOL    HW2 1611   6.188   5.548   1.915
  238SOL     OW 1612   5.696   2.009   0.167
  238SOL    HW1 1613   5.757   1.942   0.209
  238SOL    HW2 1614   5.612   2.016   0.220
  239SOL     OW 1615   0.080   5.474   6.106
  239SOL    HW1 1616   0.059   5.397   6.045
  239SOL    HW2 1617   0.040   5.557   6.068
  240SOL     OW 1618   0.641   2.371   5.025
  240SOL    HW1 1619   0.686   2.422   4.952
  240SOL    HW2 1620   0.543   2.365   5.006
  241SOL     OW 1621   1.804   6.855   5.008
  241SOL    HW1 1622   1.819   6.756   5.001
  241SOL    HW2 1623   1.850   6.901   4.932
  242SOL     OW 1624   2.647   3.289   5.758
  242SOL    HW1 1625   2.726   3.240   5.796
  242SOL    HW2 1626   2.570   3.282   5.821
  243SOL     OW 1627   5.294   0.935   5.874
  243SOL    HW1 1628   5.349   0.968   5.950
  243SOL    HW2 1629   5.350   0.877   5.814
  244SOL     OW 1630   5.225   2.545   4.897
  244SOL    HW1 1631   5.227   2.499   4.808
  244SOL    HW2 1632   5.317   2.550   4.935
  245SOL     OW 1633   6.902   3.135   5.410
  245SOL    HW1 1634   6.824   3.112   5.352
  245SOL    HW2 1635   6.979   3.162   5.353
  246SOL     OW 1636   5.054   2.780   3.387
  246SOL    HW1 1637   4.985   2.828   3.442
  246SOL    HW2 1638   5.118   2.846   3.349
  247SOL     OW 1639   3.039   0.714   1.941
  247SOL    HW1 1640   3.046   0.779   1.865
  247SOL    HW2 1641   3.027   0.764   2.027
  248SOL     OW 1642   3.679   2.088   3.190
  248SOL    HW1 1643   3.683   2.038   3.277
  248SOL    HW2 1644   3.583   2.094   3.160
  249SOL     OW 1645   4.725   0.228   5.990
  249SOL    HW1 1646   4.733   0.283   5.908
  249SOL    HW2 1647   4.628   0.222   6.018
  250SOL     OW 1648   5.694   2.648   1.289
  250SOL    HW1 1649   5.784   2.690   1.300
  250SOL    HW2 1650   5.701   2.550   1.308
  251SOL     OW 1651   4.562   4.117   5.884
  251SOL    HW1 1652   4.543   4.151   5.792
  251SOL    HW2 1653   4.538   4.187   5.952
  252SOL     OW 1654   6.324   0.308   6.390
  252SOL    HW1 1655   6.344   0.406   6.388
  252SOL    HW2 1656   6.225   0.295   6.398
  253SOL     OW 1657   1.984   4.402   6.858
  253SOL    HW1 1658   2.075   4.440   6.873
  253SOL    HW2 1659   1.991   4.320   6.800
  254SOL     OW 1660   5.606   3.279   2.791
  254SOL    HW1 1661   5.671   3.308   2.861
  254SOL    HW2 1662   5.557   3.198   2.823
  255SOL     OW 1663   1.958   3.095   4.197
  255SOL    HW1 1664   1.947   3.189   4.228
  255SOL    HW2 1665   1.871   3.046   4.207
  256SOL     OW 1666   5.983   4.715   6.395
  256SOL    HW1 1667   6.047   4.791   6.381
  256SOL    HW2 1668   6.030   4.641   6.442
  257SOL     OW 1669   4.703   6.873   4.115
  257SOL    HW1 1670   4.645   6.854   4.194
  257SOL    HW2 1671   4.687   6.967   4.084
  258SOL     OW 1672   0.281   4.740   4.932
  258SOL    HW1 1673   0.284   4.688   5.017
  258SOL    HW2 1674   0.193   4.787   4.924
  259SOL     OW 1675   1.456   2.040   2.361
  259SOL    HW1 1676   1.446   2.095   2.278
  259SOL    HW2 1677   1.512   2.090   2.427
  260SOL     OW 1678   4.204   0.913   0.827
  260SOL    HW1 1679   4.242   0.820   0.825
  260SOL    HW2 1680   4.119   0.912   0.880
  261SOL     OW 1681   0.082   3.775   1.043
  261SOL    HW1 1682   0.181   3.758   1.033
  261SOL    HW2 1683   0.068   3.854   1.102
  262SOL     OW 1684   0.352   4.064   0.787
  262SOL    HW1 1685   0.326   4.064   0.883
  262SOL    HW2 1686   0.337   4.156   0.749
  263SOL     OW 1687   0.587   1.361   3.919
  263SOL    HW1 1688   0.497   1.378   3.880
  263SOL    HW2 1689   0.579   1.346   4.018
  264SOL     OW 1690   5.000   3.303   6.048
  264SOL    HW1 1691   5.046   3.226   6.004
  264SOL    HW2 1692   4.978   3.280   6.142
  265SOL     OW 1693   4.774   4.618   3.156
  265SOL    HW1 1694   4.744   4.713   3.162
  265SOL    HW2 1695   4.831   4.606   3.075
  266SOL     OW 1696   3.958   3.628   5.678
  266SOL    HW1 1697   3.997   3.705   5.628
  266SOL    HW2 1698   4.004   3.544   5.650
  267SOL     OW 1699   6.077   2.194   5.860
  267SOL    HW1 1700   6.130   2.167   5.940
  267SOL    HW2 1701   6.119   2.157   5.777
  268SOL     OW 1702   4.377   0.168   4.763
  268SOL    HW1 1703   4.341   0.135   4.850
  268SOL    HW2 1704   4.469   0.131   4.749
  269SOL     OW 1705   1.708   3.681   1.330
  269SOL    HW1 1706   1.615   3.677   1.291
  269SOL    HW2 1707   1.709   3.744   1.407
  270SOL     OW 1708   6.574   0.255   1.009
  270SOL    HW1 1709   6.500   0.301   1.058
  270SOL    HW2 1710   6.631   0.323   0.963
  271SOL     OW 1711   3.050   1.423   0.806
  271SOL    HW1 1712   3.085   1.512   0.836
  271SOL    HW2 1713   3.003   1.434   0.718
  272SOL     OW 1714   3.426   5.196   4.244
  272SOL    HW1 1715   3.494   5.249   4.194
  272SOL    HW2 1716   3.469   5.151   4.322
  273SOL     OW 1717   2.247   5.029   4.961
  273SOL    HW1 1718   2.260   4.986   5.050
  273SOL    HW2 1719   2.193   4.970   4.902
  274SOL     OW 1720   4.652   2.786   4.008
  274SOL    HW1 1721   4.565   2.750   4.042
  274SOL    HW2 1722   4.725   2.720   4.028
  275SOL     OW 1723   6.072   5.456   5.842
  275SOL    HW1 1724   6.164   5.461   5.881
  275SOL    HW2 1725   6.043   5.548   5.814
  276SOL     OW 1726   0.398   5.377   3.173
  276SOL    HW1 1727   0.361   5.287   3.149
  276SOL    HW2 1728   0.389   5.438   3.094
  277SOL     OW 1729   2.353   3.149   0.895
  277SOL    HW1 1730   2.372   3.173   0.800
  277SOL    HW2 1731   2.283   3.211   0.931
  278SOL     OW 1732   0.290   5.455   1.892
  278SOL    HW1 1733   0.321   5.497   1.977
  278SOL    HW2 1734   0.359   5.388   1.861
  279SOL     OW 1735   0.226   3.293   4.281
  279SOL    HW1 1736   0.313   3.324   4.242
  279SOL    HW2 1737   0.155   3.360   4.261
  280SOL     OW 1738   1.863   6.771   2.814
  280SOL    HW1 1739   1.820   6.682   2.826
  280SOL    HW2 1740   1.960   6.764   2.835
  281SOL     OW 1741   3.462   4.876   2.197
  281SOL    HW1 1742   3.419   4.965   2.179
  281SOL    HW2 1743   3.464   4.822   2.112
  282SOL     OW 1744   4.159   2.001   5.491
  282SOL    HW1 1745   4.097   1.923   5.485
  282SOL    HW2 1746   4.111   2.085   5.465
  283SOL     OW 1747   6.567   1.546   6.200
  283SOL    HW1 1748   6.543   1.475   6.266
  283SOL    HW2 1749   6.549   1.511   6.107
  284SOL     OW 1750   0.352   4.206   4.970
  284SOL    HW1 1751   0.275   4.268   4.980
  284SOL    HW2 1752   0.353   4.167   4.878
  285SOL     OW 1753   5.308   5.323   6.080
  285SOL    HW1 1754   5.352   5.324   5.990
  285SOL    HW2 1755   5.377   5.340   6.151
  286SOL     OW 1756   3.214   4.892   5.625
  286SOL    HW1 1757   3.172   4.809   5.588
  286SOL    HW2 1758   3.178   4.972   5.578
  287SOL     OW 1759   0.336   4.769   6.762
  287SOL    HW1 1760   0.379   4.735   6.846
  287SOL    HW2 1761   0.350   4.703   6.688
  288SOL     OW 1762   4.351   2.286   0.280
  288SOL    HW1 1763   4.283   2.336   0.333
  288SOL    HW2 1764   4.423   2.348   0.251
  289SOL     OW 1765   0.169   5.298   5.349
  289SOL    HW1 1766   0.165   5.238   5.428
  289SOL    HW2 1767   0.190   5.391   5.378
  290SOL     OW 1768   4.507   1.448   3.696
  290SOL    HW1 1769   4.532   1.351   3.697
  290SOL    HW2 1770   4.542   1.493   3.778
  291SOL     OW 1771   2.918   1.246   5.463
  291SOL    HW1 1772   2.900   1.274   5.558
  291SOL    HW2 1773   3.016   1.247   5.446
  292SOL     OW 1774   3.195   1.809   2.454
  292SOL    HW1 1775   3.151   1.808   2.544
  292SOL    HW2 1776   3.151   1.878   2.397
  293SOL     OW 1777   4.885   5.129   1.982
  293SOL    HW1 1778   4.800   5.104   1.936
  293SOL    HW2 1779   4.959   5.133   1.915
  294SOL     OW 1780   6.774   5.546   6.227
  294SOL    HW1 1781   6.859   5.517   6.272
  294SOL    HW2 1782   6.698   5.493   6.263
  295SOL     OW 1783   3.294   1.212   5.008
  295SOL    HW1 1784   3.354   1.266   4.948
  295SOL    HW2 1785   3.201   1.248   5.002
  296SOL     OW 1786   5.907   1.717   2.249
  296SOL    HW1 1787   5.978   1.673   2.305
  296SOL    HW2 1788   5.939   1.806   2.218
  297SOL     OW 1789   2.647   4.935   2.659
  297SOL    HW1 1790   2.662   4.848   2.612
  297SOL    HW2 1791   2.734   4.973   2.689
  298SOL     OW 1792   3.318   6.212   0.796
  298SOL    HW1 1793   3.242   6.236   0.855
  298SOL    HW2 1794   3.390   6.168   0.850
  299SOL     OW 1795   4.329   2.959   6.867
  299SOL    HW1 1796   4.373   2.987   6.781
  299SOL    HW2 1797   4.299   3.039   6.917
  300SOL     OW 1798   5.017   0.732   1.470
  300SOL    HW1 1799   4.977   0.641   1.481
  300SOL    HW2 1800   4.947   0.796   1.438
  301SOL     OW 1801   5.671   2.846   1.041
  301SOL    HW1 1802   5.704   2.815   1.131
  301SOL    HW2 1803   5.572   2.861   1.046
  302SOL     OW 1804   0.164   0.870   3.693
  302SOL    HW1 1805   0.186   0.957   3.737
  302SOL    HW2 1806   0.242   0.807   3.703
  303SOL     OW 1807   6.918   6.574   2.013
  303SOL    HW1 1808   6.971   6.626   2.081
  303SOL    HW2 1809   6.901   6.482   2.048
  304SOL     OW 1810   1.837   6.579   5.633
  304SOL    HW1 1811   1.899   6.655   5.611
  304SOL    HW2 1812   1.831   6.517   5.556
  305SOL     OW 1813   1.382   2.952   0.685
  305SOL    HW1 1814   1.480   2.948   0.707
  305SOL    HW2 1815   1.331   2.980   0.767
  306SOL     OW 1816   1.566   0.793   3.672
  306SOL    HW1 1817   1.624   0.714   3.651
  306SOL    HW2 1818   1.592   0.870   3.615
  307SOL     OW 1819   5.034   5.551   0.455
  307SOL    HW1 1820   5.109   5.536   0.391
  307SOL    HW2 1821   4.964   5.608   0.412
  308SOL     OW 1822   5.438   3.263   4.499
  308SOL    HW1 1823   5.528   3.219   4.498
  308SOL    HW2 1824   5.427   3.313   4.585
  309SOL     OW 1825   2.210   5.671   0.024
  309SOL    HW1 1826   2.298   5.708   7.009
  309SOL    HW2 1827   2.152   5.652   6.961
  310SOL     OW 1828   5.369   6.737   5.565
  310SOL    HW1 1829   5.341   6.811   5.504
  310SOL    HW2 1830   5.288   6.692   5.603
  311SOL     OW 1831   4.167   4.906   2.403
  311SOL    HW1 1832   4.071   4.880   2.411
  311SOL    HW2 1833   4.194   4.902   2.306
  312SOL     OW 1834   4.026   1.178   4.434
  312SOL    HW1 1835   3.962   1.134   4.371
  312SOL    HW2 1836   4.092   1.111   4.468
  313SOL     OW 1837   2.900   3.704   2.391
  313SOL    HW1 1838   2.950   3.621   2.416
  313SOL    HW2 1839   2.827   3.681   2.327
  314SOL     OW 1840   2.484   4.623   6.317
  314SOL    HW1 1841   2.549   4.688   6.357
  314SOL    HW2 1842   2.444   4.567   6.389
  315SOL     OW 1843   1.039   3.013   3.975
  315SOL    HW1 1844   1.031   2.916   3.997
  315SOL    HW2 1845   1.135   3.036   3.957
  316SOL     OW 1846   2.771   1.159   4.388
  316SOL    HW1 1847   2.715   1.080   4.362
  316SOL    HW2 1848   2.843   1.172   4.321
  317SOL     OW 1849   0.032   1.471   0.641
  317SOL    HW1 1850   0.015   1.546   0.705
  317SOL    HW2 1851   0.043   1.507   0.548
  318SOL     OW 1852   0.638   5.538   6.559
  318SOL    HW1 1853   0.550   5.539   6.605
  318SOL    HW2 1854   0.629   5.494   6.470
  319SOL     OW 1855   6.127   1.296   3.092
  319SOL    HW1 1856   6.172   1.278   3.180
  319SOL    HW2 1857   6.046   1.352   3.107
  320SOL     OW 1858   6.577   2.242   1.468
  320SOL    HW1 1859   6.493   2.240   1.415
  320SOL    HW2 1860   6.611   2.149   1.481
  321SOL     OW 1861   3.671   1.490   0.201
  321SOL    HW1 1862   3.673   1.433   0.119
  321SOL    HW2 1863   3.655   1.585   0.175
  322SOL     OW 1864   3.310   2.895   3.907
  322SOL    HW1 1865   3.224   2.943   3.922
  322SOL    HW2 1866   3.324   2.880   3.809
  323SOL     OW 1867   1.263   3.008   6.553
  323SOL    HW1 1868   1.279   3.002   6.454
  323SOL    HW2 1869   1.179   3.059   6.570
  324SOL     OW 1870   2.676   0.747   4.346
  324SOL    HW1 1871   2.668   0.828   4.286
  324SOL    HW2 1872   2.620   0.761   4.428
  325SOL     OW 1873   0.170   2.806   1.652
  325SOL    HW1 1874   0.183   2.724   1.596
  325SOL    HW2 1875   0.081   2.803   1.697
  326SOL     OW 1876   1.094   5.057   6.469
  326SOL    HW1 1877   1.037   5.038   6.389
  326SOL    HW2 1878   1.183   5.090   6.440
  327SOL     OW 1879   1.381   4.396   3.223
  327SOL    HW1 1880   1.364   4.442   3.136
  327SOL    HW2 1881   1.374   4.297   3.210
  328SOL     OW 1882   1.419   5.531   1.452
  328SOL    HW1 1883   1.440   5.605   1.516
  328SOL    HW2 1884   1.361   5.463   1.496
  329SOL     OW 1885   4.077   3.210   4.322
  329SOL    HW1 1886   4.115   3.293   4.364
  329SOL    HW2 1887   4.041   3.150   4.393
  330SOL     OW 1888   3.620   6.513   1.408
  330SOL    HW1 1889   3.590   6.567   1.486
  330SOL    HW2 1890   3.549   6.512   1.338
  331SOL     OW 1891   3.474   5.618   0.539
  331SOL    HW1 1892   3.431   5.530   0.561
  331SOL    HW2 1893   3.413   5.671   0.480
  332SOL     OW 1894   4.577   1.890   5.011
  332SOL    HW1 1895   4.674   1.879   4.990
  332SOL    HW2 1896   4.535   1.952   4.945
  333SOL     OW 1897   3.423   0.327   6.262
  333SOL    HW1 1898   3.335   0.375   6.262
  333SOL    HW2 1899   3.410   0.232   6.291
  334SOL     OW 1900   3.571   0.840   1.320
  334SOL    HW1 1901   3.513   0.855   1.400
  334SOL    HW2 1902   3.564   0.745   1.291
  335SOL     OW 1903   4.240   0.164   5.564
  335SOL    HW1 1904   4.160   0.211   5.528
  335SOL    HW2 1905   4.279   0.105   5.493
  336SOL     OW 1906   1.835   1.146   3.527
  336SOL    HW1 1907   1.812   1.240   3.551
  336SOL    HW2 1908   1.881   1.102   3.604
  337SOL     OW 1909   0.720   2.820   0.113
  337SOL    HW1 1910   0.768   2.802   0.027
  337SOL    HW2 1911   0.745   2.751   0.181
  338SOL     OW 1912   3.108   2.621   1.496
  338SOL    HW1 1913   3.171   2.545   1.509
  338SOL    HW2 1914   3.059   2.640   1.581
  339SOL     OW 1915   4.115   5.798   3.976
  339SOL    HW1 1916   4.023   5.771   4.006
  339SOL    HW2 1917   4.153   5.865   4.040
  340SOL     OW 1918   4.871   4.267   5.173
  340SOL    HW1 1919   4.909   4.240   5.261
  340SOL    HW2 1920   4.832   4.186   5.128
  341SOL     OW 1921   0.009   0.467   4.767
  341SOL    HW1 1922   0.027   0.503   4.675
  341SOL    HW2 1923   6.929   0.442   4.775
  342SOL     OW 1924   6.154   3.797   6.688
  342SOL    HW1 1925   6.081   3.749   6.738
  342SOL    HW2 1926   6.241   3.751   6.706
  343SOL     OW 1927   1.502   5.649   0.608
  343SOL    HW1 1928   1.480   5.655   0.511
  343SOL    HW2 1929   1.421   5.668   0.662
  344SOL     OW 1930   1.371   3.531   2.135
  344SOL    HW1 1931   1.344   3.444   2.095
  344SOL    HW2 1932   1.435   3.516   2.211
  345SOL     OW 1933   3.970   1.823   3.200
  345SOL    HW1 1934   3.913   1.781   3.271
  345SOL    HW2 1935   4.002   1.752   3.137
  346SOL     OW 1936   1.996   0.662   2.649
  346SOL    HW1 1937   2.060   0.597   2.690
  346SOL    HW2 1938   1.925   0.685   2.715
  347SOL     OW 1939   3.112   5.838   6.711
  347SOL    HW1 1940   3.140   5.759   6.657
  347SOL    HW2 1941   3.013   5.835   6.726
  348SOL     OW 1942   5.418   4.364   2.463
  348SOL    HW1 1943   5.372   4.444   2.503
  348SOL    HW2 1944   5.433   4.296   2.534
  349SOL     OW 1945   6.649   5.237   0.834
  349SOL    HW1 1946   6.714   5.178   0.787
  349SOL    HW2 1947   6.686   5.264   0.923
  350SOL     OW 1948   3.303   3.390   0.562
  350SOL    HW1 1949   3.207   3.387   0.531
  350SOL    HW2 1950   3.341   3.298   0.559
  351SOL     OW 1951   2.125   3.024   1.370
  351SOL    HW1 1952   2.176   3.093   1.319
  351SOL    HW2 1953   2.037   3.062   1.399
  352SOL     OW 1954   2.880   0.619   4.870
  352SOL    HW1 1955   2.834   0.630   4.781
  352SOL    HW2 1956   2.869   0.703   4.923
  353SOL     OW 1957   1.892   0.295   0.832
  353SOL    HW1 1958   1.898   0.214   0.891
  353SOL    HW2 1959   1.965   0.291   0.764
  354SOL     OW 1960   3.825   2.806   0.593
  354SOL    HW1 1961   3.795   2.711   0.588
  354SOL    HW2 1962   3.891   2.824   0.520
  355SOL     OW 1963   1.046   3.390   2.537
  355SOL    HW1 1964   1.117   3.416   2.471
  355SOL    HW2 1965   0.956   3.407   2.498
  356SOL     OW 1966   3.066   0.122   5.983
  356SOL    HW1 1967   3.109   0.210   6.001
  356SOL    HW2 1968   3.099   0.055   6.050
  357SOL     OW 1969   6.566   6.280   6.151
  357SOL    HW1 1970   6.593   6.186   6.127
  357SOL    HW2 1971   6.486   6.276   6.211
  358SOL     OW 1972   4.041   6.749   0.539
  358SOL    HW1 1973   3.993   6.692   0.605
  358SOL    HW2 1974   3.975   6.806   0.490
  359SOL     OW 1975   1.856   2.749   2.112
  359SOL    HW1 1976   1.866   2.691   2.193
  359SOL    HW2 1977   1.940   2.801   2.097
  360SOL     OW 1978   0.702   4.924   6.230
  360SOL    HW1 1979   0.710   4.860   6.306
  360SOL    HW2 1980   0.609   4.962   6.228
  361SOL     OW 1981   5.768   5.934   2.955
  361SOL    HW1 1982   5.843   5.997   2.978
  361SOL    HW2 1983   5.803   5.861   2.896
  362SOL     OW 1984   3.593   3.654   1.139
  362SOL    HW1 1985   3.569   3.663   1.236
  362SOL    HW2 1986   3.648   3.572   1.127
  363SOL     OW 1987   5.226   4.303   3.431
  363SOL    HW1 1988   5.135   4.337   3.408
  363SOL    HW2 1989   5.257   4.240   3.361
  364SOL     OW 1990   6.964   5.209   6.814
  364SOL    HW1 1991   0.039   5.235   6.845
  364SOL    HW2 1992   6.935   5.271   6.741
  365SOL     OW 1993   6.381   6.076   2.101
  365SOL    HW1 1994   6.441   6.110   2.029
  365SOL    HW2 1995   6.322   6.005   2.064
  366SOL     OW 1996   5.920   0.860   6.116
  366SOL    HW1 1997   5.977   0.790   6.073
  366SOL    HW2 1998   5.860   0.818   6.184
  367SOL     OW 1999   5.394   3.031   0.974
  367SOL    HW1 2000   5.413   2.987   0.886
  367SOL    HW2 2001   5.320   3.099   0.962
  368SOL     OW 2002   0.201   3.879   4.873
  368SOL    HW1 2003   0.273   3.928   4.923
  368SOL    HW2 2004   0.242   3.821   4.803
  369SOL     OW 2005   6.456   4.976   2.050
  369SOL    HW1 2006   6.500   5.002   1.964
  369SOL    HW2 2007   6.400   4.894   2.036
  370SOL     OW 2008   2.455   1.239   5.889
  370SOL    HW1 2009   2.387   1.230   5.817
  370SOL    HW2 2010   2.478   1.336   5.900
  371SOL     OW 2011   2.255   3.613   6.102
  371SOL    HW1 2012   2.228   3.526   6.061
  371SOL    HW2 2013   2.261   3.683   6.030
  372SOL     OW 2014   0.895   6.722   5.907
  372SOL    HW1 2015   0.966   6.730   5.977
  372SOL    HW2 2016   0.826   6.792   5.921
  373SOL     OW 2017   6.268   6.400   4.749
  373SOL    HW1 2018   6.204   6.471   4.779
  373SOL    HW2 2019   6.361   6.436   4.753
  374SOL     OW 2020   2.776   2.057   4.004
  374SOL    HW1 2021   2.776   2.154   3.979
  374SOL    HW2 2022   2.809   2.046   4.098
  375SOL     OW 2023   1.086   3.966   4.147
  375SOL    HW1 2024   1.123   3.995   4.059
  375SOL    HW2 2025   1.055   4.046   4.198
  376SOL     OW 2026   2.534   1.498   5.234
  376SOL    HW1 2027   2.597   1.435   5.279
  376SOL    HW2 2028   2.552   1.499   5.136
  377SOL     OW 2029   1.305   1.806   1.565
  377SOL    HW1 2030   1.333   1.893   1.524
  377SOL    HW2 2031   1.269   1.745   1.495
  378SOL     OW 2032   4.228   2.542   6.160
  378SOL    HW1 2033   4.199   2.636   6.180
  378SOL    HW2 2034   4.161   2.478   6.197
  379SOL     OW 2035   5.953   4.398   0.875
  379SOL    HW1 2036   6.035   4.366   0.923
  379SOL    HW2 2037   5.960   4.496   0.859
  380SOL     OW 2038   2.751   1.259   1.249
  380SOL    HW1 2039   2.698   1.183   1.288
  380SOL    HW2 2040   2.697   1.303   1.177
  381SOL     OW 2041   1.688   3.622   2.559
  381SOL    HW1 2042   1.736   3.708   2.575
  381SOL    HW2 2043   1.589   3.638   2.561
  382SOL     OW 2044   6.056   0.261   6.435
  382SOL    HW1 2045   6.010   0.249   6.523
  382SOL    HW2 2046   6.048   0.176   6.382
  383SOL     OW 2047   4.346   3.929   5.997
  383SOL    HW1 2048   4.402   3.991   5.943
  383SOL    HW2 2049   4.270   3.979   6.038
  384SOL     OW 2050   6.830   5.917   4.542
  384SOL    HW1 2051   6.885   5.947   4.463
  384SOL    HW2 2052   6.735   5.907   4.514
  385SOL     OW 2053   3.977   5.652   5.476
  385SOL    HW1 2054   3.937   5.664   5.386
  385SOL    HW2 2055   4.022   5.563   5.482
  386SOL     OW 2056   2.365   6.746   5.421
  386SOL    HW1 2057   2.269   6.725   5.437
  386SOL    HW2 2058   2.414   6.663   5.396
  387SOL     OW 2059   1.021   6.973   3.588
  387SOL    HW1 2060   0.958   0.005   3.526
  387SOL    HW2 2061   0.976   6.893   3.626
  388SOL     OW 2062   1.653   1.833   4.373
  388SOL    HW1 2063   1.609   1.859   4.459
  388SOL    HW2 2064   1.676   1.735   4.376
  389SOL     OW 2065   3.865   4.742   1.120
  389SOL    HW1 2066   3.917   4.673   1.071
  389SOL    HW2 2067   3.894   4.745   1.216
  390SOL     OW 2068   3.548   1.129   6.788
  390SOL    HW1 2069   3.555   1.050   6.849
  390SOL    HW2 2070   3.543   1.213   6.842
  391SOL     OW 2071   2.532   3.777   5.780
  391SOL    HW1 2072   2.604   3.709   5.769
  391SOL    HW2 2073   2.499   3.805   5.690
  392SOL     OW 2074   1.964   4.296   0.450
  392SOL    HW1 2075   1.915   4.383   0.455
  392SOL    HW2 2076   2.030   4.299   0.375
  393SOL     OW 2077   1.508   4.445   6.381
  393SOL    HW1 2078   1.475   4.354   6.408
  393SOL    HW2 2079   1.524   4.499   6.464
  394SOL     OW 2080   6.647   2.580   1.190
  394SOL    HW1 2081   6.693   2.637   1.122
  394SOL    HW2 2082   6.664   2.616   1.281
  395SOL     OW 2083   4.951   4.797   2.933
  395SOL    HW1 2084   4.926   4.889   2.962
  395SOL    HW2 2085   5.035   4.801   2.879
  396SOL     OW 2086   2.969   3.690   2.000
  396SOL    HW1 2087   2.951   3.707   1.903
  396SOL    HW2 2088   2.931   3.601   2.026
  397SOL     OW 2089   5.810   1.717   6.159
  397SOL    HW1 2090   5.832   1.620   6.168
  397SOL    HW2 2091   5.747   1.729   6.082
  398SOL     OW 2092   1.283   6.913   3.628
  398SOL    HW1 2093   1.190   6.950   3.625
  398SOL    HW2 2094   1.346   6.981   3.665
  399SOL     OW 2095   5.511   6.293   3.730
  399SOL    HW1 2096   5.571   6.274   3.807
  399SOL    HW2 2097   5.437   6.226   3.727
  400SOL     OW 2098   6.115   6.912   5.127
  400SOL    HW1 2099   6.153   6.963   5.050
  400SOL    HW2 2100   6.184   6.907   5.200
  401SOL     OW 2101   5.161   6.824   6.598
  401SOL    HW1 2102   5.113   6.865   6.521
  401SOL    HW2 2103   5.204   6.896   6.653
  402SOL     OW 2104   6.658   0.493   3.817
  402SOL    HW1 2105   6.559   0.495   3.834
  402SOL    HW2 2106   6.694   0.403   3.841
  403SOL     OW 2107   3.884   1.135   4.903
  403SOL    HW1 2108   3.915   1.144   4.809
  403SOL    HW2 2109   3.784   1.123   4.904
  404SOL     OW 2110   1.623   4.631   3.812
  404SOL    HW1 2111   1.642   4.534   3.818
  404SOL    HW2 2112   1.541   4.653   3.866
  405SOL     OW 2113   2.172   3.088   2.720
  405SOL    HW1 2114   2.097   3.114   2.658
  405SOL    HW2 2115   2.238   3.032   2.670
  406SOL     OW 2116   0.608   4.311   4.513
  406SOL    HW1 2117   0.610   4.397   4.565
  406SOL    HW2 2118   0.572   4.238   4.571
  407SOL     OW 2119   1.036   1.386   5.000
  407SOL    HW1 2120   1.073   1.476   5.025
  407SOL    HW2 2121   0.938   1.393   4.987
  408SOL     OW 2122   2.874   2.031   2.874
  408SOL    HW1 2123   2.964   2.002   2.906
  408SOL    HW2 2124   2.852   1.984   2.788
  409SOL     OW 2125   5.899   3.993   2.270
  409SOL    HW1 2126   5.998   3.990   2.264
  409SOL    HW2 2127   5.866   3.915   2.322
  410SOL     OW 2128   1.090   1.685   0.984
  410SOL    HW1 2129   1.156   1.724   1.048
  410SOL    HW2 2130   1.082   1.743   0.903
  411SOL     OW 2131   6.897   0.939   1.070
  411SOL    HW1 2132   6.815   0.962   1.123
  411SOL    HW2 2133   6.976   0.939   1.131
  412SOL     OW 2134   3.582   5.738   3.208
  412SOL    HW1 2135   3.496   5.696   3.179
  412SOL    HW2 2136   3.644   5.745   3.129
  413SOL     OW 2137   5.723   4.303   1.912
  413SOL    HW1 2138   5.763   4.377   1.859
  413SOL    HW2 2139   5.775   4.289   1.996
  414SOL     OW 2140   3.866   5.841   3.485
  414SOL    HW1 2141   3.954   5.888   3.488
  414SOL    HW2 2142   3.852   5.801   3.394
  415SOL     OW 2143   0.225   0.051   6.494
  415SOL    HW1 2144   0.159   0.125   6.492
  415SOL    HW2 2145   0.285   0.058   6.415
  416SOL     OW 2146   4.732   6.236   4.798
  416SOL    HW1 2147   4.809   6.240   4.862
  416SOL    HW2 2148   4.649   6.266   4.844
  417SOL     OW 2149   2.327   6.627   5.788
  417SOL    HW1 2150   2.336   6.533   5.757
  417SOL    HW2 2151   2.402   6.682   5.749
  418SOL     OW 2152   3.611   6.273   6.478
  418SOL    HW1 2153   3.523   6.305   6.513
  418SOL    HW2 2154   3.597   6.215   6.398
  419SOL     OW 2155   1.490   6.231   2.780
  419SOL    HW1 2156   1.533   6.185   2.859
  419SOL    HW2 2157   1.501   6.174   2.699
  420SOL     OW 2158   6.153   1.572   0.208
  420SOL    HW1 2159   6.200   1.560   0.296
  420SOL    HW2 2160   6.216   1.611   0.142
  421SOL     OW 2161   6.511   4.180   5.175
  421SOL    HW1 2162   6.514   4.096   5.120
  421SOL    HW2 2163   6.581   4.243   5.143
  422SOL     OW 2164   5.264   3.702   1.528
  422SOL    HW1 2165   5.181   3.665   1.486
  422SOL    HW2 2166   5.332   3.629   1.537
  423SOL     OW 2167   1.078   2.328   6.516
  423SOL    HW1 2168   1.104   2.398   6.583
  423SOL    HW2 2169   1.022   2.368   6.445
  424SOL     OW 2170   1.958   4.857   1.606
  424SOL    HW1 2171   1.865   4.845   1.640
  424SOL    HW2 2172   1.971   4.951   1.576
  425SOL     OW 2173   5.087   1.695   3.700
  425SOL    HW1 2174   5.106   1.776   3.756
  425SOL    HW2 2175   5.087   1.614   3.757
  426SOL     OW 2176   3.043   2.137   4.536
  426SOL    HW1 2177   2.964   2.181   4.578
  426SOL    HW2 2178   3.051   2.043   4.570
  427SOL     OW 2179   6.209   6.648   4.061
  427SOL    HW1 2180   6.152   6.719   4.103
  427SOL    HW2 2181   6.222   6.573   4.126
  428SOL     OW 2182   3.889   6.985   3.125
  428SOL    HW1 2183   3.834   0.053   3.124
  428SOL    HW2 2184   3.841   6.914   3.176
  429SOL     OW 2185   0.563   4.684   2.877
  429SOL    HW1 2186   0.605   4.722   2.795
  429SOL    HW2 2187   0.531   4.758   2.936
  430SOL     OW 2188   1.589   6.047   4.320
  430SOL    HW1 2189   1.678   6.092   4.319
  430SOL    HW2 2190   1.534   6.083   4.395
  431SOL     OW 2191   3.156   0.489   1.486
  431SOL    HW1 2192   3.158   0.389   1.481
  431SOL    HW2 2193   3.081   0.517   1.546
  432SOL     OW 2194   6.582   1.961   1.082
  432SOL    HW1 2195   6.607   2.058   1.087
  432SOL    HW2 2196   6.603   1.925   0.991
  433SOL     OW 2197   2.695   6.622   5.380
  433SOL    HW1 2198   2.624   6.557   5.408
  433SOL    HW2 2199   2.666   6.715   5.405
  434SOL     OW 2200   3.988   5.533   3.290
  434SOL    HW1 2201   3.985   5.598   3.214
  434SOL    HW2 2202   3.896   5.521   3.326
  435SOL     OW 2203   4.189   2.012   6.184
  435SOL    HW1 2204   4.203   2.010   6.283
  435SOL    HW2 2205   4.227   2.096   6.146
  436SOL     OW 2206   2.916   5.097   2.048
  436SOL    HW1 2207   2.895   5.002   2.072
  436SOL    HW2 2208   3.013   5.104   2.025
  437SOL     OW 2209   0.325   1.152   6.015
  437SOL    HW1 2210   0.328   1.243   6.056
  437SOL    HW2 2211   0.386   1.149   5.936
  438SOL     OW 2212   1.858   3.869   4.122
  438SOL    HW1 2213   1.770   3.889   4.079
  438SOL    HW2 2214   1.921   3.832   4.054
  439SOL     OW 2215   6.055   6.231   2.478
  439SOL    HW1 2216   6.050   6.281   2.565
  439SOL    HW2 2217   6.072   6.135   2.496
  440SOL     OW 2218   2.847   1.971   5.893
  440SOL    HW1 2219   2.757   2.015   5.890
  440SOL    HW2 2220   2.890   1.976   5.803
  441SOL     OW 2221   0.202   3.301   3.424
  441SOL    HW1 2222   0.158   3.296   3.334
  441SOL    HW2 2223   0.273   3.372   3.423
  442SOL     OW 2224   4.054   6.079   5.627
  442SOL    HW1 2225   4.043   5.982   5.649
  442SOL    HW2 2226   4.134   6.091   5.568
  443SOL     OW 2227   5.883   4.051   4.747
  443SOL    HW1 2228   5.870   4.110   4.827
  443SOL    HW2 2229   5.794   4.024   4.710
  444SOL     OW 2230   5.290   0.631   6.390
  444SOL    HW1 2231   5.229   0.692   6.339
  444SOL    HW2 2232   5.247   0.541   6.400
  445SOL     OW 2233   1.964   5.734   3.100
  445SOL    HW1 2234   1.911   5.710   3.018
  445SOL    HW2 2235   2.020   5.656   3.128
  446SOL     OW 2236   4.228   5.184   2.501
  446SOL    HW1 2237   4.202   5.098   2.457
  446SOL    HW2 2238   4.327   5.186   2.515
  447SOL     OW 2239   0.118   3.677   5.864
  447SOL    HW1 2240   0.033   3.656   5.913
  447SOL    HW2 2241   0.161   3.592   5.833
  448SOL     OW 2242   2.523   0.369   2.650
  448SOL    HW1 2243   2.497   0.406   2.739
  448SOL    HW2 2244   2.476   0.421   2.578
  449SOL     OW 2245   3.021   1.152   4.267
  449SOL    HW1 2246   3.049   1.247   4.257
  449SOL    HW2 2247   3.048   1.101   4.185
  450SOL     OW 2248   1.676   4.611   3.499
  450SOL    HW1 2249   1.640   4.595   3.591
  450SOL    HW2 2250   1.606   4.654   3.442
  451SOL     OW 2251   1.669   2.091   4.755
  451SOL    HW1 2252   1.736   2.048   4.815
  451SOL    HW2 2253   1.707   2.101   4.663
  452SOL     OW 2254   4.310   6.411   1.001
  452SOL    HW1 2255   4.331   6.472   0.925
  452SOL    HW2 2256   4.340   6.318   0.980
  453SOL     OW 2257   3.589   0.547   6.805
  453SOL    HW1 2258   3.518   0.613   6.779
  453SOL    HW2 2259   3.573   0.460   6.758
  454SOL     OW 2260   0.119   3.718   6.219
  454SOL    HW1 2261   0.043   3.746   6.160
  454SOL    HW2 2262   0.116   3.772   6.304
  455SOL     OW 2263   4.962   2.894   4.869
  455SOL    HW1 2264   4.881   2.891   4.811
  455SOL    HW2 2265   5.031   2.832   4.833
  456SOL     OW 2266   1.318   0.218   4.632
  456SOL    HW1 2267   1.361   0.259   4.712
  456SOL    HW2 2268   1.248   0.152   4.662
  457SOL     OW 2269   1.807   4.249   4.387
  457SOL    HW1 2270   1.743   4.324   4.406
  457SOL    HW2 2271   1.870   4.275   4.314
  458SOL     OW 2272   2.766   6.267   2.885
  458SOL    HW1 2273   2.742   6.288   2.980
  458SOL    HW2 2274   2.703   6.199   2.849
  459SOL     OW 2275   1.913   6.871   5.939
  459SOL    HW1 2276   2.009   6.865   5.909
  459SOL    HW2 2277   1.860   6.919   5.869
  460SOL     OW 2278   1.630   0.015   4.598
  460SOL    HW1 2279   1.636   6.987   4.508
  460SOL    HW2 2280   1.667   0.107   4.593
  461SOL     OW 2281   6.761   5.062   5.729
  461SOL    HW1 2282   6.708   5.145   5.745
  461SOL    HW2 2283   6.781   5.017   5.816
  462SOL     OW 2284   4.072   3.423   6.211
  462SOL    HW1 2285   4.006   3.355   6.241
  462SOL    HW2 2286   4.134   3.444   6.287
  463SOL     OW 2287   6.851   0.237   4.143
  463SOL    HW1 2288   6.791   0.175   4.195
  463SOL    HW2 2289   6.920   0.275   4.204
  464SOL     OW 2290   2.961   0.680   5.759
  464SOL    HW1 2291   2.988   0.589   5.791
  464SOL    HW2 2292   2.970   0.746   5.833
  465SOL     OW 2293   0.248   2.508   0.119
  465SOL    HW1 2294   0.168   2.461   0.082
  465SOL    HW2 2295   0.231   2.607   0.121
  466SOL     OW 2296   2.908   6.631   4.122
  466SOL    HW1 2297   2.948   6.720   4.144
  466SOL    HW2 2298   2.843   6.642   4.046
  467SOL     OW 2299   1.395   1.401   2.232
  467SOL    HW1 2300   1.387   1.448   2.320
  467SOL    HW2 2301   1.478   1.345   2.231
  468SOL     OW 2302   3.215   5.617   5.212
  468SOL    HW1 2303   3.228   5.571   5.300
  468SOL    HW2 2304   3.192   5.550   5.142
  469SOL     OW 2305   2.935   3.704   6.306
  469SOL    HW1 2306   3.025   3.662   6.322
  469SOL    HW2 2307   2.919   3.712   6.208
  470SOL     OW 2308   3.946   5.975   1.177
  470SOL    HW1 2309   3.981   5.967   1.084
  470SOL    HW2 2310   3.994   6.050   1.224
  471SOL     OW 2311   2.379   2.663   3.556
  471SOL    HW1 2312   2.469   2.633   3.526
  471SOL    HW2 2313   2.370   2.649   3.654
  472SOL     OW 2314   5.420   4.601   6.665
  472SOL    HW1 2315   5.517   4.596   6.688
  472SOL    HW2 2316   5.390   4.515   6.623
  473SOL     OW 2317   1.426   1.759   2.379
  473SOL    HW1 2318   1.427   1.842   2.323
  473SOL    HW2 2319   1.342   1.708   2.362
  474SOL     OW 2320   5.415   5.599   4.783
  474SOL    HW1 2321   5.408   5.679   4.843
  474SOL    HW2 2322   5.497   5.547   4.807
  475SOL     OW 2323   6.119   2.767   0.670
  475SOL    HW1 2324   6.053   2.804   0.736
  475SOL    HW2 2325   6.080   2.686   0.627
  476SOL     OW 2326   6.920   3.992   1.954
  476SOL    HW1 2327   7.006   4.032   1.987
  476SOL    HW2 2328   6.849   4.062   1.954
  477SOL     OW 2329   2.844   5.779   3.180
  477SOL    HW1 2330   2.932   5.823   3.168
  477SOL    HW2 2331   2.798   5.817   3.260
  478SOL     OW 2332   4.081   5.623   2.960
  478SOL    HW1 2333   4.138   5.673   2.894
  478SOL    HW2 2334   4.112   5.527   2.963
  479SOL     OW 2335   4.035   3.397   4.993
  479SOL    HW1 2336   4.015   3.328   5.062
  479SOL    HW2 2337   4.050   3.353   4.904
  480SOL     OW 2338   2.635   0.277   0.841
  480SOL    HW1 2339   2.612   0.269   0.744
  480SOL    HW2 2340   2.616   0.370   0.873
  481SOL     OW 2341   0.908   6.710   1.947
  481SOL    HW1 2342   0.857   6.786   1.909
  481SOL    HW2 2343   0.965   6.669   1.875
  482SOL     OW 2344   4.743   4.918   2.283
  482SOL    HW1 2345   4.755   4.888   2.377
  482SOL    HW2 2346   4.671   4.865   2.239
  483SOL     OW 2347   6.665   2.174   2.900
  483SOL    HW1 2348   6.665   2.254   2.960
  483SOL    HW2 2349   6.570   2.146   2.882
  484SOL     OW 2350   1.576   3.820   4.498
  484SOL    HW1 2351   1.660   3.801   4.550
  484SOL    HW2 2352   1.599   3.872   4.416
  485SOL     OW 2353   4.790   4.720   2.485
  485SOL    HW1 2354   4.801   4.783   2.562
  485SOL    HW2 2355   4.859   4.647   2.492
  486SOL     OW 2356   6.094   1.884   0.450
  486SOL    HW1 2357   6.179   1.847   0.414
  486SOL    HW2 2358   6.092   1.983   0.435
  487SOL     OW 2359   0.476   0.464   3.476
  487SOL    HW1 2360   0.513   0.555   3.455
  487SOL    HW2 2361   0.543   0.414   3.532
  488SOL     OW 2362   0.483   0.097   2.316
  488SOL    HW1 2363   0.388   0.097   2.283
  488SOL    HW2 2364   0.496   0.019   2.377
  489SOL     OW 2365   5.176   6.383   5.827
  489SOL    HW1 2366   5.246   6.363   5.758
  489SOL    HW2 2367   5.179   6.480   5.850
  490SOL     OW 2368   2.175   6.064   3.734
  490SOL    HW1 2369   2.230   5.981   3.723
  490SOL    HW2 2370   2.219   6.125   3.799
  491SOL     OW 2371   1.376   3.353   1.357
  491SOL    HW1 2372   1.391   3.276   1.418
  491SOL    HW2 2373   1.413   3.436   1.399
  492SOL     OW 2374   1.466   0.999   5.680
  492SOL    HW1 2375   1.523   0.931   5.727
  492SOL    HW2 2376   1.376   1.002   5.723
  493SOL     OW 2377   3.075   6.685   5.696
  493SOL    HW1 2378   3.001   6.670   5.630
  493SOL    HW2 2379   3.139   6.753   5.659
  494SOL     OW 2380   1.140   6.713   6.505
  494SOL    HW1 2381   1.084   6.793   6.525
  494SOL    HW2 2382   1.214   6.738   6.443
  495SOL     OW 2383   3.947   5.653   3.708
  495SOL    HW1 2384   4.014   5.704   3.762
  495SOL    HW2 2385   3.933   5.699   3.621
  496SOL     OW 2386   5.572   2.908   1.810
  496SOL    HW1 2387   5.562   2.844   1.886
  496SOL    HW2 2388   5.624   2.865   1.736
  497SOL     OW 2389   3.074   1.336   4.680
  497SOL    HW1 2390   3.123   1.255   4.712
  497SOL    HW2 2391   2.977   1.315   4.672
  498SOL     OW 2392   0.811   4.761   2.551
  498SOL    HW1 2393   0.869   4.836   2.582
  498SOL    HW2 2394   0.823   4.682   2.611
  499SOL     OW 2395   1.766   5.471   4.724
  499SOL    HW1 2396   1.741   5.545   4.662
  499SOL    HW2 2397   1.695   5.400   4.721
  500SOL     OW 2398   6.083   2.573   0.073
  500SOL    HW1 2399   6.077   2.667   0.107
  500SOL    HW2 2400   6.163   2.565   0.013
  501SOL     OW 2401   3.919   6.583   0.714
  501SOL    HW1 2402   3.832   6.631   0.728
  501SOL    HW2 2403   3.946   6.537   0.799
  502SOL     OW 2404   0.796   4.425   6.167
  502SOL    HW1 2405   0.792   4.380   6.078
  502SOL    HW2 2406   0.730   4.500   6.170
  503SOL     OW 2407   1.294   4.636   6.344
  503SOL    HW1 2408   1.378   4.583   6.353
  503SOL    HW2 2409   1.218   4.574   6.326
  504SOL     OW 2410   1.237   5.571   2.195
  504SOL    HW1 2411   1.164   5.553   2.261
  504SOL    HW2 2412   1.323   5.535   2.230
  505SOL     OW 2413   3.987   6.386   4.818
  505SOL    HW1 2414   4.020   6.348   4.732
  505SOL    HW2 2415   4.061   6.384   4.886
  506SOL     OW 2416   3.376   5.839   2.587
  506SOL    HW1 2417   3.292   5.887   2.611
  506SOL    HW2 2418   3.450   5.871   2.646
  507SOL     OW 2419   2.957   6.306   3.135
  507SOL    HW1 2420   2.976   6.264   3.224
  507SOL    HW2 2421   2.866   6.347   3.137
  508SOL     OW 2422   0.077   3.482   2.321
  508SOL    HW1 2423   7.014   3.425   2.343
  508SOL    HW2 2424   0.153   3.458   2.382
  509SOL     OW 2425   3.441   1.582   1.086
  509SOL    HW1 2426   3.353   1.606   1.045
  509SOL    HW2 2427   3.434   1.492   1.130
  510SOL     OW 2428   6.452   4.184   6.255
  510SOL    HW1 2429   6.374   4.143   6.208
  510SOL    HW2 2430   6.473   4.131   6.337
  511SOL     OW 2431   0.892   2.726   6.487
  511SOL    HW1 2432   0.988   2.699   6.481
  511SOL    HW2 2433   0.865   2.733   6.583
  512SOL     OW 2434   6.634   2.465   6.759
  512SOL    HW1 2435   6.584   2.479   6.674
  512SOL    HW2 2436   6.729   2.443   6.738
  513SOL     OW 2437   5.411   6.831   3.393
  513SOL    HW1 2438   5.367   6.759   3.447
  513SOL    HW2 2439   5.348   6.907   3.381
  514SOL     OW 2440   6.705   0.822   4.609
  514SOL    HW1 2441   6.736   0.808   4.515
  514SOL    HW2 2442   6.616   0.867   4.609
  515SOL     OW 2443   1.582   1.016   0.369
  515SOL    HW1 2444   1.606   1.104   0.408
  515SOL    HW2 2445   1.490   1.020   0.330
  516SOL     OW 2446   2.677   4.847   1.994
  516SOL    HW1 2447   2.708   4.753   2.008
  516SOL    HW2 2448   2.619   4.851   1.913
  517SOL     OW 2449   3.282   4.857   1.815
  517SOL    HW1 2450   3.364   4.803   1.835
  517SOL    HW2 2451   3.201   4.799   1.827
  518SOL     OW 2452   2.100   2.311   3.736
  518SOL    HW1 2453   2.186   2.346   3.699
  518SOL    HW2 2454   2.053   2.257   3.667
  519SOL     OW 2455   0.583   6.489   3.363
  519SOL    HW1 2456   0.627   6.550   3.429
  519SOL    HW2 2457   0.643   6.476   3.284
  520SOL     OW 2458   6.377   3.697   6.772
  520SOL    HW1 2459   6.442   3.760   6.815
  520SOL    HW2 2460   6.414   3.604   6.774
  521SOL     OW 2461   6.425   6.100   5.334
  521SOL    HW1 2462   6.470   6.188   5.316
  521SOL    HW2 2463   6.463   6.059   5.416
  522SOL     OW 2464   4.068   3.590   3.377
  522SOL    HW1 2465   4.089   3.585   3.474
  522SOL    HW2 2466   4.061   3.685   3.348
  523SOL     OW 2467   0.039   5.957   1.187
  523SOL    HW1 2468   0.108   6.028   1.171
  523SOL    HW2 2469   0.054   5.916   1.277
  524SOL     OW 2470   1.150   2.438   2.776
  524SOL    HW1 2471   1.190   2.365   2.831
  524SOL    HW2 2472   1.071   2.477   2.824
  525SOL     OW 2473   1.799   4.377   5.653
  525SOL    HW1 2474   1.826   4.360   5.748
  525SOL    HW2 2475   1.874   4.351   5.592
  526SOL     OW 2476   3.499   0.014   3.960
  526SOL    HW1 2477   3.402   7.013   3.974
  526SOL    HW2 2478   3.515   0.038   3.864
  527SOL     OW 2479   6.639   2.899   0.563
  527SOL    HW1 2480   6.663   2.894   0.660
  527SOL    HW2 2481   6.559   2.958   0.551
  528SOL     OW 2482   1.597   2.580   3.527
  528SOL    HW1 2483   1.646   2.668   3.535
  528SOL    HW2 2484   1.645   2.522   3.462
  529SOL     OW 2485   1.897   6.272   5.088
  529SOL    HW1 2486   1.855   6.248   5.176
  529SOL    HW2 2487   1.988   6.312   5.105
  530SOL     OW 2488   4.034   3.879   3.342
  530SOL    HW1 2489   3.963   3.914   3.404
  530SOL    HW2 2490   4.064   3.953   3.281
  531SOL     OW 2491   0.726   1.253   3.079
  531SOL    HW1 2492   0.793   1.223   3.146
  531SOL    HW2 2493   0.744   1.209   2.990
  532SOL     OW 2494   1.309   2.206   0.637
  532SOL    HW1 2495   1.239   2.243   0.698
  532SOL    HW2 2496   1.312   2.260   0.553
  533SOL     OW 2497   4.334   0.036   3.016
  533SOL    HW1 2498   4.242   0.066   2.991
  533SOL    HW2 2499   4.369   6.992   2.945
  534SOL     OW 2500   5.680   5.804   2.526
  534SOL    HW1 2501   5.737   5.785   2.606
  534SOL    HW2 2502   5.693   5.899   2.498
  535SOL     OW 2503   6.587   3.953   3.436
  535SOL    HW1 2504   6.530   3.880   3.399
  535SOL    HW2 2505   6.630   3.922   3.521
  536SOL     OW 2506   6.463   4.743   2.730
  536SOL    HW1 2507   6.509   4.655   2.722
  536SOL    HW2 2508   6.374   4.731   2.774
  537SOL     OW 2509   2.978   6.853   4.799
  537SOL    HW1 2510   3.076   6.859   4.783
  537SOL    HW2 2511   2.961   6.819   4.891
  538SOL     OW 2512   0.715   4.615   4.168
  538SOL    HW1 2513   0.748   4.627   4.074
  538SOL    HW2 2514   0.781   4.654   4.232
  539SOL     OW 2515   2.116   4.405   1.803
  539SOL    HW1 2516   2.025   4.423   1.766
  539SOL    HW2 2517   2.185   4.445   1.742
  540SOL     OW 2518   1.623   1.576   2.835
  540SOL    HW1 2519   1.535   1.532   2.853
  540SOL    HW2 2520   1.687   1.509   2.799
  541SOL     OW 2521   5.768   5.012   4.391
  541SOL    HW1 2522   5.703   5.001   4.466
  541SOL    HW2 2523   5.850   4.957   4.409
  542SOL     OW 2524   4.854   6.570   6.738
  542SOL    HW1 2525   4.789   6.506   6.698
  542SOL    HW2 2526   4.835   6.663   6.704
  543SOL     OW 2527   6.345   3.634   4.294
  543SOL    HW1 2528   6.375   3.677   4.380
  543SOL    HW2 2529   6.403   3.554   4.276
  544SOL     OW 2530   1.036   4.649   6.786
  544SOL    HW1 2531   0.969   4.699   6.841
  544SOL    HW2 2532   1.069   4.707   6.712
  545SOL     OW 2533   3.318   0.917   1.033
  545SOL    HW1 2534   3.418   0.921   1.040
  545SOL    HW2 2535   3.290   0.827   1.001
  546SOL     OW 2536   1.458   3.774   0.832
  546SOL    HW1 2537   1.432   3.693   0.885
  546SOL    HW2 2538   1.534   3.751   0.772
  547SOL     OW 2539   3.670   1.705   0.019
  547SOL    HW1 2540   3.622   1.780   0.066
  547SOL    HW2 2541   3.758   1.738   7.002
  548SOL     OW 2542   3.330   3.092   1.781
  548SOL    HW1 2543   3.415   3.040   1.769
  548SOL    HW2 2544   3.333   3.140   1.869
  549SOL     OW 2545   5.124   2.269   1.809
  549SOL    HW1 2546   5.221   2.293   1.819
  549SOL    HW2 2547   5.100   2.272   1.712
  550SOL     OW 2548   1.389   5.234   3.887
  550SOL    HW1 2549   1.434   5.290   3.818
  550SOL    HW2 2550   1.330   5.293   3.943
  551SOL     OW 2551   0.570   0.251   1.681
  551SOL    HW1 2552   0.520   0.277   1.598
  551SOL    HW2 2553   0.668   0.246   1.660
  552SOL     OW 2554   5.860   4.672   6.817
  552SOL    HW1 2555   5.955   4.702   6.822
  552SOL    HW2 2556   5.802   4.749   6.791
  553SOL     OW 2557   2.558   6.811   4.314
  553SOL    HW1 2558   2.607   6.867   4.248
  553SOL    HW2 2559   2.511   6.737   4.267
  554SOL     OW 2560   5.732   6.975   6.835
  554SOL    HW1 2561   5.810   6.930   6.878
  554SOL    HW2 2562   5.714   0.047   6.879
  555SOL     OW 2563   3.525   5.066   4.767
  555SOL    HW1 2564   3.520   5.102   4.673
  555SOL    HW2 2565   3.617   5.080   4.803
  556SOL     OW 2566   5.064   1.445   3.825
  556SOL    HW1 2567   5.081   1.405   3.735
  556SOL    HW2 2568   5.039   1.373   3.890
  557SOL     OW 2569   6.654   5.575   0.676
  557SOL    HW1 2570   6.746   5.596   0.645
  557SOL    HW2 2571   6.595   5.655   0.662
  558SOL     OW 2572   2.935   3.250   3.340
  558SOL    HW1 2573   2.918   3.325   3.404
  558SOL    HW2 2574   3.031   3.223   3.346
  559SOL     OW 2575   0.288   5.605   6.261
  559SOL    HW1 2576   0.236   5.571   6.183
  559SOL    HW2 2577   0.371   5.550   6.272
  560SOL     OW 2578   6.291   3.896   3.664
  560SOL    HW1 2579   6.207   3.941   3.634
  560SOL    HW2 2580   6.297   3.900   3.764
  561SOL     OW 2581   0.365   2.400   1.272
  561SOL    HW1 2582   0.281   2.349   1.290
  561SOL    HW2 2583   0.366   2.431   1.177
  562SOL     OW 2584   4.605   0.070   6.529
  562SOL    HW1 2585   4.596   0.123   6.445
  562SOL    HW2 2586   4.517   0.068   6.578
  563SOL     OW 2587   2.904   0.420   3.749
  563SOL    HW1 2588   2.884   0.429   3.847
  563SOL    HW2 2589   2.981   0.479   3.726
  564SOL     OW 2590   1.359   2.608   0.049
  564SOL    HW1 2591   1.275   2.657   0.072
  564SOL    HW2 2592   1.413   2.663   7.001
  565SOL     OW 2593   3.499   3.861   4.612
  565SOL    HW1 2594   3.408   3.886   4.578
  565SOL    HW2 2595   3.563   3.853   4.535
  566SOL     OW 2596   0.476   4.716   3.908
  566SOL    HW1 2597   0.550   4.774   3.874
  566SOL    HW2 2598   0.494   4.621   3.883
  567SOL     OW 2599   2.646   2.682   1.657
  567SOL    HW1 2600   2.737   2.673   1.698
  567SOL    HW2 2601   2.580   2.630   1.712
  568SOL     OW 2602   4.737   0.225   0.075
  568SOL    HW1 2603   4.795   0.168   0.017
  568SOL    HW2 2604   4.693   0.295   0.018
  569SOL     OW 2605   1.651   2.699   0.261
  569SOL    HW1 2606   1.555   2.719   0.242
  569SOL    HW2 2607   1.657   2.638   0.340
  570SOL     OW 2608   3.940   6.575   6.464
  570SOL    HW1 2609   3.955   6.482   6.497
  570SOL    HW2 2610   3.842   6.593   6.454
  571SOL     OW 2611   3.354   5.307   2.532
  571SOL    HW1 2612   3.362   5.400   2.569
  571SOL    HW2 2613   3.297   5.309   2.450
  572SOL     OW 2614   2.619   4.706   5.629
  572SOL    HW1 2615   2.612   4.798   5.590
  572SOL    HW2 2616   2.715   4.686   5.651
  573SOL     OW 2617   5.183   1.489   5.899
  573SOL    HW1 2618   5.124   1.409   5.903
  573SOL    HW2 2619   5.279   1.460   5.900
  574SOL     OW 2620   3.768   1.406   4.811
  574SOL    HW1 2621   3.730   1.482   4.758
  574SOL    HW2 2622   3.794   1.332   4.749
  575SOL     OW 2623   5.243   4.110   1.255
  575SOL    HW1 2624   5.310   4.182   1.235
  575SOL    HW2 2625   5.250   4.085   1.352
  576SOL     OW 2626   1.479   2.361   3.122
  576SOL    HW1 2627   1.434   2.281   3.162
  576SOL    HW2 2628   1.418   2.440   3.128
  577SOL     OW 2629   1.407   1.431   2.952
  577SOL    HW1 2630   1.486   1.382   2.989
  577SOL    HW2 2631   1.323   1.391   2.987
  578SOL     OW 2632   6.848   5.295   4.484
  578SOL    HW1 2633   6.767   5.235   4.487
  578SOL    HW2 2634   6.867   5.319   4.389
  579SOL     OW 2635   1.962   3.469   3.993
  579SOL    HW1 2636   2.048   3.420   3.979
  579SOL    HW2 2637   1.982   3.566   4.007
  580SOL     OW 2638   4.623   5.379   5.344
  580SOL    HW1 2639   4.585   5.294   5.306
  580SOL    HW2 2640   4.557   5.419   5.408
  581SOL     OW 2641   1.720   2.771   1.731
  581SOL    HW1 2642   1.667   2.818   1.659
  581SOL    HW2 2643   1.659   2.711   1.783
  582SOL     OW 2644   4.702   6.086   2.478
  582SOL    HW1 2645   4.765   6.164   2.468
  582SOL    HW2 2646   4.730   6.014   2.414
  583SOL     OW 2647   2.817   6.421   5.207
  583SOL    HW1 2648   2.752   6.490   5.240
  583SOL    HW2 2649   2.766   6.341   5.174
  584SOL     OW 2650   2.604   5.386   6.563
  584SOL    HW1 2651   2.649   5.463   6.608
  584SOL    HW2 2652   2.604   5.401   6.464
  585SOL     OW 2653   4.755   1.822   6.655
  585SOL    HW1 2654   4.843   1.858   6.688
  585SOL    HW2 2655   4.750   1.724   6.674
  586SOL     OW 2656   3.629   0.467   6.403
  586SOL    HW1 2657   3.665   0.547   6.354
  586SOL    HW2 2658   3.548   0.433   6.355
  587SOL     OW 2659   4.521   2.024   4.155
  587SOL    HW1 2660   4.428   2.038   4.119
  587SOL    HW2 2661   4.516   1.978   4.243
  588SOL     OW 2662   2.487   5.021   1.322
  588SOL    HW1 2663   2.453   4.930   1.297
  588SOL    HW2 2664   2.423   5.066   1.384
  589SOL     OW 2665   3.469   4.529   1.627
  589SOL    HW1 2666   3.405   4.472   1.678
  589SOL    HW2 2667   3.538   4.567   1.689
  590SOL     OW 2668   5.280   2.615   2.078
  590SOL    HW1 2669   5.224   2.691   2.110
  590SOL    HW2 2670   5.361   2.650   2.031
  591SOL     OW 2671   3.345   5.717   3.652
  591SOL    HW1 2672   3.394   5.757   3.730
  591SOL    HW2 2673   3.411   5.683   3.585
  592SOL     OW 2674   3.640   1.376   0.955
  592SOL    HW1 2675   3.562   1.376   0.893
  592SOL    HW2 2676   3.721   1.409   0.906
  593SOL     OW 2677   3.867   2.076   4.251
  593SOL    HW1 2678   3.937   2.023   4.298
  593SOL    HW2 2679   3.792   2.096   4.314
  594SOL     OW 2680   6.478   1.149   0.374
  594SOL    HW1 2681   6.560   1.131   0.319
  594SOL    HW2 2682   6.458   1.247   0.373
  595SOL     OW 2683   5.507   0.776   3.828
  595SOL    HW1 2684   5.426   0.833   3.820
  595SOL    HW2 2685   5.543   0.782   3.921
  596SOL     OW 2686   0.974   5.419   3.726
  596SOL    HW1 2687   0.913   5.344   3.755
  596SOL    HW2 2688   0.991   5.412   3.628
  597SOL     OW 2689   2.244   0.078   0.278
  597SOL    HW1 2690   2.241   7.001   0.316
  597SOL    HW2 2691   2.331   0.091   0.230
  598SOL     OW 2692   4.268   3.904   5.298
  598SOL    HW1 2693   4.253   3.875   5.204
  598SOL    HW2 2694   4.183   3.896   5.350
  599SOL     OW 2695   2.720   6.540   1.933
  599SOL    HW1 2696   2.662   6.465   1.966
  599SOL    HW2 2697   2.678   6.582   1.852
  600SOL     OW 2698   6.544   1.605   0.159
  600SOL    HW1 2699   6.474   1.663   0.118
  600SOL    HW2 2700   6.605   1.570   0.088
  601SOL     OW 2701   1.331   0.350   4.860
  601SOL    HW1 2702   1.307   0.307   4.947
  601SOL    HW2 2703   1.255   0.408   4.830
  602SOL     OW 2704   1.115   1.415   6.157
  602SOL    HW1 2705   1.130   1.320   6.181
  602SOL    HW2 2706   1.024   1.426   6.117
  603SOL     OW 2707   2.822   2.366   5.315
  603SOL    HW1 2708   2.869   2.340   5.231
  603SOL    HW2 2709   2.827   2.465   5.327
  604SOL     OW 2710   1.134   2.017   1.737
  604SOL    HW1 2711   1.223   2.059   1.752
  604SOL    HW2 2712   1.137   1.920   1.762
  605SOL     OW 2713   6.760   5.796   0.332
  605SOL    HW1 2714   6.678   5.796   0.390
  605SOL    HW2 2715   6.733   5.787   0.236
  606SOL     OW 2716   5.141   6.562   6.684
  606SOL    HW1 2717   5.131   6.650   6.637
  606SOL    HW2 2718   5.056   6.538   6.730
  607SOL     OW 2719   6.100   5.438   5.406
  607SOL    HW1 2720   6.113   5.343   5.434
  607SOL    HW2 2721   6.156   5.457   5.326
  608SOL     OW 2722   4.033   6.474   6.895
  608SOL    HW1 2723   3.972   6.399   6.867
  608SOL    HW2 2724   4.095   6.441   6.966
  609SOL     OW 2725   3.733   3.059   2.329
  609SOL    HW1 2726   3.825   3.042   2.363
  609SOL    HW2 2727   3.665   3.027   2.395
  610SOL     OW 2728   5.635   4.382   2.281
  610SOL    HW1 2729   5.588   4.363   2.366
  610SOL    HW2 2730   5.726   4.341   2.283
  611SOL     OW 2731   4.320   6.680   1.924
  611SOL    HW1 2732   4.280   6.642   2.007
  611SOL    HW2 2733   4.265   6.757   1.892
  612SOL     OW 2734   3.740   6.440   4.648
  612SOL    HW1 2735   3.812   6.372   4.634
  612SOL    HW2 2736   3.654   6.393   4.671
  613SOL     OW 2737   4.394   6.490   5.363
  613SOL    HW1 2738   4.371   6.444   5.449
  613SOL    HW2 2739   4.311   6.527   5.322
  614SOL     OW 2740   5.299   5.738   0.122
  614SOL    HW1 2741   5.292   5.649   0.167
  614SOL    HW2 2742   5.260   5.809   0.181
  615SOL     OW 2743   6.394   2.275   2.114
  615SOL    HW1 2744   6.430   2.218   2.040
  615SOL    HW2 2745   6.442   2.253   2.199
  616SOL     OW 2746   0.737   2.765   3.188
  616SOL    HW1 2747   0.750   2.679   3.139
  616SOL    HW2 2748   0.679   2.825   3.133
  617SOL     OW 2749   0.405   4.552   6.148
  617SOL    HW1 2750   0.379   4.629   6.090
  617SOL    HW2 2751   0.487   4.575   6.200
  618SOL     OW 2752   6.621   2.615   0.768
  618SOL    HW1 2753   6.694   2.667   0.811
  618SOL    HW2 2754   6.649   2.588   0.676
  619SOL     OW 2755   4.169   1.051   0.180
  619SOL    HW1 2756   4.209   0.961   0.197
  619SOL    HW2 2757   4.151   1.097   0.267
  620SOL     OW 2758   4.201   2.848   1.267
  620SOL    HW1 2759   4.215   2.945   1.244
  620SOL    HW2 2760   4.111   2.819   1.236
  621SOL     OW 2761   2.203   6.660   6.967
  621SOL    HW1 2762   2.143   6.583   6.989
  621SOL    HW2 2763   2.187   6.735   0.015
  622SOL     OW 2764   1.022   0.158   6.289
  622SOL    HW1 2765   0.988   0.246   6.258
  622SOL    HW2 2766   0.967   0.126   6.366
  623SOL     OW 2767   0.936   5.941   5.119
  623SOL    HW1 2768   0.985   5.870   5.069
  623SOL    HW2 2769   0.864   5.899   5.174
  624SOL     OW 2770   6.807   2.901   1.168
  624SOL    HW1 2771   6.853   2.851   1.095
  624SOL    HW2 2772   6.833   2.863   1.257
  625SOL     OW 2773   1.984   1.774   1.597
  625SOL    HW1 2774   2.058   1.753   1.660
  625SOL    HW2 2775   1.904   1.719   1.619
  626SOL     OW 2776   2.209   5.622   3.411
  626SOL    HW1 2777   2.278   5.664   3.352
  626SOL    HW2 2778   2.177   5.689   3.478
  627SOL     OW 2779   5.651   6.136   0.118
  627SOL    HW1 2780   5.722   6.204   0.132
  627SOL    HW2 2781   5.603   6.155   0.032
  628SOL     OW 2782   5.842   5.611   6.369
  628SOL    HW1 2783   5.893   5.544   6.423
  628SOL    HW2 2784   5.859   5.703   6.403
  629SOL     OW 2785   6.845   6.356   6.957
  629SOL    HW1 2786   6.870   6.340   6.862
  629SOL    HW2 2787   6.890   6.439   6.991
  630SOL     OW 2788   6.754   2.061   2.030
  630SOL    HW1 2789   6.801   1.993   1.974
  630SOL    HW2 2790   6.809   2.144   2.035
  631SOL     OW 2791   3.548   6.862   5.488
  631SOL    HW1 2792   3.554   6.821   5.398
  631SOL    HW2 2793   3.592   6.803   5.556
  632SOL     OW 2794   2.505   1.108   0.808
  632SOL    HW1 2795   2.537   1.177   0.743
  632SOL    HW2 2796   2.580   1.047   0.833
  633SOL     OW 2797   4.480   4.232   0.384
  633SOL    HW1 2798   4.488   4.139   0.349
  633SOL    HW2 2799   4.509   4.235   0.479
  634SOL     OW 2800   4.270   4.473   0.968
  634SOL    HW1 2801   4.255   4.441   0.875
  634SOL    HW2 2802   4.205   4.429   1.030
  635SOL     OW 2803   4.729   4.957   0.735
  635SOL    HW1 2804   4.632   4.974   0.715
  635SOL    HW2 2805   4.784   4.981   0.655
  636SOL     OW 2806   4.279   5.263   6.596
  636SOL    HW1 2807   4.274   5.166   6.620
  636SOL    HW2 2808   4.354   5.306   6.646
  637SOL     OW 2809   6.386   3.910   3.102
  637SOL    HW1 2810   6.313   3.864   3.052
  637SOL    HW2 2811   6.407   3.998   3.059
  638SOL     OW 2812   5.117   2.297   3.322
  638SOL    HW1 2813   5.132   2.386   3.365
  638SOL    HW2 2814   5.020   2.288   3.297
  639SOL     OW 2815   4.877   3.790   2.537
  639SOL    HW1 2816   4.906   3.697   2.518
  639SOL    HW2 2817   4.862   3.801   2.636
  640SOL     OW 2818   0.064   5.218   4.190
  640SOL    HW1 2819   0.065   5.285   4.264
  640SOL    HW2 2820   0.007   5.140   4.217
  641SOL     OW 2821   6.549   5.839   4.458
  641SOL    HW1 2822   6.473   5.845   4.522
  641SOL    HW2 2823   6.556   5.745   4.424
  642SOL     OW 2824   0.059   2.909   4.698
  642SOL    HW1 2825   0.092   2.881   4.608
  642SOL    HW2 2826   0.136   2.917   4.761
  643SOL     OW 2827   5.474   5.838   4.940
  643SOL    HW1 2828   5.406   5.911   4.937
  643SOL    HW2 2829   5.470   5.793   5.030
  644SOL     OW 2830   1.417   5.724   4.450
  644SOL    HW1 2831   1.427   5.660   4.374
  644SOL    HW2 2832   1.400   5.816   4.415
  645SOL     OW 2833   4.173   1.497   3.923
  645SOL    HW1 2834   4.203   1.592   3.915
  645SOL    HW2 2835   4.197   1.448   3.839
  646SOL     OW 2836   2.807   1.310   4.600
  646SOL    HW1 2837   2.805   1.407   4.576
  646SOL    HW2 2838   2.792   1.255   4.517
  647SOL     OW 2839   5.300   2.184   4.677
  647SOL    HW1 2840   5.375   2.233   4.721
  647SOL    HW2 2841   5.230   2.160   4.745
  648SOL     OW 2842   6.930   3.644   4.155
  648SOL    HW1 2843   6.842   3.598   4.141
  648SOL    HW2 2844   6.924   3.737   4.120
  649SOL     OW 2845   3.012   3.448   1.042
  649SOL    HW1 2846   2.999   3.511   1.118
  649SOL    HW2 2847   2.923   3.417   1.008
  650SOL     OW 2848   6.098   4.726   0.594
  650SOL    HW1 2849   6.154   4.808   0.587
  650SOL    HW2 2850   6.030   4.726   0.520
  651SOL     OW 2851   6.318   6.340   5.905
  651SOL    HW1 2852   6.288   6.277   5.977
  651SOL    HW2 2853   6.294   6.302   5.816
  652SOL     OW 2854   4.875   6.131   3.444
  652SOL    HW1 2855   4.963   6.088   3.423
  652SOL    HW2 2856   4.890   6.224   3.475
  653SOL     OW 2857   2.428   5.500   5.050
  653SOL    HW1 2858   2.413   5.580   5.108
  653SOL    HW2 2859   2.398   5.521   4.956
  654SOL     OW 2860   7.008   4.303   6.131
  654SOL    HW1 2861   6.933   4.271   6.190
  654SOL    HW2 2862   0.040   4.225   6.092
  655SOL     OW 2863   0.677   6.083   2.358
  655SOL    HW1 2864   0.750   6.029   2.315
  655SOL    HW2 2865   0.688   6.179   2.334
  656SOL     OW 2866   2.029   5.461   1.774
  656SOL    HW1 2867   2.069   5.507   1.694
  656SOL    HW2 2868   2.060   5.366   1.776
  657SOL     OW 2869   1.441   2.261   1.690
  657SOL    HW1 2870   1.381   2.222   1.620
  657SOL    HW2 2871   1.475   2.187   1.749
  658SOL     OW 2872   3.004   4.004   6.582
  658SOL    HW1 2873   3.071   3.998   6.656
  658SOL    HW2 2874   3.049   4.036   6.499
  659SOL     OW 2875   2.292   6.154   6.328
  659SOL    HW1 2876   2.341   6.128   6.244
  659SOL    HW2 2877   2.200   6.186   6.304
  660SOL     OW 2878   5.508   4.880   2.537
  660SOL    HW1 2879   5.537   4.825   2.459
  660SOL    HW2 2880   5.528   4.977   2.520
  661SOL     OW 2881   4.134   5.184   3.175
  661SOL    HW1 2882   4.095   5.212   3.262
  661SOL    HW2 2883   4.121   5.085   3.162
  662SOL     OW 2884   4.188   0.202   5.826
  662SOL    HW1 2885   4.214   0.164   5.737
  662SOL    HW2 2886   4.107   0.154   5.860
  663SOL     OW 2887   2.394   3.576   6.385
  663SOL    HW1 2888   2.348   3.565   6.297
  663SOL    HW2 2889   2.488   3.543   6.379
  664SOL     OW 2890   0.327   5.337   6.389
  664SOL    HW1 2891   0.424   5.336   6.363
  664SOL    HW2 2892   0.314   5.400   6.466
  665SOL     OW 2893   5.079   4.723   1.287
  665SOL    HW1 2894   5.113   4.753   1.198
  665SOL    HW2 2895   5.098   4.625   1.298
  666SOL     OW 2896   5.008   2.117   2.530
  666SOL    HW1 2897   4.938   2.084   2.467
  666SOL    HW2 2898   5.075   2.173   2.479
  667SOL     OW 2899   1.024   4.645   3.452
  667SOL    HW1 2900   0.955   4.587   3.495
  667SOL    HW2 2901   1.106   4.592   3.435
  668SOL     OW 2902   5.289   6.717   6.003
  668SOL    HW1 2903   5.280   6.811   6.034
  668SOL    HW2 2904   5.381   6.701   5.969
  669SOL     OW 2905   4.274   0.527   2.817
  669SOL    HW1 2906   4.302   0.450   2.874
  669SOL    HW2 2907   4.221   0.493   2.738
  670SOL     OW 2908   3.454   2.471   0.956
  670SOL    HW1 2909   3.385   2.544   0.955
  670SOL    HW2 2910   3.426   2.399   0.892
  671SOL     OW 2911   1.565   6.612   0.409
  671SOL    HW1 2912   1.645   6.670   0.417
  671SOL    HW2 2913   1.492   6.661   0.362
  672SOL     OW 2914   1.104   5.263   2.346
  672SOL    HW1 2915   1.121   5.361   2.341
  672SOL    HW2 2916   1.042   5.236   2.272
  673SOL     OW 2917   0.055   6.780   1.503
  673SOL    HW1 2918   0.031   6.875   1.523
  673SOL    HW2 2919   6.989   6.729   1.479
  674SOL     OW 2920   1.123   1.583   5.147
  674SOL    HW1 2921   1.037   1.627   5.172
  674SOL    HW2 2922   1.199   1.628   5.195
  675SOL     OW 2923   0.903   0.946   3.284
  675SOL    HW1 2924   0.952   0.939   3.371
  675SOL    HW2 2925   0.815   0.900   3.291
  676SOL     OW 2926   3.134   6.011   2.575
  676SOL    HW1 2927   3.069   5.946   2.535
  676SOL    HW2 2928   3.112   6.103   2.545
  677SOL     OW 2929   5.567   2.329   0.634
  677SOL    HW1 2930   5.499   2.301   0.702
  677SOL    HW2 2931   5.580   2.254   0.569
  678SOL     OW 2932   1.851   0.745   5.384
  678SOL    HW1 2933   1.835   0.836   5.423
  678SOL    HW2 2934   1.870   0.680   5.458
  679SOL     OW 2935   4.177   1.701   3.615
  679SOL    HW1 2936   4.264   1.664   3.581
  679SOL    HW2 2937   4.155   1.785   3.565
  680SOL     OW 2938   5.869   6.063   5.586
  680SOL    HW1 2939   5.967   6.045   5.597
  680SOL    HW2 2940   5.849   6.081   5.489
  681SOL     OW 2941   5.449   4.920   1.585
  681SOL    HW1 2942   5.436   4.821   1.577
  681SOL    HW2 2943   5.546   4.940   1.599
  682SOL     OW 2944   0.276   1.165   0.962
  682SOL    HW1 2945   0.318   1.232   1.023
  682SOL    HW2 2946   0.345   1.128   0.900
  683SOL     OW 2947   4.590   3.211   0.236
  683SOL    HW1 2948   4.689   3.228   0.226
  683SOL    HW2 2949   4.549   3.201   0.145
  684SOL     OW 2950   6.992   0.952   0.137
  684SOL    HW1 2951   0.017   0.932   0.226
  684SOL    HW2 2952   6.967   1.049   0.133
  685SOL     OW 2953   3.759   1.068   3.254
  685SOL    HW1 2954   3.743   1.007   3.176
  685SOL    HW2 2955   3.754   1.015   3.339
  686SOL     OW 2956   4.826   3.175   3.526
  686SOL    HW1 2957   4.883   3.200   3.448
  686SOL    HW2 2958   4.752   3.115   3.495
  687SOL     OW 2959   0.634   2.252   4.688
  687SOL    HW1 2960   0.599   2.216   4.775
  687SOL    HW2 2961   0.601   2.195   4.613
  688SOL     OW 2962   0.782   1.613   0.345
  688SOL    HW1 2963   0.740   1.663   0.270
  688SOL    HW2 2964   0.875   1.586   0.318
  689SOL     OW 2965   6.683   4.718   6.294
  689SOL    HW1 2966   6.623   4.641   6.268
  689SOL    HW2 2967   6.778   4.691   6.280
  690SOL     OW 2968   0.314   4.012   2.833
  690SOL    HW1 2969   0.271   3.987   2.920
  690SOL    HW2 2970   0.410   4.037   2.849
  691SOL     OW 2971   2.468   6.783   0.502
  691SOL    HW1 2972   2.483   6.870   0.549
  691SOL    HW2 2973   2.543   6.766   0.439
  692SOL     OW 2974   3.597   0.189   4.118
  692SOL    HW1 2975   3.567   0.124   4.048
  692SOL    HW2 2976   3.651   0.141   4.187
  693SOL     OW 2977   5.727   0.883   3.655
  693SOL    HW1 2978   5.647   0.864   3.712
  693SOL    HW2 2979   5.724   0.827   3.572
  694SOL     OW 2980   4.566   6.076   3.649
  694SOL    HW1 2981   4.639   6.108   3.709
  694SOL    HW2 2982   4.564   6.132   3.566
  695SOL     OW 2983   4.216   0.129   3.955
  695SOL    HW1 2984   4.248   0.157   3.865
  695SOL    HW2 2985   4.223   0.029   3.963
  696SOL     OW 2986   4.338   4.718   2.515
  696SOL    HW1 2987   4.303   4.627   2.496
  696SOL    HW2 2988   4.276   4.787   2.478
  697SOL     OW 2989   1.995   3.709   3.483
  697SOL    HW1 2990   1.914   3.695   3.541
  697SOL    HW2 2991   2.017   3.624   3.435
  698SOL     OW 2992   5.025   6.643   0.653
  698SOL    HW1 2993   5.048   6.632   0.557
  698SOL    HW2 2994   5.064   6.567   0.706
  699SOL     OW 2995   1.926   3.255   6.216
  699SOL    HW1 2996   1.831   3.227   6.200
  699SOL    HW2 2997   1.937   3.282   6.312
  700SOL     OW 2998   2.542   0.188   2.269
  700SOL    HW1 2999   2.456   0.137   2.262
  700SOL    HW2 3000   2.616   0.125   2.292
  701SOL     OW 3001   6.522   3.777   5.668
  701SOL    HW1 3002   6.596   3.760   5.733
  701SOL    HW2 3003   6.556   3.831   5.591
  702SOL     OW 3004   1.566   6.370   4.619
  702SOL    HW1 3005   1.540   6.466   4.608
  702SOL    HW2 3006   1.589   6.353   4.715
  703SOL     OW 3007   3.620   3.848   6.722
  703SOL    HW1 3008   3.639   3.757   6.685
  703SOL    HW2 3009   3.529   3.849   6.764
  704SOL     OW 3010   1.647   2.520   0.487
  704SOL    HW1 3011   1.642   2.421   0.471
  704SOL    HW2 3012   1.637   2.539   0.584
  705SOL     OW 3013   5.668   5.328   2.724
  705SOL    HW1 3014   5.752   5.305   2.774
  705SOL    HW2 3015   5.690   5.358   2.632
  706SOL     OW 3016   4.471   2.076   4.825
  706SOL    HW1 3017   4.441   2.074   4.730
  706SOL    HW2 3018   4.538   2.148   4.837
  707SOL     OW 3019   4.563   5.782   2.423
  707SOL    HW1 3020   4.645   5.823   2.384
  707SOL    HW2 3021   4.529   5.710   2.363
  708SOL     OW 3022   3.986   0.087   2.025
  708SOL    HW1 3023   4.017   0.181   2.014
  708SOL    HW2 3024   3.939   0.078   2.113
  709SOL     OW 3025   0.260   6.123   1.172
  709SOL    HW1 3026   0.224   6.189   1.106
  709SOL    HW2 3027   0.358   6.140   1.186
  710SOL     OW 3028   3.821   2.777   1.283
  710SOL    HW1 3029   3.808   2.866   1.328
  710SOL    HW2 3030   3.773   2.706   1.336
  711SOL     OW 3031   6.983   3.393   5.529
  711SOL    HW1 3032   6.964   3.304   5.570
  711SOL    HW2 3033   0.064   3.414   5.538
  712SOL     OW 3034   4.511   2.685   1.022
  712SOL    HW1 3035   4.505   2.762   1.084
  712SOL    HW2 3036   4.581   2.621   1.054
  713SOL     OW 3037   4.226   2.409   5.630
  713SOL    HW1 3038   4.238   2.366   5.719
  713SOL    HW2 3039   4.277   2.496   5.628
  714SOL     OW 3040   0.279   4.629   3.421
  714SOL    HW1 3041   0.256   4.573   3.501
  714SOL    HW2 3042   0.196   4.660   3.376
  715SOL     OW 3043   5.199   6.075   6.670
  715SOL    HW1 3044   5.243   6.039   6.752
  715SOL    HW2 3045   5.267   6.086   6.597
  716SOL     OW 3046   0.822   0.470   1.961
  716SOL    HW1 3047   0.817   0.554   1.907
  716SOL    HW2 3048   0.870   0.488   2.047
  717SOL     OW 3049   6.649   4.188   4.660
  717SOL    HW1 3050   6.554   4.158   4.648
  717SOL    HW2 3051   6.688   4.144   4.741
  718SOL     OW 3052   4.493   2.872   6.263
  718SOL    HW1 3053   4.447   2.944   6.212
  718SOL    HW2 3054   4.517   2.797   6.201
  719SOL     OW 3055   6.522   1.171   2.673
  719SOL    HW1 3056   6.527   1.107   2.597
  719SOL    HW2 3057   6.429   1.175   2.708
  720SOL     OW 3058   2.540   0.635   6.316
  720SOL    HW1 3059   2.617   0.681   6.359
  720SOL    HW2 3060   2.454   0.678   6.345
  721SOL     OW 3061   2.438   1.878   3.274
  721SOL    HW1 3062   2.490   1.812   3.222
  721SOL    HW2 3063   2.379   1.831   3.340
  722SOL     OW 3064   3.200   0.205   5.563
  722SOL    HW1 3065   3.160   0.180   5.475
  722SOL    HW2 3066   3.149   0.158   5.636
  723SOL     OW 3067   1.146   4.288   3.529
  723SOL    HW1 3068   1.112   4.291   3.623
  723SOL    HW2 3069   1.196   4.372   3.509
  724SOL     OW 3070   1.118   2.679   4.290
  724SOL    HW1 3071   1.145   2.636   4.376
  724SOL    HW2 3072   1.134   2.615   4.215
  725SOL     OW 3073   2.273   5.732   1.532
  725SOL    HW1 3074   2.308   5.695   1.619
  725SOL    HW2 3075   2.252   5.829   1.543
  726SOL     OW 3076   3.482   5.123   1.446
  726SOL    HW1 3077   3.432   5.201   1.409
  726SOL    HW2 3078   3.453   5.106   1.541
  727SOL     OW 3079   6.043   4.842   5.828
  727SOL    HW1 3080   6.143   4.834   5.837
  727SOL    HW2 3081   6.003   4.752   5.815
  728SOL     OW 3082   6.522   3.146   4.411
  728SOL    HW1 3083   6.574   3.144   4.497
  728SOL    HW2 3084   6.454   3.073   4.412
  729SOL     OW 3085   0.562   1.915   1.636
  729SOL    HW1 3086   0.542   1.870   1.723
  729SOL    HW2 3087   0.576   2.013   1.651
  730SOL     OW 3088   5.863   0.348   4.627
  730SOL    HW1 3089   5.874   0.282   4.553
  730SOL    HW2 3090   5.772   0.339   4.667
  731SOL     OW 3091   4.771   4.710   6.391
  731SOL    HW1 3092   4.737   4.662   6.472
  731SOL    HW2 3093   4.826   4.788   6.419
  732SOL     OW 3094   5.783   3.289   1.678
  732SOL    HW1 3095   5.688   3.290   1.647
  732SOL    HW2 3096   5.808   3.196   1.704
  733SOL     OW 3097   5.353   6.745   4.879
  733SOL    HW1 3098   5.302   6.673   4.926
  733SOL    HW2 3099   5.414   6.704   4.811
  734SOL     OW 3100   6.606   4.977   2.693
  734SOL    HW1 3101   6.565   4.886   2.699
  734SOL    HW2 3102   6.637   4.993   2.599
  735SOL     OW 3103   4.812   1.663   0.009
  735SOL    HW1 3104   4.755   1.661   6.943
  735SOL    HW2 3105   4.792   1.583   0.065
  736SOL     OW 3106   6.800   1.818   3.663
  736SOL    HW1 3107   6.724   1.759   3.689
  736SOL    HW2 3108   6.881   1.763   3.643
  737SOL     OW 3109   5.240   1.693   4.825
  737SOL    HW1 3110   5.200   1.776   4.865
  737SOL    HW2 3111   5.277   1.715   4.734
  738SOL     OW 3112   2.316   3.936   0.967
  738SOL    HW1 3113   2.266   3.904   0.887
  738SOL    HW2 3114   2.360   3.858   1.013
  739SOL     OW 3115   4.902   0.958   3.570
  739SOL    HW1 3116   4.970   0.890   3.596
  739SOL    HW2 3117   4.811   0.919   3.578
  740SOL     OW 3118   6.290   1.152   1.403
  740SOL    HW1 3119   6.293   1.185   1.309
  740SOL    HW2 3120   6.317   1.056   1.405
  741SOL     OW 3121   1.449   0.401   3.251
  741SOL    HW1 3122   1.442   0.329   3.182
  741SOL    HW2 3123   1.511   0.473   3.218
  742SOL     OW 3124   3.082   6.709   1.708
  742SOL    HW1 3125   3.163   6.661   1.740
  742SOL    HW2 3126   3.045   6.766   1.782
  743SOL     OW 3127   0.680   4.841   3.586
  743SOL    HW1 3128   0.581   4.838   3.600
  743SOL    HW2 3129   0.726   4.850   3.674
  744SOL     OW 3130   5.304   0.286   0.817
  744SOL    HW1 3131   5.239   0.339   0.763
  744SOL    HW2 3132   5.393   0.331   0.815
  745SOL     OW 3133   1.612   5.225   4.712
  745SOL    HW1 3134   1.527   5.200   4.760
  745SOL    HW2 3135   1.599   5.215   4.613
  746SOL     OW 3136   6.564   3.908   6.815
  746SOL    HW1 3137   6.574   3.932   6.912
  746SOL    HW2 3138   6.525   3.985   6.766
  747SOL     OW 3139   3.612   6.854   4.307
  747SOL    HW1 3140   3.549   6.875   4.381
  747SOL    HW2 3141   3.662   6.770   4.328
  748SOL     OW 3142   3.914   4.862   2.021
  748SOL    HW1 3143   3.952   4.790   2.079
  748SOL    HW2 3144   3.988   4.916   1.981
  749SOL     OW 3145   5.911   3.658   4.685
  749SOL    HW1 3146   5.870   3.735   4.637
  749SOL    HW2 3147   6.001   3.638   4.646
  750SOL     OW 3148   2.681   1.838   1.520
  750SOL    HW1 3149   2.732   1.918   1.553
  750SOL    HW2 3150   2.639   1.791   1.598
  751SOL     OW 3151   4.126   2.022   6.894
  751SOL    HW1 3152   4.156   2.081   6.969
  751SOL    HW2 3153   4.164   2.057   6.808
  752SOL     OW 3154   3.627   0.940   1.860
  752SOL    HW1 3155   3.648   0.902   1.950
  752SOL    HW2 3156   3.706   0.990   1.826
  753SOL     OW 3157   1.566   3.401   5.540
  753SOL    HW1 3158   1.472   3.419   5.512
  753SOL    HW2 3159   1.603   3.480   5.588
  754SOL     OW 3160   4.616   2.272   5.105
  754SOL    HW1 3161   4.562   2.343   5.060
  754SOL    HW2 3162   4.558   2.221   5.168
  755SOL     OW 3163   1.181   4.586   5.184
  755SOL    HW1 3164   1.113   4.528   5.139
  755SOL    HW2 3165   1.271   4.544   5.178
  756SOL     OW 3166   3.163   6.481   6.517
  756SOL    HW1 3167   3.092   6.416   6.542
  756SOL    HW2 3168   3.143   6.570   6.559
  757SOL     OW 3169   0.668   0.450   4.039
  757SOL    HW1 3170   0.632   0.537   4.006
  757SOL    HW2 3171   0.617   0.422   4.121
  758SOL     OW 3172   3.051   0.126   2.912
  758SOL    HW1 3173   2.979   0.081   2.859
  758SOL    HW2 3174   3.018   0.146   3.004
  759SOL     OW 3175   0.467   2.281   2.127
  759SOL    HW1 3176   0.376   2.259   2.162
  759SOL    HW2 3177   0.488   2.221   2.049
  760SOL     OW 3178   6.221   0.320   4.096
  760SOL    HW1 3179   6.310   0.286   4.066
  760SOL    HW2 3180   6.230   0.364   4.186
  761SOL     OW 3181   5.459   4.152   6.443
  761SOL    HW1 3182   5.453   4.127   6.347
  761SOL    HW2 3183   5.463   4.070   6.499
  762SOL     OW 3184   2.134   6.492   5.127
  762SOL    HW1 3185   2.161   6.401   5.156
  762SOL    HW2 3186   2.199   6.526   5.058
  763SOL     OW 3187   4.291   5.221   6.092
  763SOL    HW1 3188   4.358   5.221   6.167
  763SOL    HW2 3189   4.223   5.149   6.108
  764SOL     OW 3190   5.338   0.705   4.994
  764SOL    HW1 3191   5.291   0.668   4.913
  764SOL    HW2 3192   5.304   0.660   5.076
  765SOL     OW 3193   1.802   5.116   1.614
  765SOL    HW1 3194   1.791   5.116   1.714
  765SOL    HW2 3195   1.721   5.156   1.572
  766SOL     OW 3196   2.233   2.460   6.215
  766SOL    HW1 3197   2.191   2.374   6.245
  766SOL    HW2 3198   2.332   2.456   6.233
  767SOL     OW 3199   6.447   5.833   2.768
  767SOL    HW1 3200   6.392   5.896   2.713
  767SOL    HW2 3201   6.510   5.886   2.825
  768SOL     OW 3202   2.569   6.028   2.590
  768SOL    HW1 3203   2.604   6.040   2.682
  768SOL    HW2 3204   2.618   5.954   2.544
  769SOL     OW 3205   2.210   0.935   5.747
  769SOL    HW1 3206   2.218   1.013   5.684
  769SOL    HW2 3207   2.297   0.887   5.751
  770SOL     OW 3208   1.630   4.219   3.312
  770SOL    HW1 3209   1.566   4.286   3.274
  770SOL    HW2 3210   1.646   4.240   3.409
  771SOL     OW 3211   1.091   4.651   2.516
  771SOL    HW1 3212   1.115   4.681   2.423
  771SOL    HW2 3213   1.062   4.730   2.569
  772SOL     OW 3214   5.624   4.894   6.862
  772SOL    HW1 3215   5.561   4.903   6.785
  772SOL    HW2 3216   5.575   4.908   6.948
  773SOL     OW 3217   0.358   4.453   3.813
  773SOL    HW1 3218   0.402   4.370   3.779
  773SOL    HW2 3219   0.308   4.433   3.897
  774SOL     OW 3220   1.887   1.381   1.374
  774SOL    HW1 3221   1.930   1.470   1.358
  774SOL    HW2 3222   1.864   1.372   1.471
  775SOL     OW 3223   1.792   2.645   3.799
  775SOL    HW1 3224   1.821   2.711   3.868
  775SOL    HW2 3225   1.771   2.693   3.714
  776SOL     OW 3226   1.192   0.554   5.432
  776SOL    HW1 3227   1.132   0.630   5.457
  776SOL    HW2 3228   1.190   0.485   5.504
  777SOL     OW 3229   2.141   4.418   2.065
  777SOL    HW1 3230   2.236   4.392   2.084
  777SOL    HW2 3231   2.123   4.409   1.967
  778SOL     OW 3232   2.469   1.237   2.254
  778SOL    HW1 3233   2.451   1.222   2.351
  778SOL    HW2 3234   2.462   1.334   2.234
  779SOL     OW 3235   6.428   2.207   2.623
  779SOL    HW1 3236   6.474   2.295   2.628
  779SOL    HW2 3237   6.346   2.208   2.680
  780SOL     OW 3238   0.343   3.238   4.006
  780SOL    HW1 3239   0.399   3.287   4.073
  780SOL    HW2 3240   0.267   3.295   3.977
  781SOL     OW 3241   6.207   6.749   0.050
  781SOL    HW1 3242   6.168   6.809   0.120
  781SOL    HW2 3243   6.153   6.665   0.045
  782SOL     OW 3244   1.592   3.731   6.516
  782SOL    HW1 3245   1.609   3.743   6.418
  782SOL    HW2 3246   1.550   3.814   6.553
  783SOL     OW 3247   5.044   4.804   2.177
  783SOL    HW1 3248   5.085   4.783   2.266
  783SOL    HW2 3249   5.088   4.749   2.106
  784SOL     OW 3250   4.495   5.026   0.316
  784SOL    HW1 3251   4.437   5.029   0.234
  784SOL    HW2 3252   4.580   4.978   0.293
  785SOL     OW 3253   0.355   1.865   3.558
  785SOL    HW1 3254   0.324   1.960   3.560
  785SOL    HW2 3255   0.455   1.863   3.562
  786SOL     OW 3256   0.773   0.303   3.410
  786SOL    HW1 3257   0.696   0.291   3.472
  786SOL    HW2 3258   0.829   0.379   3.441
  787SOL     OW 3259   1.699   0.285   6.814
  787SOL    HW1 3260   1.782   0.243   6.779
  787SOL    HW2 3261   1.718   0.380   6.840
  788SOL     OW 3262   4.120   1.514   0.309
  788SOL    HW1 3263   4.098   1.494   0.213
  788SOL    HW2 3264   4.061   1.460   0.369
  789SOL     OW 3265   4.425   4.248   1.303
  789SOL    HW1 3266   4.387   4.160   1.331
  789SOL    HW2 3267   4.522   4.237   1.282
  790SOL     OW 3268   1.841   1.688   2.949
  790SOL    HW1 3269   1.906   1.613   2.961
  790SOL    HW2 3270   1.752   1.653   2.921
  791SOL     OW 3271   1.682   5.670   4.555
  791SOL    HW1 3272   1.708   5.672   4.459
  791SOL    HW2 3273   1.583   5.685   4.563
  792SOL     OW 3274   0.689   1.138   1.005
  792SOL    HW1 3275   0.654   1.105   0.917
  792SOL    HW2 3276   0.788   1.155   0.997
  793SOL     OW 3277   4.931   4.916   3.757
  793SOL    HW1 3278   4.869   4.909   3.679
  793SOL    HW2 3279   4.920   5.005   3.801
  794SOL     OW 3280   3.074   3.927   6.086
  794SOL    HW1 3281   3.130   3.884   6.015
  794SOL    HW2 3282   2.987   3.879   6.094
  795SOL     OW 3283   3.521   6.679   4.615
  795SOL    HW1 3284   3.543   6.628   4.532
  795SOL    HW2 3285   3.540   6.621   4.695
  796SOL     OW 3286   6.986   2.770   5.837
  796SOL    HW1 3287   6.919   2.696   5.833
  796SOL    HW2 3288   0.062   2.731   5.839
  797SOL     OW 3289   5.905   2.205   1.325
  797SOL    HW1 3290   5.921   2.210   1.424
  797SOL    HW2 3291   5.990   2.181   1.279
  798SOL     OW 3292   3.076   6.326   2.082
  798SOL    HW1 3293   3.062   6.318   1.984
  798SOL    HW2 3294   3.129   6.409   2.102
  799SOL     OW 3295   6.971   0.205   6.251
  799SOL    HW1 3296   6.971   0.228   6.153
  799SOL    HW2 3297   0.036   0.243   6.294
  800SOL     OW 3298   5.293   1.539   2.808
  800SOL    HW1 3299   5.230   1.506   2.738
  800SOL    HW2 3300   5.325   1.631   2.783
  801SOL     OW 3301   2.053   4.509   4.674
  801SOL    HW1 3302   2.071   4.606   4.656
  801SOL    HW2 3303   1.955   4.494   4.679
  802SOL     OW 3304   3.185   1.641   0.934
  802SOL    HW1 3305   3.135   1.656   1.019
  802SOL    HW2 3306   3.196   1.728   0.885
  803SOL     OW 3307   1.025   0.025   6.013
  803SOL    HW1 3308   1.026   0.069   6.102
  803SOL    HW2 3309   0.987   0.087   5.945
  804SOL     OW 3310   5.798   6.387   0.278
  804SOL    HW1 3311   5.858   6.419   0.352
  804SOL    HW2 3312   5.854   6.353   0.203
  805SOL     OW 3313   3.125   0.850   3.763
  805SOL    HW1 3314   3.042   0.795   3.755
  805SOL    HW2 3315   3.155   0.879   3.672
  806SOL     OW 3316   5.516   1.172   4.571
  806SOL    HW1 3317   5.433   1.129   4.607
  806SOL    HW2 3318   5.554   1.235   4.638
  807SOL     OW 3319   1.563   1.149   5.260
  807SOL    HW1 3320   1.620   1.163   5.179
  807SOL    HW2 3321   1.480   1.205   5.253
  808SOL     OW 3322   4.099   4.028   6.168
  808SOL    HW1 3323   4.103   4.123   6.137
  808SOL    HW2 3324   4.109   4.025   6.267
  809SOL     OW 3325   0.874   4.854   1.631
  809SOL    HW1 3326   0.819   4.899   1.560
  809SOL    HW2 3327   0.822   4.852   1.717
  810SOL     OW 3328   3.327   4.108   1.205
  810SOL    HW1 3329   3.289   4.017   1.220
  810SOL    HW2 3330   3.254   4.171   1.178
  811SOL     OW 3331   5.237   5.820   5.367
  811SOL    HW1 3332   5.229   5.807   5.466
  811SOL    HW2 3333   5.194   5.743   5.320
  812SOL     OW 3334   0.189   0.566   2.472
  812SOL    HW1 3335   0.187   0.572   2.372
  812SOL    HW2 3336   0.096   0.568   2.508
  813SOL     OW 3337   4.410   0.252   4.134
  813SOL    HW1 3338   4.356   0.229   4.215
  813SOL    HW2 3339   4.376   0.200   4.056
  814SOL     OW 3340   6.014   6.301   2.721
  814SOL    HW1 3341   5.927   6.293   2.769
  814SOL    HW2 3342   6.088   6.314   2.787
  815SOL     OW 3343   6.933   3.697   3.707
  815SOL    HW1 3344   6.837   3.690   3.734
  815SOL    HW2 3345   6.980   3.611   3.728
  816SOL     OW 3346   6.159   5.922   0.466
  816SOL    HW1 3347   6.231   5.981   0.429
  816SOL    HW2 3348   6.082   5.920   0.403
  817SOL     OW 3349   2.082   5.551   1.498
  817SOL    HW1 3350   1.991   5.586   1.521
  817SOL    HW2 3351   2.145   5.627   1.487
  818SOL     OW 3352   5.888   2.570   3.354
  818SOL    HW1 3353   5.941   2.488   3.377
  818SOL    HW2 3354   5.798   2.565   3.398
  819SOL     OW 3355   5.906   2.881   2.467
  819SOL    HW1 3356   5.942   2.827   2.543
  819SOL    HW2 3357   5.809   2.861   2.455
  820SOL     OW 3358   3.810   2.135   4.995
  820SOL    HW1 3359   3.758   2.165   5.076
  820SOL    HW2 3360   3.775   2.182   4.914
  821SOL     OW 3361   0.338   3.762   0.736
  821SOL    HW1 3362   0.312   3.858   0.744
  821SOL    HW2 3363   0.264   3.711   0.694
  822SOL     OW 3364   0.805   3.595   3.572
  822SOL    HW1 3365   0.721   3.541   3.569
  822SOL    HW2 3366   0.804   3.655   3.651
  823SOL     OW 3367   5.471   3.860   6.523
  823SOL    HW1 3368   5.443   3.801   6.446
  823SOL    HW2 3369   5.539   3.812   6.578
  824SOL     OW 3370   4.630   1.613   6.184
  824SOL    HW1 3371   4.619   1.527   6.233
  824SOL    HW2 3372   4.719   1.615   6.139
  825SOL     OW 3373   6.976   5.035   1.467
  825SOL    HW1 3374   6.922   5.078   1.540
  825SOL    HW2 3375   7.010   5.106   1.406
  826SOL     OW 3376   3.844   2.565   5.868
  826SOL    HW1 3377   3.852   2.473   5.906
  826SOL    HW2 3378   3.777   2.617   5.921
  827SOL     OW 3379   2.840   4.567   5.405
  827SOL    HW1 3380   2.869   4.573   5.309
  827SOL    HW2 3381   2.919   4.585   5.464
  828SOL     OW 3382   5.297   6.344   6.781
  828SOL    HW1 3383   5.252   6.268   6.735
  828SOL    HW2 3384   5.256   6.430   6.751
  829SOL     OW 3385   4.098   3.764   2.167
  829SOL    HW1 3386   4.153   3.779   2.249
  829SOL    HW2 3387   4.074   3.853   2.127
  830SOL     OW 3388   5.842   4.962   6.703
  830SOL    HW1 3389   5.808   5.011   6.623
  830SOL    HW2 3390   5.775   4.968   6.777
  831SOL     OW 3391   6.245   0.456   6.878
  831SOL    HW1 3392   6.310   0.524   6.844
  831SOL    HW2 3393   6.280   0.365   6.860
  832SOL     OW 3394   4.565   1.092   2.713
  832SOL    HW1 3395   4.566   1.062   2.618
  832SOL    HW2 3396   4.475   1.075   2.753
  833SOL     OW 3397   1.147   3.486   6.546
  833SOL    HW1 3398   1.110   3.575   6.522
  833SOL    HW2 3399   1.206   3.494   6.626
  834SOL     OW 3400   3.941   4.159   0.981
  834SOL    HW1 3401   3.929   4.227   0.908
  834SOL    HW2 3402   3.852   4.125   1.011
  835SOL     OW 3403   3.429   0.026   5.662
  835SOL    HW1 3404   3.479   6.967   5.621
  835SOL    HW2 3405   3.449   0.030   5.760
  836SOL     OW 3406   4.018   6.657   5.568
  836SOL    HW1 3407   3.984   6.696   5.654
  836SOL    HW2 3408   3.994   6.560   5.564
  837SOL     OW 3409   5.661   0.173   0.835
  837SOL    HW1 3410   5.594   0.113   0.791
  837SOL    HW2 3411   5.637   0.269   0.816
  838SOL     OW 3412   1.970   1.000   4.336
  838SOL    HW1 3413   1.899   0.987   4.267
  838SOL    HW2 3414   1.949   1.080   4.392
  839SOL     OW 3415   1.208   1.581   2.182
  839SOL    HW1 3416   1.112   1.594   2.157
  839SOL    HW2 3417   1.229   1.484   2.187
  840SOL     OW 3418   6.634   5.710   0.100
  840SOL    HW1 3419   6.554   5.762   0.070
  840SOL    HW2 3420   6.617   5.612   0.084
  841SOL     OW 3421   3.081   5.381   6.352
  841SOL    HW1 3422   3.167   5.332   6.364
  841SOL    HW2 3423   3.005   5.317   6.365
  842SOL     OW 3424   3.702   0.253   4.643
  842SOL    HW1 3425   3.767   0.224   4.712
  842SOL    HW2 3426   3.744   0.322   4.583
  843SOL     OW 3427   1.262   1.277   1.194
  843SOL    HW1 3428   1.169   1.287   1.231
  843SOL    HW2 3429   1.323   1.244   1.266
  844SOL     OW 3430   5.779   0.133   0.524
  844SOL    HW1 3431   5.752   0.229   0.516
  844SOL    HW2 3432   5.713   0.085   0.582
  845SOL     OW 3433   4.827   4.138   4.250
  845SOL    HW1 3434   4.876   4.214   4.293
  845SOL    HW2 3435   4.776   4.171   4.171
  846SOL     OW 3436   2.035   1.315   5.904
  846SOL    HW1 3437   2.126   1.281   5.878
  846SOL    HW2 3438   1.979   1.325   5.823
  847SOL     OW 3439   1.455   3.631   1.212
  847SOL    HW1 3440   1.492   3.584   1.132
  847SOL    HW2 3441   1.356   3.618   1.215
  848SOL     OW 3442   6.555   0.132   5.806
  848SOL    HW1 3443   6.581   0.108   5.899
  848SOL    HW2 3444   6.636   0.158   5.753
  849SOL     OW 3445   6.600   3.953   5.465
  849SOL    HW1 3446   6.619   4.047   5.493
  849SOL    HW2 3447   6.683   3.913   5.425
  850SOL     OW 3448   4.988   1.243   3.995
  850SOL    HW1 3449   4.972   1.238   4.094
  850SOL    HW2 3450   4.916   1.192   3.947
  851SOL     OW 3451   6.503   2.755   2.016
  851SOL    HW1 3452   6.420   2.792   2.057
  851SOL    HW2 3453   6.496   2.761   1.916
  852SOL     OW 3454   1.267   3.639   0.296
  852SOL    HW1 3455   1.286   3.651   0.393
  852SOL    HW2 3456   1.264   3.541   0.275
  853SOL     OW 3457   0.872   4.552   0.900
  853SOL    HW1 3458   0.841   4.536   0.994
  853SOL    HW2 3459   0.899   4.647   0.890
  854SOL     OW 3460   5.699   5.057   0.989
  854SOL    HW1 3461   5.742   5.048   0.899
  854SOL    HW2 3462   5.599   5.051   0.978
  855SOL     OW 3463   0.041   0.038   1.564
  855SOL    HW1 3464   6.975   0.047   1.507
  855SOL    HW2 3465   0.076   0.128   1.588
  856SOL     OW 3466   1.534   2.254   5.899
  856SOL    HW1 3467   1.456   2.236   5.958
  856SOL    HW2 3468   1.564   2.349   5.912
  857SOL     OW 3469   6.354   4.743   2.071
  857SOL    HW1 3470   6.343   4.690   1.987
  857SOL    HW2 3471   6.358   4.680   2.149
  858SOL     OW 3472   3.004   3.556   1.280
  858SOL    HW1 3473   3.000   3.649   1.317
  858SOL    HW2 3474   2.984   3.490   1.352
  859SOL     OW 3475   5.504   6.604   4.674
  859SOL    HW1 3476   5.499   6.686   4.617
  859SOL    HW2 3477   5.574   6.542   4.637
  860SOL     OW 3478   6.279   2.647   0.992
  860SOL    HW1 3479   6.286   2.592   0.909
  860SOL    HW2 3480   6.184   2.678   1.003
  861SOL     OW 3481   2.800   5.571   3.975
  861SOL    HW1 3482   2.900   5.573   3.974
  861SOL    HW2 3483   2.764   5.588   3.883
  862SOL     OW 3484   1.448   3.571   4.432
  862SOL    HW1 3485   1.499   3.655   4.451
  862SOL    HW2 3486   1.379   3.589   4.361
  863SOL     OW 3487   5.915   1.802   0.695
  863SOL    HW1 3488   5.935   1.876   0.630
  863SOL    HW2 3489   6.000   1.758   0.722
  864SOL     OW 3490   4.486   5.788   4.144
  864SOL    HW1 3491   4.515   5.841   4.064
  864SOL    HW2 3492   4.538   5.703   4.148
  865SOL     OW 3493   1.848   6.205   5.615
  865SOL    HW1 3494   1.818   6.118   5.654
  865SOL    HW2 3495   1.827   6.280   5.678
  866SOL     OW 3496   1.974   1.633   1.359
  866SOL    HW1 3497   2.038   1.684   1.302
  866SOL    HW2 3498   1.970   1.673   1.450
  867SOL     OW 3499   4.937   3.624   0.447
  867SOL    HW1 3500   4.942   3.707   0.503
  867SOL    HW2 3501   4.874   3.559   0.489
  868SOL     OW 3502   6.167   1.436   0.472
  868SOL    HW1 3503   6.071   1.422   0.448
  868SOL    HW2 3504   6.173   1.466   0.567
  869SOL     OW 3505   0.580   4.187   2.679
  869SOL    HW1 3506   0.536   4.210   2.765
  869SOL    HW2 3507   0.523   4.217   2.602
  870SOL     OW 3508   3.827   3.541   0.107
  870SOL    HW1 3509   3.763   3.612   0.136
  870SOL    HW2 3510   3.776   3.458   0.083
  871SOL     OW 3511   4.958   2.262   2.774
  871SOL    HW1 3512   4.962   2.224   2.681
  871SOL    HW2 3513   4.919   2.354   2.771
  872SOL     OW 3514   5.186   3.386   4.014
  872SOL    HW1 3515   5.248   3.326   4.065
  872SOL    HW2 3516   5.229   3.475   4.002
  873SOL     OW 3517   5.765   6.572   4.532
  873SOL    HW1 3518   5.756   6.576   4.432
  873SOL    HW2 3519   5.794   6.662   4.566
  874SOL     OW 3520   0.950   3.804   5.708
  874SOL    HW1 3521   0.917   3.805   5.614
  874SOL    HW2 3522   0.898   3.869   5.763
  875SOL     OW 3523   4.888   3.783   0.895
  875SOL    HW1 3524   4.834   3.700   0.911
  875SOL    HW2 3525   4.968   3.759   0.840
  876SOL     OW 3526   0.914   4.011   2.055
  876SOL    HW1 3527   0.949   4.043   1.968
  876SOL    HW2 3528   0.843   4.073   2.088
  877SOL     OW 3529   3.674   4.468   5.812
  877SOL    HW1 3530   3.597   4.505   5.863
  877SOL    HW2 3531   3.702   4.534   5.743
  878SOL     OW 3532   3.477   5.702   5.127
  878SOL    HW1 3533   3.380   5.684   5.145
  878SOL    HW2 3534   3.524   5.615   5.113
  879SOL     OW 3535   3.887   1.857   0.490
  879SOL    HW1 3536   3.974   1.833   0.533
  879SOL    HW2 3537   3.900   1.869   0.392
  880SOL     OW 3538   2.932   3.494   4.093
  880SOL    HW1 3539   2.927   3.552   4.174
  880SOL    HW2 3540   3.026   3.489   4.061
  881SOL     OW 3541   5.596   3.636   5.471
  881SOL    HW1 3542   5.663   3.614   5.542
  881SOL    HW2 3543   5.607   3.573   5.394
  882SOL     OW 3544   0.841   2.797   4.643
  882SOL    HW1 3545   0.801   2.756   4.561
  882SOL    HW2 3546   0.812   2.745   4.724
  883SOL     OW 3547   3.455   0.436   0.526
  883SOL    HW1 3548   3.455   0.355   0.585
  883SOL    HW2 3549   3.457   0.408   0.430
  884SOL     OW 3550   0.025   4.238   0.042
  884SOL    HW1 3551   0.023   4.332   0.076
  884SOL    HW2 3552   0.018   4.174   0.118
  885SOL     OW 3553   4.658   6.710   5.669
  885SOL    HW1 3554   4.587   6.752   5.613
  885SOL    HW2 3555   4.659   6.612   5.652
  886SOL     OW 3556   4.193   1.359   1.022
  886SOL    HW1 3557   4.185   1.303   0.939
  886SOL    HW2 3558   4.120   1.333   1.086
  887SOL     OW 3559   3.960   5.430   3.877
  887SOL    HW1 3560   4.026   5.367   3.834
  887SOL    HW2 3561   3.942   5.506   3.815
  888SOL     OW 3562   0.010   6.496   2.704
  888SOL    HW1 3563   0.075   6.550   2.757
  888SOL    HW2 3564   6.933   6.516   2.734
  889SOL     OW 3565   0.196   0.956   6.164
  889SOL    HW1 3566   0.253   1.028   6.125
  889SOL    HW2 3567   0.208   0.872   6.111
  890SOL     OW 3568   2.026   4.654   2.118
  890SOL    HW1 3569   2.066   4.571   2.080
  890SOL    HW2 3570   2.077   4.734   2.086
  891SOL     OW 3571   6.795   3.921   0.757
  891SOL    HW1 3572   6.700   3.953   0.760
  891SOL    HW2 3573   6.811   3.855   0.830
  892SOL     OW 3574   3.744   3.798   5.043
  892SOL    HW1 3575   3.683   3.837   4.973
  892SOL    HW2 3576   3.788   3.872   5.094
  893SOL     OW 3577   1.366   0.201   3.078
  893SOL    HW1 3578   1.401   0.221   2.986
  893SOL    HW2 3579   1.333   0.106   3.080
  894SOL     OW 3580   1.090   2.964   3.007
  894SOL    HW1 3581   1.038   2.950   3.091
  894SOL    HW2 3582   1.185   2.936   3.021
  895SOL     OW 3583   1.211   5.075   3.652
  895SOL    HW1 3584   1.283   5.036   3.709
  895SOL    HW2 3585   1.240   5.165   3.620
  896SOL     OW 3586   6.450   5.860   1.402
  896SOL    HW1 3587   6.487   5.950   1.423
  896SOL    HW2 3588   6.495   5.791   1.459
  897SOL     OW 3589   4.337   0.084   6.924
  897SOL    HW1 3590   4.312   0.179   6.944
  897SOL    HW2 3591   4.328   0.068   6.826
  898SOL     OW 3592   3.617   5.758   2.164
  898SOL    HW1 3593   3.586   5.679   2.111
  898SOL    HW2 3594   3.556   5.771   2.242
  899SOL     OW 3595   0.456   5.889   0.350
  899SOL    HW1 3596   0.539   5.834   0.349
  899SOL    HW2 3597   0.387   5.846   0.290
  900SOL     OW 3598   4.701   6.355   6.629
  900SOL    HW1 3599   4.677   6.374   6.533
  900SOL    HW2 3600   4.791   6.313   6.632
  901SOL     OW 3601   0.923   0.910   4.512
  901SOL    HW1 3602   0.971   0.907   4.599
  901SOL    HW2 3603   0.974   0.857   4.444
  902SOL     OW 3604   1.210   2.405   1.236
  902SOL    HW1 3605   1.278   2.470   1.270
  902SOL    HW2 3606   1.123   2.453   1.224
  903SOL     OW 3607   0.100   3.025   6.661
  903SOL    HW1 3608   0.030   3.003   6.729
  903SOL    HW2 3609   0.190   3.022   6.705
  904SOL     OW 3610   2.249   2.885   2.514
  904SOL    HW1 3611   2.195   2.805   2.542
  904SOL    HW2 3612   2.329   2.855   2.463
  905SOL     OW 3613   5.123   4.870   6.087
  905SOL    HW1 3614   5.107   4.966   6.111
  905SOL    HW2 3615   5.134   4.861   5.988
  906SOL     OW 3616   0.987   2.599   6.148
  906SOL    HW1 3617   0.949   2.691   6.144
  906SOL    HW2 3618   1.086   2.604   6.150
  907SOL     OW 3619   4.981   2.509   1.930
  907SOL    HW1 3620   5.017   2.447   1.861
  907SOL    HW2 3621   4.970   2.601   1.891
  908SOL     OW 3622   2.468   4.841   2.854
  908SOL    HW1 3623   2.373   4.869   2.865
  908SOL    HW2 3624   2.502   4.873   2.766
  909SOL     OW 3625   3.415   5.772   2.332
  909SOL    HW1 3626   3.353   5.834   2.286
  909SOL    HW2 3627   3.410   5.787   2.431
  910SOL     OW 3628   2.969   0.867   0.856
  910SOL    HW1 3629   3.023   0.835   0.934
  910SOL    HW2 3630   2.986   0.807   0.778
  911SOL     OW 3631   0.542   5.870   6.927
  911SOL    HW1 3632   0.627   5.860   6.979
  911SOL    HW2 3633   0.562   5.865   6.829
  912SOL     OW 3634   4.739   0.547   3.599
  912SOL    HW1 3635   4.818   0.587   3.646
  912SOL    HW2 3636   4.718   0.458   3.639
  913SOL     OW 3637   2.165   1.045   3.893
  913SOL    HW1 3638   2.155   1.014   3.988
  913SOL    HW2 3639   2.232   0.987   3.846
  914SOL     OW 3640   2.880   5.824   5.233
  914SOL    HW1 3641   2.969   5.832   5.188
  914SOL    HW2 3642   2.848   5.915   5.259
  915SOL     OW 3643   0.677   3.049   0.691
  915SOL    HW1 3644   0.648   2.970   0.636
  915SOL    HW2 3645   0.677   3.024   0.788
  916SOL     OW 3646   2.083   3.088   2.410
  916SOL    HW1 3647   2.099   3.113   2.315
  916SOL    HW2 3648   2.147   3.015   2.437
  917SOL     OW 3649   6.028   1.079   2.592
  917SOL    HW1 3650   6.014   0.985   2.621
  917SOL    HW2 3651   5.959   1.104   2.524
  918SOL     OW 3652   3.216   0.548   1.015
  918SOL    HW1 3653   3.163   0.463   1.021
  918SOL    HW2 3654   3.164   0.622   1.057
  919SOL     OW 3655   6.797   6.458   3.651
  919SOL    HW1 3656   6.802   6.390   3.577
  919SOL    HW2 3657   6.707   6.455   3.693
  920SOL     OW 3658   2.324   4.673   2.653
  920SOL    HW1 3659   2.401   4.641   2.597
  920SOL    HW2 3660   2.332   4.633   2.745
  921SOL     OW 3661   4.338   4.914   2.975
  921SOL    HW1 3662   4.402   4.990   2.985
  921SOL    HW2 3663   4.248   4.950   2.951
  922SOL     OW 3664   2.889   3.374   4.970
  922SOL    HW1 3665   2.891   3.360   4.871
  922SOL    HW2 3666   2.983   3.385   5.004
  923SOL     OW 3667   2.869   4.141   5.948
  923SOL    HW1 3668   2.788   4.115   5.896
  923SOL    HW2 3669   2.919   4.059   5.975
  924SOL     OW 3670   5.772   2.845   3.326
  924SOL    HW1 3671   5.716   2.841   3.243
  924SOL    HW2 3672   5.825   2.760   3.335
  925SOL     OW 3673   0.022   2.038   6.871
  925SOL    HW1 3674   6.975   1.981   6.819
  925SOL    HW2 3675   0.018   2.014   6.968
  926SOL     OW 3676   6.018   1.400   1.239
  926SOL    HW1 3677   6.060   1.466   1.302
  926SOL    HW2 3678   5.993   1.447   1.154
  927SOL     OW 3679   6.020   3.978   3.133
  927SOL    HW1 3680   6.009   3.879   3.135
  927SOL    HW2 3681   5.942   4.020   3.085
  928SOL     OW 3682   1.163   6.677   0.305
  928SOL    HW1 3683   1.135   6.727   0.386
  928SOL    HW2 3684   1.106   6.704   0.227
  929SOL     OW 3685   0.235   0.258   0.930
  929SOL    HW1 3686   0.218   0.354   0.910
  929SOL    HW2 3687   0.315   0.250   0.990
  930SOL     OW 3688   5.274   5.817   3.925
  930SOL    HW1 3689   5.327   5.739   3.892
  930SOL    HW2 3690   5.263   5.809   4.024
  931SOL     OW 3691   5.766   1.767   3.861
  931SOL    HW1 3692   5.694   1.818   3.908
  931SOL    HW2 3693   5.725   1.704   3.795
  932SOL     OW 3694   2.978   6.900   3.664
  932SOL    HW1 3695   3.024   6.987   3.676
  932SOL    HW2 3696   2.970   6.878   3.567
  933SOL     OW 3697   2.040   5.508   3.615
  933SOL    HW1 3698   2.068   5.421   3.656
  933SOL    HW2 3699   2.099   5.529   3.537
  934SOL     OW 3700   1.286   0.205   6.254
  934SOL    HW1 3701   1.192   0.172   6.267
  934SOL    HW2 3702   1.305   0.213   6.156
  935SOL     OW 3703   4.647   4.237   4.018
  935SOL    HW1 3704   4.700   4.204   3.940
  935SOL    HW2 3705   4.590   4.314   3.989
  936SOL     OW 3706   0.889   0.399   6.250
  936SOL    HW1 3707   0.878   0.458   6.330
  936SOL    HW2 3708   0.828   0.431   6.177
  937SOL     OW 3709   5.522   1.461   5.150
  937SOL    HW1 3710   5.509   1.428   5.244
  937SOL    HW2 3711   5.436   1.499   5.116
  938SOL     OW 3712   6.842   5.174   6.408
  938SOL    HW1 3713   6.921   5.138   6.358
  938SOL    HW2 3714   6.873   5.239   6.477
  939SOL     OW 3715   6.684   6.605   5.394
  939SOL    HW1 3716   6.595   6.599   5.350
  939SOL    HW2 3717   6.679   6.568   5.487
  940SOL     OW 3718   1.038   3.118   1.598
  940SOL    HW1 3719   1.014   3.178   1.674
  940SOL    HW2 3720   1.095   3.043   1.631
  941SOL     OW 3721   5.274   1.187   6.035
  941SOL    HW1 3722   5.367   1.151   6.043
  941SOL    HW2 3723   5.266   1.270   6.090
  942SOL     OW 3724   4.893   6.887   2.831
  942SOL    HW1 3725   4.830   6.849   2.899
  942SOL    HW2 3726   4.911   6.819   2.760
  943SOL     OW 3727   2.145   3.729   3.753
  943SOL    HW1 3728   2.080   3.756   3.682
  943SOL    HW2 3729   2.184   3.639   3.730
  944SOL     OW 3730   0.553   4.969   6.585
  944SOL    HW1 3731   0.468   4.929   6.551
  944SOL    HW2 3732   0.616   4.896   6.610
  945SOL     OW 3733   6.611   4.235   5.494
  945SOL    HW1 3734   6.710   4.234   5.480
  945SOL    HW2 3735   6.567   4.284   5.419
  946SOL     OW 3736   4.742   2.891   6.022
  946SOL    HW1 3737   4.691   2.975   6.003
  946SOL    HW2 3738   4.683   2.812   6.007
  947SOL     OW 3739   3.716   2.936   3.457
  947SOL    HW1 3740   3.740   2.907   3.549
  947SOL    HW2 3741   3.796   2.976   3.413
  948SOL     OW 3742   3.598   0.291   2.598
  948SOL    HW1 3743   3.536   0.291   2.520
  948SOL    HW2 3744   3.606   0.198   2.634
  949SOL     OW 3745   1.093   5.988   6.240
  949SOL    HW1 3746   1.144   6.002   6.155
  949SOL    HW2 3747   1.111   5.895   6.274
  950SOL     OW 3748   5.011   5.437   1.890
  950SOL    HW1 3749   4.945   5.412   1.820
  950SOL    HW2 3750   5.098   5.462   1.846
  951SOL     OW 3751   2.189   0.483   3.930
  951SOL    HW1 3752   2.193   0.557   3.863
  951SOL    HW2 3753   2.264   0.419   3.913
  952SOL     OW 3754   4.462   1.771   3.141
  952SOL    HW1 3755   4.463   1.744   3.045
  952SOL    HW2 3756   4.370   1.760   3.179
  953SOL     OW 3757   5.541   4.815   3.964
  953SOL    HW1 3758   5.541   4.729   3.913
  953SOL    HW2 3759   5.448   4.836   3.993
  954SOL     OW 3760   3.731   5.464   1.396
  954SOL    HW1 3761   3.777   5.524   1.461
  954SOL    HW2 3762   3.689   5.388   1.444
  955SOL     OW 3763   0.315   3.462   2.495
  955SOL    HW1 3764   0.272   3.376   2.522
  955SOL    HW2 3765   0.331   3.518   2.577
  956SOL     OW 3766   6.776   1.235   2.730
  956SOL    HW1 3767   6.682   1.203   2.724
  956SOL    HW2 3768   6.832   1.190   2.660
  957SOL     OW 3769   5.941   3.828   5.030
  957SOL    HW1 3770   5.907   3.734   5.037
  957SOL    HW2 3771   6.021   3.840   5.088
  958SOL     OW 3772   4.421   2.113   1.571
  958SOL    HW1 3773   4.327   2.085   1.549
  958SOL    HW2 3774   4.428   2.131   1.669
  959SOL     OW 3775   4.543   5.937   2.983
  959SOL    HW1 3776   4.614   5.881   3.026
  959SOL    HW2 3777   4.517   5.895   2.896
  960SOL     OW 3778   1.127   6.384   1.847
  960SOL    HW1 3779   1.114   6.316   1.774
  960SOL    HW2 3780   1.114   6.476   1.810
  961SOL     OW 3781   4.756   6.591   3.587
  961SOL    HW1 3782   4.692   6.558   3.517
  961SOL    HW2 3783   4.756   6.691   3.587
  962SOL     OW 3784   0.112   1.347   5.231
  962SOL    HW1 3785   0.077   1.337   5.324
  962SOL    HW2 3786   0.173   1.426   5.226
  963SOL     OW 3787   6.058   1.780   6.270
  963SOL    HW1 3788   5.981   1.760   6.209
  963SOL    HW2 3789   6.033   1.760   6.364
  964SOL     OW 3790   5.295   4.689   0.406
  964SOL    HW1 3791   5.249   4.635   0.336
  964SOL    HW2 3792   5.299   4.784   0.377
  965SOL     OW 3793   5.343   2.194   1.560
  965SOL    HW1 3794   5.332   2.293   1.548
  965SOL    HW2 3795   5.363   2.152   1.472
  966SOL     OW 3796   5.858   2.395   2.560
  966SOL    HW1 3797   5.865   2.448   2.645
  966SOL    HW2 3798   5.932   2.421   2.498
  967SOL     OW 3799   2.489   4.543   0.531
  967SOL    HW1 3800   2.569   4.484   0.522
  967SOL    HW2 3801   2.479   4.572   0.626
  968SOL     OW 3802   3.547   0.549   1.840
  968SOL    HW1 3803   3.630   0.579   1.793
  968SOL    HW2 3804   3.483   0.511   1.772
  969SOL     OW 3805   2.670   5.968   6.259
  969SOL    HW1 3806   2.736   5.895   6.241
  969SOL    HW2 3807   2.673   5.992   6.356
  970SOL     OW 3808   5.398   0.995   6.477
  970SOL    HW1 3809   5.371   0.957   6.389
  970SOL    HW2 3810   5.325   1.053   6.512
  971SOL     OW 3811   6.895   2.446   2.897
  971SOL    HW1 3812   6.943   2.522   2.940
  971SOL    HW2 3813   6.937   2.360   2.925
  972SOL     OW 3814   5.653   3.351   2.274
  972SOL    HW1 3815   5.576   3.309   2.226
  972SOL    HW2 3816   5.647   3.327   2.371
  973SOL     OW 3817   0.358   5.144   6.625
  973SOL    HW1 3818   0.341   5.196   6.541
  973SOL    HW2 3819   0.429   5.077   6.608
  974SOL     OW 3820   5.372   6.064   1.955
  974SOL    HW1 3821   5.284   6.029   1.988
  974SOL    HW2 3822   5.445   6.003   1.984
  975SOL     OW 3823   1.523   0.208   6.423
  975SOL    HW1 3824   1.477   0.245   6.504
  975SOL    HW2 3825   1.455   0.193   6.351
  976SOL     OW 3826   6.702   3.320   2.572
  976SOL    HW1 3827   6.723   3.229   2.609
  976SOL    HW2 3828   6.754   3.334   2.488
  977SOL     OW 3829   0.725   6.926   2.175
  977SOL    HW1 3830   0.659   6.985   2.128
  977SOL    HW2 3831   0.710   6.831   2.148
  978SOL     OW 3832   5.186   3.121   5.917
  978SOL    HW1 3833   5.237   3.181   5.856
  978SOL    HW2 3834   5.099   3.095   5.874
  979SOL     OW 3835   0.223   2.162   0.538
  979SOL    HW1 3836   0.191   2.249   0.501
  979SOL    HW2 3837   0.152   2.123   0.597
  980SOL     OW 3838   4.515   2.558   3.690
  980SOL    HW1 3839   4.471   2.624   3.750
  980SOL    HW2 3840   4.614   2.571   3.693
  981SOL     OW 3841   0.290   1.472   4.701
  981SOL    HW1 3842   0.327   1.436   4.616
  981SOL    HW2 3843   0.330   1.423   4.779
  982SOL     OW 3844   2.476   1.751   4.906
  982SOL    HW1 3845   2.444   1.688   4.834
  982SOL    HW2 3846   2.398   1.798   4.946
  983SOL     OW 3847   6.402   3.195   4.055
  983SOL    HW1 3848   6.348   3.217   3.974
  983SOL    HW2 3849   6.344   3.145   4.120
  984SOL     OW 3850   3.187   1.817   5.009
  984SOL    HW1 3851   3.197   1.914   4.989
  984SOL    HW2 3852   3.092   1.789   4.994
  985SOL     OW 3853   5.810   3.413   5.176
  985SOL    HW1 3854   5.713   3.418   5.200
  985SOL    HW2 3855   5.830   3.477   5.102
  986SOL     OW 3856   6.005   5.013   1.166
  986SOL    HW1 3857   5.964   5.103   1.149
  986SOL    HW2 3858   5.933   4.944   1.173
  987SOL     OW 3859   4.753   6.624   2.393
  987SOL    HW1 3860   4.721   6.713   2.362
  987SOL    HW2 3861   4.843   6.634   2.436
  988SOL     OW 3862   3.735   3.440   1.709
  988SOL    HW1 3863   3.833   3.433   1.688
  988SOL    HW2 3864   3.713   3.378   1.784
  989SOL     OW 3865   6.052   1.247   6.359
  989SOL    HW1 3866   5.976   1.233   6.423
  989SOL    HW2 3867   6.076   1.344   6.356
  990SOL     OW 3868   4.698   1.136   2.150
  990SOL    HW1 3869   4.782   1.113   2.101
  990SOL    HW2 3870   4.668   1.228   2.123
  991SOL     OW 3871   0.547   3.617   4.873
  991SOL    HW1 3872   0.592   3.679   4.809
  991SOL    HW2 3873   0.450   3.609   4.848
  992SOL     OW 3874   6.916   3.150   1.665
  992SOL    HW1 3875   6.960   3.075   1.714
  992SOL    HW2 3876   6.974   3.177   1.588
  993SOL     OW 3877   0.303   4.879   1.015
  993SOL    HW1 3878   0.226   4.925   1.058
  993SOL    HW2 3879   0.387   4.901   1.065
  994SOL     OW 3880   4.333   5.178   0.958
  994SOL    HW1 3881   4.264   5.220   1.017
  994SOL    HW2 3882   4.421   5.222   0.974
  995SOL     OW 3883   3.603   2.920   5.239
  995SOL    HW1 3884   3.514   2.876   5.242
  995SOL    HW2 3885   3.660   2.876   5.169
  996SOL     OW 3886   3.774   5.169   4.810
  996SOL    HW1 3887   3.805   5.104   4.879
  996SOL    HW2 3888   3.844   5.179   4.740
  997SOL     OW 3889   1.123   0.211   3.599
  997SOL    HW1 3890   1.080   0.123   3.623
  997SOL    HW2 3891   1.128   0.219   3.500
  998SOL     OW 3892   5.187   0.506   4.882
  998SOL    HW1 3893   5.110   0.469   4.831
  998SOL    HW2 3894   5.223   0.436   4.944
  999SOL     OW 3895   5.125   4.355   2.980
  999SOL    HW1 3896   5.049   4.410   2.944
  999SOL    HW2 3897   5.212   4.397   2.954
 1000SOL     OW 3898   2.545   1.029   1.291
 1000SOL    HW1 3899   2.584   1.064   1.377
 1000SOL    HW2 3900   2.447   1.048   1.290
 1001SOL     OW 3901   4.946   5.423   0.678
 1001SOL    HW1 3902   4.962   5.466   0.589
 1001SOL    HW2 3903   4.849   5.407   0.691
 1002SOL     OW 3904   6.058   1.646   1.579
 1002SOL    HW1 3905   6.158   1.637   1.581
 1002SOL    HW2 3906   6.017   1.565   1.620
 1003SOL     OW 3907   1.774   6.605   2.324
 1003SOL    HW1 3908   1.690   6.555   2.346
 1003SOL    HW2 3909   1.769   6.638   2.230
 1004SOL     OW 3910   0.086   0.402   1.965
 1004SOL    HW1 3911   0.034   0.476   1.923
 1004SOL    HW2 3912   0.031   0.319   1.966
 1005SOL     OW 3913   2.316   2.903   3.980
 1005SOL    HW1 3914   2.283   2.967   3.910
 1005SOL    HW2 3915   2.354   2.822   3.935
 1006SOL     OW 3916   0.983   4.323   1.269
 1006SOL    HW1 3917   0.981   4.285   1.177
 1006SOL    HW2 3918   0.931   4.265   1.331
 1007SOL     OW 3919   4.728   0.470   5.115
 1007SOL    HW1 3920   4.762   0.541   5.053
 1007SOL    HW2 3921   4.661   0.413   5.067
 1008SOL     OW 3922   0.988   3.185   5.718
 1008SOL    HW1 3923   1.020   3.251   5.786
 1008SOL    HW2 3924   0.997   3.224   5.626
 1009SOL     OW 3925   0.498   5.308   4.901
 1009SOL    HW1 3926   0.521   5.263   4.988
 1009SOL    HW2 3927   0.427   5.376   4.917
 1010SOL     OW 3928   3.503   1.804   6.788
 1010SOL    HW1 3929   3.543   1.759   6.868
 1010SOL    HW2 3930   3.534   1.899   6.785
 1011SOL     OW 3931   1.649   4.840   2.362
 1011SOL    HW1 3932   1.740   4.800   2.369
 1011SOL    HW2 3933   1.655   4.930   2.318
 1012SOL     OW 3934   6.722   6.930   2.082
 1012SOL    HW1 3935   6.814   6.899   2.106
 1012SOL    HW2 3936   6.718   6.946   1.983
 1013SOL     OW 3937   1.302   1.243   5.954
 1013SOL    HW1 3938   1.289   1.252   5.856
 1013SOL    HW2 3939   1.234   1.300   6.002
 1014SOL     OW 3940   6.409   5.089   5.870
 1014SOL    HW1 3941   6.332   5.122   5.923
 1014SOL    HW2 3942   6.431   5.154   5.798
 1015SOL     OW 3943   2.592   6.896   6.222
 1015SOL    HW1 3944   2.517   6.949   6.262
 1015SOL    HW2 3945   2.587   6.802   6.254
 1016SOL     OW 3946   4.138   3.527   6.832
 1016SOL    HW1 3947   4.230   3.506   6.798
 1016SOL    HW2 3948   4.097   3.599   6.778
 1017SOL     OW 3949   4.195   3.134   1.297
 1017SOL    HW1 3950   4.118   3.196   1.313
 1017SOL    HW2 3951   4.260   3.141   1.372
 1018SOL     OW 3952   0.602   4.370   4.243
 1018SOL    HW1 3953   0.608   4.356   4.342
 1018SOL    HW2 3954   0.633   4.463   4.221
 1019SOL     OW 3955   6.803   6.778   0.988
 1019SOL    HW1 3956   6.760   6.867   1.006
 1019SOL    HW2 3957   6.779   6.714   1.060
 1020SOL     OW 3958   6.390   0.918   1.091
 1020SOL    HW1 3959   6.422   1.004   1.131
 1020SOL    HW2 3960   6.300   0.896   1.127
 1021SOL     OW 3961   5.869   6.788   1.434
 1021SOL    HW1 3962   5.805   6.809   1.508
 1021SOL    HW2 3963   5.824   6.730   1.367
 1022SOL     OW 3964   3.355   4.334   5.355
 1022SOL    HW1 3965   3.258   4.355   5.348
 1022SOL    HW2 3966   3.381   4.273   5.280
 1023SOL     OW 3967   0.469   6.973   3.323
 1023SOL    HW1 3968   0.396   0.004   3.375
 1023SOL    HW2 3969   0.491   0.010   3.241
 1024SOL     OW 3970   0.705   2.770   4.162
 1024SOL    HW1 3971   0.616   2.729   4.143
 1024SOL    HW2 3972   0.755   2.781   4.076
 1025SOL     OW 3973   3.512   3.651   1.410
 1025SOL    HW1 3974   3.500   3.722   1.478
 1025SOL    HW2 3975   3.548   3.568   1.454
 1026SOL     OW 3976   2.373   2.325   1.447
 1026SOL    HW1 3977   2.321   2.408   1.468
 1026SOL    HW2 3978   2.453   2.349   1.391
 1027SOL     OW 3979   3.405   6.134   1.932
 1027SOL    HW1 3980   3.433   6.228   1.949
 1027SOL    HW2 3981   3.359   6.127   1.844
 1028SOL     OW 3982   2.355   6.301   1.373
 1028SOL    HW1 3983   2.314   6.381   1.332
 1028SOL    HW2 3984   2.336   6.300   1.471
 1029SOL     OW 3985   1.715   0.179   6.239
 1029SOL    HW1 3986   1.656   0.177   6.319
 1029SOL    HW2 3987   1.731   0.086   6.206
 1030SOL     OW 3988   3.088   2.863   1.883
 1030SOL    HW1 3989   3.161   2.795   1.884
 1030SOL    HW2 3990   3.104   2.930   1.956
 1031SOL     OW 3991   4.726   4.034   1.416
 1031SOL    HW1 3992   4.714   3.997   1.508
 1031SOL    HW2 3993   4.820   4.018   1.385
 1032SOL     OW 3994   2.509   2.024   5.578
 1032SOL    HW1 3995   2.532   1.979   5.492
 1032SOL    HW2 3996   2.530   1.964   5.655
 1033SOL     OW 3997   1.430   6.476   2.174
 1033SOL    HW1 3998   1.416   6.572   2.151
 1033SOL    HW2 3999   1.371   6.419   2.116
 1034SOL     OW 4000   0.273   5.069   4.673
 1034SOL    HW1 4001   0.360   5.115   4.654
 1034SOL    HW2 4002   0.258   5.068   4.772
 1035SOL     OW 4003   0.294   1.530   5.129
 1035SOL    HW1 4004   0.354   1.516   5.208
 1035SOL    HW2 4005   0.321   1.467   5.056
 1036SOL     OW 4006   3.978   0.471   1.626
 1036SOL    HW1 4007   4.050   0.506   1.686
 1036SOL    HW2 4008   3.917   0.411   1.677
 1037SOL     OW 4009   1.710   1.223   1.934
 1037SOL    HW1 4010   1.624   1.265   1.907
 1037SOL    HW2 4011   1.693   1.143   1.991
 1038SOL     OW 4012   1.889   1.047   5.246
 1038SOL    HW1 4013   1.873   0.957   5.206
 1038SOL    HW2 4014   1.848   1.051   5.337
 1039SOL     OW 4015   3.417   3.846   4.209
 1039SOL    HW1 4016   3.483   3.922   4.206
 1039SOL    HW2 4017   3.404   3.810   4.116
 1040SOL     OW 4018   4.901   1.051   2.756
 1040SOL    HW1 4019   4.900   0.971   2.697
 1040SOL    HW2 4020   4.810   1.093   2.759
 1041SOL     OW 4021   0.044   6.460   3.777
 1041SOL    HW1 4022   6.984   6.461   3.712
 1041SOL    HW2 4023   0.070   6.365   3.797
 1042SOL     OW 4024   4.366   5.442   1.994
 1042SOL    HW1 4025   4.403   5.516   1.938
 1042SOL    HW2 4026   4.295   5.393   1.944
 1043SOL     OW 4027   3.153   1.905   4.626
 1043SOL    HW1 4028   3.152   1.809   4.653
 1043SOL    HW2 4029   3.180   1.961   4.705
 1044SOL     OW 4030   5.705   5.497   2.496
 1044SOL    HW1 4031   5.736   5.477   2.403
 1044SOL    HW2 4032   5.746   5.582   2.528
 1045SOL     OW 4033   4.005   6.972   2.485
 1045SOL    HW1 4034   3.986   6.977   2.583
 1045SOL    HW2 4035   3.962   0.033   2.438
 1046SOL     OW 4036   1.537   0.719   0.399
 1046SOL    HW1 4037   1.537   0.628   0.358
 1046SOL    HW2 4038   1.503   0.785   0.333
 1047SOL     OW 4039   1.791   0.647   3.607
 1047SOL    HW1 4040   1.865   0.703   3.570
 1047SOL    HW2 4041   1.801   0.552   3.576
 1048SOL     OW 4042   4.280   6.170   3.693
 1048SOL    HW1 4043   4.377   6.155   3.679
 1048SOL    HW2 4044   4.239   6.091   3.738
 1049SOL     OW 4045   6.592   6.296   3.998
 1049SOL    HW1 4046   6.567   6.306   4.094
 1049SOL    HW2 4047   6.537   6.223   3.957
 1050SOL     OW 4048   4.112   4.921   1.442
 1050SOL    HW1 4049   4.077   4.834   1.408
 1050SOL    HW2 4050   4.039   4.990   1.440
 1051SOL     OW 4051   1.112   5.834   0.582
 1051SOL    HW1 4052   1.169   5.834   0.501
 1051SOL    HW2 4053   1.155   5.781   0.654
 1052SOL     OW 4054   4.025   0.746   4.834
 1052SOL    HW1 4055   3.982   0.656   4.824
 1052SOL    HW2 4056   3.990   0.807   4.763
 1053SOL     OW 4057   6.263   5.135   2.666
 1053SOL    HW1 4058   6.298   5.089   2.748
 1053SOL    HW2 4059   6.339   5.155   2.604
 1054SOL     OW 4060   3.363   3.451   0.089
 1054SOL    HW1 4061   3.322   3.428   0.001
 1054SOL    HW2 4062   3.379   3.550   0.092
 1055SOL     OW 4063   3.512   5.931   4.293
 1055SOL    HW1 4064   3.433   5.938   4.233
 1055SOL    HW2 4065   3.592   5.972   4.249
 1056SOL     OW 4066   2.382   4.471   6.517
 1056SOL    HW1 4067   2.292   4.511   6.534
 1056SOL    HW2 4068   2.372   4.378   6.482
 1057SOL     OW 4069   2.794   3.338   1.839
 1057SOL    HW1 4070   2.817   3.387   1.924
 1057SOL    HW2 4071   2.854   3.259   1.829
 1058SOL     OW 4072   4.811   2.052   3.459
 1058SOL    HW1 4073   4.721   2.010   3.476
 1058SOL    HW2 4074   4.800   2.127   3.394
 1059SOL     OW 4075   2.836   0.383   2.161
 1059SOL    HW1 4076   2.861   0.288   2.140
 1059SOL    HW2 4077   2.796   0.387   2.253
 1060SOL     OW 4078   0.181   4.858   4.225
 1060SOL    HW1 4079   0.186   4.804   4.309
 1060SOL    HW2 4080   0.106   4.924   4.233
 1061SOL     OW 4081   6.434   3.091   0.592
 1061SOL    HW1 4082   6.432   3.062   0.687
 1061SOL    HW2 4083   6.443   3.191   0.587
 1062SOL     OW 4084   5.186   4.839   5.810
 1062SOL    HW1 4085   5.157   4.775   5.738
 1062SOL    HW2 4086   5.273   4.880   5.784
 1063SOL     OW 4087   1.435   4.825   1.171
 1063SOL    HW1 4088   1.402   4.842   1.264
 1063SOL    HW2 4089   1.518   4.879   1.155
 1064SOL     OW 4090   1.384   4.044   2.575
 1064SOL    HW1 4091   1.429   3.958   2.548
 1064SOL    HW2 4092   1.451   4.105   2.617
 1065SOL     OW 4093   4.124   0.380   3.419
 1065SOL    HW1 4094   4.101   0.461   3.364
 1065SOL    HW2 4095   4.084   0.299   3.376
 1066SOL     OW 4096   4.689   6.376   3.001
 1066SOL    HW1 4097   4.612   6.365   2.938
 1066SOL    HW2 4098   4.732   6.287   3.016
 1067SOL     OW 4099   0.949   3.111   1.024
 1067SOL    HW1 4100   0.942   3.051   0.945
 1067SOL    HW2 4101   1.033   3.165   1.019
 1068SOL     OW 4102   6.368   5.014   2.892
 1068SOL    HW1 4103   6.443   4.947   2.884
 1068SOL    HW2 4104   6.286   4.968   2.926
 1069SOL     OW 4105   4.309   5.146   0.693
 1069SOL    HW1 4106   4.303   5.140   0.792
 1069SOL    HW2 4107   4.368   5.074   0.658
 1070SOL     OW 4108   6.994   0.767   2.214
 1070SOL    HW1 4109   0.057   0.828   2.202
 1070SOL    HW2 4110   0.009   0.672   2.219
 1071SOL     OW 4111   1.287   0.739   4.202
 1071SOL    HW1 4112   1.238   0.787   4.130
 1071SOL    HW2 4113   1.338   0.662   4.163
 1072SOL     OW 4114   1.847   1.223   1.011
 1072SOL    HW1 4115   1.890   1.312   0.995
 1072SOL    HW2 4116   1.901   1.151   0.969
 1073SOL     OW 4117   4.856   6.960   2.412
 1073SOL    HW1 4118   4.908   6.888   2.457
 1073SOL    HW2 4119   4.917   7.016   2.356
 1074SOL     OW 4120   2.432   5.231   1.112
 1074SOL    HW1 4121   2.423   5.322   1.154
 1074SOL    HW2 4122   2.498   5.177   1.162
 1075SOL     OW 4123   5.005   0.411   3.750
 1075SOL    HW1 4124   5.092   0.390   3.794
 1075SOL    HW2 4125   5.001   0.509   3.728
 1076SOL     OW 4126   0.145   1.860   5.656
 1076SOL    HW1 4127   0.148   1.908   5.568
 1076SOL    HW2 4128   0.114   1.923   5.727
 1077SOL     OW 4129   5.460   0.233   1.287
 1077SOL    HW1 4130   5.407   0.288   1.223
 1077SOL    HW2 4131   5.552   0.219   1.250
 1078SOL     OW 4132   0.991   0.676   2.612
 1078SOL    HW1 4133   1.019   0.611   2.542
 1078SOL    HW2 4134   0.960   0.626   2.693
 1079SOL     OW 4135   1.558   6.454   2.404
 1079SOL    HW1 4136   1.582   6.367   2.449
 1079SOL    HW2 4137   1.516   6.435   2.316
 1080SOL     OW 4138   2.030   4.897   3.438
 1080SOL    HW1 4139   2.117   4.924   3.479
 1080SOL    HW2 4140   2.038   4.900   3.339
 1081SOL     OW 4141   0.409   5.715   5.563
 1081SOL    HW1 4142   0.424   5.716   5.662
 1081SOL    HW2 4143   0.485   5.669   5.518
 1082SOL     OW 4144   5.298   1.911   4.650
 1082SOL    HW1 4145   5.325   2.007   4.663
 1082SOL    HW2 4146   5.219   1.906   4.589
 1083SOL     OW 4147   4.176   4.385   0.735
 1083SOL    HW1 4148   4.138   4.317   0.673
 1083SOL    HW2 4149   4.158   4.477   0.699
 1084SOL     OW 4150   5.932   6.281   0.039
 1084SOL    HW1 4151   6.024   6.258   0.071
 1084SOL    HW2 4152   5.915   6.234   6.968
 1085SOL     OW 4153   1.877   3.358   4.266
 1085SOL    HW1 4154   1.838   3.403   4.185
 1085SOL    HW2 4155   1.963   3.403   4.291
 1086SOL     OW 4156   0.786   5.368   0.528
 1086SOL    HW1 4157   0.792   5.282   0.577
 1086SOL    HW2 4158   0.877   5.398   0.502
 1087SOL     OW 4159   5.785   1.999   5.019
 1087SOL    HW1 4160   5.711   1.932   5.021
 1087SOL    HW2 4161   5.752   2.087   5.054
 1088SOL     OW 4162   0.556   4.108   2.942
 1088SOL    HW1 4163   0.644   4.154   2.952
 1088SOL    HW2 4164   0.493   4.138   3.013
 1089SOL     OW 4165   1.039   6.163   4.393
 1089SOL    HW1 4166   1.082   6.178   4.482
 1089SOL    HW2 4167   0.968   6.232   4.379
 1090SOL     OW 4168   2.687   2.268   3.492
 1090SOL    HW1 4169   2.678   2.281   3.590
 1090SOL    HW2 4170   2.600   2.235   3.454
 1091SOL     OW 4171   3.134   2.057   4.863
 1091SOL    HW1 4172   3.151   2.140   4.916
 1091SOL    HW2 4173   3.038   2.055   4.834
 1092SOL     OW 4174   1.303   4.150   0.978
 1092SOL    HW1 4175   1.274   4.096   0.899
 1092SOL    HW2 4176   1.348   4.090   1.044
 1093SOL     OW 4177   1.882   1.401   2.106
 1093SOL    HW1 4178   1.822   1.340   2.054
 1093SOL    HW2 4179   1.973   1.401   2.065
 1094SOL     OW 4180   0.168   6.695   2.813
 1094SOL    HW1 4181   0.106   6.771   2.800
 1094SOL    HW2 4182   0.254   6.713   2.765
 1095SOL     OW 4183   0.954   2.894   6.059
 1095SOL    HW1 4184   0.932   2.987   6.030
 1095SOL    HW2 4185   1.046   2.892   6.099
 1096SOL     OW 4186   3.712   4.365   1.722
 1096SOL    HW1 4187   3.694   4.461   1.741
 1096SOL    HW2 4188   3.649   4.308   1.776
 1097SOL     OW 4189   2.301   4.682   4.388
 1097SOL    HW1 4190   2.317   4.773   4.426
 1097SOL    HW2 4191   2.209   4.678   4.348
 1098SOL     OW 4192   4.363   3.824   6.601
 1098SOL    HW1 4193   4.316   3.892   6.658
 1098SOL    HW2 4194   4.456   3.810   6.635
 1099SOL     OW 4195   3.673   1.008   5.713
 1099SOL    HW1 4196   3.744   1.068   5.676
 1099SOL    HW2 4197   3.673   0.921   5.662
 1100SOL     OW 4198   3.673   1.726   4.380
 1100SOL    HW1 4199   3.659   1.725   4.480
 1100SOL    HW2 4200   3.617   1.798   4.340
 1101SOL     OW 4201   6.012   2.855   6.339
 1101SOL    HW1 4202   6.064   2.839   6.255
 1101SOL    HW2 4203   5.955   2.774   6.358
 1102SOL     OW 4204   0.738   0.112   4.294
 1102SOL    HW1 4205   0.755   0.182   4.225
 1102SOL    HW2 4206   0.811   0.113   4.362
 1103SOL     OW 4207   4.265   1.740   0.039
 1103SOL    HW1 4208   4.276   1.784   0.128
 1103SOL    HW2 4209   4.285   1.805   6.982
 1104SOL     OW 4210   2.065   3.438   5.999
 1104SOL    HW1 4211   2.020   3.428   5.910
 1104SOL    HW2 4212   2.029   3.370   6.063
 1105SOL     OW 4213   6.351   3.549   4.910
 1105SOL    HW1 4214   6.324   3.455   4.891
 1105SOL    HW2 4215   6.311   3.578   4.998
 1106SOL     OW 4216   6.830   2.550   1.625
 1106SOL    HW1 4217   6.835   2.526   1.722
 1106SOL    HW2 4218   6.794   2.472   1.573
 1107SOL     OW 4219   0.665   0.611   6.836
 1107SOL    HW1 4220   0.591   0.678   6.828
 1107SOL    HW2 4221   0.734   0.646   6.899
 1108SOL     OW 4222   3.468   0.075   5.042
 1108SOL    HW1 4223   3.509   7.002   5.023
 1108SOL    HW2 4224   3.535   0.147   5.021
 1109SOL     OW 4225   4.562   1.311   4.058
 1109SOL    HW1 4226   4.651   1.331   4.100
 1109SOL    HW2 4227   4.498   1.384   4.078
 1110SOL     OW 4228   3.238   2.057   3.484
 1110SOL    HW1 4229   3.244   2.077   3.386
 1110SOL    HW2 4230   3.317   2.002   3.511
 1111SOL     OW 4231   4.900   5.684   6.253
 1111SOL    HW1 4232   4.946   5.608   6.299
 1111SOL    HW2 4233   4.876   5.658   6.160
 1112SOL     OW 4234   5.141   1.042   2.233
 1112SOL    HW1 4235   5.153   1.137   2.263
 1112SOL    HW2 4236   5.223   0.989   2.255
 1113SOL     OW 4237   6.348   4.793   1.456
 1113SOL    HW1 4238   6.412   4.851   1.405
 1113SOL    HW2 4239   6.280   4.756   1.394
 1114SOL     OW 4240   3.618   1.677   6.095
 1114SOL    HW1 4241   3.527   1.638   6.080
 1114SOL    HW2 4242   3.686   1.624   6.044
 1115SOL     OW 4243   4.196   3.216   5.985
 1115SOL    HW1 4244   4.135   3.272   6.043
 1115SOL    HW2 4245   4.243   3.275   5.920
 1116SOL     OW 4246   5.058   0.225   6.099
 1116SOL    HW1 4247   4.979   0.180   6.139
 1116SOL    HW2 4248   5.128   0.157   6.076
 1117SOL     OW 4249   2.558   1.840   2.396
 1117SOL    HW1 4250   2.611   1.901   2.337
 1117SOL    HW2 4251   2.566   1.870   2.491
 1118SOL     OW 4252   2.795   4.208   0.380
 1118SOL    HW1 4253   2.748   4.124   0.351
 1118SOL    HW2 4254   2.748   4.288   0.343
 1119SOL     OW 4255   4.106   4.989   1.882
 1119SOL    HW1 4256   4.028   5.033   1.838
 1119SOL    HW2 4257   4.168   4.953   1.812
 1120SOL     OW 4258   6.171   6.164   0.099
 1120SOL    HW1 4259   6.221   6.251   0.099
 1120SOL    HW2 4260   6.208   6.104   0.170
 1121SOL     OW 4261   6.193   4.353   4.558
 1121SOL    HW1 4262   6.291   4.349   4.537
 1121SOL    HW2 4263   6.155   4.261   4.552
 1122SOL     OW 4264   5.663   2.729   0.761
 1122SOL    HW1 4265   5.716   2.648   0.735
 1122SOL    HW2 4266   5.723   2.796   0.804
 1123SOL     OW 4267   5.104   1.624   3.421
 1123SOL    HW1 4268   5.120   1.678   3.504
 1123SOL    HW2 4269   5.018   1.652   3.379
 1124SOL     OW 4270   0.060   3.169   5.155
 1124SOL    HW1 4271   0.078   3.258   5.197
 1124SOL    HW2 4272   0.034   3.183   5.059
 1125SOL     OW 4273   2.355   2.137   4.057
 1125SOL    HW1 4274   2.255   2.137   4.051
 1125SOL    HW2 4275   2.394   2.125   3.965
 1126SOL     OW 4276   5.369   4.953   0.341
 1126SOL    HW1 4277   5.461   4.916   0.350
 1126SOL    HW2 4278   5.373   5.044   0.300
 1127SOL     OW 4279   5.337   5.293   4.945
 1127SOL    HW1 4280   5.405   5.237   4.897
 1127SOL    HW2 4281   5.245   5.272   4.910
 1128SOL     OW 4282   5.638   1.909   5.407
 1128SOL    HW1 4283   5.613   1.893   5.312
 1128SOL    HW2 4284   5.617   1.828   5.461
 1129SOL     OW 4285   1.421   0.518   0.631
 1129SOL    HW1 4286   1.448   0.555   0.542
 1129SOL    HW2 4287   1.390   0.593   0.690
 1130SOL     OW 4288   2.815   4.908   0.600
 1130SOL    HW1 4289   2.738   4.911   0.663
 1130SOL    HW2 4290   2.829   4.814   0.568
 1131SOL     OW 4291   0.867   5.704   5.551
 1131SOL    HW1 4292   0.948   5.665   5.506
 1131SOL    HW2 4293   0.889   5.725   5.646
 1132SOL     OW 4294   5.305   6.711   2.183
 1132SOL    HW1 4295   5.333   6.652   2.259
 1132SOL    HW2 4296   5.213   6.686   2.153
 1133SOL     OW 4297   0.870   1.008   0.747
 1133SOL    HW1 4298   0.775   1.027   0.724
 1133SOL    HW2 4299   0.927   1.087   0.725
 1134SOL     OW 4300   5.385   0.536   2.258
 1134SOL    HW1 4301   5.413   0.620   2.304
 1134SOL    HW2 4302   5.325   0.558   2.181
 1135SOL     OW 4303   2.427   0.283   2.981
 1135SOL    HW1 4304   2.369   0.230   2.919
 1135SOL    HW2 4305   2.434   0.377   2.947
 1136SOL     OW 4306   4.379   4.718   2.793
 1136SOL    HW1 4307   4.336   4.718   2.703
 1136SOL    HW2 4308   4.348   4.797   2.845
 1137SOL     OW 4309   0.892   6.946   6.862
 1137SOL    HW1 4310   0.874   0.016   6.909
 1137SOL    HW2 4311   0.834   6.874   6.901
 1138SOL     OW 4312   7.008   0.654   5.813
 1138SOL    HW1 4313   6.977   0.710   5.736
 1138SOL    HW2 4314   7.008   0.558   5.786
 1139SOL     OW 4315   3.294   4.876   2.441
 1139SOL    HW1 4316   3.334   4.868   2.533
 1139SOL    HW2 4317   3.363   4.849   2.373
 1140SOL     OW 4318   3.325   0.734   1.785
 1140SOL    HW1 4319   3.227   0.752   1.795
 1140SOL    HW2 4320   3.358   0.682   1.864
 1141SOL     OW 4321   0.672   6.563   6.956
 1141SOL    HW1 4322   0.672   6.473   7.001
 1141SOL    HW2 4323   0.589   6.613   6.983
 1142SOL     OW 4324   3.243   6.701   4.597
 1142SOL    HW1 4325   3.234   6.606   4.565
 1142SOL    HW2 4326   3.340   6.726   4.600
 1143SOL     OW 4327   1.681   2.900   3.296
 1143SOL    HW1 4328   1.670   2.802   3.280
 1143SOL    HW2 4329   1.762   2.933   3.247
 1144SOL     OW 4330   6.372   4.792   4.290
 1144SOL    HW1 4331   6.327   4.876   4.322
 1144SOL    HW2 4332   6.302   4.724   4.267
 1145SOL     OW 4333   6.475   4.110   1.697
 1145SOL    HW1 4334   6.552   4.047   1.694
 1145SOL    HW2 4335   6.432   4.108   1.787
 1146SOL     OW 4336   0.058   0.553   2.855
 1146SOL    HW1 4337   7.014   0.532   2.933
 1146SOL    HW2 4338   0.144   0.502   2.865
 1147SOL     OW 4339   2.799   5.523   1.124
 1147SOL    HW1 4340   2.867   5.591   1.097
 1147SOL    HW2 4341   2.813   5.497   1.219
 1148SOL     OW 4342   4.311   5.786   0.450
 1148SOL    HW1 4343   4.335   5.694   0.421
 1148SOL    HW2 4344   4.222   5.784   0.497
 1149SOL     OW 4345   6.373   3.600   2.820
 1149SOL    HW1 4346   6.380   3.700   2.818
 1149SOL    HW2 4347   6.407   3.563   2.733
 1150SOL     OW 4348   1.801   3.329   0.347
 1150SOL    HW1 4349   1.747   3.253   0.310
 1150SOL    HW2 4350   1.816   3.314   0.445
 1151SOL     OW 4351   4.592   4.394   0.031
 1151SOL    HW1 4352   4.575   4.313   6.992
 1151SOL    HW2 4353   4.666   4.448   7.006
 1152SOL     OW 4354   5.462   4.999   6.626
 1152SOL    HW1 4355   5.527   5.010   6.551
 1152SOL    HW2 4356   5.376   4.963   6.591
 1153SOL     OW 4357   1.226   0.253   1.867
 1153SOL    HW1 4358   1.269   0.174   1.911
 1153SOL    HW2 4359   1.210   0.232   1.771
 1154SOL     OW 4360   6.897   4.445   1.270
 1154SOL    HW1 4361   6.991   4.413   1.266
 1154SOL    HW2 4362   6.869   4.453   1.365
 1155SOL     OW 4363   2.375   4.976   6.114
 1155SOL    HW1 4364   2.293   4.919   6.129
 1155SOL    HW2 4365   2.347   5.068   6.089
 1156SOL     OW 4366   4.463   1.685   4.773
 1156SOL    HW1 4367   4.447   1.627   4.853
 1156SOL    HW2 4368   4.376   1.701   4.727
 1157SOL     OW 4369   5.274   2.016   6.098
 1157SOL    HW1 4370   5.260   1.947   6.027
 1157SOL    HW2 4371   5.260   2.107   6.059
 1158SOL     OW 4372   0.167   5.156   5.613
 1158SOL    HW1 4373   0.248   5.134   5.668
 1158SOL    HW2 4374   0.124   5.239   5.648
 1159SOL     OW 4375   6.571   6.455   3.791
 1159SOL    HW1 4376   6.535   6.544   3.820
 1159SOL    HW2 4377   6.568   6.392   3.868
 1160SOL     OW 4378   5.180   4.754   1.040
 1160SOL    HW1 4379   5.255   4.707   0.994
 1160SOL    HW2 4380   5.158   4.839   0.992
 1161SOL     OW 4381   5.931   6.996   5.791
 1161SOL    HW1 4382   5.913   6.984   5.889
 1161SOL    HW2 4383   5.903   6.913   5.742
 1162SOL     OW 4384   3.430   2.521   6.847
 1162SOL    HW1 4385   3.360   2.471   6.795
 1162SOL    HW2 4386   3.387   2.598   6.894
 1163SOL     OW 4387   6.886   4.102   1.604
 1163SOL    HW1 4388   6.985   4.106   1.589
 1163SOL    HW2 4389   6.841   4.065   1.523
 1164SOL     OW 4390   6.116   3.291   4.696
 1164SOL    HW1 4391   6.179   3.273   4.621
 1164SOL    HW2 4392   6.169   3.308   4.780
 1165SOL     OW 4393   3.711   4.895   3.667
 1165SOL    HW1 4394   3.798   4.880   3.715
 1165SOL    HW2 4395   3.643   4.930   3.731
 1166SOL     OW 4396   3.865   0.135   0.028
 1166SOL    HW1 4397   3.828   0.174   6.959
 1166SOL    HW2 4398   3.843   0.038   0.032
 1167SOL     OW 4399   4.565   6.247   6.891
 1167SOL    HW1 4400   4.548   6.292   6.803
 1167SOL    HW2 4401   4.664   6.243   6.907
 1168SOL     OW 4402   4.844   2.513   2.773
 1168SOL    HW1 4403   4.857   2.554   2.863
 1168SOL    HW2 4404   4.867   2.579   2.702
 1169SOL     OW 4405   4.516   2.698   6.043
 1169SOL    HW1 4406   4.487   2.603   6.038
 1169SOL    HW2 4407   4.471   2.750   5.971
 1170SOL     OW 4408   5.126   0.250   2.980
 1170SOL    HW1 4409   5.200   0.184   2.997
 1170SOL    HW2 4410   5.156   0.316   2.911
 1171SOL     OW 4411   2.321   6.315   7.011
 1171SOL    HW1 4412   2.371   6.382   6.956
 1171SOL    HW2 4413   2.244   6.361   0.040
 1172SOL     OW 4414   3.295   4.324   1.654
 1172SOL    HW1 4415   3.200   4.355   1.648
 1172SOL    HW2 4416   3.298   4.224   1.650
 1173SOL     OW 4417   2.767   0.805   0.244
 1173SOL    HW1 4418   2.786   0.760   0.331
 1173SOL    HW2 4419   2.842   0.867   0.221
 1174SOL     OW 4420   2.918   4.942   1.401
 1174SOL    HW1 4421   2.851   4.982   1.338
 1174SOL    HW2 4422   2.886   4.954   1.495
 1175SOL     OW 4423   4.205   4.402   6.778
 1175SOL    HW1 4424   4.250   4.324   6.735
 1175SOL    HW2 4425   4.166   4.461   6.707
 1176SOL     OW 4426   5.919   3.950   6.643
 1176SOL    HW1 4427   6.008   3.904   6.635
 1176SOL    HW2 4428   5.851   3.899   6.590
 1177SOL     OW 4429   0.474   3.393   5.203
 1177SOL    HW1 4430   0.490   3.374   5.300
 1177SOL    HW2 4431   0.375   3.396   5.186
 1178SOL     OW 4432   3.446   4.552   0.685
 1178SOL    HW1 4433   3.412   4.615   0.755
 1178SOL    HW2 4434   3.420   4.586   0.595
 1179SOL     OW 4435   2.297   5.891   0.913
 1179SOL    HW1 4436   2.242   5.816   0.875
 1179SOL    HW2 4437   2.236   5.961   0.950
 1180SOL     OW 4438   2.429   6.266   4.637
 1180SOL    HW1 4439   2.527   6.247   4.636
 1180SOL    HW2 4440   2.378   6.180   4.640
 1181SOL     OW 4441   6.694   4.290   6.553
 1181SOL    HW1 4442   6.757   4.232   6.605
 1181SOL    HW2 4443   6.611   4.238   6.532
 1182SOL     OW 4444   3.656   5.294   2.991
 1182SOL    HW1 4445   3.595   5.299   3.071
 1182SOL    HW2 4446   3.693   5.385   2.972
 1183SOL     OW 4447   3.042   5.181   1.574
 1183SOL    HW1 4448   2.947   5.162   1.602
 1183SOL    HW2 4449   3.052   5.161   1.477
 1184SOL     OW 4450   6.788   1.181   5.094
 1184SOL    HW1 4451   6.867   1.203   5.036
 1184SOL    HW2 4452   6.818   1.126   5.172
 1185SOL     OW 4453   1.126   0.798   0.175
 1185SOL    HW1 4454   1.134   0.803   0.075
 1185SOL    HW2 4455   1.066   0.871   0.207
 1186SOL     OW 4456   5.218   6.057   5.204
 1186SOL    HW1 4457   5.211   5.979   5.266
 1186SOL    HW2 4458   5.133   6.109   5.204
 1187SOL     OW 4459   5.241   6.976   5.083
 1187SOL    HW1 4460   5.300   6.977   5.164
 1187SOL    HW2 4461   5.178   6.898   5.088
 1188SOL     OW 4462   2.613   5.429   6.297
 1188SOL    HW1 4463   2.626   5.344   6.247
 1188SOL    HW2 4464   2.609   5.505   6.233
 1189SOL     OW 4465   6.428   1.336   1.546
 1189SOL    HW1 4466   6.524   1.309   1.556
 1189SOL    HW2 4467   6.385   1.280   1.475
 1190SOL     OW 4468   2.801   5.605   2.780
 1190SOL    HW1 4469   2.799   5.579   2.877
 1190SOL    HW2 4470   2.830   5.700   2.772
 1191SOL     OW 4471   3.670   6.279   4.221
 1191SOL    HW1 4472   3.674   6.356   4.157
 1191SOL    HW2 4473   3.728   6.205   4.186
 1192SOL     OW 4474   5.425   5.460   3.556
 1192SOL    HW1 4475   5.346   5.521   3.543
 1192SOL    HW2 4476   5.428   5.393   3.481
 1193SOL     OW 4477   6.867   1.686   5.508
 1193SOL    HW1 4478   6.917   1.625   5.570
 1193SOL    HW2 4479   6.861   1.777   5.548
 1194SOL     OW 4480   6.583   0.906   1.672
 1194SOL    HW1 4481   6.601   1.003   1.688
 1194SOL    HW2 4482   6.643   0.852   1.732
 1195SOL     OW 4483   0.356   3.285   0.511
 1195SOL    HW1 4484   0.381   3.373   0.551
 1195SOL    HW2 4485   0.329   3.222   0.584
 1196SOL     OW 4486   6.700   4.687   3.435
 1196SOL    HW1 4487   6.649   4.601   3.434
 1196SOL    HW2 4488   6.783   4.676   3.492
 1197SOL     OW 4489   4.756   6.259   3.808
 1197SOL    HW1 4490   4.721   6.322   3.877
 1197SOL    HW2 4491   4.820   6.307   3.748
 1198SOL     OW 4492   1.693   3.672   1.975
 1198SOL    HW1 4493   1.631   3.631   2.042
 1198SOL    HW2 4494   1.639   3.716   1.903
 1199SOL     OW 4495   3.502   4.112   2.896
 1199SOL    HW1 4496   3.577   4.083   2.837
 1199SOL    HW2 4497   3.416   4.109   2.845
 1200SOL     OW 4498   3.208   3.922   4.618
 1200SOL    HW1 4499   3.220   3.993   4.688
 1200SOL    HW2 4500   3.114   3.891   4.617
 1201SOL     OW 4501   0.003   1.475   4.164
 1201SOL    HW1 4502   0.101   1.487   4.150
 1201SOL    HW2 4503   6.973   1.467   4.076
 1202SOL     OW 4504   0.480   6.014   5.786
 1202SOL    HW1 4505   0.475   6.093   5.847
 1202SOL    HW2 4506   0.548   6.031   5.715
 1203SOL     OW 4507   0.974   5.601   0.712
 1203SOL    HW1 4508   1.009   5.568   0.624
 1203SOL    HW2 4509   0.875   5.614   0.705
 1204SOL     OW 4510   4.327   1.333   1.504
 1204SOL    HW1 4511   4.247   1.273   1.507
 1204SOL    HW2 4512   4.300   1.424   1.474
 1205SOL     OW 4513   3.371   3.838   0.507
 1205SOL    HW1 4514   3.466   3.842   0.476
 1205SOL    HW2 4515   3.311   3.827   0.428
 1206SOL     OW 4516   1.889   2.899   5.426
 1206SOL    HW1 4517   1.869   2.915   5.330
 1206SOL    HW2 4518   1.909   2.986   5.471
 1207SOL     OW 4519   1.063   0.285   0.883
 1207SOL    HW1 4520   1.034   0.244   0.797
 1207SOL    HW2 4521   0.996   0.264   0.954
 1208SOL     OW 4522   3.167   3.156   1.578
 1208SOL    HW1 4523   3.219   3.134   1.661
 1208SOL    HW2 4524   3.184   3.251   1.552
 1209SOL     OW 4525   5.252   0.712   4.110
 1209SOL    HW1 4526   5.351   0.700   4.111
 1209SOL    HW2 4527   5.208   0.632   4.152
 1210SOL     OW 4528   3.982   6.467   3.785
 1210SOL    HW1 4529   3.883   6.455   3.792
 1210SOL    HW2 4530   4.020   6.397   3.724
 1211SOL     OW 4531   1.332   2.811   2.949
 1211SOL    HW1 4532   1.305   2.797   2.853
 1211SOL    HW2 4533   1.431   2.822   2.954
 1212SOL     OW 4534   6.172   0.276   6.029
 1212SOL    HW1 4535   6.140   0.220   6.105
 1212SOL    HW2 4536   6.095   0.299   5.970
 1213SOL     OW 4537   5.870   2.595   1.724
 1213SOL    HW1 4538   5.827   2.667   1.669
 1213SOL    HW2 4539   5.820   2.585   1.811
 1214SOL     OW 4540   1.097   2.774   0.336
 1214SOL    HW1 4541   1.119   2.768   0.238
 1214SOL    HW2 4542   1.068   2.685   0.369
 1215SOL     OW 4543   0.766   4.864   3.135
 1215SOL    HW1 4544   0.797   4.959   3.145
 1215SOL    HW2 4545   0.696   4.844   3.204
 1216SOL     OW 4546   5.355   1.383   0.353
 1216SOL    HW1 4547   5.265   1.344   0.332
 1216SOL    HW2 4548   5.350   1.436   0.437
 1217SOL     OW 4549   2.825   4.651   0.902
 1217SOL    HW1 4550   2.820   4.750   0.919
 1217SOL    HW2 4551   2.917   4.619   0.925
 1218SOL     OW 4552   1.451   3.182   4.984
 1218SOL    HW1 4553   1.526   3.143   4.930
 1218SOL    HW2 4554   1.461   3.152   5.079
 1219SOL     OW 4555   6.238   5.770   1.698
 1219SOL    HW1 4556   6.286   5.797   1.614
 1219SOL    HW2 4557   6.303   5.766   1.774
 1220SOL     OW 4558   0.830   4.394   2.262
 1220SOL    HW1 4559   0.802   4.375   2.357
 1220SOL    HW2 4560   0.911   4.341   2.240
 1221SOL     OW 4561   4.243   3.354   6.453
 1221SOL    HW1 4562   4.224   3.451   6.466
 1221SOL    HW2 4563   4.190   3.300   6.518
 1222SOL     OW 4564   6.860   1.307   6.738
 1222SOL    HW1 4565   6.944   1.297   6.793
 1222SOL    HW2 4566   6.856   1.236   6.669
 1223SOL     OW 4567   4.037   1.456   0.642
 1223SOL    HW1 4568   3.993   1.414   0.563
 1223SOL    HW2 4569   4.037   1.556   0.631
 1224SOL     OW 4570   2.990   6.034   0.165
 1224SOL    HW1 4571   3.028   6.009   0.076
 1224SOL    HW2 4572   2.890   6.039   0.158
 1225SOL     OW 4573   3.036   2.639   6.753
 1225SOL    HW1 4574   3.052   2.540   6.749
 1225SOL    HW2 4575   3.053   2.679   6.663
 1226SOL     OW 4576   3.280   6.738   1.345
 1226SOL    HW1 4577   3.181   6.738   1.360
 1226SOL    HW2 4578   3.313   6.644   1.340
 1227SOL     OW 4579   4.858   4.530   5.770
 1227SOL    HW1 4580   4.925   4.568   5.707
 1227SOL    HW2 4581   4.896   4.528   5.863
 1228SOL     OW 4582   2.549   2.374   6.172
 1228SOL    HW1 4583   2.538   2.278   6.198
 1228SOL    HW2 4584   2.617   2.381   6.099
 1229SOL     OW 4585   3.217   5.577   6.582
 1229SOL    HW1 4586   3.179   5.505   6.524
 1229SOL    HW2 4587   3.315   5.588   6.562
 1230SOL     OW 4588   4.933   6.381   2.169
 1230SOL    HW1 4589   5.023   6.377   2.126
 1230SOL    HW2 4590   4.880   6.455   2.129
 1231SOL     OW 4591   1.721   2.075   5.523
 1231SOL    HW1 4592   1.701   2.141   5.595
 1231SOL    HW2 4593   1.745   1.987   5.563
 1232SOL     OW 4594   6.986   1.698   5.278
 1232SOL    HW1 4595   6.929   1.691   5.360
 1232SOL    HW2 4596   0.063   1.666   5.299
 1233SOL     OW 4597   0.930   5.520   5.218
 1233SOL    HW1 4598   0.986   5.457   5.271
 1233SOL    HW2 4599   0.834   5.507   5.241
 1234SOL     OW 4600   6.198   3.272   6.155
 1234SOL    HW1 4601   6.115   3.257   6.101
 1234SOL    HW2 4602   6.238   3.361   6.132
 1235SOL     OW 4603   6.102   5.980   2.536
 1235SOL    HW1 4604   6.126   5.924   2.615
 1235SOL    HW2 4605   6.079   5.921   2.459
 1236SOL     OW 4606   4.458   0.671   0.155
 1236SOL    HW1 4607   4.557   0.685   0.156
 1236SOL    HW2 4608   4.437   0.579   0.122
 1237SOL     OW 4609   2.061   4.718   5.754
 1237SOL    HW1 4610   2.085   4.626   5.787
 1237SOL    HW2 4611   2.140   4.779   5.766
 1238SOL     OW 4612   1.091   1.018   6.686
 1238SOL    HW1 4613   1.131   1.095   6.736
 1238SOL    HW2 4614   1.158   0.980   6.622
 1239SOL     OW 4615   6.382   6.722   6.641
 1239SOL    HW1 4616   6.402   6.740   6.738
 1239SOL    HW2 4617   6.440   6.646   6.609
 1240SOL     OW 4618   5.284   6.032   0.668
 1240SOL    HW1 4619   5.272   6.102   0.738
 1240SOL    HW2 4620   5.200   6.026   0.612
 1241SOL     OW 4621   5.276   4.001   4.310
 1241SOL    HW1 4622   5.245   3.961   4.224
 1241SOL    HW2 4623   5.209   3.983   4.382
 1242SOL     OW 4624   0.667   3.807   1.401
 1242SOL    HW1 4625   0.726   3.727   1.405
 1242SOL    HW2 4626   0.573   3.780   1.421
 1243SOL     OW 4627   0.714   0.512   5.170
 1243SOL    HW1 4628   0.669   0.542   5.086
 1243SOL    HW2 4629   0.803   0.471   5.148
 1244SOL     OW 4630   5.921   6.549   4.185
 1244SOL    HW1 4631   5.832   6.504   4.177
 1244SOL    HW2 4632   5.935   6.608   4.106
 1245SOL     OW 4633   5.977   4.263   0.617
 1245SOL    HW1 4634   6.037   4.184   0.629
 1245SOL    HW2 4635   5.981   4.321   0.698
 1246SOL     OW 4636   2.657   0.216   1.106
 1246SOL    HW1 4637   2.742   0.214   1.158
 1246SOL    HW2 4638   2.677   0.219   1.008
 1247SOL     OW 4639   0.196   6.556   6.672
 1247SOL    HW1 4640   0.202   6.656   6.674
 1247SOL    HW2 4641   0.257   6.520   6.602
 1248SOL     OW 4642   2.131   0.236   4.998
 1248SOL    HW1 4643   2.109   0.186   4.914
 1248SOL    HW2 4644   2.088   0.190   5.075
 1249SOL     OW 4645   6.507   2.188   2.343
 1249SOL    HW1 4646   6.475   2.195   2.438
 1249SOL    HW2 4647   6.513   2.092   2.317
 1250SOL     OW 4648   6.072   5.635   3.765
 1250SOL    HW1 4649   6.115   5.618   3.676
 1250SOL    HW2 4650   6.101   5.724   3.799
 1251SOL     OW 4651   2.600   0.909   3.380
 1251SOL    HW1 4652   2.578   0.841   3.449
 1251SOL    HW2 4653   2.672   0.969   3.415
 1252SOL     OW 4654   4.800   3.499   6.070
 1252SOL    HW1 4655   4.726   3.436   6.095
 1252SOL    HW2 4656   4.883   3.448   6.053
 1253SOL     OW 4657   2.847   5.999   2.025
 1253SOL    HW1 4658   2.868   6.002   1.927
 1253SOL    HW2 4659   2.771   5.936   2.041
 1254SOL     OW 4660   1.030   2.709   2.551
 1254SOL    HW1 4661   1.007   2.718   2.648
 1254SOL    HW2 4662   0.992   2.623   2.516
 1255SOL     OW 4663   5.465   1.354   6.427
 1255SOL    HW1 4664   5.430   1.421   6.362
 1255SOL    HW2 4665   5.394   1.332   6.494
 1256SOL     OW 4666   6.739   6.303   3.397
 1256SOL    HW1 4667   6.667   6.258   3.344
 1256SOL    HW2 4668   6.808   6.236   3.425
 1257SOL     OW 4669   6.631   5.937   4.809
 1257SOL    HW1 4670   6.703   5.869   4.826
 1257SOL    HW2 4671   6.550   5.914   4.863
 1258SOL     OW 4672   1.493   4.736   3.334
 1258SOL    HW1 4673   1.490   4.835   3.343
 1258SOL    HW2 4674   1.456   4.710   3.244
 1259SOL     OW 4675   3.670   0.589   4.039
 1259SOL    HW1 4676   3.622   0.517   3.989
 1259SOL    HW2 4677   3.629   0.603   4.128
 1260SOL     OW 4678   2.226   2.254   0.198
 1260SOL    HW1 4679   2.183   2.172   0.160
 1260SOL    HW2 4680   2.200   2.265   0.293
 1261SOL     OW 4681   0.181   6.019   6.687
 1261SOL    HW1 4682   0.173   6.081   6.609
 1261SOL    HW2 4683   0.268   5.970   6.681
 1262SOL     OW 4684   5.623   4.475   1.156
 1262SOL    HW1 4685   5.569   4.529   1.219
 1262SOL    HW2 4686   5.588   4.381   1.153
 1263SOL     OW 4687   6.740   2.432   1.883
 1263SOL    HW1 4688   6.731   2.480   1.970
 1263SOL    HW2 4689   6.651   2.430   1.837
 1264SOL     OW 4690   0.597   4.265   1.337
 1264SOL    HW1 4691   0.585   4.355   1.377
 1264SOL    HW2 4692   0.674   4.218   1.381
 1265SOL     OW 4693   5.516   5.030   4.520
 1265SOL    HW1 4694   5.465   5.076   4.447
 1265SOL    HW2 4695   5.523   4.932   4.498
 1266SOL     OW 4696   0.337   1.605   4.114
 1266SOL    HW1 4697   0.406   1.622   4.044
 1266SOL    HW2 4698   0.378   1.613   4.204
 1267SOL     OW 4699   4.455   6.873   1.193
 1267SOL    HW1 4700   4.427   6.778   1.208
 1267SOL    HW2 4701   4.453   6.893   1.095
 1268SOL     OW 4702   2.858   2.320   0.238
 1268SOL    HW1 4703   2.794   2.391   0.209
 1268SOL    HW2 4704   2.868   2.252   0.165
 1269SOL     OW 4705   5.550   4.706   5.113
 1269SOL    HW1 4706   5.561   4.630   5.050
 1269SOL    HW2 4707   5.455   4.710   5.145
 1270SOL     OW 4708   1.247   3.037   3.558
 1270SOL    HW1 4709   1.151   3.064   3.552
 1270SOL    HW2 4710   1.303   3.116   3.583
 1271SOL     OW 4711   2.428   2.198   3.794
 1271SOL    HW1 4712   2.485   2.259   3.847
 1271SOL    HW2 4713   2.359   2.251   3.743
 1272SOL     OW 4714   5.811   4.570   0.085
 1272SOL    HW1 4715   5.820   4.597   7.005
 1272SOL    HW2 4716   5.803   4.471   0.092
 1273SOL     OW 4717   0.500   2.959   0.022
 1273SOL    HW1 4718   0.553   2.883   0.061
 1273SOL    HW2 4719   0.557   3.041   0.020
 1274SOL     OW 4720   6.916   4.645   1.703
 1274SOL    HW1 4721   6.958   4.701   1.632
 1274SOL    HW2 4722   6.857   4.703   1.761
 1275SOL     OW 4723   3.674   1.734   4.051
 1275SOL    HW1 4724   3.674   1.799   3.975
 1275SOL    HW2 4725   3.660   1.784   4.137
 1276SOL     OW 4726   6.661   6.131   5.061
 1276SOL    HW1 4727   6.668   6.032   5.048
 1276SOL    HW2 4728   6.571   6.163   5.030
 1277SOL     OW 4729   1.139   5.540   5.766
 1277SOL    HW1 4730   1.143   5.584   5.676
 1277SOL    HW2 4731   1.204   5.584   5.828
 1278SOL     OW 4732   0.931   6.860   4.808
 1278SOL    HW1 4733   0.938   6.825   4.901
 1278SOL    HW2 4734   0.902   6.787   4.747
 1279SOL     OW 4735   1.944   5.320   0.359
 1279SOL    HW1 4736   1.946   5.277   0.269
 1279SOL    HW2 4737   2.038   5.336   0.390
 1280SOL     OW 4738   3.977   6.437   4.356
 1280SOL    HW1 4739   3.968   6.444   4.256
 1280SOL    HW2 4740   3.965   6.342   4.384
 1281SOL     OW 4741   2.161   6.086   3.328
 1281SOL    HW1 4742   2.239   6.038   3.367
 1281SOL    HW2 4743   2.087   6.090   3.395
 1282SOL     OW 4744   6.610   2.661   0.284
 1282SOL    HW1 4745   6.610   2.759   0.267
 1282SOL    HW2 4746   6.647   2.613   0.204
 1283SOL     OW 4747   0.246   3.455   5.583
 1283SOL    HW1 4748   0.327   3.456   5.525
 1283SOL    HW2 4749   0.270   3.420   5.673
 1284SOL     OW 4750   5.166   2.361   1.315
 1284SOL    HW1 4751   5.143   2.456   1.333
 1284SOL    HW2 4752   5.106   2.301   1.368
 1285SOL     OW 4753   4.306   2.167   5.984
 1285SOL    HW1 4754   4.284   2.086   5.929
 1285SOL    HW2 4755   4.398   2.156   6.023
 1286SOL     OW 4756   4.273   3.829   1.626
 1286SOL    HW1 4757   4.203   3.889   1.664
 1286SOL    HW2 4758   4.255   3.735   1.654
 1287SOL     OW 4759   5.960   5.009   5.329
 1287SOL    HW1 4760   6.040   5.069   5.335
 1287SOL    HW2 4761   5.968   4.951   5.248
 1288SOL     OW 4762   3.792   3.098   6.890
 1288SOL    HW1 4763   3.803   3.154   6.972
 1288SOL    HW2 4764   3.810   3.002   6.912
 1289SOL     OW 4765   6.361   6.917   1.306
 1289SOL    HW1 4766   6.265   6.896   1.323
 1289SOL    HW2 4767   6.371   6.949   1.211
 1290SOL     OW 4768   1.013   6.538   0.089
 1290SOL    HW1 4769   1.043   6.474   0.018
 1290SOL    HW2 4770   0.916   6.523   0.109
 1291SOL     OW 4771   0.224   4.102   4.533
 1291SOL    HW1 4772   0.145   4.110   4.473
 1291SOL    HW2 4773   0.300   4.154   4.494
 1292SOL     OW 4774   0.555   5.845   2.494
 1292SOL    HW1 4775   0.539   5.866   2.591
 1292SOL    HW2 4776   0.604   5.922   2.452
 1293SOL     OW 4777   0.859   1.878   6.936
 1293SOL    HW1 4778   0.894   1.785   6.926
 1293SOL    HW2 4779   0.927   1.943   6.902
 1294SOL     OW 4780   0.644   3.789   6.385
 1294SOL    HW1 4781   0.724   3.772   6.443
 1294SOL    HW2 4782   0.571   3.830   6.439
 1295SOL     OW 4783   0.510   3.610   1.584
 1295SOL    HW1 4784   0.587   3.602   1.647
 1295SOL    HW2 4785   0.437   3.548   1.613
 1296SOL     OW 4786   4.290   6.557   5.799
 1296SOL    HW1 4787   4.212   6.608   5.761
 1296SOL    HW2 4788   4.256   6.490   5.865
 1297SOL     OW 4789   0.058   0.559   1.322
 1297SOL    HW1 4790   0.051   0.655   1.349
 1297SOL    HW2 4791   0.005   0.503   1.386
 1298SOL     OW 4792   5.472   5.314   3.328
 1298SOL    HW1 4793   5.569   5.293   3.332
 1298SOL    HW2 4794   5.420   5.240   3.370
 1299SOL     OW 4795   1.943   3.217   3.056
 1299SOL    HW1 4796   2.026   3.221   3.001
 1299SOL    HW2 4797   1.863   3.233   2.998
 1300SOL     OW 4798   2.097   3.267   0.980
 1300SOL    HW1 4799   2.004   3.256   1.016
 1300SOL    HW2 4800   2.149   3.327   1.040
 1301SOL     OW 4801   0.442   0.230   1.105
 1301SOL    HW1 4802   0.528   0.268   1.137
 1301SOL    HW2 4803   0.410   0.161   1.170
 1302SOL     OW 4804   4.195   0.650   5.802
 1302SOL    HW1 4805   4.224   0.658   5.897
 1302SOL    HW2 4806   4.219   0.559   5.767
 1303SOL     OW 4807   3.912   2.308   1.462
 1303SOL    HW1 4808   3.854   2.354   1.529
 1303SOL    HW2 4809   3.961   2.232   1.506
 1304SOL     OW 4810   2.340   0.596   6.990
 1304SOL    HW1 4811   2.342   0.568   6.894
 1304SOL    HW2 4812   2.283   0.678   6.999
 1305SOL     OW 4813   5.486   3.533   1.239
 1305SOL    HW1 4814   5.544   3.597   1.289
 1305SOL    HW2 4815   5.484   3.445   1.287
 1306SOL     OW 4816   1.174   5.423   3.918
 1306SOL    HW1 4817   1.194   5.517   3.945
 1306SOL    HW2 4818   1.117   5.424   3.836
 1307SOL     OW 4819   1.584   4.021   3.941
 1307SOL    HW1 4820   1.671   4.061   3.971
 1307SOL    HW2 4821   1.513   4.042   4.008
 1308SOL     OW 4822   6.495   0.157   5.265
 1308SOL    HW1 4823   6.406   0.123   5.297
 1308SOL    HW2 4824   6.511   0.248   5.303
 1309SOL     OW 4825   5.691   4.653   5.499
 1309SOL    HW1 4826   5.623   4.717   5.462
 1309SOL    HW2 4827   5.756   4.704   5.556
 1310SOL     OW 4828   6.475   4.313   4.103
 1310SOL    HW1 4829   6.509   4.302   4.009
 1310SOL    HW2 4830   6.528   4.385   4.148
 1311SOL     OW 4831   0.299   5.966   5.530
 1311SOL    HW1 4832   0.335   5.883   5.574
 1311SOL    HW2 4833   0.302   6.042   5.594
 1312SOL     OW 4834   0.903   6.611   6.805
 1312SOL    HW1 4835   0.888   6.610   6.706
 1312SOL    HW2 4836   0.816   6.603   6.852
 1313SOL     OW 4837   0.489   4.971   2.964
 1313SOL    HW1 4838   0.487   4.953   3.062
 1313SOL    HW2 4839   0.551   5.047   2.945
 1314SOL     OW 4840   4.484   1.208   5.518
 1314SOL    HW1 4841   4.504   1.237   5.611
 1314SOL    HW2 4842   4.387   1.225   5.497
 1315SOL     OW 4843   0.466   1.590   2.751
 1315SOL    HW1 4844   0.368   1.590   2.732
 1315SOL    HW2 4845   0.487   1.520   2.820
 1316SOL     OW 4846   2.941   6.509   6.134
 1316SOL    HW1 4847   2.888   6.433   6.098
 1316SOL    HW2 4848   2.932   6.588   6.074
 1317SOL     OW 4849   1.913   4.278   5.876
 1317SOL    HW1 4850   1.933   4.361   5.928
 1317SOL    HW2 4851   1.996   4.247   5.829
 1318SOL     OW 4852   0.793   2.021   0.937
 1318SOL    HW1 4853   0.887   2.053   0.948
 1318SOL    HW2 4854   0.777   1.996   0.841
 1319SOL     OW 4855   6.595   6.440   0.033
 1319SOL    HW1 4856   6.684   6.417   7.010
 1319SOL    HW2 4857   6.605   6.518   0.095
 1320SOL     OW 4858   4.053   4.653   6.936
 1320SOL    HW1 4859   4.015   4.590   7.003
 1320SOL    HW2 4860   4.024   4.626   6.845
 1321SOL     OW 4861   5.735   2.210   6.315
 1321SOL    HW1 4862   5.679   2.127   6.310
 1321SOL    HW2 4863   5.806   2.207   6.245
 1322SOL     OW 4864   3.544   1.151   3.453
 1322SOL    HW1 4865   3.558   1.218   3.379
 1322SOL    HW2 4866   3.479   1.188   3.519
 1323SOL     OW 4867   4.488   0.179   6.240
 1323SOL    HW1 4868   4.464   0.160   6.145
 1323SOL    HW2 4869   4.477   0.277   6.258
 1324SOL     OW 4870   0.629   3.808   6.792
 1324SOL    HW1 4871   0.555   3.741   6.788
 1324SOL    HW2 4872   0.681   3.795   6.876
 1325SOL     OW 4873   2.456   6.994   3.598
 1325SOL    HW1 4874   2.395   0.033   3.655
 1325SOL    HW2 4875   2.549   7.000   3.634
 1326SOL     OW 4876   4.824   3.569   5.634
 1326SOL    HW1 4877   4.766   3.627   5.577
 1326SOL    HW2 4878   4.883   3.627   5.690
 1327SOL     OW 4879   0.926   6.006   1.716
 1327SOL    HW1 4880   1.001   6.070   1.701
 1327SOL    HW2 4881   0.949   5.918   1.675
 1328SOL     OW 4882   1.958   3.199   1.480
 1328SOL    HW1 4883   2.025   3.271   1.465
 1328SOL    HW2 4884   1.870   3.226   1.441
 1329SOL     OW 4885   0.860   2.348   2.069
 1329SOL    HW1 4886   0.846   2.283   2.144
 1329SOL    HW2 4887   0.796   2.327   1.995
 1330SOL     OW 4888   0.794   0.761   2.213
 1330SOL    HW1 4889   0.799   0.830   2.286
 1330SOL    HW2 4890   0.854   0.788   2.138
 1331SOL     OW 4891   4.922   3.254   2.792
 1331SOL    HW1 4892   4.887   3.187   2.857
 1331SOL    HW2 4893   4.957   3.207   2.711
 1332SOL     OW 4894   2.704   7.006   6.836
 1332SOL    HW1 4895   2.659   0.079   6.844
 1332SOL    HW2 4896   2.741   6.995   6.744
 1333SOL     OW 4897   3.244   3.130   4.275
 1333SOL    HW1 4898   3.157   3.151   4.230
 1333SOL    HW2 4899   3.270   3.206   4.335
 1334SOL     OW 4900   5.901   1.666   4.060
 1334SOL    HW1 4901   5.941   1.577   4.040
 1334SOL    HW2 4902   5.841   1.694   3.984
 1335SOL     OW 4903   2.241   1.782   2.439
 1335SOL    HW1 4904   2.226   1.856   2.504
 1335SOL    HW2 4905   2.153   1.752   2.401
 1336SOL     OW 4906   2.165   2.465   5.160
 1336SOL    HW1 4907   2.180   2.521   5.241
 1336SOL    HW2 4908   2.176   2.520   5.078
 1337SOL     OW 4909   1.762   2.176   4.505
 1337SOL    HW1 4910   1.681   2.210   4.457
 1337SOL    HW2 4911   1.782   2.083   4.473
 1338SOL     OW 4912   5.473   2.271   4.980
 1338SOL    HW1 4913   5.482   2.306   4.887
 1338SOL    HW2 4914   5.563   2.270   5.024
 1339SOL     OW 4915   6.466   2.500   6.534
 1339SOL    HW1 4916   6.412   2.417   6.517
 1339SOL    HW2 4917   6.416   2.579   6.499
 1340SOL     OW 4918   6.141   2.220   2.987
 1340SOL    HW1 4919   6.147   2.217   2.887
 1340SOL    HW2 4920   6.045   2.219   3.014
 1341SOL     OW 4921   5.341   6.656   6.416
 1341SOL    HW1 4922   5.291   6.712   6.482
 1341SOL    HW2 4923   5.438   6.656   6.438
 1342SOL     OW 4924   3.030   5.919   5.857
 1342SOL    HW1 4925   3.006   5.957   5.946
 1342SOL    HW2 4926   3.128   5.900   5.853
 1343SOL     OW 4927   5.423   5.464   2.258
 1343SOL    HW1 4928   5.338   5.414   2.277
 1343SOL    HW2 4929   5.401   5.557   2.229
 1344SOL     OW 4930   6.999   5.807   4.754
 1344SOL    HW1 4931   0.006   5.899   4.786
 1344SOL    HW2 4932   6.967   5.812   4.660
 1345SOL     OW 4933   1.157   6.874   3.303
 1345SOL    HW1 4934   1.208   6.797   3.343
 1345SOL    HW2 4935   1.187   6.959   3.345
 1346SOL     OW 4936   1.037   5.053   4.712
 1346SOL    HW1 4937   0.984   5.062   4.796
 1346SOL    HW2 4938   0.975   5.052   4.633
 1347SOL     OW 4939   0.251   6.586   5.831
 1347SOL    HW1 4940   0.152   6.575   5.821
 1347SOL    HW2 4941   0.273   6.684   5.836
 1348SOL     OW 4942   5.710   5.960   3.560
 1348SOL    HW1 4943   5.744   6.053   3.550
 1348SOL    HW2 4944   5.631   5.946   3.501
 1349SOL     OW 4945   4.597   2.693   5.698
 1349SOL    HW1 4946   4.692   2.683   5.725
 1349SOL    HW2 4947   4.544   2.614   5.728
 1350SOL     OW 4948   5.601   5.275   5.458
 1350SOL    HW1 4949   5.666   5.340   5.498
 1350SOL    HW2 4950   5.519   5.324   5.428
 1351SOL     OW 4951   5.632   2.232   2.762
 1351SOL    HW1 4952   5.690   2.218   2.843
 1351SOL    HW2 4953   5.676   2.299   2.701
 1352SOL     OW 4954   0.019   6.073   2.604
 1352SOL    HW1 4955   6.955   6.127   2.630
 1352SOL    HW2 4956   7.006   5.982   2.572
 1353SOL     OW 4957   6.948   2.173   0.529
 1353SOL    HW1 4958   6.864   2.212   0.491
 1353SOL    HW2 4959   6.932   2.145   0.624
 1354SOL     OW 4960   0.922   4.382   1.694
 1354SOL    HW1 4961   0.970   4.326   1.762
 1354SOL    HW2 4962   0.989   4.433   1.640
 1355SOL     OW 4963   5.901   2.757   3.993
 1355SOL    HW1 4964   5.972   2.692   3.968
 1355SOL    HW2 4965   5.884   2.752   4.092
 1356SOL     OW 4966   3.522   3.233   2.458
 1356SOL    HW1 4967   3.510   3.319   2.409
 1356SOL    HW2 4968   3.594   3.244   2.527
 1357SOL     OW 4969   0.621   3.333   6.164
 1357SOL    HW1 4970   0.558   3.331   6.241
 1357SOL    HW2 4971   0.642   3.428   6.142
 1358SOL     OW 4972   4.207   6.930   6.343
 1358SOL    HW1 4973   4.162   6.990   6.278
 1358SOL    HW2 4974   4.305   6.926   6.323
 1359SOL     OW 4975   6.155   5.332   2.130
 1359SOL    HW1 4976   6.186   5.422   2.099
 1359SOL    HW2 4977   6.127   5.278   2.050
 1360SOL     OW 4978   2.855   3.070   0.036
 1360SOL    HW1 4979   2.818   3.134   6.985
 1360SOL    HW2 4980   2.860   3.115   0.125
 1361SOL     OW 4981   6.870   5.444   5.561
 1361SOL    HW1 4982   6.844   5.537   5.587
 1361SOL    HW2 4983   6.817   5.416   5.481
 1362SOL     OW 4984   3.327   4.148   3.477
 1362SOL    HW1 4985   3.334   4.244   3.451
 1362SOL    HW2 4986   3.289   4.096   3.401
 1363SOL     OW 4987   0.091   5.377   3.068
 1363SOL    HW1 4988   0.158   5.304   3.077
 1363SOL    HW2 4989   0.045   5.369   2.979
 1364SOL     OW 4990   6.597   3.760   1.112
 1364SOL    HW1 4991   6.526   3.819   1.150
 1364SOL    HW2 4992   6.557   3.704   1.039
 1365SOL     OW 4993   0.505   3.537   6.368
 1365SOL    HW1 4994   0.449   3.560   6.289
 1365SOL    HW2 4995   0.587   3.595   6.368
 1366SOL     OW 4996   0.902   4.858   6.913
 1366SOL    HW1 4997   0.968   4.917   6.867
 1366SOL    HW2 4998   0.809   4.889   6.891
 1367SOL     OW 4999   1.863   0.397   3.505
 1367SOL    HW1 5000   1.793   0.332   3.475
 1367SOL    HW2 5001   1.941   0.393   3.442
 1368SOL     OW 5002   5.613   0.486   3.105
 1368SOL    HW1 5003   5.550   0.555   3.070
 1368SOL    HW2 5004   5.621   0.411   3.040
 1369SOL     OW 5005   2.514   6.695   1.248
 1369SOL    HW1 5006   2.542   6.625   1.183
 1369SOL    HW2 5007   2.552   6.784   1.221
 1370SOL     OW 5008   3.746   0.838   0.836
 1370SOL    HW1 5009   3.836   0.865   0.871
 1370SOL    HW2 5010   3.711   0.907   0.774
 1371SOL     OW 5011   6.003   2.035   4.359
 1371SOL    HW1 5012   5.940   1.999   4.290
 1371SOL    HW2 5013   6.045   1.958   4.408
 1372SOL     OW 5014   1.317   3.081   0.180
 1372SOL    HW1 5015   1.233   3.091   0.128
 1372SOL    HW2 5016   1.297   3.046   0.271
 1373SOL     OW 5017   5.659   3.151   0.603
 1373SOL    HW1 5018   5.687   3.068   0.651
 1373SOL    HW2 5019   5.573   3.135   0.556
 1374SOL     OW 5020   5.305   1.721   7.006
 1374SOL    HW1 5021   5.235   1.697   0.057
 1374SOL    HW2 5022   5.273   1.797   6.950
 1375SOL     OW 5023   0.538   3.927   6.176
 1375SOL    HW1 5024   0.470   3.862   6.143
 1375SOL    HW2 5025   0.605   3.880   6.233
 1376SOL     OW 5026   4.701   4.235   4.615
 1376SOL    HW1 5027   4.693   4.148   4.566
 1376SOL    HW2 5028   4.797   4.263   4.620
 1377SOL     OW 5029   6.694   4.091   6.074
 1377SOL    HW1 5030   6.755   4.082   5.996
 1377SOL    HW2 5031   6.601   4.112   6.042
 1378SOL     OW 5032   6.113   0.919   4.682
 1378SOL    HW1 5033   6.192   0.865   4.656
 1378SOL    HW2 5034   6.128   1.015   4.659
 1379SOL     OW 5035   3.198   6.585   2.547
 1379SOL    HW1 5036   3.108   6.625   2.563
 1379SOL    HW2 5037   3.238   6.557   2.634
 1380SOL     OW 5038   0.148   0.158   2.831
 1380SOL    HW1 5039   0.204   0.195   2.905
 1380SOL    HW2 5040   0.203   0.154   2.748
 1381SOL     OW 5041   6.058   2.193   0.403
 1381SOL    HW1 5042   6.094   2.245   0.325
 1381SOL    HW2 5043   6.134   2.161   0.460
 1382SOL     OW 5044   4.455   4.739   0.599
 1382SOL    HW1 5045   4.391   4.695   0.537
 1382SOL    HW2 5046   4.430   4.717   0.694
 1383SOL     OW 5047   1.135   0.298   1.449
 1383SOL    HW1 5048   1.225   0.324   1.413
 1383SOL    HW2 5049   1.148   0.244   1.532
 1384SOL     OW 5050   4.100   0.517   2.286
 1384SOL    HW1 5051   4.145   0.435   2.322
 1384SOL    HW2 5052   4.100   0.513   2.186
 1385SOL     OW 5053   1.033   3.459   3.656
 1385SOL    HW1 5054   0.993   3.389   3.715
 1385SOL    HW2 5055   0.962   3.501   3.601
 1386SOL     OW 5056   2.626   1.149   4.746
 1386SOL    HW1 5057   2.712   1.171   4.701
 1386SOL    HW2 5058   2.640   1.072   4.808
 1387SOL     OW 5059   4.051   6.497   2.555
 1387SOL    HW1 5060   4.036   6.403   2.525
 1387SOL    HW2 5061   4.147   6.523   2.538
 1388SOL     OW 5062   0.112   6.663   3.343
 1388SOL    HW1 5063   0.176   6.638   3.416
 1388SOL    HW2 5064   0.148   6.632   3.255
 1389SOL     OW 5065   0.402   0.932   3.990
 1389SOL    HW1 5066   0.433   1.000   4.057
 1389SOL    HW2 5067   0.336   0.975   3.928
 1390SOL     OW 5068   4.866   2.393   6.233
 1390SOL    HW1 5069   4.959   2.354   6.234
 1390SOL    HW2 5070   4.847   2.436   6.321
 1391SOL     OW 5071   6.487   0.752   5.018
 1391SOL    HW1 5072   6.547   0.831   5.030
 1391SOL    HW2 5073   6.393   0.776   5.042
 1392SOL     OW 5074   5.379   6.081   6.440
 1392SOL    HW1 5075   5.386   6.055   6.344
 1392SOL    HW2 5076   5.417   6.173   6.452
 1393SOL     OW 5077   6.290   3.634   6.226
 1393SOL    HW1 5078   6.308   3.580   6.308
 1393SOL    HW2 5079   6.376   3.658   6.182
 1394SOL     OW 5080   4.343   6.463   3.731
 1394SOL    HW1 5081   4.298   6.375   3.715
 1394SOL    HW2 5082   4.323   6.494   3.824
 1395SOL     OW 5083   1.309   4.161   3.738
 1395SOL    HW1 5084   1.304   4.131   3.642
 1395SOL    HW2 5085   1.382   4.229   3.748
 1396SOL     OW 5086   1.540   0.446   3.861
 1396SOL    HW1 5087   1.502   0.498   3.785
 1396SOL    HW2 5088   1.467   0.417   3.923
 1397SOL     OW 5089   0.659   6.085   4.470
 1397SOL    HW1 5090   0.641   5.992   4.499
 1397SOL    HW2 5091   0.573   6.132   4.452
 1398SOL     OW 5092   1.103   1.633   6.484
 1398SOL    HW1 5093   1.143   1.691   6.413
 1398SOL    HW2 5094   1.160   1.552   6.498
 1399SOL     OW 5095   4.089   0.305   0.085
 1399SOL    HW1 5096   4.044   0.362   0.155
 1399SOL    HW2 5097   4.022   0.243   0.045
 1400SOL     OW 5098   6.887   2.283   4.443
 1400SOL    HW1 5099   6.911   2.198   4.490
 1400SOL    HW2 5100   6.861   2.352   4.510
 1401SOL     OW 5101   6.028   6.735   4.411
 1401SOL    HW1 5102   5.956   6.769   4.471
 1401SOL    HW2 5103   5.989   6.672   4.343
 1402SOL     OW 5104   5.832   4.144   6.839
 1402SOL    HW1 5105   5.870   4.087   6.766
 1402SOL    HW2 5106   5.735   4.161   6.820
 1403SOL     OW 5107   1.858   2.063   1.263
 1403SOL    HW1 5108   1.825   2.057   1.357
 1403SOL    HW2 5109   1.948   2.108   1.262
 1404SOL     OW 5110   5.871   6.878   0.182
 1404SOL    HW1 5111   5.806   6.899   0.255
 1404SOL    HW2 5112   5.962   6.865   0.221
 1405SOL     OW 5113   2.776   3.221   0.621
 1405SOL    HW1 5114   2.746   3.152   0.555
 1405SOL    HW2 5115   2.806   3.303   0.573
 1406SOL     OW 5116   2.386   4.631   0.772
 1406SOL    HW1 5117   2.288   4.615   0.765
 1406SOL    HW2 5118   2.404   4.728   0.784
 1407SOL     OW 5119   1.873   3.876   3.183
 1407SOL    HW1 5120   1.846   3.790   3.140
 1407SOL    HW2 5121   1.800   3.908   3.243
 1408SOL     OW 5122   5.269   6.645   6.949
 1408SOL    HW1 5123   5.241   6.623   6.856
 1408SOL    HW2 5124   5.359   6.604   6.968
 1409SOL     OW 5125   0.195   0.929   4.803
 1409SOL    HW1 5126   0.224   0.919   4.708
 1409SOL    HW2 5127   0.104   0.889   4.814
 1410SOL     OW 5128   3.308   4.157   0.296
 1410SOL    HW1 5129   3.348   4.067   0.278
 1410SOL    HW2 5130   3.371   4.228   0.264
 1411SOL     OW 5131   3.757   6.110   6.006
 1411SOL    HW1 5132   3.749   6.196   6.055
 1411SOL    HW2 5133   3.817   6.048   6.056
 1412SOL     OW 5134   0.521   4.378   1.773
 1412SOL    HW1 5135   0.602   4.322   1.791
 1412SOL    HW2 5136   0.545   4.474   1.783
 1413SOL     OW 5137   1.384   1.597   4.303
 1413SOL    HW1 5138   1.479   1.606   4.332
 1413SOL    HW2 5139   1.328   1.566   4.380
 1414SOL     OW 5140   1.739   2.303   2.117
 1414SOL    HW1 5141   1.800   2.361   2.063
 1414SOL    HW2 5142   1.721   2.347   2.205
 1415SOL     OW 5143   3.321   1.574   4.373
 1415SOL    HW1 5144   3.374   1.538   4.296
 1415SOL    HW2 5145   3.226   1.585   4.345
 1416SOL     OW 5146   3.570   0.602   4.317
 1416SOL    HW1 5147   3.612   0.604   4.408
 1416SOL    HW2 5148   3.526   0.690   4.299
 1417SOL     OW 5149   3.103   2.858   6.167
 1417SOL    HW1 5150   3.138   2.893   6.081
 1417SOL    HW2 5151   3.003   2.850   6.162
 1418SOL     OW 5152   2.934   3.484   6.903
 1418SOL    HW1 5153   2.920   3.549   6.978
 1418SOL    HW2 5154   2.849   3.435   6.886
 1419SOL     OW 5155   2.355   5.331   4.225
 1419SOL    HW1 5156   2.314   5.419   4.249
 1419SOL    HW2 5157   2.325   5.261   4.291
 1420SOL     OW 5158   3.346   5.553   2.640
 1420SOL    HW1 5159   3.392   5.553   2.729
 1420SOL    HW2 5160   3.341   5.647   2.605
 1421SOL     OW 5161   1.214   3.983   3.913
 1421SOL    HW1 5162   1.245   3.888   3.916
 1421SOL    HW2 5163   1.256   4.029   3.835
 1422SOL     OW 5164   3.304   4.455   5.859
 1422SOL    HW1 5165   3.287   4.517   5.936
 1422SOL    HW2 5166   3.358   4.377   5.890
 1423SOL     OW 5167   3.345   1.153   5.254
 1423SOL    HW1 5168   3.325   1.190   5.163
 1423SOL    HW2 5169   3.441   1.170   5.277
 1424SOL     OW 5170   6.572   3.560   0.077
 1424SOL    HW1 5171   6.632   3.602   0.008
 1424SOL    HW2 5172   6.538   3.473   0.042
 1425SOL     OW 5173   2.179   5.522   5.410
 1425SOL    HW1 5174   2.213   5.488   5.498
 1425SOL    HW2 5175   2.119   5.454   5.368
 1426SOL     OW 5176   1.859   1.663   6.168
 1426SOL    HW1 5177   1.799   1.683   6.245
 1426SOL    HW2 5178   1.850   1.736   6.099
 1427SOL     OW 5179   0.116   0.343   3.828
 1427SOL    HW1 5180   0.153   0.298   3.747
 1427SOL    HW2 5181   0.035   0.397   3.802
 1428SOL     OW 5182   0.244   1.889   2.079
 1428SOL    HW1 5183   0.218   1.932   2.166
 1428SOL    HW2 5184   0.249   1.959   2.008
 1429SOL     OW 5185   6.188   1.375   6.894
 1429SOL    HW1 5186   6.161   1.335   6.981
 1429SOL    HW2 5187   6.262   1.321   6.853
 1430SOL     OW 5188   2.192   4.003   3.749
 1430SOL    HW1 5189   2.203   3.904   3.736
 1430SOL    HW2 5190   2.096   4.027   3.735
 1431SOL     OW 5191   2.257   2.519   6.519
 1431SOL    HW1 5192   2.242   2.449   6.449
 1431SOL    HW2 5193   2.195   2.503   6.596
 1432SOL     OW 5194   2.317   1.019   1.660
 1432SOL    HW1 5195   2.259   1.085   1.611
 1432SOL    HW2 5196   2.258   0.959   1.715
 1433SOL     OW 5197   4.158   6.703   4.304
 1433SOL    HW1 5198   4.237   6.762   4.291
 1433SOL    HW2 5199   4.177   6.639   4.379
 1434SOL     OW 5200   6.877   1.130   6.545
 1434SOL    HW1 5201   6.834   1.094   6.462
 1434SOL    HW2 5202   6.975   1.114   6.542
 1435SOL     OW 5203   6.743   0.888   3.511
 1435SOL    HW1 5204   6.779   0.799   3.482
 1435SOL    HW2 5205   6.647   0.895   3.484
 1436SOL     OW 5206   5.983   3.950   0.003
 1436SOL    HW1 5207   5.912   4.002   6.971
 1436SOL    HW2 5208   5.986   3.978   0.099
 1437SOL     OW 5209   3.321   0.666   5.525
 1437SOL    HW1 5210   3.251   0.683   5.455
 1437SOL    HW2 5211   3.411   0.664   5.482
 1438SOL     OW 5212   2.938   0.472   1.701
 1438SOL    HW1 5213   2.892   0.560   1.688
 1438SOL    HW2 5214   2.970   0.464   1.795
 1439SOL     OW 5215   0.549   5.162   0.978
 1439SOL    HW1 5216   0.477   5.210   0.929
 1439SOL    HW2 5217   0.638   5.200   0.951
 1440SOL     OW 5218   3.606   3.322   4.928
 1440SOL    HW1 5219   3.614   3.399   4.993
 1440SOL    HW2 5220   3.549   3.251   4.969
 1441SOL     OW 5221   6.553   3.734   4.098
 1441SOL    HW1 5222   6.607   3.780   4.026
 1441SOL    HW2 5223   6.590   3.642   4.113
 1442SOL     OW 5224   7.001   4.578   0.372
 1442SOL    HW1 5225   6.981   4.618   0.283
 1442SOL    HW2 5226   0.082   4.555   0.378
 1443SOL     OW 5227   0.888   2.223   4.753
 1443SOL    HW1 5228   0.796   2.225   4.713
 1443SOL    HW2 5229   0.882   2.195   4.848
 1444SOL     OW 5230   4.485   6.222   1.507
 1444SOL    HW1 5231   4.392   6.255   1.524
 1444SOL    HW2 5232   4.533   6.288   1.449
 1445SOL     OW 5233   0.360   2.711   2.461
 1445SOL    HW1 5234   0.411   2.628   2.484
 1445SOL    HW2 5235   0.419   2.791   2.472
 1446SOL     OW 5236   4.773   2.245   6.623
 1446SOL    HW1 5237   4.694   2.240   6.684
 1446SOL    HW2 5238   4.852   2.279   6.674
 1447SOL     OW 5239   6.698   6.931   4.858
 1447SOL    HW1 5240   6.632   6.992   4.901
 1447SOL    HW2 5241   6.786   6.979   4.849
 1448SOL     OW 5242   6.678   2.526   0.520
 1448SOL    HW1 5243   6.677   2.429   0.498
 1448SOL    HW2 5244   6.616   2.574   0.458
 1449SOL     OW 5245   6.034   0.562   6.729
 1449SOL    HW1 5246   6.114   0.539   6.785
 1449SOL    HW2 5247   5.977   0.628   6.778
 1450SOL     OW 5248   0.579   2.437   2.336
 1450SOL    HW1 5249   0.530   2.390   2.263
 1450SOL    HW2 5250   0.566   2.388   2.422
 1451SOL     OW 5251   3.335   0.530   2.275
 1451SOL    HW1 5252   3.307   0.614   2.322
 1451SOL    HW2 5253   3.422   0.546   2.227
 1452SOL     OW 5254   4.821   2.010   4.583
 1452SOL    HW1 5255   4.744   1.998   4.520
 1452SOL    HW2 5256   4.796   1.975   4.673
 1453SOL     OW 5257   6.728   3.497   5.146
 1453SOL    HW1 5258   6.809   3.507   5.089
 1453SOL    HW2 5259   6.674   3.581   5.143
 1454SOL     OW 5260   6.369   2.613   2.490
 1454SOL    HW1 5261   6.440   2.573   2.431
 1454SOL    HW2 5262   6.350   2.706   2.461
 1455SOL     OW 5263   2.011   0.208   1.915
 1455SOL    HW1 5264   2.084   0.261   1.871
 1455SOL    HW2 5265   2.028   0.202   2.013
 1456SOL     OW 5266   6.206   0.227   5.216
 1456SOL    HW1 5267   6.114   0.240   5.252
 1456SOL    HW2 5268   6.200   0.203   5.119
 1457SOL     OW 5269   1.465   0.103   1.577
 1457SOL    HW1 5270   1.457   0.053   1.491
 1457SOL    HW2 5271   1.562   0.116   1.600
 1458SOL     OW 5272   5.204   6.215   3.958
 1458SOL    HW1 5273   5.262   6.271   4.018
 1458SOL    HW2 5274   5.261   6.156   3.901
 1459SOL     OW 5275   2.869   4.553   6.197
 1459SOL    HW1 5276   2.920   4.477   6.156
 1459SOL    HW2 5277   2.844   4.618   6.125
 1460SOL     OW 5278   0.419   5.472   6.025
 1460SOL    HW1 5279   0.399   5.542   6.094
 1460SOL    HW2 5280   0.483   5.509   5.958
 1461SOL     OW 5281   0.399   4.855   3.586
 1461SOL    HW1 5282   0.332   4.924   3.613
 1461SOL    HW2 5283   0.358   4.793   3.519
 1462SOL     OW 5284   6.797   1.015   6.310
 1462SOL    HW1 5285   6.834   0.989   6.221
 1462SOL    HW2 5286   6.719   0.956   6.332
 1463SOL     OW 5287   0.307   5.891   6.322
 1463SOL    HW1 5288   0.280   5.799   6.292
 1463SOL    HW2 5289   0.375   5.885   6.395
 1464SOL     OW 5290   6.433   6.820   0.807
 1464SOL    HW1 5291   6.516   6.868   0.778
 1464SOL    HW2 5292   6.458   6.734   0.851
 1465SOL     OW 5293   1.564   1.860   2.821
 1465SOL    HW1 5294   1.562   1.882   2.918
 1465SOL    HW2 5295   1.586   1.763   2.809
 1466SOL     OW 5296   1.314   0.579   2.875
 1466SOL    HW1 5297   1.383   0.572   2.803
 1466SOL    HW2 5298   1.348   0.639   2.947
 1467SOL     OW 5299   2.685   1.097   2.117
 1467SOL    HW1 5300   2.750   1.160   2.075
 1467SOL    HW2 5301   2.621   1.147   2.174
 1468SOL     OW 5302   5.007   5.771   3.070
 1468SOL    HW1 5303   5.001   5.713   2.988
 1468SOL    HW2 5304   5.101   5.771   3.103
 1469SOL     OW 5305   1.079   0.428   2.521
 1469SOL    HW1 5306   1.164   0.385   2.549
 1469SOL    HW2 5307   1.023   0.363   2.471
 1470SOL     OW 5308   1.649   0.934   2.897
 1470SOL    HW1 5309   1.683   1.028   2.891
 1470SOL    HW2 5310   1.560   0.927   2.853
 1471SOL     OW 5311   0.630   0.654   0.908
 1471SOL    HW1 5312   0.705   0.714   0.938
 1471SOL    HW2 5313   0.657   0.607   0.824
 1472SOL     OW 5314   4.697   5.844   4.834
 1472SOL    HW1 5315   4.677   5.928   4.783
 1472SOL    HW2 5316   4.624   5.777   4.818
 1473SOL     OW 5317   5.707   5.653   3.881
 1473SOL    HW1 5318   5.691   5.641   3.783
 1473SOL    HW2 5319   5.678   5.571   3.930
 1474SOL     OW 5320   6.352   5.888   3.721
 1474SOL    HW1 5321   6.267   5.869   3.770
 1474SOL    HW2 5322   6.426   5.834   3.760
 1475SOL     OW 5323   6.424   0.123   1.455
 1475SOL    HW1 5324   6.455   0.181   1.380
 1475SOL    HW2 5325   6.394   0.034   1.418
 1476SOL     OW 5326   1.641   1.531   1.254
 1476SOL    HW1 5327   1.709   1.463   1.281
 1476SOL    HW2 5328   1.573   1.542   1.326
 1477SOL     OW 5329   2.077   0.358   6.859
 1477SOL    HW1 5330   2.056   0.300   6.780
 1477SOL    HW2 5331   2.157   0.322   6.907
 1478SOL     OW 5332   5.090   4.189   0.508
 1478SOL    HW1 5333   5.189   4.201   0.513
 1478SOL    HW2 5334   5.057   4.212   0.416
 1479SOL     OW 5335   1.572   3.533   6.891
 1479SOL    HW1 5336   1.499   3.600   6.879
 1479SOL    HW2 5337   1.584   3.481   6.806
 1480SOL     OW 5338   2.401   0.079   6.319
 1480SOL    HW1 5339   2.343   0.123   6.389
 1480SOL    HW2 5340   2.459   0.148   6.277
 1481SOL     OW 5341   0.288   2.185   5.469
 1481SOL    HW1 5342   0.352   2.111   5.449
 1481SOL    HW2 5343   0.194   2.150   5.466
 1482SOL     OW 5344   5.427   2.292   1.265
 1482SOL    HW1 5345   5.476   2.320   1.183
 1482SOL    HW2 5346   5.332   2.320   1.259
 1483SOL     OW 5347   6.729   2.486   6.119
 1483SOL    HW1 5348   6.768   2.567   6.163
 1483SOL    HW2 5349   6.766   2.404   6.161
 1484SOL     OW 5350   5.954   4.432   4.124
 1484SOL    HW1 5351   6.042   4.385   4.122
 1484SOL    HW2 5352   5.940   4.482   4.038
 1485SOL     OW 5353   3.948   2.070   2.641
 1485SOL    HW1 5354   3.940   2.084   2.739
 1485SOL    HW2 5355   3.995   1.983   2.623
 1486SOL     OW 5356   4.570   2.631   2.706
 1486SOL    HW1 5357   4.666   2.658   2.697
 1486SOL    HW2 5358   4.547   2.566   2.633
 1487SOL     OW 5359   6.698   2.868   6.960
 1487SOL    HW1 5360   6.661   2.889   0.035
 1487SOL    HW2 5361   6.779   2.810   6.970
 1488SOL     OW 5362   5.903   2.172   3.133
 1488SOL    HW1 5363   5.836   2.210   3.197
 1488SOL    HW2 5364   5.981   2.136   3.185
 1489SOL     OW 5365   4.163   5.262   4.079
 1489SOL    HW1 5366   4.077   5.281   4.126
 1489SOL    HW2 5367   4.176   5.328   4.005
 1490SOL     OW 5368   1.651   2.966   1.490
 1490SOL    HW1 5369   1.567   2.915   1.474
 1490SOL    HW2 5370   1.640   3.059   1.455
 1491SOL     OW 5371   6.323   3.599   3.984
 1491SOL    HW1 5372   6.251   3.542   4.024
 1491SOL    HW2 5373   6.376   3.642   4.057
 1492SOL     OW 5374   5.552   2.024   2.175
 1492SOL    HW1 5375   5.579   1.960   2.247
 1492SOL    HW2 5376   5.590   2.115   2.195
 1493SOL     OW 5377   5.116   0.019   3.797
 1493SOL    HW1 5378   5.208   0.017   3.758
 1493SOL    HW2 5379   5.058   0.082   3.745
 1494SOL     OW 5380   4.836   2.567   6.010
 1494SOL    HW1 5381   4.858   2.535   6.102
 1494SOL    HW2 5382   4.743   2.539   5.987
 1495SOL     OW 5383   0.129   2.827   4.443
 1495SOL    HW1 5384   0.067   2.749   4.454
 1495SOL    HW2 5385   0.214   2.796   4.401
 1496SOL     OW 5386   1.048   1.304   2.850
 1496SOL    HW1 5387   1.128   1.307   2.910
 1496SOL    HW2 5388   0.972   1.262   2.899
 1497SOL     OW 5389   0.608   3.576   2.770
 1497SOL    HW1 5390   0.581   3.601   2.678
 1497SOL    HW2 5391   0.636   3.480   2.772
 1498SOL     OW 5392   1.739   4.292   6.383
 1498SOL    HW1 5393   1.820   4.283   6.440
 1498SOL    HW2 5394   1.699   4.383   6.396
 1499SOL     OW 5395   1.366   3.541   5.411
 1499SOL    HW1 5396   1.398   3.503   5.324
 1499SOL    HW2 5397   1.275   3.581   5.398
 1500SOL     OW 5398   5.968   6.588   0.010
 1500SOL    HW1 5399   5.874   6.608   0.037
 1500SOL    HW2 5400   5.984   6.490   0.016
 1501SOL     OW 5401   4.839   1.339   6.444
 1501SOL    HW1 5402   4.888   1.423   6.422
 1501SOL    HW2 5403   4.744   1.347   6.414
 1502SOL     OW 5404   5.673   6.702   0.961
 1502SOL    HW1 5405   5.577   6.721   0.939
 1502SOL    HW2 5406   5.731   6.776   0.929
 1503SOL     OW 5407   2.822   0.926   2.284
 1503SOL    HW1 5408   2.778   0.964   2.202
 1503SOL    HW2 5409   2.801   0.984   2.362
 1504SOL     OW 5410   1.247   1.516   4.535
 1504SOL    HW1 5411   1.315   1.578   4.574
 1504SOL    HW2 5412   1.156   1.545   4.563
 1505SOL     OW 5413   5.854   0.930   6.440
 1505SOL    HW1 5414   5.784   0.997   6.414
 1505SOL    HW2 5415   5.829   0.840   6.405
 1506SOL     OW 5416   1.909   5.559   2.030
 1506SOL    HW1 5417   1.942   5.490   1.967
 1506SOL    HW2 5418   1.838   5.520   2.089
 1507SOL     OW 5419   0.948   2.354   5.665
 1507SOL    HW1 5420   1.000   2.395   5.740
 1507SOL    HW2 5421   1.003   2.357   5.582
 1508SOL     OW 5422   6.209   0.537   1.522
 1508SOL    HW1 5423   6.271   0.565   1.595
 1508SOL    HW2 5424   6.181   0.442   1.536
 1509SOL     OW 5425   4.407   2.475   6.592
 1509SOL    HW1 5426   4.359   2.536   6.655
 1509SOL    HW2 5427   4.504   2.472   6.616
 1510SOL     OW 5428   5.794   2.480   3.875
 1510SOL    HW1 5429   5.870   2.482   3.940
 1510SOL    HW2 5430   5.808   2.548   3.804
 1511SOL     OW 5431   3.267   2.692   0.989
 1511SOL    HW1 5432   3.211   2.774   0.972
 1511SOL    HW2 5433   3.298   2.692   1.084
 1512SOL     OW 5434   0.169   6.743   2.028
 1512SOL    HW1 5435   0.263   6.778   2.032
 1512SOL    HW2 5436   0.169   6.647   2.057
 1513SOL     OW 5437   4.039   0.417   3.965
 1513SOL    HW1 5438   4.034   0.347   4.036
 1513SOL    HW2 5439   4.015   0.377   3.876
 1514SOL     OW 5440   5.348   2.955   5.489
 1514SOL    HW1 5441   5.372   2.904   5.407
 1514SOL    HW2 5442   5.252   2.941   5.511
 1515SOL     OW 5443   6.544   3.313   5.248
 1515SOL    HW1 5444   6.613   3.370   5.205
 1515SOL    HW2 5445   6.587   3.234   5.291
 1516SOL     OW 5446   0.661   0.442   1.090
 1516SOL    HW1 5447   0.703   0.480   1.172
 1516SOL    HW2 5448   0.616   0.514   1.038
 1517SOL     OW 5449   4.124   5.899   3.460
 1517SOL    HW1 5450   4.193   5.863   3.397
 1517SOL    HW2 5451   4.163   5.905   3.552
 1518SOL     OW 5452   0.782   3.043   0.245
 1518SOL    HW1 5453   0.696   3.068   0.288
 1518SOL    HW2 5454   0.764   2.987   0.165
 1519SOL     OW 5455   0.034   4.361   2.321
 1519SOL    HW1 5456   6.966   4.317   2.293
 1519SOL    HW2 5457   0.113   4.311   2.284
 1520SOL     OW 5458   1.159   2.854   2.357
 1520SOL    HW1 5459   1.111   2.809   2.433
 1520SOL    HW2 5460   1.108   2.935   2.329
 1521SOL     OW 5461   2.906   3.734   0.020
 1521SOL    HW1 5462   2.853   3.702   0.099
 1521SOL    HW2 5463   2.868   3.820   7.004
 1522SOL     OW 5464   6.397   1.235   4.869
 1522SOL    HW1 5465   6.383   1.221   4.967
 1522SOL    HW2 5466   6.421   1.330   4.852
 1523SOL     OW 5467   5.037   4.058   0.733
 1523SOL    HW1 5468   5.118   4.020   0.776
 1523SOL    HW2 5469   5.063   4.107   0.650
 1524SOL     OW 5470   1.155   1.916   2.030
 1524SOL    HW1 5471   1.226   1.847   2.022
 1524SOL    HW2 5472   1.126   1.923   2.126
 1525SOL     OW 5473   6.169   2.178   6.994
 1525SOL    HW1 5474   6.087   2.162   6.939
 1525SOL    HW2 5475   6.249   2.146   6.943
 1526SOL     OW 5476   1.478   0.551   6.930
 1526SOL    HW1 5477   1.385   0.557   6.964
 1526SOL    HW2 5478   1.478   0.567   6.831
 1527SOL     OW 5479   3.611   0.595   5.687
 1527SOL    HW1 5480   3.688   0.624   5.744
 1527SOL    HW2 5481   3.628   0.623   5.592
 1528SOL     OW 5482   5.356   5.663   2.009
 1528SOL    HW1 5483   5.277   5.679   2.069
 1528SOL    HW2 5484   5.324   5.621   1.924
 1529SOL     OW 5485   3.775   1.077   0.015
 1529SOL    HW1 5486   3.808   0.985   7.011
 1529SOL    HW2 5487   3.809   1.106   0.104
 1530SOL     OW 5488   2.596   0.595   1.777
 1530SOL    HW1 5489   2.637   0.632   1.693
 1530SOL    HW2 5490   2.663   0.600   1.851
 1531SOL     OW 5491   5.729   1.848   4.533
 1531SOL    HW1 5492   5.659   1.784   4.565
 1531SOL    HW2 5493   5.800   1.797   4.484
 1532SOL     OW 5494   2.625   3.012   6.078
 1532SOL    HW1 5495   2.536   3.056   6.067
 1532SOL    HW2 5496   2.645   2.957   5.997
 1533SOL     OW 5497   0.307   3.594   6.557
 1533SOL    HW1 5498   0.284   3.505   6.517
 1533SOL    HW2 5499   0.383   3.634   6.506
 1534SOL     OW 5500   1.135   4.766   6.557
 1534SOL    HW1 5501   1.220   4.718   6.533
 1534SOL    HW2 5502   1.141   4.861   6.526
 1535SOL     OW 5503   5.228   5.824   4.199
 1535SOL    HW1 5504   5.282   5.795   4.278
 1535SOL    HW2 5505   5.164   5.752   4.174
 1536SOL     OW 5506   4.042   4.577   5.724
 1536SOL    HW1 5507   3.998   4.661   5.691
 1536SOL    HW2 5508   4.029   4.569   5.823
 1537SOL     OW 5509   4.015   5.748   2.644
 1537SOL    HW1 5510   4.040   5.651   2.644
 1537SOL    HW2 5511   4.018   5.783   2.551
 1538SOL     OW 5512   3.265   5.738   6.129
 1538SOL    HW1 5513   3.344   5.739   6.190
 1538SOL    HW2 5514   3.199   5.670   6.161
 1539SOL     OW 5515   4.290   4.490   1.367
 1539SOL    HW1 5516   4.290   4.567   1.304
 1539SOL    HW2 5517   4.351   4.419   1.332
 1540SOL     OW 5518   0.879   0.475   5.472
 1540SOL    HW1 5519   0.902   0.410   5.400
 1540SOL    HW2 5520   0.876   0.567   5.434
 1541SOL     OW 5521   3.670   3.260   1.934
 1541SOL    HW1 5522   3.579   3.298   1.952
 1541SOL    HW2 5523   3.726   3.267   2.017
 1542SOL     OW 5524   0.442   5.631   1.580
 1542SOL    HW1 5525   0.412   5.722   1.551
 1542SOL    HW2 5526   0.526   5.640   1.633
 1543SOL     OW 5527   3.136   3.089   3.944
 1543SOL    HW1 5528   3.102   3.103   3.851
 1543SOL    HW2 5529   3.090   3.153   4.006
 1544SOL     OW 5530   3.074   3.835   2.230
 1544SOL    HW1 5531   3.029   3.787   2.306
 1544SOL    HW2 5532   3.060   3.784   2.145
 1545SOL     OW 5533   5.574   0.765   4.893
 1545SOL    HW1 5534   5.640   0.692   4.908
 1545SOL    HW2 5535   5.487   0.740   4.936
 1546SOL     OW 5536   5.420   0.655   6.060
 1546SOL    HW1 5537   5.322   0.673   6.069
 1546SOL    HW2 5538   5.449   0.590   6.129
 1547SOL     OW 5539   2.573   4.554   2.641
 1547SOL    HW1 5540   2.523   4.567   2.726
 1547SOL    HW2 5541   2.643   4.625   2.633
 1548SOL     OW 5542   5.181   3.429   5.858
 1548SOL    HW1 5543   5.163   3.380   5.772
 1548SOL    HW2 5544   5.115   3.400   5.927
 1549SOL     OW 5545   5.370   1.759   2.667
 1549SOL    HW1 5546   5.287   1.733   2.618
 1549SOL    HW2 5547   5.379   1.858   2.667
 1550SOL     OW 5548   3.307   5.896   5.924
 1550SOL    HW1 5549   3.335   5.845   5.842
 1550SOL    HW2 5550   3.312   5.837   6.004
 1551SOL     OW 5551   2.147   3.242   0.563
 1551SOL    HW1 5552   2.094   3.175   0.615
 1551SOL    HW2 5553   2.128   3.334   0.598
 1552SOL     OW 5554   0.198   0.239   1.286
 1552SOL    HW1 5555   0.276   0.291   1.251
 1552SOL    HW2 5556   0.125   0.302   1.311
 1553SOL     OW 5557   6.125   1.501   6.297
 1553SOL    HW1 5558   6.145   1.598   6.302
 1553SOL    HW2 5559   6.189   1.457   6.234
 1554SOL     OW 5560   3.496   2.017   2.457
 1554SOL    HW1 5561   3.408   2.054   2.486
 1554SOL    HW2 5562   3.568   2.046   2.520
 1555SOL     OW 5563   5.275   2.218   5.918
 1555SOL    HW1 5564   5.190   2.215   5.866
 1555SOL    HW2 5565   5.298   2.312   5.940
 1556SOL     OW 5566   3.757   0.921   0.342
 1556SOL    HW1 5567   3.781   0.850   0.275
 1556SOL    HW2 5568   3.788   1.010   0.309
 1557SOL     OW 5569   2.947   1.538   0.329
 1557SOL    HW1 5570   2.954   1.502   0.236
 1557SOL    HW2 5571   3.008   1.617   0.338
 1558SOL     OW 5572   5.525   2.005   4.360
 1558SOL    HW1 5573   5.507   1.911   4.390
 1558SOL    HW2 5574   5.593   2.047   4.420
 1559SOL     OW 5575   0.155   2.739   0.832
 1559SOL    HW1 5576   0.245   2.783   0.839
 1559SOL    HW2 5577   0.148   2.692   0.743
 1560SOL     OW 5578   2.969   1.365   6.453
 1560SOL    HW1 5579   2.914   1.336   6.375
 1560SOL    HW2 5580   2.909   1.389   6.530
 1561SOL     OW 5581   5.560   5.923   3.111
 1561SOL    HW1 5582   5.518   5.833   3.100
 1561SOL    HW2 5583   5.644   5.928   3.056
 1562SOL     OW 5584   3.695   6.250   1.449
 1562SOL    HW1 5585   3.679   6.347   1.432
 1562SOL    HW2 5586   3.693   6.200   1.362
 1563SOL     OW 5587   2.325   1.937   5.910
 1563SOL    HW1 5588   2.419   1.928   5.877
 1563SOL    HW2 5589   2.263   1.947   5.832
 1564SOL     OW 5590   1.332   2.542   2.626
 1564SOL    HW1 5591   1.276   2.500   2.697
 1564SOL    HW2 5592   1.321   2.492   2.540
 1565SOL     OW 5593   4.160   5.359   4.543
 1565SOL    HW1 5594   4.243   5.411   4.526
 1565SOL    HW2 5595   4.093   5.377   4.471
 1566SOL     OW 5596   6.557   5.490   4.983
 1566SOL    HW1 5597   6.491   5.559   4.954
 1566SOL    HW2 5598   6.595   5.444   4.903
 1567SOL     OW 5599   6.337   6.065   0.334
 1567SOL    HW1 5600   6.359   6.116   0.417
 1567SOL    HW2 5601   6.417   6.062   0.274
 1568SOL     OW 5602   2.194   6.331   2.505
 1568SOL    HW1 5603   2.194   6.235   2.478
 1568SOL    HW2 5604   2.169   6.387   2.426
 1569SOL     OW 5605   3.720   6.513   3.537
 1569SOL    HW1 5606   3.710   6.609   3.562
 1569SOL    HW2 5607   3.662   6.494   3.457
 1570SOL     OW 5608   1.418   6.968   0.453
 1570SOL    HW1 5609   1.331   6.975   0.501
 1570SOL    HW2 5610   1.410   6.901   0.379
 1571SOL     OW 5611   6.981   1.875   3.211
 1571SOL    HW1 5612   6.999   1.972   3.224
 1571SOL    HW2 5613   6.950   1.858   3.118
 1572SOL     OW 5614   1.890   5.625   1.100
 1572SOL    HW1 5615   1.832   5.562   1.151
 1572SOL    HW2 5616   1.975   5.580   1.074
 1573SOL     OW 5617   6.440   5.334   1.769
 1573SOL    HW1 5618   6.452   5.430   1.796
 1573SOL    HW2 5619   6.424   5.330   1.671
 1574SOL     OW 5620   6.542   2.341   3.312
 1574SOL    HW1 5621   6.572   2.381   3.225
 1574SOL    HW2 5622   6.621   2.329   3.372
 1575SOL     OW 5623   2.567   1.091   1.783
 1575SOL    HW1 5624   2.472   1.063   1.769
 1575SOL    HW2 5625   2.593   1.073   1.878
 1576SOL     OW 5626   0.852   0.262   3.711
 1576SOL    HW1 5627   0.932   0.266   3.650
 1576SOL    HW2 5628   0.879   0.221   3.798
 1577SOL     OW 5629   2.478   0.742   5.962
 1577SOL    HW1 5630   2.537   0.675   6.007
 1577SOL    HW2 5631   2.483   0.729   5.863
 1578SOL     OW 5632   5.196   1.642   5.580
 1578SOL    HW1 5633   5.104   1.609   5.558
 1578SOL    HW2 5634   5.190   1.734   5.618
 1579SOL     OW 5635   0.076   1.669   2.038
 1579SOL    HW1 5636   0.133   1.678   1.956
 1579SOL    HW2 5637   0.073   1.756   2.086
 1580SOL     OW 5638   3.101   4.035   3.941
 1580SOL    HW1 5639   3.010   4.008   3.909
 1580SOL    HW2 5640   3.160   4.051   3.862
 1581SOL     OW 5641   6.608   4.667   5.507
 1581SOL    HW1 5642   6.688   4.629   5.552
 1581SOL    HW2 5643   6.623   4.765   5.491
 1582SOL     OW 5644   2.675   6.192   4.890
 1582SOL    HW1 5645   2.586   6.228   4.919
 1582SOL    HW2 5646   2.665   6.145   4.803
 1583SOL     OW 5647   0.421   5.808   3.611
 1583SOL    HW1 5648   0.398   5.856   3.527
 1583SOL    HW2 5649   0.370   5.722   3.615
 1584SOL     OW 5650   0.618   5.080   5.532
 1584SOL    HW1 5651   0.694   5.144   5.539
 1584SOL    HW2 5652   0.653   4.988   5.513
 1585SOL     OW 5653   4.324   2.414   2.907
 1585SOL    HW1 5654   4.267   2.347   2.859
 1585SOL    HW2 5655   4.409   2.427   2.855
 1586SOL     OW 5656   2.993   5.070   2.500
 1586SOL    HW1 5657   2.981   5.135   2.425
 1586SOL    HW2 5658   2.949   4.984   2.477
 1587SOL     OW 5659   2.481   5.565   5.340
 1587SOL    HW1 5660   2.434   5.477   5.342
 1587SOL    HW2 5661   2.426   5.631   5.290
 1588SOL     OW 5662   4.288   1.056   1.842
 1588SOL    HW1 5663   4.370   1.012   1.879
 1588SOL    HW2 5664   4.262   1.133   1.900
 1589SOL     OW 5665   0.139   3.241   2.528
 1589SOL    HW1 5666   0.119   3.209   2.620
 1589SOL    HW2 5667   0.172   3.165   2.472
 1590SOL     OW 5668   4.917   0.684   3.759
 1590SOL    HW1 5669   5.000   0.694   3.813
 1590SOL    HW2 5670   4.843   0.739   3.799
 1591SOL     OW 5671   0.060   5.687   1.149
 1591SOL    HW1 5672   0.028   5.780   1.135
 1591SOL    HW2 5673   0.159   5.683   1.135
 1592SOL     OW 5674   2.150   3.941   6.558
 1592SOL    HW1 5675   2.176   3.958   6.463
 1592SOL    HW2 5676   2.136   3.843   6.572
 1593SOL     OW 5677   1.003   0.090   5.145
 1593SOL    HW1 5678   1.035   0.110   5.053
 1593SOL    HW2 5679   0.996   7.007   5.157
 1594SOL     OW 5680   0.536   5.999   2.027
 1594SOL    HW1 5681   0.448   5.964   1.998
 1594SOL    HW2 5682   0.561   5.958   2.115
 1595SOL     OW 5683   0.796   4.861   0.934
 1595SOL    HW1 5684   0.860   4.854   0.857
 1595SOL    HW2 5685   0.836   4.919   1.005
 1596SOL     OW 5686   6.650   3.692   3.696
 1596SOL    HW1 5687   6.583   3.629   3.735
 1596SOL    HW2 5688   6.649   3.684   3.596
 1597SOL     OW 5689   1.279   6.024   1.151
 1597SOL    HW1 5690   1.198   6.003   1.096
 1597SOL    HW2 5691   1.360   6.023   1.093
 1598SOL     OW 5692   0.544   4.462   6.423
 1598SOL    HW1 5693   0.465   4.403   6.410
 1598SOL    HW2 5694   0.611   4.416   6.481
 1599SOL     OW 5695   5.408   5.411   5.189
 1599SOL    HW1 5696   5.504   5.385   5.185
 1599SOL    HW2 5697   5.368   5.403   5.097
 1600SOL     OW 5698   2.866   1.659   3.661
 1600SOL    HW1 5699   2.947   1.707   3.630
 1600SOL    HW2 5700   2.824   1.708   3.737
 1601SOL     OW 5701   6.311   6.880   4.239
 1601SOL    HW1 5702   6.400   6.864   4.282
 1601SOL    HW2 5703   6.240   6.833   4.292
 1602SOL     OW 5704   4.480   4.488   3.995
 1602SOL    HW1 5705   4.471   4.555   3.921
 1602SOL    HW2 5706   4.419   4.514   4.070
 1603SOL     OW 5707   2.004   6.001   3.093
 1603SOL    HW1 5708   1.992   5.903   3.108
 1603SOL    HW2 5709   2.069   6.036   3.161
 1604SOL     OW 5710   4.890   4.673   1.756
 1604SOL    HW1 5711   4.896   4.711   1.664
 1604SOL    HW2 5712   4.794   4.665   1.784
 1605SOL     OW 5713   6.539   5.372   2.231
 1605SOL    HW1 5714   6.463   5.314   2.261
 1605SOL    HW2 5715   6.576   5.337   2.145
 1606SOL     OW 5716   4.176   6.181   5.855
 1606SOL    HW1 5717   4.155   6.183   5.758
 1606SOL    HW2 5718   4.191   6.086   5.884
 1607SOL     OW 5719   3.736   6.785   0.718
 1607SOL    HW1 5720   3.763   6.811   0.625
 1607SOL    HW2 5721   3.740   6.866   0.777
 1608SOL     OW 5722   0.112   1.009   3.277
 1608SOL    HW1 5723   0.059   1.019   3.193
 1608SOL    HW2 5724   0.053   1.024   3.356
 1609SOL     OW 5725   3.795   6.883   0.468
 1609SOL    HW1 5726   3.785   6.795   0.421
 1609SOL    HW2 5727   3.806   6.956   0.401
 1610SOL     OW 5728   5.800   5.663   0.504
 1610SOL    HW1 5729   5.801   5.574   0.549
 1610SOL    HW2 5730   5.853   5.659   0.420
 1611SOL     OW 5731   2.675   2.745   0.403
 1611SOL    HW1 5732   2.725   2.765   0.487
 1611SOL    HW2 5733   2.627   2.657   0.412
 1612SOL     OW 5734   3.161   0.247   0.783
 1612SOL    HW1 5735   3.255   0.217   0.770
 1612SOL    HW2 5736   3.145   0.264   0.881
 1613SOL     OW 5737   1.660   5.425   2.133
 1613SOL    HW1 5738   1.615   5.397   2.048
 1613SOL    HW2 5739   1.715   5.350   2.168
 1614SOL     OW 5740   5.732   1.925   6.295
 1614SOL    HW1 5741   5.641   1.908   6.332
 1614SOL    HW2 5742   5.762   1.847   6.241
 1615SOL     OW 5743   6.422   5.814   7.014
 1615SOL    HW1 5744   6.398   5.833   6.918
 1615SOL    HW2 5745   6.342   5.777   0.045
 1616SOL     OW 5746   3.456   0.857   4.591
 1616SOL    HW1 5747   3.535   0.871   4.650
 1616SOL    HW2 5748   3.443   0.937   4.533
 1617SOL     OW 5749   5.402   6.125   3.010
 1617SOL    HW1 5750   5.458   6.207   2.997
 1617SOL    HW2 5751   5.461   6.046   3.022
 1618SOL     OW 5752   1.728   6.516   3.133
 1618SOL    HW1 5753   1.752   6.536   3.038
 1618SOL    HW2 5754   1.734   6.418   3.149
 1619SOL     OW 5755   0.422   4.662   1.316
 1619SOL    HW1 5756   0.439   4.620   1.405
 1619SOL    HW2 5757   0.340   4.719   1.321
 1620SOL     OW 5758   3.040   4.721   1.552
 1620SOL    HW1 5759   2.997   4.781   1.485
 1620SOL    HW2 5760   3.067   4.636   1.507
 1621SOL     OW 5761   6.173   0.884   0.577
 1621SOL    HW1 5762   6.123   0.886   0.490
 1621SOL    HW2 5763   6.193   0.978   0.605
 1622SOL     OW 5764   0.836   3.449   5.579
 1622SOL    HW1 5765   0.829   3.547   5.559
 1622SOL    HW2 5766   0.901   3.407   5.515
 1623SOL     OW 5767   0.716   2.862   4.953
 1623SOL    HW1 5768   0.735   2.825   5.044
 1623SOL    HW2 5769   0.674   2.791   4.896
 1624SOL     OW 5770   4.023   1.066   5.170
 1624SOL    HW1 5771   3.991   1.073   5.075
 1624SOL    HW2 5772   4.100   1.129   5.183
 1625SOL     OW 5773   1.120   4.735   0.221
 1625SOL    HW1 5774   1.169   4.705   0.139
 1625SOL    HW2 5775   1.185   4.754   0.294
 1626SOL     OW 5776   3.474   1.131   0.870
 1626SOL    HW1 5777   3.540   1.111   0.943
 1626SOL    HW2 5778   3.390   1.079   0.885
 1627SOL     OW 5779   5.713   3.446   3.860
 1627SOL    HW1 5780   5.697   3.472   3.765
 1627SOL    HW2 5781   5.714   3.529   3.918
 1628SOL     OW 5782   4.342   5.130   0.068
 1628SOL    HW1 5783   4.413   5.118   7.015
 1628SOL    HW2 5784   4.264   5.070   0.046
 1629SOL     OW 5785   2.461   1.093   3.674
 1629SOL    HW1 5786   2.434   1.164   3.738
 1629SOL    HW2 5787   2.560   1.085   3.672
 1630SOL     OW 5788   0.310   4.792   6.441
 1630SOL    HW1 5789   0.342   4.708   6.484
 1630SOL    HW2 5790   0.210   4.788   6.432
 1631SOL     OW 5791   1.019   2.501   0.426
 1631SOL    HW1 5792   1.013   2.498   0.526
 1631SOL    HW2 5793   1.014   2.408   0.390
 1632SOL     OW 5794   5.533   2.572   1.578
 1632SOL    HW1 5795   5.568   2.505   1.513
 1632SOL    HW2 5796   5.527   2.531   1.669
 1633SOL     OW 5797   4.823   3.998   4.487
 1633SOL    HW1 5798   4.792   3.913   4.445
 1633SOL    HW2 5799   4.813   4.073   4.422
 1634SOL     OW 5800   4.849   5.833   4.413
 1634SOL    HW1 5801   4.787   5.875   4.480
 1634SOL    HW2 5802   4.928   5.893   4.399
 1635SOL     OW 5803   0.739   5.294   0.002
 1635SOL    HW1 5804   0.724   5.388   6.986
 1635SOL    HW2 5805   0.681   5.276   0.081
 1636SOL     OW 5806   3.045   5.077   1.010
 1636SOL    HW1 5807   2.955   5.059   0.970
 1636SOL    HW2 5808   3.077   4.996   1.058
 1637SOL     OW 5809   6.872   0.445   3.583
 1637SOL    HW1 5810   6.938   0.510   3.622
 1637SOL    HW2 5811   6.796   0.432   3.647
 1638SOL     OW 5812   0.508   3.229   2.874
 1638SOL    HW1 5813   0.563   3.180   2.943
 1638SOL    HW2 5814   0.567   3.290   2.822
 1639SOL     OW 5815   5.756   5.219   1.369
 1639SOL    HW1 5816   5.815   5.174   1.436
 1639SOL    HW2 5817   5.665   5.177   1.370
 1640SOL     OW 5818   5.689   0.189   6.941
 1640SOL    HW1 5819   5.723   0.169   0.017
 1640SOL    HW2 5820   5.709   0.284   6.919
 1641SOL     OW 5821   5.139   2.089   3.022
 1641SOL    HW1 5822   5.088   2.013   2.982
 1641SOL    HW2 5823   5.198   2.055   3.096
 1642SOL     OW 5824   6.918   3.568   0.110
 1642SOL    HW1 5825   7.006   3.548   0.069
 1642SOL    HW2 5826   6.852   3.592   0.039
 1643SOL     OW 5827   2.917   4.771   4.220
 1643SOL    HW1 5828   2.890   4.731   4.307
 1643SOL    HW2 5829   2.994   4.833   4.234
 1644SOL     OW 5830   5.763   4.310   0.078
 1644SOL    HW1 5831   5.668   4.298   0.105
 1644SOL    HW2 5832   5.777   4.270   7.003
 1645SOL     OW 5833   2.578   5.646   6.137
 1645SOL    HW1 5834   2.601   5.634   6.040
 1645SOL    HW2 5835   2.516   5.724   6.146
 1646SOL     OW 5836   1.977   6.631   0.711
 1646SOL    HW1 5837   1.925   6.631   0.626
 1646SOL    HW2 5838   2.048   6.701   0.707
 1647SOL     OW 5839   6.045   2.968   4.255
 1647SOL    HW1 5840   6.107   2.941   4.181
 1647SOL    HW2 5841   5.970   2.903   4.261
 1648SOL     OW 5842   5.080   5.877   0.186
 1648SOL    HW1 5843   5.010   5.851   0.251
 1648SOL    HW2 5844   5.054   5.962   0.140
 1649SOL     OW 5845   3.516   1.437   4.567
 1649SOL    HW1 5846   3.481   1.530   4.584
 1649SOL    HW2 5847   3.566   1.437   4.480
 1650SOL     OW 5848   0.663   5.957   4.875
 1650SOL    HW1 5849   0.682   5.859   4.872
 1650SOL    HW2 5850   0.680   5.991   4.968
 1651SOL     OW 5851   0.480   2.100   1.923
 1651SOL    HW1 5852   0.521   2.009   1.935
 1651SOL    HW2 5853   0.380   2.092   1.928
 1652SOL     OW 5854   1.681   2.697   2.491
 1652SOL    HW1 5855   1.606   2.746   2.447
 1652SOL    HW2 5856   1.767   2.720   2.447
 1653SOL     OW 5857   0.672   6.590   0.358
 1653SOL    HW1 5858   0.741   6.659   0.382
 1653SOL    HW2 5859   0.716   6.515   0.309
 1654SOL     OW 5860   6.857   3.642   1.713
 1654SOL    HW1 5861   6.864   3.653   1.812
 1654SOL    HW2 5862   6.939   3.679   1.669
 1655SOL     OW 5863   0.541   2.573   4.447
 1655SOL    HW1 5864   0.456   2.590   4.397
 1655SOL    HW2 5865   0.538   2.482   4.489
 1656SOL     OW 5866   2.019   5.093   3.015
 1656SOL    HW1 5867   1.974   5.181   3.028
 1656SOL    HW2 5868   2.067   5.092   2.928
 1657SOL     OW 5869   5.731   1.186   3.972
 1657SOL    HW1 5870   5.825   1.154   3.960
 1657SOL    HW2 5871   5.682   1.177   3.885
 1658SOL     OW 5872   5.707   1.072   1.286
 1658SOL    HW1 5873   5.611   1.068   1.259
 1658SOL    HW2 5874   5.717   1.038   1.380
 1659SOL     OW 5875   2.994   0.420   6.829
 1659SOL    HW1 5876   2.997   0.330   6.872
 1659SOL    HW2 5877   2.905   0.434   6.786
 1660SOL     OW 5878   1.902   6.060   2.731
 1660SOL    HW1 5879   1.982   6.035   2.786
 1660SOL    HW2 5880   1.923   6.047   2.634
 1661SOL     OW 5881   2.240   6.541   1.205
 1661SOL    HW1 5882   2.226   6.580   1.114
 1661SOL    HW2 5883   2.194   6.597   1.273
 1662SOL     OW 5884   0.239   1.252   4.069
 1662SOL    HW1 5885   0.169   1.253   4.140
 1662SOL    HW2 5886   0.330   1.254   4.110
 1663SOL     OW 5887   4.215   5.472   3.403
 1663SOL    HW1 5888   4.141   5.508   3.347
 1663SOL    HW2 5889   4.283   5.543   3.419
 1664SOL     OW 5890   2.844   6.076   5.328
 1664SOL    HW1 5891   2.778   6.143   5.363
 1664SOL    HW2 5892   2.924   6.124   5.292
 1665SOL     OW 5893   6.359   3.184   2.614
 1665SOL    HW1 5894   6.391   3.172   2.708
 1665SOL    HW2 5895   6.286   3.118   2.595
 1666SOL     OW 5896   5.120   1.478   6.569
 1666SOL    HW1 5897   5.070   1.514   6.647
 1666SOL    HW2 5898   5.195   1.420   6.601
 1667SOL     OW 5899   0.221   6.794   1.163
 1667SOL    HW1 5900   0.171   6.738   1.098
 1667SOL    HW2 5901   0.158   6.829   1.232
 1668SOL     OW 5902   4.923   5.450   3.888
 1668SOL    HW1 5903   4.830   5.476   3.861
 1668SOL    HW2 5904   4.918   5.389   3.967
 1669SOL     OW 5905   6.837   4.586   5.649
 1669SOL    HW1 5906   6.866   4.544   5.563
 1669SOL    HW2 5907   6.895   4.552   5.723
 1670SOL     OW 5908   6.918   4.266   5.553
 1670SOL    HW1 5909   6.941   4.188   5.494
 1670SOL    HW2 5910   6.971   4.260   5.638
 1671SOL     OW 5911   5.229   1.685   3.170
 1671SOL    HW1 5912   5.194   1.614   3.231
 1671SOL    HW2 5913   5.311   1.651   3.124
 1672SOL     OW 5914   2.109   3.652   1.174
 1672SOL    HW1 5915   2.196   3.677   1.216
 1672SOL    HW2 5916   2.114   3.666   1.075
 1673SOL     OW 5917   1.426   1.679   5.242
 1673SOL    HW1 5918   1.478   1.763   5.228
 1673SOL    HW2 5919   1.486   1.600   5.228
 1674SOL     OW 5920   0.781   2.860   2.327
 1674SOL    HW1 5921   0.694   2.870   2.280
 1674SOL    HW2 5922   0.789   2.767   2.363
 1675SOL     OW 5923   4.836   6.981   0.178
 1675SOL    HW1 5924   4.747   0.001   0.206
 1675SOL    HW2 5925   4.830   6.882   0.167
 1676SOL     OW 5926   2.103   2.227   1.369
 1676SOL    HW1 5927   2.185   2.266   1.410
 1676SOL    HW2 5928   2.050   2.179   1.439
 1677SOL     OW 5929   3.396   3.105   4.036
 1677SOL    HW1 5930   3.343   3.031   3.995
 1677SOL    HW2 5931   3.356   3.128   4.125
 1678SOL     OW 5932   6.591   4.471   2.763
 1678SOL    HW1 5933   6.671   4.519   2.800
 1678SOL    HW2 5934   6.603   4.373   2.774
 1679SOL     OW 5935   2.630   2.113   4.416
 1679SOL    HW1 5936   2.565   2.072   4.353
 1679SOL    HW2 5937   2.622   2.069   4.506
 1680SOL     OW 5938   0.474   3.078   5.547
 1680SOL    HW1 5939   0.431   3.168   5.554
 1680SOL    HW2 5940   0.469   3.045   5.453
 1681SOL     OW 5941   0.559   4.937   0.099
 1681SOL    HW1 5942   0.576   4.985   0.013
 1681SOL    HW2 5943   0.566   4.838   0.084
 1682SOL     OW 5944   1.673   0.815   5.778
 1682SOL    HW1 5945   1.771   0.833   5.784
 1682SOL    HW2 5946   1.658   0.722   5.747
 1683SOL     OW 5947   5.975   5.397   2.675
 1683SOL    HW1 5948   6.006   5.315   2.724
 1683SOL    HW2 5949   5.937   5.371   2.587
 1684SOL     OW 5950   0.886   5.996   2.202
 1684SOL    HW1 5951   0.888   5.899   2.177
 1684SOL    HW2 5952   0.889   6.052   2.119
 1685SOL     OW 5953   1.431   1.285   5.566
 1685SOL    HW1 5954   1.460   1.199   5.607
 1685SOL    HW2 5955   1.421   1.354   5.638
 1686SOL     OW 5956   2.439   6.574   4.618
 1686SOL    HW1 5957   2.388   6.488   4.612
 1686SOL    HW2 5958   2.535   6.553   4.639
 1687SOL     OW 5959   1.374   2.812   1.929
 1687SOL    HW1 5960   1.416   2.902   1.919
 1687SOL    HW2 5961   1.384   2.781   2.024
 1688SOL     OW 5962   2.345   2.002   3.571
 1688SOL    HW1 5963   2.367   1.905   3.571
 1688SOL    HW2 5964   2.348   2.037   3.665
 1689SOL     OW 5965   6.378   0.645   3.057
 1689SOL    HW1 5966   6.354   0.596   2.974
 1689SOL    HW2 5967   6.332   0.733   3.058
 1690SOL     OW 5968   1.261   2.531   4.522
 1690SOL    HW1 5969   1.333   2.473   4.486
 1690SOL    HW2 5970   1.225   2.492   4.607
 1691SOL     OW 5971   5.124   3.086   3.570
 1691SOL    HW1 5972   5.146   3.056   3.663
 1691SOL    HW2 5973   5.024   3.083   3.558
 1692SOL     OW 5974   4.989   6.279   1.055
 1692SOL    HW1 5975   5.020   6.187   1.076
 1692SOL    HW2 5976   5.031   6.344   1.119
 1693SOL     OW 5977   6.415   2.232   3.032
 1693SOL    HW1 5978   6.321   2.224   3.001
 1693SOL    HW2 5979   6.439   2.154   3.090
 1694SOL     OW 5980   6.095   1.922   3.357
 1694SOL    HW1 5981   6.115   2.016   3.329
 1694SOL    HW2 5982   6.160   1.893   3.427
 1695SOL     OW 5983   4.300   0.704   6.084
 1695SOL    HW1 5984   4.338   0.622   6.128
 1695SOL    HW2 5985   4.202   0.711   6.104
 1696SOL     OW 5986   4.109   6.016   1.434
 1696SOL    HW1 5987   4.014   6.016   1.467
 1696SOL    HW2 5988   4.148   6.107   1.444
 1697SOL     OW 5989   6.635   1.275   0.707
 1697SOL    HW1 5990   6.695   1.228   0.642
 1697SOL    HW2 5991   6.569   1.210   0.745
 1698SOL     OW 5992   3.295   6.911   0.678
 1698SOL    HW1 5993   3.386   6.876   0.654
 1698SOL    HW2 5994   3.267   6.979   0.610
 1699SOL     OW 5995   2.353   1.416   6.764
 1699SOL    HW1 5996   2.309   1.447   6.679
 1699SOL    HW2 5997   2.450   1.437   6.761
 1700SOL     OW 5998   6.197   4.754   3.839
 1700SOL    HW1 5999   6.264   4.768   3.911
 1700SOL    HW2 6000   6.129   4.828   3.842
 1701SOL     OW 6001   5.727   5.330   5.989
 1701SOL    HW1 6002   5.663   5.292   5.924
 1701SOL    HW2 6003   5.705   5.426   6.007
 1702SOL     OW 6004   6.349   1.212   1.140
 1702SOL    HW1 6005   6.437   1.258   1.129
 1702SOL    HW2 6006   6.296   1.221   1.056
 1703SOL     OW 6007   3.430   1.721   0.431
 1703SOL    HW1 6008   3.365   1.646   0.418
 1703SOL    HW2 6009   3.469   1.715   0.523
 1704SOL     OW 6010   0.540   2.308   0.278
 1704SOL    HW1 6011   0.623   2.305   0.334
 1704SOL    HW2 6012   0.470   2.251   0.320
 1705SOL     OW 6013   3.051   2.096   1.985
 1705SOL    HW1 6014   3.005   2.023   1.933
 1705SOL    HW2 6015   2.992   2.177   1.988
 1706SOL     OW 6016   5.094   1.164   1.674
 1706SOL    HW1 6017   5.077   1.070   1.645
 1706SOL    HW2 6018   5.104   1.223   1.594
 1707SOL     OW 6019   4.562   1.843   2.726
 1707SOL    HW1 6020   4.591   1.930   2.767
 1707SOL    HW2 6021   4.530   1.781   2.799
 1708SOL     OW 6022   5.048   5.740   1.751
 1708SOL    HW1 6023   5.134   5.689   1.752
 1708SOL    HW2 6024   4.982   5.694   1.811
 1709SOL     OW 6025   3.136   6.378   2.964
 1709SOL    HW1 6026   3.072   6.348   3.035
 1709SOL    HW2 6027   3.203   6.305   2.948
 1710SOL     OW 6028   4.669   4.868   3.218
 1710SOL    HW1 6029   4.622   4.845   3.303
 1710SOL    HW2 6030   4.695   4.964   3.219
 1711SOL     OW 6031   1.804   4.862   4.660
 1711SOL    HW1 6032   1.840   4.890   4.571
 1711SOL    HW2 6033   1.877   4.863   4.728
 1712SOL     OW 6034   6.789   2.816   4.262
 1712SOL    HW1 6035   6.784   2.717   4.266
 1712SOL    HW2 6036   6.833   2.844   4.177
 1713SOL     OW 6037   4.723   2.589   2.003
 1713SOL    HW1 6038   4.775   2.526   1.945
 1713SOL    HW2 6039   4.663   2.537   2.063
 1714SOL     OW 6040   3.600   1.289   6.308
 1714SOL    HW1 6041   3.648   1.307   6.222
 1714SOL    HW2 6042   3.554   1.373   6.338
 1715SOL     OW 6043   2.506   5.491   3.377
 1715SOL    HW1 6044   2.498   5.423   3.305
 1715SOL    HW2 6045   2.477   5.580   3.342
 1716SOL     OW 6046   3.518   0.081   3.033
 1716SOL    HW1 6047   3.492   0.045   3.123
 1716SOL    HW2 6048   3.575   0.162   3.044
 1717SOL     OW 6049   3.231   5.705   4.887
 1717SOL    HW1 6050   3.308   5.645   4.864
 1717SOL    HW2 6051   3.158   5.692   4.820
 1718SOL     OW 6052   3.337   1.041   2.233
 1718SOL    HW1 6053   3.254   1.046   2.178
 1718SOL    HW2 6054   3.350   1.127   2.283
 1719SOL     OW 6055   2.122   2.938   0.871
 1719SOL    HW1 6056   2.187   2.871   0.908
 1719SOL    HW2 6057   2.171   3.006   0.818
 1720SOL     OW 6058   0.135   3.452   6.973
 1720SOL    HW1 6059   0.095   3.372   0.001
 1720SOL    HW2 6060   0.138   3.438   6.874
 1721SOL     OW 6061   1.904   6.566   1.426
 1721SOL    HW1 6062   1.818   6.540   1.469
 1721SOL    HW2 6063   1.917   6.513   1.342
 1722SOL     OW 6064   3.056   1.673   4.283
 1722SOL    HW1 6065   3.004   1.690   4.200
 1722SOL    HW2 6066   3.087   1.761   4.321
 1723SOL     OW 6067   6.175   2.362   0.210
 1723SOL    HW1 6068   6.184   2.307   0.127
 1723SOL    HW2 6069   6.125   2.446   0.188
 1724SOL     OW 6070   0.445   3.104   2.278
 1724SOL    HW1 6071   0.493   3.045   2.343
 1724SOL    HW2 6072   0.495   3.105   2.191
 1725SOL     OW 6073   1.734   5.144   5.995
 1725SOL    HW1 6074   1.639   5.174   5.979
 1725SOL    HW2 6075   1.796   5.220   5.976
 1726SOL     OW 6076   5.739   4.301   5.044
 1726SOL    HW1 6077   5.807   4.361   5.086
 1726SOL    HW2 6078   5.767   4.206   5.055
 1727SOL     OW 6079   3.773   2.909   3.761
 1727SOL    HW1 6080   3.696   2.889   3.821
 1727SOL    HW2 6081   3.842   2.960   3.811
 1728SOL     OW 6082   5.846   5.434   5.345
 1728SOL    HW1 6083   5.944   5.446   5.359
 1728SOL    HW2 6084   5.802   5.417   5.433
 1729SOL     OW 6085   2.130   3.938   2.885
 1729SOL    HW1 6086   2.198   3.973   2.949
 1729SOL    HW2 6087   2.107   4.008   2.818
 1730SOL     OW 6088   2.301   0.378   5.495
 1730SOL    HW1 6089   2.342   0.410   5.580
 1730SOL    HW2 6090   2.303   0.452   5.427
 1731SOL     OW 6091   0.751   4.283   3.873
 1731SOL    HW1 6092   0.702   4.272   3.787
 1731SOL    HW2 6093   0.756   4.381   3.896
 1732SOL     OW 6094   2.363   4.746   5.854
 1732SOL    HW1 6095   2.402   4.665   5.810
 1732SOL    HW2 6096   2.413   4.766   5.938
 1733SOL     OW 6097   1.814   3.971   1.296
 1733SOL    HW1 6098   1.846   4.055   1.250
 1733SOL    HW2 6099   1.764   3.915   1.230
 1734SOL     OW 6100   4.504   2.866   1.226
 1734SOL    HW1 6101   4.405   2.866   1.236
 1734SOL    HW2 6102   4.547   2.883   1.315
 1735SOL     OW 6103   4.519   5.418   6.354
 1735SOL    HW1 6104   4.494   5.505   6.311
 1735SOL    HW2 6105   4.479   5.413   6.446
 1736SOL     OW 6106   3.427   3.897   0.981
 1736SOL    HW1 6107   3.336   3.934   1.000
 1736SOL    HW2 6108   3.442   3.815   1.035
 1737SOL     OW 6109   4.483   0.790   4.755
 1737SOL    HW1 6110   4.536   0.706   4.743
 1737SOL    HW2 6111   4.454   0.825   4.666
 1738SOL     OW 6112   2.155   2.671   4.536
 1738SOL    HW1 6113   2.119   2.588   4.494
 1738SOL    HW2 6114   2.079   2.730   4.565
 1739SOL     OW 6115   7.011   2.175   5.191
 1739SOL    HW1 6116   6.927   2.152   5.241
 1739SOL    HW2 6117   7.007   2.137   5.099
 1740SOL     OW 6118   6.879   2.367   4.959
 1740SOL    HW1 6119   6.967   2.335   4.922
 1740SOL    HW2 6120   6.895   2.419   5.042
 1741SOL     OW 6121   2.496   0.458   4.694
 1741SOL    HW1 6122   2.570   0.408   4.739
 1741SOL    HW2 6123   2.445   0.396   4.635
 1742SOL     OW 6124   6.040   0.714   5.387
 1742SOL    HW1 6125   6.049   0.789   5.321
 1742SOL    HW2 6126   6.101   0.640   5.361
 1743SOL     OW 6127   0.817   1.734   2.361
 1743SOL    HW1 6128   0.828   1.648   2.312
 1743SOL    HW2 6129   0.838   1.720   2.458
 1744SOL     OW 6130   6.233   3.745   3.446
 1744SOL    HW1 6131   6.259   3.823   3.503
 1744SOL    HW2 6132   6.165   3.690   3.494
 1745SOL     OW 6133   5.430   5.755   2.407
 1745SOL    HW1 6134   5.356   5.787   2.467
 1745SOL    HW2 6135   5.517   5.763   2.454
 1746SOL     OW 6136   1.391   4.032   4.141
 1746SOL    HW1 6137   1.366   3.985   4.225
 1746SOL    HW2 6138   1.329   4.005   4.068
 1747SOL     OW 6139   4.554   1.525   2.621
 1747SOL    HW1 6140   4.632   1.464   2.631
 1747SOL    HW2 6141   4.536   1.570   2.709
 1748SOL     OW 6142   0.223   2.136   4.563
 1748SOL    HW1 6143   0.301   2.080   4.537
 1748SOL    HW2 6144   0.149   2.077   4.597
 1749SOL     OW 6145   2.494   6.816   5.640
 1749SOL    HW1 6146   2.453   6.794   5.552
 1749SOL    HW2 6147   2.497   6.916   5.652
 1750SOL     OW 6148   5.189   6.214   3.638
 1750SOL    HW1 6149   5.201   6.241   3.542
 1750SOL    HW2 6150   5.134   6.282   3.685
 1751SOL     OW 6151   4.495   1.972   4.438
 1751SOL    HW1 6152   4.397   1.954   4.433
 1751SOL    HW2 6153   4.544   1.886   4.453
 1752SOL     OW 6154   6.157   0.965   2.291
 1752SOL    HW1 6155   6.170   1.047   2.346
 1752SOL    HW2 6156   6.156   0.885   2.350
 1753SOL     OW 6157   6.852   0.781   1.469
 1753SOL    HW1 6158   6.781   0.843   1.502
 1753SOL    HW2 6159   6.810   0.698   1.433
 1754SOL     OW 6160   1.382   4.768   6.769
 1754SOL    HW1 6161   1.446   4.704   6.813
 1754SOL    HW2 6162   1.423   4.805   6.686
 1755SOL     OW 6163   0.316   5.533   0.388
 1755SOL    HW1 6164   0.298   5.598   0.314
 1755SOL    HW2 6165   0.265   5.449   0.372
 1756SOL     OW 6166   4.118   5.412   5.406
 1756SOL    HW1 6167   4.169   5.346   5.351
 1756SOL    HW2 6168   4.055   5.363   5.466
 1757SOL     OW 6169   2.889   5.069   4.803
 1757SOL    HW1 6170   2.937   4.990   4.841
 1757SOL    HW2 6171   2.799   5.042   4.769
 1758SOL     OW 6172   1.932   1.204   4.508
 1758SOL    HW1 6173   1.999   1.230   4.578
 1758SOL    HW2 6174   1.845   1.183   4.551
 1759SOL     OW 6175   2.938   6.133   5.680
 1759SOL    HW1 6176   2.879   6.066   5.635
 1759SOL    HW2 6177   2.995   6.087   5.748
 1760SOL     OW 6178   5.678   0.718   3.414
 1760SOL    HW1 6179   5.689   0.737   3.317
 1760SOL    HW2 6180   5.582   0.696   3.433
 1761SOL     OW 6181   0.487   1.167   1.920
 1761SOL    HW1 6182   0.539   1.252   1.917
 1761SOL    HW2 6183   0.550   1.089   1.921
 1762SOL     OW 6184   0.141   1.233   4.344
 1762SOL    HW1 6185   0.149   1.135   4.326
 1762SOL    HW2 6186   0.080   1.248   4.421
 1763SOL     OW 6187   0.858   4.455   4.506
 1763SOL    HW1 6188   0.772   4.404   4.501
 1763SOL    HW2 6189   0.930   4.395   4.540
 1764SOL     OW 6190   2.111   3.237   2.118
 1764SOL    HW1 6191   2.149   3.323   2.084
 1764SOL    HW2 6192   2.020   3.224   2.080
 1765SOL     OW 6193   3.783   0.663   1.751
 1765SOL    HW1 6194   3.771   0.741   1.690
 1765SOL    HW2 6195   3.873   0.622   1.735
 1766SOL     OW 6196   5.905   4.939   3.660
 1766SOL    HW1 6197   5.963   4.990   3.597
 1766SOL    HW2 6198   5.951   4.930   3.748
 1767SOL     OW 6199   0.825   4.189   2.962
 1767SOL    HW1 6200   0.834   4.286   2.940
 1767SOL    HW2 6201   0.810   4.179   3.060
 1768SOL     OW 6202   3.346   0.702   6.691
 1768SOL    HW1 6203   3.281   0.628   6.673
 1768SOL    HW2 6204   3.409   0.711   6.614
 1769SOL     OW 6205   5.564   1.149   6.728
 1769SOL    HW1 6206   5.616   1.070   6.698
 1769SOL    HW2 6207   5.626   1.225   6.746
 1770SOL     OW 6208   6.757   4.784   5.064
 1770SOL    HW1 6209   6.807   4.758   4.982
 1770SOL    HW2 6210   6.740   4.883   5.063
 1771SOL     OW 6211   1.269   4.811   0.434
 1771SOL    HW1 6212   1.233   4.902   0.453
 1771SOL    HW2 6213   1.369   4.814   0.429
 1772SOL     OW 6214   3.669   6.025   3.601
 1772SOL    HW1 6215   3.728   5.959   3.554
 1772SOL    HW2 6216   3.578   6.024   3.559
 1773SOL     OW 6217   2.627   2.623   5.787
 1773SOL    HW1 6218   2.561   2.556   5.819
 1773SOL    HW2 6219   2.583   2.713   5.780
 1774SOL     OW 6220   5.453   6.322   1.916
 1774SOL    HW1 6221   5.491   6.333   1.824
 1774SOL    HW2 6222   5.439   6.225   1.935
 1775SOL     OW 6223   1.484   5.186   5.882
 1775SOL    HW1 6224   1.439   5.098   5.866
 1775SOL    HW2 6225   1.527   5.217   5.797
 1776SOL     OW 6226   5.074   0.789   6.302
 1776SOL    HW1 6227   5.032   0.758   6.388
 1776SOL    HW2 6228   5.025   0.869   6.269
 1777SOL     OW 6229   3.224   6.807   6.581
 1777SOL    HW1 6230   3.128   6.835   6.576
 1777SOL    HW2 6231   3.280   6.873   6.531
 1778SOL     OW 6232   5.000   1.932   3.890
 1778SOL    HW1 6233   4.950   2.004   3.937
 1778SOL    HW2 6234   5.043   1.872   3.957
 1779SOL     OW 6235   5.152   1.173   5.184
 1779SOL    HW1 6236   5.165   1.085   5.139
 1779SOL    HW2 6237   5.194   1.170   5.275
 1780SOL     OW 6238   2.021   3.986   5.563
 1780SOL    HW1 6239   2.056   3.945   5.478
 1780SOL    HW2 6240   2.075   3.953   5.640
 1781SOL     OW 6241   5.727   6.141   4.472
 1781SOL    HW1 6242   5.783   6.150   4.389
 1781SOL    HW2 6243   5.724   6.045   4.500
 1782SOL     OW 6244   2.663   0.662   2.591
 1782SOL    HW1 6245   2.611   0.585   2.554
 1782SOL    HW2 6246   2.754   0.663   2.550
 1783SOL     OW 6247   2.967   3.266   6.279
 1783SOL    HW1 6248   2.871   3.240   6.278
 1783SOL    HW2 6249   2.992   3.307   6.192
 1784SOL     OW 6250   2.331   1.434   1.164
 1784SOL    HW1 6251   2.395   1.505   1.136
 1784SOL    HW2 6252   2.366   1.344   1.139
 1785SOL     OW 6253   5.921   6.254   3.926
 1785SOL    HW1 6254   5.838   6.204   3.951
 1785SOL    HW2 6255   5.999   6.192   3.924
 1786SOL     OW 6256   1.967   4.429   0.108
 1786SOL    HW1 6257   2.044   4.382   0.152
 1786SOL    HW2 6258   1.956   4.393   0.015
 1787SOL     OW 6259   2.643   2.034   6.109
 1787SOL    HW1 6260   2.644   2.081   6.022
 1787SOL    HW2 6261   2.719   2.066   6.166
 1788SOL     OW 6262   4.484   4.169   6.902
 1788SOL    HW1 6263   4.491   4.201   6.807
 1788SOL    HW2 6264   4.442   4.078   6.903
 1789SOL     OW 6265   5.783   3.301   2.033
 1789SOL    HW1 6266   5.758   3.380   1.977
 1789SOL    HW2 6267   5.749   3.312   2.126
 1790SOL     OW 6268   2.501   0.888   4.608
 1790SOL    HW1 6269   2.431   0.923   4.546
 1790SOL    HW2 6270   2.483   0.921   4.701
 1791SOL     OW 6271   6.299   1.832   3.504
 1791SOL    HW1 6272   6.303   1.747   3.557
 1791SOL    HW2 6273   6.385   1.843   3.454
 1792SOL     OW 6274   6.808   1.355   4.301
 1792SOL    HW1 6275   6.848   1.303   4.376
 1792SOL    HW2 6276   6.880   1.404   4.252
 1793SOL     OW 6277   6.393   1.818   4.267
 1793SOL    HW1 6278   6.420   1.912   4.287
 1793SOL    HW2 6279   6.322   1.818   4.197
 1794SOL     OW 6280   5.241   6.541   5.034
 1794SOL    HW1 6281   5.173   6.577   5.097
 1794SOL    HW2 6282   5.226   6.443   5.021
 1795SOL     OW 6283   6.864   5.325   2.387
 1795SOL    HW1 6284   6.882   5.305   2.290
 1795SOL    HW2 6285   6.821   5.414   2.395
 1796SOL     OW 6286   2.810   1.724   5.502
 1796SOL    HW1 6287   2.720   1.690   5.477
 1796SOL    HW2 6288   2.857   1.758   5.421
 1797SOL     OW 6289   1.210   0.179   5.381
 1797SOL    HW1 6290   1.112   0.199   5.377
 1797SOL    HW2 6291   1.226   0.084   5.356
 1798SOL     OW 6292   3.539   2.867   4.874
 1798SOL    HW1 6293   3.538   2.941   4.806
 1798SOL    HW2 6294   3.633   2.835   4.887
 1799SOL     OW 6295   5.044   2.839   6.524
 1799SOL    HW1 6296   4.966   2.884   6.481
 1799SOL    HW2 6297   5.105   2.908   6.562
 1800SOL     OW 6298   4.996   5.186   3.595
 1800SOL    HW1 6299   5.061   5.181   3.670
 1800SOL    HW2 6300   5.041   5.223   3.513
 1801SOL     OW 6301   1.385   1.467   2.503
 1801SOL    HW1 6302   1.375   1.368   2.515
 1801SOL    HW2 6303   1.352   1.513   2.585
 1802SOL     OW 6304   6.740   5.987   3.610
 1802SOL    HW1 6305   6.733   5.964   3.707
 1802SOL    HW2 6306   6.651   5.977   3.566
 1803SOL     OW 6307   6.918   0.200   1.935
 1803SOL    HW1 6308   6.820   0.181   1.946
 1803SOL    HW2 6309   6.970   0.115   1.940
 1804SOL     OW 6310   4.223   3.677   5.149
 1804SOL    HW1 6311   4.283   3.596   5.148
 1804SOL    HW2 6312   4.176   3.683   5.237
 1805SOL     OW 6313   0.469   5.099   5.790
 1805SOL    HW1 6314   0.426   5.189   5.783
 1805SOL    HW2 6315   0.557   5.100   5.743
 1806SOL     OW 6316   0.752   2.644   1.756
 1806SOL    HW1 6317   0.740   2.708   1.680
 1806SOL    HW2 6318   0.734   2.690   1.842
 1807SOL     OW 6319   6.317   2.691   6.413
 1807SOL    HW1 6320   6.237   2.744   6.385
 1807SOL    HW2 6321   6.400   2.746   6.397
 1808SOL     OW 6322   6.077   4.096   4.536
 1808SOL    HW1 6323   6.024   4.083   4.620
 1808SOL    HW2 6324   6.094   4.008   4.493
 1809SOL     OW 6325   2.770   2.085   5.299
 1809SOL    HW1 6326   2.773   2.155   5.227
 1809SOL    HW2 6327   2.838   2.106   5.368
 1810SOL     OW 6328   0.704   0.537   4.691
 1810SOL    HW1 6329   0.800   0.514   4.673
 1810SOL    HW2 6330   0.645   0.474   4.640
 1811SOL     OW 6331   5.173   4.698   2.769
 1811SOL    HW1 6332   5.249   4.696   2.834
 1811SOL    HW2 6333   5.156   4.792   2.740
 1812SOL     OW 6334   4.404   6.659   6.946
 1812SOL    HW1 6335   4.371   6.624   6.858
 1812SOL    HW2 6336   4.444   6.750   6.933
 1813SOL     OW 6337   5.478   5.306   2.012
 1813SOL    HW1 6338   5.462   5.333   1.917
 1813SOL    HW2 6339   5.415   5.357   2.072
 1814SOL     OW 6340   6.197   0.516   0.688
 1814SOL    HW1 6341   6.260   0.583   0.725
 1814SOL    HW2 6342   6.153   0.467   0.763
 1815SOL     OW 6343   6.206   0.089   3.123
 1815SOL    HW1 6344   6.302   0.063   3.110
 1815SOL    HW2 6345   6.195   0.187   3.103
 1816SOL     OW 6346   3.319   4.824   6.654
 1816SOL    HW1 6347   3.327   4.740   6.707
 1816SOL    HW2 6348   3.307   4.802   6.557
 1817SOL     OW 6349   3.688   0.417   2.823
 1817SOL    HW1 6350   3.770   0.473   2.815
 1817SOL    HW2 6351   3.646   0.406   2.733
 1818SOL     OW 6352   1.599   0.184   0.419
 1818SOL    HW1 6353   1.539   0.110   0.447
 1818SOL    HW2 6354   1.614   0.246   0.496
 1819SOL     OW 6355   1.277   5.766   1.913
 1819SOL    HW1 6356   1.369   5.747   1.949
 1819SOL    HW2 6357   1.209   5.738   1.981
 1820SOL     OW 6358   3.117   0.313   2.287
 1820SOL    HW1 6359   3.189   0.281   2.226
 1820SOL    HW2 6360   3.065   0.386   2.243
 1821SOL     OW 6361   2.782   0.606   1.990
 1821SOL    HW1 6362   2.870   0.637   1.954
 1821SOL    HW2 6363   2.796   0.529   2.051
 1822SOL     OW 6364   1.255   3.205   1.179
 1822SOL    HW1 6365   1.312   3.252   1.246
 1822SOL    HW2 6366   1.224   3.270   1.110
 1823SOL     OW 6367   2.686   6.371   3.150
 1823SOL    HW1 6368   2.663   6.463   3.118
 1823SOL    HW2 6369   2.660   6.362   3.246
 1824SOL     OW 6370   3.913   4.018   0.202
 1824SOL    HW1 6371   3.895   3.998   0.106
 1824SOL    HW2 6372   4.007   4.052   0.212
 1825SOL     OW 6373   0.381   2.794   4.296
 1825SOL    HW1 6374   0.353   2.713   4.244
 1825SOL    HW2 6375   0.404   2.868   4.232
 1826SOL     OW 6376   2.726   0.537   1.423
 1826SOL    HW1 6377   2.711   0.517   1.326
 1826SOL    HW2 6378   2.749   0.453   1.471
 1827SOL     OW 6379   5.857   5.360   0.810
 1827SOL    HW1 6380   5.806   5.375   0.725
 1827SOL    HW2 6381   5.877   5.263   0.820
 1828SOL     OW 6382   1.551   2.599   6.624
 1828SOL    HW1 6383   1.587   2.518   6.670
 1828SOL    HW2 6384   1.513   2.662   6.692
 1829SOL     OW 6385   3.372   6.916   3.289
 1829SOL    HW1 6386   3.339   6.957   3.374
 1829SOL    HW2 6387   3.300   6.922   3.220
 1830SOL     OW 6388   5.648   6.350   4.157
 1830SOL    HW1 6389   5.643   6.257   4.122
 1830SOL    HW2 6390   5.661   6.414   4.082
 1831SOL     OW 6391   5.253   6.281   2.834
 1831SOL    HW1 6392   5.288   6.371   2.859
 1831SOL    HW2 6393   5.294   6.211   2.893
 1832SOL     OW 6394   4.013   1.831   0.226
 1832SOL    HW1 6395   4.072   1.912   0.230
 1832SOL    HW2 6396   4.064   1.752   0.261
 1833SOL     OW 6397   5.445   0.618   1.534
 1833SOL    HW1 6398   5.470   0.522   1.547
 1833SOL    HW2 6399   5.385   0.648   1.608
 1834SOL     OW 6400   2.403   3.993   1.246
 1834SOL    HW1 6401   2.353   4.006   1.160
 1834SOL    HW2 6402   2.496   4.029   1.236
 1835SOL     OW 6403   1.060   4.629   1.645
 1835SOL    HW1 6404   0.993   4.701   1.624
 1835SOL    HW2 6405   1.140   4.640   1.587
 1836SOL     OW 6406   5.594   2.455   1.826
 1836SOL    HW1 6407   5.502   2.417   1.838
 1836SOL    HW2 6408   5.654   2.386   1.784
 1837SOL     OW 6409   1.568   6.897   5.998
 1837SOL    HW1 6410   1.608   6.921   5.909
 1837SOL    HW2 6411   1.636   6.912   6.070
 1838SOL     OW 6412   5.645   0.743   5.975
 1838SOL    HW1 6413   5.678   0.801   6.049
 1838SOL    HW2 6414   5.562   0.695   6.004
 1839SOL     OW 6415   6.741   0.851   5.707
 1839SOL    HW1 6416   6.829   0.856   5.660
 1839SOL    HW2 6417   6.696   0.940   5.702
 1840SOL     OW 6418   3.898   0.155   2.286
 1840SOL    HW1 6419   3.804   0.125   2.303
 1840SOL    HW2 6420   3.908   0.251   2.315
 1841SOL     OW 6421   2.101   0.014   3.018
 1841SOL    HW1 6422   2.114   7.010   3.115
 1841SOL    HW2 6423   2.035   0.088   3.008
 1842SOL     OW 6424   0.841   5.794   1.148
 1842SOL    HW1 6425   0.859   5.697   1.165
 1842SOL    HW2 6426   0.766   5.826   1.206
 1843SOL     OW 6427   5.676   0.288   4.098
 1843SOL    HW1 6428   5.699   0.373   4.051
 1843SOL    HW2 6429   5.679   0.303   4.197
 1844SOL     OW 6430   3.912   0.582   5.111
 1844SOL    HW1 6431   3.974   0.655   5.138
 1844SOL    HW2 6432   3.872   0.603   5.022
 1845SOL     OW 6433   3.053   6.889   4.188
 1845SOL    HW1 6434   3.082   6.904   4.282
 1845SOL    HW2 6435   2.965   6.934   4.172
 1846SOL     OW 6436   3.984   0.820   3.399
 1846SOL    HW1 6437   4.044   0.780   3.468
 1846SOL    HW2 6438   3.904   0.860   3.443
 1847SOL     OW 6439   1.296   0.343   5.592
 1847SOL    HW1 6440   1.367   0.300   5.648
 1847SOL    HW2 6441   1.280   0.287   5.510
 1848SOL     OW 6442   2.083   6.383   3.757
 1848SOL    HW1 6443   2.137   6.324   3.818
 1848SOL    HW2 6444   1.998   6.335   3.733
 1849SOL     OW 6445   4.289   2.563   1.284
 1849SOL    HW1 6446   4.294   2.531   1.190
 1849SOL    HW2 6447   4.245   2.653   1.286
 1850SOL     OW 6448   5.929   2.060   2.601
 1850SOL    HW1 6449   5.950   2.026   2.510
 1850SOL    HW2 6450   5.833   2.086   2.606
 1851SOL     OW 6451   1.278   3.339   0.366
 1851SOL    HW1 6452   1.181   3.364   0.361
 1851SOL    HW2 6453   1.309   3.312   0.275
 1852SOL     OW 6454   0.356   4.900   2.713
 1852SOL    HW1 6455   0.433   4.851   2.673
 1852SOL    HW2 6456   0.384   4.940   2.800
 1853SOL     OW 6457   6.759   2.774   2.992
 1853SOL    HW1 6458   6.670   2.777   2.947
 1853SOL    HW2 6459   6.831   2.764   2.923
 1854SOL     OW 6460   1.556   5.029   2.599
 1854SOL    HW1 6461   1.503   4.989   2.674
 1854SOL    HW2 6462   1.529   5.125   2.588
 1855SOL     OW 6463   5.130   3.267   5.619
 1855SOL    HW1 6464   5.191   3.220   5.556
 1855SOL    HW2 6465   5.053   3.306   5.568
 1856SOL     OW 6466   4.421   3.176   6.384
 1856SOL    HW1 6467   4.348   3.238   6.414
 1856SOL    HW2 6468   4.437   3.108   6.456
 1857SOL     OW 6469   4.454   1.528   0.041
 1857SOL    HW1 6470   4.437   1.440   0.086
 1857SOL    HW2 6471   4.368   1.577   0.032
 1858SOL     OW 6472   5.094   2.522   3.459
 1858SOL    HW1 6473   5.008   2.495   3.503
 1858SOL    HW2 6474   5.089   2.618   3.433
 1859SOL     OW 6475   4.469   1.673   3.527
 1859SOL    HW1 6476   4.505   1.608   3.594
 1859SOL    HW2 6477   4.482   1.637   3.435
 1860SOL     OW 6478   0.044   1.294   5.489
 1860SOL    HW1 6479   0.112   1.326   5.555
 1860SOL    HW2 6480   6.970   1.330   5.514
 1861SOL     OW 6481   4.949   0.628   3.051
 1861SOL    HW1 6482   4.904   0.641   2.963
 1861SOL    HW2 6483   4.885   0.586   3.115
 1862SOL     OW 6484   1.725   6.398   6.863
 1862SOL    HW1 6485   1.699   6.486   6.903
 1862SOL    HW2 6486   1.665   6.327   6.898
 1863SOL     OW 6487   6.683   2.588   2.159
 1863SOL    HW1 6488   6.641   2.546   2.239
 1863SOL    HW2 6489   6.613   2.639   2.108
 1864SOL     OW 6490   3.505   5.781   4.543
 1864SOL    HW1 6491   3.424   5.803   4.597
 1864SOL    HW2 6492   3.550   5.865   4.514
 1865SOL     OW 6493   3.087   1.087   1.017
 1865SOL    HW1 6494   3.145   1.008   1.035
 1865SOL    HW2 6495   3.042   1.076   0.928
 1866SOL     OW 6496   6.547   5.078   3.803
 1866SOL    HW1 6497   6.455   5.063   3.768
 1866SOL    HW2 6498   6.556   5.173   3.834
 1867SOL     OW 6499   2.109   3.438   1.509
 1867SOL    HW1 6500   2.205   3.444   1.484
 1867SOL    HW2 6501   2.101   3.420   1.607
 1868SOL     OW 6502   5.188   3.652   6.469
 1868SOL    HW1 6503   5.187   3.591   6.390
 1868SOL    HW2 6504   5.243   3.611   6.542
 1869SOL     OW 6505   6.494   3.465   4.555
 1869SOL    HW1 6506   6.464   3.423   4.469
 1869SOL    HW2 6507   6.556   3.402   4.602
 1870SOL     OW 6508   1.294   2.859   5.074
 1870SOL    HW1 6509   1.219   2.916   5.040
 1870SOL    HW2 6510   1.378   2.914   5.079
 1871SOL     OW 6511   6.139   6.892   0.292
 1871SOL    HW1 6512   6.222   6.856   0.334
 1871SOL    HW2 6513   6.109   6.973   0.343
 1872SOL     OW 6514   4.625   2.171   0.019
 1872SOL    HW1 6515   4.725   2.175   0.027
 1872SOL    HW2 6516   4.596   2.076   0.007
 1873SOL     OW 6517   6.753   0.443   5.605
 1873SOL    HW1 6518   6.818   0.512   5.574
 1873SOL    HW2 6519   6.728   0.461   5.701
 1874SOL     OW 6520   0.735   1.097   6.310
 1874SOL    HW1 6521   0.677   1.170   6.348
 1874SOL    HW2 6522   0.830   1.127   6.309
 1875SOL     OW 6523   6.540   6.829   0.500
 1875SOL    HW1 6524   6.567   6.896   0.431
 1875SOL    HW2 6525   6.600   6.837   0.580
 1876SOL     OW 6526   4.538   6.070   6.621
 1876SOL    HW1 6527   4.454   6.082   6.674
 1876SOL    HW2 6528   4.588   6.157   6.618
 1877SOL     OW 6529   0.816   1.814   3.303
 1877SOL    HW1 6530   0.905   1.773   3.321
 1877SOL    HW2 6531   0.759   1.751   3.250
 1878SOL     OW 6532   0.173   4.395   4.010
 1878SOL    HW1 6533   0.161   4.298   4.034
 1878SOL    HW2 6534   0.163   4.450   4.093
 1879SOL     OW 6535   2.663   5.949   3.967
 1879SOL    HW1 6536   2.738   5.911   4.021
 1879SOL    HW2 6537   2.606   6.008   4.024
 1880SOL     OW 6538   0.253   2.105   3.002
 1880SOL    HW1 6539   0.334   2.111   3.060
 1880SOL    HW2 6540   0.264   2.028   2.939
 1881SOL     OW 6541   1.181   1.895   3.605
 1881SOL    HW1 6542   1.276   1.875   3.580
 1881SOL    HW2 6543   1.124   1.814   3.591
 1882SOL     OW 6544   0.775   5.307   6.731
 1882SOL    HW1 6545   0.847   5.260   6.782
 1882SOL    HW2 6546   0.781   5.405   6.747
 1883SOL     OW 6547   0.886   3.500   3.958
 1883SOL    HW1 6548   0.794   3.507   3.996
 1883SOL    HW2 6549   0.927   3.591   3.955
 1884SOL     OW 6550   5.890   2.116   0.837
 1884SOL    HW1 6551   5.893   2.026   0.880
 1884SOL    HW2 6552   5.888   2.105   0.737
 1885SOL     OW 6553   0.155   2.204   1.253
 1885SOL    HW1 6554   0.107   2.199   1.340
 1885SOL    HW2 6555   0.093   2.180   1.179
 1886SOL     OW 6556   1.962   2.019   0.297
 1886SOL    HW1 6557   2.025   2.079   0.346
 1886SOL    HW2 6558   1.987   1.924   0.314
 1887SOL     OW 6559   0.417   4.573   5.802
 1887SOL    HW1 6560   0.414   4.629   5.884
 1887SOL    HW2 6561   0.326   4.572   5.759
 1888SOL     OW 6562   1.953   2.005   6.311
 1888SOL    HW1 6563   2.037   1.953   6.297
 1888SOL    HW2 6564   1.913   1.981   6.400
 1889SOL     OW 6565   4.822   3.275   6.539
 1889SOL    HW1 6566   4.749   3.227   6.587
 1889SOL    HW2 6567   4.848   3.357   6.590
 1890SOL     OW 6568   1.424   5.906   5.759
 1890SOL    HW1 6569   1.336   5.936   5.722
 1890SOL    HW2 6570   1.478   5.986   5.786
 1891SOL     OW 6571   5.288   3.423   4.325
 1891SOL    HW1 6572   5.195   3.425   4.363
 1891SOL    HW2 6573   5.349   3.380   4.390
 1892SOL     OW 6574   3.541   6.693   1.102
 1892SOL    HW1 6575   3.554   6.636   1.021
 1892SOL    HW2 6576   3.473   6.652   1.162
 1893SOL     OW 6577   3.642   1.834   5.308
 1893SOL    HW1 6578   3.560   1.825   5.364
 1893SOL    HW2 6579   3.637   1.918   5.254
 1894SOL     OW 6580   4.311   3.810   1.364
 1894SOL    HW1 6581   4.303   3.820   1.463
 1894SOL    HW2 6582   4.316   3.713   1.341
 1895SOL     OW 6583   5.707   0.841   2.838
 1895SOL    HW1 6584   5.624   0.819   2.787
 1895SOL    HW2 6585   5.714   0.940   2.850
 1896SOL     OW 6586   0.142   0.681   3.420
 1896SOL    HW1 6587   0.160   0.720   3.511
 1896SOL    HW2 6588   0.202   0.725   3.354
 1897SOL     OW 6589   6.875   5.075   3.415
 1897SOL    HW1 6590   6.852   5.104   3.508
 1897SOL    HW2 6591   6.975   5.070   3.405
 1898SOL     OW 6592   2.888   5.359   1.951
 1898SOL    HW1 6593   2.898   5.267   1.990
 1898SOL    HW2 6594   2.890   5.427   2.025
 1899SOL     OW 6595   0.982   2.762   2.808
 1899SOL    HW1 6596   0.974   2.689   2.876
 1899SOL    HW2 6597   1.023   2.843   2.850
 1900SOL     OW 6598   0.977   0.308   5.653
 1900SOL    HW1 6599   0.936   0.380   5.597
 1900SOL    HW2 6600   1.076   0.310   5.643
 1901SOL     OW 6601   2.399   1.306   1.437
 1901SOL    HW1 6602   2.304   1.279   1.451
 1901SOL    HW2 6603   2.407   1.353   1.349
 1902SOL     OW 6604   2.821   2.270   4.634
 1902SOL    HW1 6605   2.769   2.314   4.560
 1902SOL    HW2 6606   2.804   2.317   4.720
 1903SOL     OW 6607   6.919   4.495   3.797
 1903SOL    HW1 6608   6.979   4.449   3.863
 1903SOL    HW2 6609   6.826   4.496   3.833
 1904SOL     OW 6610   6.295   0.096   3.762
 1904SOL    HW1 6611   6.222   0.047   3.714
 1904SOL    HW2 6612   6.294   0.071   3.859
 1905SOL     OW 6613   0.836   2.284   4.197
 1905SOL    HW1 6614   0.879   2.337   4.270
 1905SOL    HW2 6615   0.905   2.255   4.131
 1906SOL     OW 6616   2.808   0.211   5.401
 1906SOL    HW1 6617   2.710   0.231   5.401
 1906SOL    HW2 6618   2.847   0.232   5.311
 1907SOL     OW 6619   3.052   6.541   3.405
 1907SOL    HW1 6620   3.041   6.597   3.487
 1907SOL    HW2 6621   3.147   6.546   3.373
 1908SOL     OW 6622   4.840   0.638   4.922
 1908SOL    HW1 6623   4.761   0.699   4.932
 1908SOL    HW2 6624   4.918   0.689   4.887
 1909SOL     OW 6625   1.709   4.234   3.034
 1909SOL    HW1 6626   1.703   4.201   3.128
 1909SOL    HW2 6627   1.639   4.190   2.978
 1910SOL     OW 6628   6.447   2.323   0.135
 1910SOL    HW1 6629   6.417   2.272   0.054
 1910SOL    HW2 6630   6.367   2.355   0.186
 1911SOL     OW 6631   6.151   2.080   5.503
 1911SOL    HW1 6632   6.149   2.086   5.403
 1911SOL    HW2 6633   6.066   2.039   5.536
 1912SOL     OW 6634   4.024   6.540   1.731
 1912SOL    HW1 6635   4.114   6.585   1.732
 1912SOL    HW2 6636   3.979   6.555   1.819
 1913SOL     OW 6637   2.100   6.222   5.516
 1913SOL    HW1 6638   2.160   6.143   5.532
 1913SOL    HW2 6639   2.009   6.203   5.554
 1914SOL     OW 6640   2.806   2.728   6.891
 1914SOL    HW1 6641   2.797   2.749   6.988
 1914SOL    HW2 6642   2.881   2.664   6.877
 1915SOL     OW 6643   4.201   1.225   5.471
 1915SOL    HW1 6644   4.186   1.322   5.490
 1915SOL    HW2 6645   4.230   1.213   5.376
 1916SOL     OW 6646   3.165   5.828   0.706
 1916SOL    HW1 6647   3.126   5.919   0.716
 1916SOL    HW2 6648   3.098   5.759   0.735
 1917SOL     OW 6649   4.007   3.331   4.694
 1917SOL    HW1 6650   3.935   3.400   4.681
 1917SOL    HW2 6651   4.086   3.354   4.637
 1918SOL     OW 6652   6.945   6.969   6.571
 1918SOL    HW1 6653   6.881   0.019   6.534
 1918SOL    HW2 6654   0.018   7.013   6.587
 1919SOL     OW 6655   1.865   6.756   2.027
 1919SOL    HW1 6656   1.803   6.679   2.013
 1919SOL    HW2 6657   1.861   6.817   1.947
 1920SOL     OW 6658   0.496   5.068   3.219
 1920SOL    HW1 6659   0.587   5.091   3.182
 1920SOL    HW2 6660   0.506   5.030   3.311
 1921SOL     OW 6661   1.146   4.140   6.703
 1921SOL    HW1 6662   1.107   4.102   6.619
 1921SOL    HW2 6663   1.146   4.240   6.698
 1922SOL     OW 6664   3.599   4.326   0.983
 1922SOL    HW1 6665   3.530   4.353   0.915
 1922SOL    HW2 6666   3.594   4.227   0.998
 1923SOL     OW 6667   3.750   0.791   6.497
 1923SOL    HW1 6668   3.782   0.744   6.579
 1923SOL    HW2 6669   3.789   0.884   6.495
 1924SOL     OW 6670   5.891   5.462   1.974
 1924SOL    HW1 6671   5.928   5.504   2.056
 1924SOL    HW2 6672   5.953   5.480   1.897
 1925SOL     OW 6673   3.102   4.049   2.067
 1925SOL    HW1 6674   3.114   3.987   2.144
 1925SOL    HW2 6675   3.007   4.081   2.064
 1926SOL     OW 6676   0.922   0.133   3.924
 1926SOL    HW1 6677   0.878   0.044   3.939
 1926SOL    HW2 6678   0.984   0.152   4.000
 1927SOL     OW 6679   3.533   5.108   6.446
 1927SOL    HW1 6680   3.624   5.102   6.405
 1927SOL    HW2 6681   3.509   5.020   6.486
 1928SOL     OW 6682   6.899   3.716   6.023
 1928SOL    HW1 6683   6.847   3.633   6.042
 1928SOL    HW2 6684   6.838   3.785   5.984
 1929SOL     OW 6685   0.711   6.152   0.934
 1929SOL    HW1 6686   0.778   6.105   0.876
 1929SOL    HW2 6687   0.677   6.233   0.886
 1930SOL     OW 6688   4.111   3.557   0.076
 1930SOL    HW1 6689   4.012   3.565   0.062
 1930SOL    HW2 6690   4.153   3.517   7.010
 1931SOL     OW 6691   0.324   2.769   3.166
 1931SOL    HW1 6692   0.388   2.694   3.182
 1931SOL    HW2 6693   0.320   2.826   3.248
 1932SOL     OW 6694   4.996   4.276   2.321
 1932SOL    HW1 6695   4.969   4.278   2.224
 1932SOL    HW2 6696   5.086   4.317   2.331
 1933SOL     OW 6697   3.066   4.302   0.314
 1933SOL    HW1 6698   3.131   4.237   0.276
 1933SOL    HW2 6699   2.979   4.256   0.331
 1934SOL     OW 6700   0.328   0.508   4.635
 1934SOL    HW1 6701   0.363   0.585   4.582
 1934SOL    HW2 6702   0.245   0.536   4.684
 1935SOL     OW 6703   3.257   0.272   4.715
 1935SOL    HW1 6704   3.194   0.330   4.767
 1935SOL    HW2 6705   3.277   0.314   4.627
 1936SOL     OW 6706   6.444   4.074   4.509
 1936SOL    HW1 6707   6.353   4.095   4.473
 1936SOL    HW2 6708   6.496   4.023   4.441
 1937SOL     OW 6709   4.919   6.431   0.837
 1937SOL    HW1 6710   4.955   6.370   0.906
 1937SOL    HW2 6711   4.895   6.519   0.878
 1938SOL     OW 6712   3.708   1.381   2.351
 1938SOL    HW1 6713   3.742   1.303   2.404
 1938SOL    HW2 6714   3.727   1.466   2.401
 1939SOL     OW 6715   0.554   6.854   4.935
 1939SOL    HW1 6716   0.520   6.797   4.860
 1939SOL    HW2 6717   0.588   6.795   5.008
 1940SOL     OW 6718   4.683   5.056   6.608
 1940SOL    HW1 6719   4.585   5.039   6.618
 1940SOL    HW2 6720   4.731   5.025   6.690
 1941SOL     OW 6721   0.256   3.959   3.090
 1941SOL    HW1 6722   0.191   3.899   3.044
 1941SOL    HW2 6723   0.323   3.904   3.139
 1942SOL     OW 6724   5.833   0.568   2.526
 1942SOL    HW1 6725   5.846   0.575   2.625
 1942SOL    HW2 6726   5.844   0.473   2.498
 1943SOL     OW 6727   2.570   6.323   2.068
 1943SOL    HW1 6728   2.657   6.288   2.104
 1943SOL    HW2 6729   2.495   6.289   2.124
 1944SOL     OW 6730   5.706   1.925   6.924
 1944SOL    HW1 6731   5.657   1.990   6.864
 1944SOL    HW2 6732   5.682   1.944   0.003
 1945SOL     OW 6733   3.805   6.079   2.606
 1945SOL    HW1 6734   3.722   6.079   2.551
 1945SOL    HW2 6735   3.875   6.135   2.561
 1946SOL     OW 6736   5.868   0.743   1.262
 1946SOL    HW1 6737   5.908   0.655   1.288
 1946SOL    HW2 6738   5.771   0.744   1.287
 1947SOL     OW 6739   4.947   6.457   4.157
 1947SOL    HW1 6740   4.982   6.374   4.200
 1947SOL    HW2 6741   4.974   6.537   4.212
 1948SOL     OW 6742   5.720   5.926   3.824
 1948SOL    HW1 6743   5.714   5.930   3.724
 1948SOL    HW2 6744   5.707   5.832   3.854
 1949SOL     OW 6745   4.257   4.229   6.057
 1949SOL    HW1 6746   4.234   4.323   6.081
 1949SOL    HW2 6747   4.242   4.214   5.960
 1950SOL     OW 6748   3.715   5.046   1.293
 1950SOL    HW1 6749   3.681   4.997   1.213
 1950SOL    HW2 6750   3.640   5.099   1.334
 1951SOL     OW 6751   6.255   4.245   0.338
 1951SOL    HW1 6752   6.209   4.309   0.277
 1951SOL    HW2 6753   6.343   4.219   0.298
 1952SOL     OW 6754   3.854   2.283   6.932
 1952SOL    HW1 6755   3.790   2.342   6.882
 1952SOL    HW2 6756   3.894   2.217   6.868
 1953SOL     OW 6757   6.157   3.234   6.903
 1953SOL    HW1 6758   6.244   3.228   6.853
 1953SOL    HW2 6759   6.159   3.171   6.981
 1954SOL     OW 6760   5.445   1.233   4.292
 1954SOL    HW1 6761   5.486   1.314   4.250
 1954SOL    HW2 6762   5.483   1.220   4.383
 1955SOL     OW 6763   1.576   1.011   2.422
 1955SOL    HW1 6764   1.503   0.952   2.386
 1955SOL    HW2 6765   1.654   0.955   2.448
 1956SOL     OW 6766   5.177   0.313   2.170
 1956SOL    HW1 6767   5.267   0.317   2.214
 1956SOL    HW2 6768   5.114   0.376   2.216
 1957SOL     OW 6769   6.246   6.060   4.789
 1957SOL    HW1 6770   6.177   6.131   4.788
 1957SOL    HW2 6771   6.314   6.079   4.718
 1958SOL     OW 6772   5.641   2.806   2.470
 1958SOL    HW1 6773   5.583   2.869   2.418
 1958SOL    HW2 6774   5.626   2.713   2.439
 1959SOL     OW 6775   0.741   1.387   5.540
 1959SOL    HW1 6776   0.680   1.454   5.583
 1959SOL    HW2 6777   0.695   1.345   5.462
 1960SOL     OW 6778   0.090   4.325   1.359
 1960SOL    HW1 6779   0.180   4.356   1.329
 1960SOL    HW2 6780   0.084   4.226   1.349
 1961SOL     OW 6781   6.025   4.842   4.441
 1961SOL    HW1 6782   6.045   4.759   4.493
 1961SOL    HW2 6783   6.109   4.894   4.426
 1962SOL     OW 6784   2.350   6.751   3.599
 1962SOL    HW1 6785   2.353   6.851   3.600
 1962SOL    HW2 6786   2.301   6.720   3.517
 1963SOL     OW 6787   1.029   1.078   1.448
 1963SOL    HW1 6788   1.091   1.114   1.517
 1963SOL    HW2 6789   1.074   1.005   1.396
 1964SOL     OW 6790   4.682   3.508   1.382
 1964SOL    HW1 6791   4.664   3.568   1.460
 1964SOL    HW2 6792   4.760   3.449   1.404
 1965SOL     OW 6793   1.065   3.234   4.127
 1965SOL    HW1 6794   1.053   3.149   4.075
 1965SOL    HW2 6795   1.141   3.223   4.190
 1966SOL     OW 6796   6.822   6.004   6.637
 1966SOL    HW1 6797   6.782   5.953   6.713
 1966SOL    HW2 6798   6.748   6.037   6.578
 1967SOL     OW 6799   4.604   2.326   4.792
 1967SOL    HW1 6800   4.655   2.377   4.723
 1967SOL    HW2 6801   4.522   2.377   4.818
 1968SOL     OW 6802   3.400   6.467   0.697
 1968SOL    HW1 6803   3.336   6.501   0.627
 1968SOL    HW2 6804   3.362   6.384   0.739
 1969SOL     OW 6805   0.864   1.701   2.065
 1969SOL    HW1 6806   0.897   1.762   1.993
 1969SOL    HW2 6807   0.793   1.748   2.117
 1970SOL     OW 6808   2.214   0.234   6.115
 1970SOL    HW1 6809   2.129   0.250   6.165
 1970SOL    HW2 6810   2.265   0.320   6.108
 1971SOL     OW 6811   6.998   0.266   5.956
 1971SOL    HW1 6812   7.007   0.330   5.880
 1971SOL    HW2 6813   0.064   0.210   5.963
 1972SOL     OW 6814   5.497   3.040   2.847
 1972SOL    HW1 6815   5.535   2.957   2.806
 1972SOL    HW2 6816   5.425   3.015   2.912
 1973SOL     OW 6817   2.519   2.899   0.650
 1973SOL    HW1 6818   2.591   2.945   0.598
 1973SOL    HW2 6819   2.436   2.891   0.594
 1974SOL     OW 6820   5.893   6.140   4.256
 1974SOL    HW1 6821   5.971   6.202   4.249
 1974SOL    HW2 6822   5.870   6.105   4.165
 1975SOL     OW 6823   2.356   1.730   3.521
 1975SOL    HW1 6824   2.375   1.644   3.474
 1975SOL    HW2 6825   2.292   1.713   3.596
 1976SOL     OW 6826   0.444   5.914   0.628
 1976SOL    HW1 6827   0.459   5.918   0.529
 1976SOL    HW2 6828   0.373   5.847   0.649
 1977SOL     OW 6829   0.927   3.241   3.805
 1977SOL    HW1 6830   0.938   3.172   3.876
 1977SOL    HW2 6831   0.904   3.329   3.848
 1978SOL     OW 6832   0.647   0.913   3.282
 1978SOL    HW1 6833   0.644   0.931   3.184
 1978SOL    HW2 6834   0.578   0.968   3.329
 1979SOL     OW 6835   6.268   4.431   5.454
 1979SOL    HW1 6836   6.238   4.440   5.549
 1979SOL    HW2 6837   6.216   4.359   5.409
 1980SOL     OW 6838   2.878   1.162   5.936
 1980SOL    HW1 6839   2.943   1.090   5.912
 1980SOL    HW2 6840   2.797   1.156   5.877
 1981SOL     OW 6841   6.095   2.219   2.712
 1981SOL    HW1 6842   6.033   2.149   2.676
 1981SOL    HW2 6843   6.086   2.303   2.658
 1982SOL     OW 6844   0.480   3.788   5.404
 1982SOL    HW1 6845   0.402   3.811   5.346
 1982SOL    HW2 6846   0.513   3.871   5.450
 1983SOL     OW 6847   0.723   0.731   2.570
 1983SOL    HW1 6848   0.817   0.710   2.595
 1983SOL    HW2 6849   0.721   0.814   2.514
 1984SOL     OW 6850   6.426   2.309   4.953
 1984SOL    HW1 6851   6.395   2.231   4.898
 1984SOL    HW2 6852   6.402   2.293   5.049
 1985SOL     OW 6853   0.922   6.591   2.920
 1985SOL    HW1 6854   0.995   6.544   2.970
 1985SOL    HW2 6855   0.889   6.532   2.846
 1986SOL     OW 6856   1.280   0.567   0.080
 1986SOL    HW1 6857   1.202   0.623   0.110
 1986SOL    HW2 6858   1.328   0.531   0.160
 1987SOL     OW 6859   1.304   2.755   1.192
 1987SOL    HW1 6860   1.291   2.729   1.288
 1987SOL    HW2 6861   1.215   2.759   1.146
 1988SOL     OW 6862   5.698   4.697   0.934
 1988SOL    HW1 6863   5.616   4.654   0.971
 1988SOL    HW2 6864   5.722   4.776   0.990
 1989SOL     OW 6865   2.708   6.545   4.685
 1989SOL    HW1 6866   2.764   6.481   4.738
 1989SOL    HW2 6867   2.762   6.580   4.609
 1990SOL     OW 6868   3.223   6.138   0.273
 1990SOL    HW1 6869   3.253   6.098   0.360
 1990SOL    HW2 6870   3.136   6.097   0.246
 1991SOL     OW 6871   4.383   4.814   6.396
 1991SOL    HW1 6872   4.301   4.771   6.434
 1991SOL    HW2 6873   4.442   4.845   6.471
 1992SOL     OW 6874   0.656   0.477   6.603
 1992SOL    HW1 6875   0.657   0.541   6.680
 1992SOL    HW2 6876   0.575   0.418   6.609
 1993SOL     OW 6877   3.948   3.096   4.563
 1993SOL    HW1 6878   3.970   3.175   4.619
 1993SOL    HW2 6879   3.852   3.102   4.533
 1994SOL     OW 6880   0.984   1.210   0.068
 1994SOL    HW1 6881   1.049   1.198   0.143
 1994SOL    HW2 6882   0.891   1.213   0.104
 1995SOL     OW 6883   5.562   2.554   2.703
 1995SOL    HW1 6884   5.501   2.600   2.638
 1995SOL    HW2 6885   5.510   2.483   2.752
 1996SOL     OW 6886   2.296   3.573   0.478
 1996SOL    HW1 6887   2.206   3.533   0.459
 1996SOL    HW2 6888   2.302   3.664   0.435
 1997SOL     OW 6889   4.269   0.793   4.949
 1997SOL    HW1 6890   4.347   0.767   4.891
 1997SOL    HW2 6891   4.184   0.777   4.899
 1998SOL     OW 6892   3.304   3.902   6.465
 1998SOL    HW1 6893   3.381   3.918   6.402
 1998SOL    HW2 6894   3.320   3.818   6.516
 1999SOL     OW 6895   3.459   6.638   1.639
 1999SOL    HW1 6896   3.521   6.714   1.655
 1999SOL    HW2 6897   3.407   6.619   1.722
 2000SOL     OW 6898   4.275   2.106   5.034
 2000SOL    HW1 6899   4.182   2.069   5.028
 2000SOL    HW2 6900   4.324   2.089   4.949
 2001SOL     OW 6901   3.198   1.271   1.701
 2001SOL    HW1 6902   3.258   1.218   1.761
 2001SOL    HW2 6903   3.203   1.234   1.608
 2002SOL     OW 6904   1.097   4.505   6.190
 2002SOL    HW1 6905   1.161   4.466   6.123
 2002SOL    HW2 6906   1.029   4.436   6.215
 2003SOL     OW 6907   5.805   6.205   3.297
 2003SOL    HW1 6908   5.775   6.267   3.225
 2003SOL    HW2 6909   5.856   6.129   3.257
 2004SOL     OW 6910   4.627   1.188   5.290
 2004SOL    HW1 6911   4.560   1.212   5.360
 2004SOL    HW2 6912   4.637   1.089   5.286
 2005SOL     OW 6913   0.897   4.461   6.995
 2005SOL    HW1 6914   0.984   4.488   6.953
 2005SOL    HW2 6915   0.822   4.508   6.948
 2006SOL     OW 6916   5.107   4.998   4.219
 2006SOL    HW1 6917   5.171   4.937   4.172
 2006SOL    HW2 6918   5.014   4.982   4.183
 2007SOL     OW 6919   4.380   4.906   1.034
 2007SOL    HW1 6920   4.359   4.994   0.992
 2007SOL    HW2 6921   4.378   4.915   1.133
 2008SOL     OW 6922   1.366   5.122   3.185
 2008SOL    HW1 6923   1.281   5.103   3.233
 2008SOL    HW2 6924   1.443   5.083   3.237
 2009SOL     OW 6925   6.252   0.149   2.142
 2009SOL    HW1 6926   6.159   0.184   2.131
 2009SOL    HW2 6927   6.264   0.114   2.235
 2010SOL     OW 6928   2.156   1.752   0.727
 2010SOL    HW1 6929   2.193   1.666   0.762
 2010SOL    HW2 6930   2.169   1.824   0.796
 2011SOL     OW 6931   6.813   1.593   4.683
 2011SOL    HW1 6932   6.899   1.544   4.669
 2011SOL    HW2 6933   6.736   1.534   4.657
 2012SOL     OW 6934   1.635   2.580   1.897
 2012SOL    HW1 6935   1.687   2.532   1.826
 2012SOL    HW2 6936   1.627   2.522   1.978
 2013SOL     OW 6937   6.419   1.488   3.499
 2013SOL    HW1 6938   6.321   1.502   3.512
 2013SOL    HW2 6939   6.435   1.446   3.410
 2014SOL     OW 6940   1.898   4.816   2.870
 2014SOL    HW1 6941   1.928   4.830   2.964
 2014SOL    HW2 6942   1.892   4.718   2.851
 2015SOL     OW 6943   1.966   1.410   0.482
 2015SOL    HW1 6944   1.929   1.321   0.507
 2015SOL    HW2 6945   1.891   1.474   0.465
 2016SOL     OW 6946   0.713   5.693   4.860
 2016SOL    HW1 6947   0.803   5.650   4.872
 2016SOL    HW2 6948   0.669   5.657   4.778
 2017SOL     OW 6949   2.429   0.023   4.689
 2017SOL    HW1 6950   2.491   0.023   4.768
 2017SOL    HW2 6951   2.446   6.957   4.634
 2018SOL     OW 6952   5.552   0.032   5.660
 2018SOL    HW1 6953   5.551   0.013   5.561
 2018SOL    HW2 6954   5.641   0.070   5.685
 2019SOL     OW 6955   4.990   2.243   2.101
 2019SOL    HW1 6956   5.053   2.298   2.154
 2019SOL    HW2 6957   5.033   2.217   2.014
 2020SOL     OW 6958   0.624   6.058   5.273
 2020SOL    HW1 6959   0.631   6.158   5.278
 2020SOL    HW2 6960   0.709   6.017   5.306
 2021SOL     OW 6961   2.129   5.503   3.162
 2021SOL    HW1 6962   2.160   5.524   3.255
 2021SOL    HW2 6963   2.207   5.473   3.107
 2022SOL     OW 6964   1.961   3.495   3.277
 2022SOL    HW1 6965   1.874   3.533   3.248
 2022SOL    HW2 6966   2.034   3.528   3.217
 2023SOL     OW 6967   6.358   1.048   6.016
 2023SOL    HW1 6968   6.268   1.021   5.984
 2023SOL    HW2 6969   6.424   0.974   5.998
 2024SOL     OW 6970   6.925   6.883   3.054
 2024SOL    HW1 6971   6.852   6.944   3.085
 2024SOL    HW2 6972   6.918   6.795   3.101
 2025SOL     OW 6973   3.072   2.204   2.718
 2025SOL    HW1 6974   3.038   2.177   2.808
 2025SOL    HW2 6975   2.997   2.241   2.663
 2026SOL     OW 6976   0.599   3.062   6.459
 2026SOL    HW1 6977   0.629   3.139   6.515
 2026SOL    HW2 6978   0.658   3.054   6.379
 2027SOL     OW 6979   0.637   0.583   0.266
 2027SOL    HW1 6980   0.689   0.606   0.348
 2027SOL    HW2 6981   0.550   0.630   0.268
 2028SOL     OW 6982   2.913   1.408   6.047
 2028SOL    HW1 6983   2.983   1.468   6.009
 2028SOL    HW2 6984   2.903   1.327   5.988
 2029SOL     OW 6985   6.197   0.375   1.223
 2029SOL    HW1 6986   6.222   0.322   1.142
 2029SOL    HW2 6987   6.255   0.346   1.300
 2030SOL     OW 6988   2.399   0.526   2.853
 2030SOL    HW1 6989   2.447   0.614   2.853
 2030SOL    HW2 6990   2.315   0.535   2.800
 2031SOL     OW 6991   6.651   6.506   2.239
 2031SOL    HW1 6992   6.750   6.495   2.248
 2031SOL    HW2 6993   6.631   6.589   2.187
 2032SOL     OW 6994   5.238   6.489   1.799
 2032SOL    HW1 6995   5.178   6.563   1.829
 2032SOL    HW2 6996   5.195   6.440   1.723
 2033SOL     OW 6997   3.607   4.189   6.942
 2033SOL    HW1 6998   3.666   4.114   6.971
 2033SOL    HW2 6999   3.621   4.207   6.845
 2034SOL     OW 7000   3.268   6.517   4.830
 2034SOL    HW1 7001   3.201   6.525   4.903
 2034SOL    HW2 7002   3.234   6.565   4.748
 2035SOL     OW 7003   0.010   0.755   1.679
 2035SOL    HW1 7004   6.961   0.765   1.604
 2035SOL    HW2 7005   6.976   0.740   1.764
 2036SOL     OW 7006   1.000   5.234   2.970
 2036SOL    HW1 7007   0.926   5.269   2.913
 2036SOL    HW2 7008   1.064   5.183   2.914
 2037SOL     OW 7009   0.099   3.204   5.878
 2037SOL    HW1 7010   0.103   3.161   5.968
 2037SOL    HW2 7011   0.078   3.135   5.809
 2038SOL     OW 7012   1.279   2.197   6.351
 2038SOL    HW1 7013   1.365   2.248   6.356
 2038SOL    HW2 7014   1.219   2.224   6.426
 2039SOL     OW 7015   1.040   5.668   3.208
 2039SOL    HW1 7016   1.021   5.734   3.136
 2039SOL    HW2 7017   0.969   5.674   3.279
 2040SOL     OW 7018   3.808   2.904   4.721
 2040SOL    HW1 7019   3.755   2.870   4.643
 2040SOL    HW2 7020   3.882   2.963   4.688
 2041SOL     OW 7021   6.999   5.850   5.873
 2041SOL    HW1 7022   0.047   5.890   5.939
 2041SOL    HW2 7023   6.960   5.766   5.910
 2042SOL     OW 7024   4.937   4.727   6.792
 2042SOL    HW1 7025   4.880   4.674   6.730
 2042SOL    HW2 7026   5.010   4.669   6.829
 2043SOL     OW 7027   6.216   4.040   3.303
 2043SOL    HW1 7028   6.302   4.001   3.270
 2043SOL    HW2 7029   6.141   4.010   3.244
 2044SOL     OW 7030   5.313   6.465   1.499
 2044SOL    HW1 7031   5.338   6.546   1.552
 2044SOL    HW2 7032   5.222   6.434   1.527
 2045SOL     OW 7033   3.369   5.044   4.020
 2045SOL    HW1 7034   3.273   5.017   4.011
 2045SOL    HW2 7035   3.379   5.104   4.099
 2046SOL     OW 7036   6.847   1.897   4.178
 2046SOL    HW1 7037   6.752   1.873   4.158
 2046SOL    HW2 7038   6.902   1.885   4.095
 2047SOL     OW 7039   5.830   2.420   0.009
 2047SOL    HW1 7040   5.883   2.495   0.048
 2047SOL    HW2 7041   5.816   2.349   0.079
 2048SOL     OW 7042   1.317   6.105   0.411
 2048SOL    HW1 7043   1.402   6.149   0.442
 2048SOL    HW2 7044   1.241   6.169   0.421
 2049SOL     OW 7045   5.065   1.860   6.431
 2049SOL    HW1 7046   5.019   1.834   6.346
 2049SOL    HW2 7047   5.160   1.886   6.410
 2050SOL     OW 7048   0.406   2.922   2.968
 2050SOL    HW1 7049   0.345   2.901   2.892
 2050SOL    HW2 7050   0.386   2.861   3.045
 2051SOL     OW 7051   0.942   5.939   0.779
 2051SOL    HW1 7052   0.861   5.972   0.731
 2051SOL    HW2 7053   0.992   5.875   0.721
 2052SOL     OW 7054   1.040   3.892   1.229
 2052SOL    HW1 7055   0.981   3.972   1.221
 2052SOL    HW2 7056   0.985   3.809   1.228
 2053SOL     OW 7057   5.677   6.723   4.843
 2053SOL    HW1 7058   5.676   6.666   4.926
 2053SOL    HW2 7059   5.617   6.681   4.774
 2054SOL     OW 7060   3.744   3.596   2.152
 2054SOL    HW1 7061   3.728   3.662   2.227
 2054SOL    HW2 7062   3.830   3.618   2.106
 2055SOL     OW 7063   6.012   3.641   3.589
 2055SOL    HW1 7064   6.052   3.664   3.678
 2055SOL    HW2 7065   5.966   3.722   3.551
 2056SOL     OW 7066   2.173   6.880   2.650
 2056SOL    HW1 7067   2.157   6.880   2.749
 2056SOL    HW2 7068   2.104   6.823   2.605
 2057SOL     OW 7069   5.720   3.446   4.332
 2057SOL    HW1 7070   5.719   3.374   4.402
 2057SOL    HW2 7071   5.693   3.533   4.373
 2058SOL     OW 7072   0.519   1.791   3.045
 2058SOL    HW1 7073   0.448   1.740   3.095
 2058SOL    HW2 7074   0.602   1.735   3.038
 2059SOL     OW 7075   2.217   5.867   6.397
 2059SOL    HW1 7076   2.127   5.895   6.432
 2059SOL    HW2 7077   2.287   5.928   6.433
 2060SOL     OW 7078   6.653   4.435   0.562
 2060SOL    HW1 7079   6.590   4.459   0.488
 2060SOL    HW2 7080   6.606   4.449   0.650
 2061SOL     OW 7081   0.007   1.673   3.624
 2061SOL    HW1 7082   0.070   1.656   3.701
 2061SOL    HW2 7083   0.059   1.674   3.539
 2062SOL     OW 7084   6.274   0.372   3.605
 2062SOL    HW1 7085   6.311   0.456   3.644
 2062SOL    HW2 7086   6.310   0.293   3.655
 2063SOL     OW 7087   1.748   6.927   6.184
 2063SOL    HW1 7088   1.720   6.853   6.246
 2063SOL    HW2 7089   1.836   6.904   6.142
 2064SOL     OW 7090   0.813   2.476   5.296
 2064SOL    HW1 7091   0.750   2.455   5.222
 2064SOL    HW2 7092   0.894   2.418   5.289
 2065SOL     OW 7093   6.938   2.639   4.784
 2065SOL    HW1 7094   6.959   2.732   4.815
 2065SOL    HW2 7095   6.873   2.597   4.848
 2066SOL     OW 7096   1.046   4.838   3.682
 2066SOL    HW1 7097   1.101   4.922   3.674
 2066SOL    HW2 7098   1.066   4.777   3.606
 2067SOL     OW 7099   6.552   5.342   0.563
 2067SOL    HW1 7100   6.573   5.258   0.613
 2067SOL    HW2 7101   6.573   5.421   0.621
 2068SOL     OW 7102   1.698   1.237   5.060
 2068SOL    HW1 7103   1.796   1.228   5.045
 2068SOL    HW2 7104   1.649   1.176   4.997
 2069SOL     OW 7105   0.859   3.139   3.038
 2069SOL    HW1 7106   0.890   3.089   2.957
 2069SOL    HW2 7107   0.772   3.101   3.070
 2070SOL     OW 7108   1.441   0.931   2.118
 2070SOL    HW1 7109   1.387   0.910   2.200
 2070SOL    HW2 7110   1.529   0.968   2.144
 2071SOL     OW 7111   6.367   5.803   5.323
 2071SOL    HW1 7112   6.363   5.897   5.289
 2071SOL    HW2 7113   6.398   5.804   5.418
 2072SOL     OW 7114   4.360   6.677   3.572
 2072SOL    HW1 7115   4.435   6.711   3.516
 2072SOL    HW2 7116   4.382   6.586   3.606
 2073SOL     OW 7117   4.139   0.262   4.645
 2073SOL    HW1 7118   4.173   0.250   4.551
 2073SOL    HW2 7119   4.210   0.235   4.710
 2074SOL     OW 7120   1.329   2.673   0.614
 2074SOL    HW1 7121   1.355   2.770   0.616
 2074SOL    HW2 7122   1.389   2.621   0.675
 2075SOL     OW 7123   5.411   3.508   1.842
 2075SOL    HW1 7124   5.503   3.545   1.854
 2075SOL    HW2 7125   5.351   3.544   1.913
 2076SOL     OW 7126   5.942   0.260   6.727
 2076SOL    HW1 7127   5.962   0.354   6.755
 2076SOL    HW2 7128   5.982   0.197   6.794
 2077SOL     OW 7129   5.144   2.910   2.791
 2077SOL    HW1 7130   5.203   2.922   2.871
 2077SOL    HW2 7131   5.141   2.813   2.766
 2078SOL     OW 7132   1.125   5.611   5.467
 2078SOL    HW1 7133   1.160   5.673   5.396
 2078SOL    HW2 7134   1.109   5.521   5.427
 2079SOL     OW 7135   5.155   2.188   3.906
 2079SOL    HW1 7136   5.134   2.130   3.828
 2079SOL    HW2 7137   5.179   2.130   3.985
 2080SOL     OW 7138   1.983   0.620   5.186
 2080SOL    HW1 7139   1.999   0.692   5.253
 2080SOL    HW2 7140   2.060   0.555   5.188
 2081SOL     OW 7141   1.518   5.200   4.452
 2081SOL    HW1 7142   1.439   5.260   4.455
 2081SOL    HW2 7143   1.489   5.105   4.465
 2082SOL     OW 7144   0.542   0.150   3.114
 2082SOL    HW1 7145   0.488   0.197   3.044
 2082SOL    HW2 7146   0.574   0.062   3.078
 2083SOL     OW 7147   6.417   5.029   6.214
 2083SOL    HW1 7148   6.515   5.008   6.203
 2083SOL    HW2 7149   6.400   5.058   6.308
 2084SOL     OW 7150   1.632   3.520   3.532
 2084SOL    HW1 7151   1.606   3.427   3.507
 2084SOL    HW2 7152   1.590   3.585   3.468
 2085SOL     OW 7153   4.287   0.366   6.954
 2085SOL    HW1 7154   4.348   0.420   7.012
 2085SOL    HW2 7155   4.204   0.343   7.004
 2086SOL     OW 7156   4.226   6.856   5.773
 2086SOL    HW1 7157   4.130   6.865   5.746
 2086SOL    HW2 7158   4.283   6.846   5.691
 2087SOL     OW 7159   5.021   0.053   1.100
 2087SOL    HW1 7160   5.037   6.971   1.100
 2087SOL    HW2 7161   5.077   0.096   1.029
 2088SOL     OW 7162   1.875   5.890   0.132
 2088SOL    HW1 7163   1.829   5.808   0.099
 2088SOL    HW2 7164   1.962   5.865   0.174
 2089SOL     OW 7165   5.368   2.199   6.485
 2089SOL    HW1 7166   5.427   2.231   6.411
 2089SOL    HW2 7167   5.367   2.267   6.559
 2090SOL     OW 7168   3.768   2.932   5.791
 2090SOL    HW1 7169   3.845   2.893   5.842
 2090SOL    HW2 7170   3.699   2.862   5.776
 2091SOL     OW 7171   6.903   5.196   0.391
 2091SOL    HW1 7172   6.851   5.112   0.375
 2091SOL    HW2 7173   6.991   5.190   0.344
 2092SOL     OW 7174   5.306   3.930   6.960
 2092SOL    HW1 7175   5.341   3.837   6.967
 2092SOL    HW2 7176   5.241   3.935   6.884
 2093SOL     OW 7177   2.718   2.367   1.456
 2093SOL    HW1 7178   2.748   2.297   1.391
 2093SOL    HW2 7179   2.647   2.424   1.414
 2094SOL     OW 7180   6.048   1.597   1.901
 2094SOL    HW1 7181   6.018   1.636   1.813
 2094SOL    HW2 7182   5.977   1.536   1.935
 2095SOL     OW 7183   5.424   0.143   5.240
 2095SOL    HW1 7184   5.491   0.198   5.189
 2095SOL    HW2 7185   5.372   0.203   5.301
 2096SOL     OW 7186   4.759   4.038   2.898
 2096SOL    HW1 7187   4.856   4.060   2.910
 2096SOL    HW2 7188   4.750   3.946   2.862
 2097SOL     OW 7189   2.818   3.110   6.633
 2097SOL    HW1 7190   2.835   3.018   6.598
 2097SOL    HW2 7191   2.878   3.175   6.585
 2098SOL     OW 7192   3.908   5.808   2.156
 2098SOL    HW1 7193   3.974   5.740   2.123
 2098SOL    HW2 7194   3.819   5.790   2.115
 2099SOL     OW 7195   3.102   3.035   6.380
 2099SOL    HW1 7196   3.041   3.113   6.366
 2099SOL    HW2 7197   3.117   2.988   6.293
 2100SOL     OW 7198   4.810   2.482   6.492
 2100SOL    HW1 7199   4.856   2.527   6.569
 2100SOL    HW2 7200   4.773   2.394   6.523
 2101SOL     OW 7201   1.199   6.283   2.432
 2101SOL    HW1 7202   1.288   6.259   2.393
 2101SOL    HW2 7203   1.210   6.310   2.527
 2102SOL     OW 7204   6.315   4.513   2.867
 2102SOL    HW1 7205   6.415   4.501   2.873
 2102SOL    HW2 7206   6.277   4.446   2.803
 2103SOL     OW 7207   4.047   4.314   5.596
 2103SOL    HW1 7208   4.049   4.408   5.630
 2103SOL    HW2 7209   4.082   4.312   5.502
 2104SOL     OW 7210   2.638   4.583   1.096
 2104SOL    HW1 7211   2.703   4.607   1.024
 2104SOL    HW2 7212   2.576   4.512   1.063
 2105SOL     OW 7213   5.126   6.291   5.026
 2105SOL    HW1 7214   5.037   6.259   5.058
 2105SOL    HW2 7215   5.157   6.233   4.951
 2106SOL     OW 7216   4.909   4.428   1.321
 2106SOL    HW1 7217   4.909   4.337   1.280
 2106SOL    HW2 7218   4.986   4.437   1.384
 2107SOL     OW 7219   5.075   2.683   5.351
 2107SOL    HW1 7220   5.066   2.760   5.414
 2107SOL    HW2 7221   5.088   2.599   5.403
 2108SOL     OW 7222   6.221   5.692   5.038
 2108SOL    HW1 7223   6.228   5.605   5.087
 2108SOL    HW2 7224   6.188   5.763   5.100
 2109SOL     OW 7225   4.240   6.046   2.659
 2109SOL    HW1 7226   4.153   5.998   2.654
 2109SOL    HW2 7227   4.252   6.083   2.751
 2110SOL     OW 7228   2.237   1.500   0.471
 2110SOL    HW1 7229   2.149   1.463   0.502
 2110SOL    HW2 7230   2.296   1.515   0.550
 2111SOL     OW 7231   1.613   2.194   6.505
 2111SOL    HW1 7232   1.587   2.251   6.583
 2111SOL    HW2 7233   1.713   2.185   6.502
 2112SOL     OW 7234   5.573   3.758   0.729
 2112SOL    HW1 7235   5.558   3.739   0.826
 2112SOL    HW2 7236   5.616   3.679   0.685
 2113SOL     OW 7237   2.557   1.897   5.335
 2113SOL    HW1 7238   2.644   1.941   5.313
 2113SOL    HW2 7239   2.483   1.941   5.284
 2114SOL     OW 7240   1.418   1.974   6.685
 2114SOL    HW1 7241   1.328   2.003   6.654
 2114SOL    HW2 7242   1.481   1.972   6.608
 2115SOL     OW 7243   2.098   3.650   2.514
 2115SOL    HW1 7244   2.090   3.674   2.610
 2115SOL    HW2 7245   2.078   3.553   2.501
 2116SOL     OW 7246   0.713   5.422   3.359
 2116SOL    HW1 7247   0.625   5.384   3.390
 2116SOL    HW2 7248   0.787   5.366   3.395
 2117SOL     OW 7249   0.019   5.418   1.765
 2117SOL    HW1 7250   0.098   5.361   1.788
 2117SOL    HW2 7251   6.971   5.418   1.841
 2118SOL     OW 7252   6.153   3.594   2.544
 2118SOL    HW1 7253   6.237   3.553   2.580
 2118SOL    HW2 7254   6.088   3.523   2.520
 2119SOL     OW 7255   1.446   6.842   1.017
 2119SOL    HW1 7256   1.434   6.933   0.976
 2119SOL    HW2 7257   1.495   6.851   1.103
 2120SOL     OW 7258   6.591   5.325   3.880
 2120SOL    HW1 7259   6.669   5.345   3.821
 2120SOL    HW2 7260   6.609   5.359   3.972
 2121SOL     OW 7261   1.544   4.444   5.756
 2121SOL    HW1 7262   1.639   4.430   5.729
 2121SOL    HW2 7263   1.484   4.432   5.677
 2122SOL     OW 7264   5.825   3.872   5.613
 2122SOL    HW1 7265   5.907   3.916   5.649
 2122SOL    HW2 7266   5.820   3.778   5.647
 2123SOL     OW 7267   6.949   5.845   2.491
 2123SOL    HW1 7268   6.942   5.849   2.391
 2123SOL    HW2 7269   6.996   5.761   2.518
 2124SOL     OW 7270   3.280   1.896   1.339
 2124SOL    HW1 7271   3.272   1.799   1.360
 2124SOL    HW2 7272   3.320   1.944   1.417
 2125SOL     OW 7273   2.184   0.737   2.205
 2125SOL    HW1 7274   2.178   0.641   2.177
 2125SOL    HW2 7275   2.275   0.773   2.183
 2126SOL     OW 7276   3.889   1.661   6.157
 2126SOL    HW1 7277   3.794   1.690   6.160
 2126SOL    HW2 7278   3.936   1.707   6.082
 2127SOL     OW 7279   0.455   3.011   4.976
 2127SOL    HW1 7280   0.439   3.086   4.911
 2127SOL    HW2 7281   0.553   2.994   4.982
 2128SOL     OW 7282   6.501   3.481   3.796
 2128SOL    HW1 7283   6.442   3.533   3.858
 2128SOL    HW2 7284   6.447   3.412   3.748
 2129SOL     OW 7285   4.465   3.237   5.335
 2129SOL    HW1 7286   4.507   3.206   5.420
 2129SOL    HW2 7287   4.371   3.202   5.329
 2130SOL     OW 7288   3.374   0.496   2.630
 2130SOL    HW1 7289   3.307   0.535   2.694
 2130SOL    HW2 7290   3.411   0.411   2.669
 2131SOL     OW 7291   5.478   1.248   0.675
 2131SOL    HW1 7292   5.412   1.205   0.612
 2131SOL    HW2 7293   5.428   1.299   0.745
 2132SOL     OW 7294   3.423   0.336   1.313
 2132SOL    HW1 7295   3.445   0.409   1.378
 2132SOL    HW2 7296   3.473   0.253   1.338
 2133SOL     OW 7297   3.068   2.998   0.417
 2133SOL    HW1 7298   3.057   2.899   0.409
 2133SOL    HW2 7299   3.086   3.022   0.513
 2134SOL     OW 7300   0.038   1.191   6.049
 2134SOL    HW1 7301   0.134   1.164   6.063
 2134SOL    HW2 7302   0.013   1.260   6.116
 2135SOL     OW 7303   1.303   3.408   4.986
 2135SOL    HW1 7304   1.311   3.325   4.930
 2135SOL    HW2 7305   1.353   3.482   4.942
 2136SOL     OW 7306   1.385   3.831   3.644
 2136SOL    HW1 7307   1.422   3.756   3.698
 2136SOL    HW2 7308   1.290   3.811   3.619
 2137SOL     OW 7309   3.019   5.338   4.808
 2137SOL    HW1 7310   2.970   5.425   4.804
 2137SOL    HW2 7311   2.957   5.265   4.837
 2138SOL     OW 7312   6.523   0.624   2.808
 2138SOL    HW1 7313   6.562   0.685   2.876
 2138SOL    HW2 7314   6.502   0.536   2.850
 2139SOL     OW 7315   3.970   0.564   3.260
 2139SOL    HW1 7316   3.875   0.536   3.278
 2139SOL    HW2 7317   3.981   0.660   3.284
 2140SOL     OW 7318   3.936   6.742   4.178
 2140SOL    HW1 7319   4.018   6.753   4.234
 2140SOL    HW2 7320   3.923   6.646   4.155
 2141SOL     OW 7321   6.564   3.804   2.667
 2141SOL    HW1 7322   6.612   3.833   2.750
 2141SOL    HW2 7323   6.527   3.884   2.620
 2142SOL     OW 7324   1.995   2.289   2.910
 2142SOL    HW1 7325   1.938   2.218   2.952
 2142SOL    HW2 7326   1.964   2.379   2.941
 2143SOL     OW 7327   2.747   4.572   1.632
 2143SOL    HW1 7328   2.818   4.593   1.565
 2143SOL    HW2 7329   2.790   4.549   1.720
 2144SOL     OW 7330   1.300   5.370   4.478
 2144SOL    HW1 7331   1.237   5.363   4.555
 2144SOL    HW2 7332   1.265   5.436   4.412
 2145SOL     OW 7333   4.676   6.168   4.173
 2145SOL    HW1 7334   4.759   6.184   4.119
 2145SOL    HW2 7335   4.614   6.109   4.121
 2146SOL     OW 7336   2.649   3.514   1.662
 2146SOL    HW1 7337   2.698   3.446   1.716
 2146SOL    HW2 7338   2.551   3.494   1.665
 2147SOL     OW 7339   6.342   1.936   5.842
 2147SOL    HW1 7340   6.252   1.902   5.869
 2147SOL    HW2 7341   6.362   2.020   5.893
 2148SOL     OW 7342   5.893   2.723   5.601
 2148SOL    HW1 7343   5.836   2.743   5.521
 2148SOL    HW2 7344   5.989   2.730   5.576
 2149SOL     OW 7345   3.661   2.031   1.218
 2149SOL    HW1 7346   3.666   2.007   1.121
 2149SOL    HW2 7347   3.576   2.081   1.236
 2150SOL     OW 7348   2.485   1.593   2.331
 2150SOL    HW1 7349   2.412   1.574   2.397
 2150SOL    HW2 7350   2.518   1.687   2.344
 2151SOL     OW 7351   1.379   0.200   5.144
 2151SOL    HW1 7352   1.330   0.181   5.229
 2151SOL    HW2 7353   1.411   0.114   5.104
 2152SOL     OW 7354   3.421   5.844   1.786
 2152SOL    HW1 7355   3.433   5.939   1.816
 2152SOL    HW2 7356   3.324   5.826   1.769
 2153SOL     OW 7357   3.964   1.229   2.804
 2153SOL    HW1 7358   4.032   1.228   2.877
 2153SOL    HW2 7359   3.893   1.162   2.824
 2154SOL     OW 7360   5.039   0.485   5.143
 2154SOL    HW1 7361   5.029   0.461   5.047
 2154SOL    HW2 7362   4.976   0.430   5.198
 2155SOL     OW 7363   2.468   5.537   0.253
 2155SOL    HW1 7364   2.455   5.636   0.256
 2155SOL    HW2 7365   2.545   5.511   0.311
 2156SOL     OW 7366   1.815   1.630   4.930
 2156SOL    HW1 7367   1.864   1.633   4.843
 2156SOL    HW2 7368   1.880   1.647   5.005
 2157SOL     OW 7369   5.995   0.793   3.295
 2157SOL    HW1 7370   6.017   0.871   3.237
 2157SOL    HW2 7371   5.974   0.714   3.238
 2158SOL     OW 7372   3.692   6.048   1.240
 2158SOL    HW1 7373   3.770   6.000   1.201
 2158SOL    HW2 7374   3.628   5.982   1.278
 2159SOL     OW 7375   1.438   6.605   4.908
 2159SOL    HW1 7376   1.529   6.588   4.869
 2159SOL    HW2 7377   1.371   6.547   4.862
 2160SOL     OW 7378   3.889   3.800   0.352
 2160SOL    HW1 7379   3.985   3.785   0.378
 2160SOL    HW2 7380   3.878   3.895   0.320
 2161SOL     OW 7381   5.743   5.176   2.969
 2161SOL    HW1 7382   5.649   5.183   2.937
 2161SOL    HW2 7383   5.754   5.232   3.052
 2162SOL     OW 7384   2.139   1.158   1.937
 2162SOL    HW1 7385   2.142   1.257   1.927
 2162SOL    HW2 7386   2.067   1.121   1.878
 2163SOL     OW 7387   1.444   4.681   5.848
 2163SOL    HW1 7388   1.501   4.611   5.807
 2163SOL    HW2 7389   1.367   4.701   5.786
 2164SOL     OW 7390   1.363   2.544   0.354
 2164SOL    HW1 7391   1.321   2.599   0.281
 2164SOL    HW2 7392   1.333   2.578   0.443
 2165SOL     OW 7393   0.856   1.709   2.649
 2165SOL    HW1 7394   0.912   1.660   2.716
 2165SOL    HW2 7395   0.775   1.747   2.695
 2166SOL     OW 7396   1.757   2.275   5.355
 2166SOL    HW1 7397   1.750   2.367   5.392
 2166SOL    HW2 7398   1.761   2.209   5.431
 2167SOL     OW 7399   1.802   1.807   3.485
 2167SOL    HW1 7400   1.889   1.854   3.496
 2167SOL    HW2 7401   1.786   1.789   3.388
 2168SOL     OW 7402   0.550   2.057   3.874
 2168SOL    HW1 7403   0.637   2.013   3.896
 2168SOL    HW2 7404   0.483   2.034   3.944
 2169SOL     OW 7405   5.381   1.046   6.892
 2169SOL    HW1 7406   5.439   1.081   6.818
 2169SOL    HW2 7407   5.339   1.122   6.940
 2170SOL     OW 7408   6.431   4.615   5.718
 2170SOL    HW1 7409   6.509   4.608   5.656
 2170SOL    HW2 7410   6.400   4.523   5.742
 2171SOL     OW 7411   0.491   4.877   1.658
 2171SOL    HW1 7412   0.438   4.802   1.698
 2171SOL    HW2 7413   0.459   4.894   1.565
 2172SOL     OW 7414   2.090   2.251   0.464
 2172SOL    HW1 7415   2.002   2.296   0.480
 2172SOL    HW2 7416   2.141   2.246   0.550
 2173SOL     OW 7417   3.581   0.611   5.339
 2173SOL    HW1 7418   3.649   0.538   5.348
 2173SOL    HW2 7419   3.615   0.681   5.277
 2174SOL     OW 7420   5.619   6.542   5.031
 2174SOL    HW1 7421   5.532   6.519   4.986
 2174SOL    HW2 7422   5.673   6.458   5.041
 2175SOL     OW 7423   2.385   2.815   4.257
 2175SOL    HW1 7424   2.387   2.915   4.248
 2175SOL    HW2 7425   2.373   2.791   4.354
 2176SOL     OW 7426   6.653   1.951   0.790
 2176SOL    HW1 7427   6.651   2.004   0.706
 2176SOL    HW2 7428   6.734   1.892   0.791
 2177SOL     OW 7429   6.350   2.207   3.446
 2177SOL    HW1 7430   6.374   2.110   3.449
 2177SOL    HW2 7431   6.418   2.257   3.394
 2178SOL     OW 7432   1.994   2.118   0.925
 2178SOL    HW1 7433   2.013   2.211   0.956
 2178SOL    HW2 7434   2.054   2.054   0.973
 2179SOL     OW 7435   2.072   5.264   4.935
 2179SOL    HW1 7436   2.128   5.181   4.939
 2179SOL    HW2 7437   1.978   5.240   4.911
 2180SOL     OW 7438   1.808   2.426   1.721
 2180SOL    HW1 7439   1.836   2.494   1.653
 2180SOL    HW2 7440   1.869   2.430   1.800
 2181SOL     OW 7441   4.637   4.717   4.284
 2181SOL    HW1 7442   4.728   4.704   4.247
 2181SOL    HW2 7443   4.599   4.804   4.251
 2182SOL     OW 7444   1.547   3.403   3.876
 2182SOL    HW1 7445   1.516   3.321   3.828
 2182SOL    HW2 7446   1.473   3.471   3.878
 2183SOL     OW 7447   2.882   3.734   6.027
 2183SOL    HW1 7448   2.969   3.730   5.976
 2183SOL    HW2 7449   2.806   3.722   5.963
 2184SOL     OW 7450   4.335   2.046   6.432
 2184SOL    HW1 7451   4.295   1.955   6.425
 2184SOL    HW2 7452   4.434   2.038   6.444
 2185SOL     OW 7453   0.822   1.726   1.009
 2185SOL    HW1 7454   0.837   1.825   1.009
 2185SOL    HW2 7455   0.909   1.680   0.990
 2186SOL     OW 7456   0.791   5.680   2.067
 2186SOL    HW1 7457   0.788   5.732   1.982
 2186SOL    HW2 7458   0.722   5.714   2.130
 2187SOL     OW 7459   6.504   0.370   2.896
 2187SOL    HW1 7460   6.600   0.357   2.873
 2187SOL    HW2 7461   6.448   0.361   2.813
 2188SOL     OW 7462   6.940   6.535   4.936
 2188SOL    HW1 7463   6.857   6.590   4.937
 2188SOL    HW2 7464   6.933   6.466   4.863
 2189SOL     OW 7465   1.625   6.690   0.862
 2189SOL    HW1 7466   1.553   6.731   0.920
 2189SOL    HW2 7467   1.712   6.694   0.911
 2190SOL     OW 7468   0.087   3.016   1.842
 2190SOL    HW1 7469   0.152   2.985   1.773
 2190SOL    HW2 7470   0.031   2.939   1.873
 2191SOL     OW 7471   3.285   2.021   6.848
 2191SOL    HW1 7472   3.310   1.980   6.760
 2191SOL    HW2 7473   3.359   2.079   6.880
 2192SOL     OW 7474   4.506   1.027   2.453
 2192SOL    HW1 7475   4.533   0.960   2.384
 2192SOL    HW2 7476   4.485   1.114   2.410
 2193SOL     OW 7477   5.809   5.849   6.553
 2193SOL    HW1 7478   5.754   5.867   6.472
 2193SOL    HW2 7479   5.772   5.898   6.631
 2194SOL     OW 7480   2.671   4.022   5.802
 2194SOL    HW1 7481   2.624   3.934   5.802
 2194SOL    HW2 7482   2.721   4.033   5.716
 2195SOL     OW 7483   0.427   0.742   4.498
 2195SOL    HW1 7484   0.429   0.723   4.400
 2195SOL    HW2 7485   0.515   0.780   4.527
 2196SOL     OW 7486   2.971   6.915   5.270
 2196SOL    HW1 7487   2.987   7.013   5.261
 2196SOL    HW2 7488   3.048   6.865   5.230
 2197SOL     OW 7489   3.186   3.713   1.057
 2197SOL    HW1 7490   3.203   3.643   1.126
 2197SOL    HW2 7491   3.186   3.670   0.966
 2198SOL     OW 7492   5.810   1.266   0.104
 2198SOL    HW1 7493   5.835   1.237   0.011
 2198SOL    HW2 7494   5.716   1.300   0.104
 2199SOL     OW 7495   5.015   0.687   3.434
 2199SOL    HW1 7496   4.932   0.656   3.389
 2199SOL    HW2 7497   5.076   0.729   3.366
 2200SOL     OW 7498   2.602   1.213   5.520
 2200SOL    HW1 7499   2.508   1.247   5.512
 2200SOL    HW2 7500   2.649   1.224   5.432
 2201SOL     OW 7501   6.413   2.970   3.515
 2201SOL    HW1 7502   6.443   2.888   3.467
 2201SOL    HW2 7503   6.343   2.947   3.582
 2202SOL     OW 7504   2.554   5.447   2.113
 2202SOL    HW1 7505   2.519   5.442   2.207
 2202SOL    HW2 7506   2.478   5.444   2.049
 2203SOL     OW 7507   1.668   2.052   1.456
 2203SOL    HW1 7508   1.650   2.031   1.553
 2203SOL    HW2 7509   1.581   2.071   1.410
 2204SOL     OW 7510   3.594   1.189   1.218
 2204SOL    HW1 7511   3.622   1.120   1.152
 2204SOL    HW2 7512   3.650   1.271   1.207
 2205SOL     OW 7513   0.713   0.475   6.060
 2205SOL    HW1 7514   0.651   0.398   6.052
 2205SOL    HW2 7515   0.676   0.542   6.125
 2206SOL     OW 7516   3.210   4.586   6.406
 2206SOL    HW1 7517   3.279   4.524   6.444
 2206SOL    HW2 7518   3.124   4.573   6.455
 2207SOL     OW 7519   2.932   4.318   6.618
 2207SOL    HW1 7520   2.929   4.406   6.570
 2207SOL    HW2 7521   2.872   4.253   6.572
 2208SOL     OW 7522   1.773   6.262   3.233
 2208SOL    HW1 7523   1.838   6.254   3.157
 2208SOL    HW2 7524   1.778   6.181   3.291
 2209SOL     OW 7525   1.573   6.161   5.572
 2209SOL    HW1 7526   1.550   6.186   5.478
 2209SOL    HW2 7527   1.629   6.078   5.572
 2210SOL     OW 7528   6.200   4.603   4.222
 2210SOL    HW1 7529   6.149   4.662   4.159
 2210SOL    HW2 7530   6.196   4.509   4.189
 2211SOL     OW 7531   5.561   0.401   0.773
 2211SOL    HW1 7532   5.583   0.415   0.677
 2211SOL    HW2 7533   5.561   0.489   0.820
 2212SOL     OW 7534   1.481   5.832   6.928
 2212SOL    HW1 7535   1.540   5.759   6.894
 2212SOL    HW2 7536   1.528   5.882   7.001
 2213SOL     OW 7537   3.497   2.608   5.444
 2213SOL    HW1 7538   3.592   2.633   5.463
 2213SOL    HW2 7539   3.453   2.682   5.393
 2214SOL     OW 7540   3.299   2.864   5.007
 2214SOL    HW1 7541   3.392   2.879   4.972
 2214SOL    HW2 7542   3.265   2.776   4.976
 2215SOL     OW 7543   6.223   1.147   0.600
 2215SOL    HW1 7544   6.152   1.215   0.578
 2215SOL    HW2 7545   6.305   1.166   0.546
 2216SOL     OW 7546   1.657   0.539   6.072
 2216SOL    HW1 7547   1.667   0.484   5.989
 2216SOL    HW2 7548   1.697   0.491   6.150
 2217SOL     OW 7549   3.912   6.490   1.459
 2217SOL    HW1 7550   3.814   6.506   1.449
 2217SOL    HW2 7551   3.938   6.500   1.555
 2218SOL     OW 7552   0.192   6.251   0.202
 2218SOL    HW1 7553   0.248   6.207   0.131
 2218SOL    HW2 7554   0.095   6.245   0.177
 2219SOL     OW 7555   5.742   1.991   1.626
 2219SOL    HW1 7556   5.806   1.987   1.703
 2219SOL    HW2 7557   5.694   1.904   1.619
 2220SOL     OW 7558   1.599   0.553   4.657
 2220SOL    HW1 7559   1.612   0.481   4.726
 2220SOL    HW2 7560   1.518   0.606   4.680
 2221SOL     OW 7561   5.900   1.180   5.073
 2221SOL    HW1 7562   5.911   1.082   5.063
 2221SOL    HW2 7563   5.802   1.202   5.083
 2222SOL     OW 7564   4.996   0.471   0.476
 2222SOL    HW1 7565   5.082   0.511   0.446
 2222SOL    HW2 7566   4.941   0.445   0.397
 2223SOL     OW 7567   5.884   1.457   4.817
 2223SOL    HW1 7568   5.974   1.443   4.776
 2223SOL    HW2 7569   5.846   1.544   4.786
 2224SOL     OW 7570   0.964   3.939   0.163
 2224SOL    HW1 7571   1.034   3.911   0.229
 2224SOL    HW2 7572   0.982   4.032   0.132
 2225SOL     OW 7573   6.514   6.637   3.002
 2225SOL    HW1 7574   6.520   6.570   3.076
 2225SOL    HW2 7575   6.601   6.641   2.953
 2226SOL     OW 7576   3.647   4.908   1.049
 2226SOL    HW1 7577   3.675   4.970   0.976
 2226SOL    HW2 7578   3.716   4.835   1.057
 2227SOL     OW 7579   5.684   3.583   0.578
 2227SOL    HW1 7580   5.755   3.627   0.523
 2227SOL    HW2 7581   5.626   3.527   0.520
 2228SOL     OW 7582   2.807   4.943   0.942
 2228SOL    HW1 7583   2.745   4.949   0.864
 2228SOL    HW2 7584   2.758   4.964   1.026
 2229SOL     OW 7585   4.291   2.153   4.621
 2229SOL    HW1 7586   4.355   2.222   4.586
 2229SOL    HW2 7587   4.235   2.193   4.694
 2230SOL     OW 7588   6.008   5.707   6.662
 2230SOL    HW1 7589   5.973   5.665   6.746
 2230SOL    HW2 7590   5.940   5.771   6.626
 2231SOL     OW 7591   0.321   0.318   2.053
 2231SOL    HW1 7592   0.396   0.357   1.999
 2231SOL    HW2 7593   0.234   0.336   2.008
 2232SOL     OW 7594   0.095   2.871   5.133
 2232SOL    HW1 7595   0.145   2.866   5.046
 2232SOL    HW2 7596   0.054   2.962   5.143
 2233SOL     OW 7597   2.507   3.396   0.449
 2233SOL    HW1 7598   2.431   3.460   0.439
 2233SOL    HW2 7599   2.520   3.345   0.364
 2234SOL     OW 7600   3.988   2.081   1.615
 2234SOL    HW1 7601   3.982   2.140   1.695
 2234SOL    HW2 7602   4.009   1.988   1.644
 2235SOL     OW 7603   2.828   6.984   1.495
 2235SOL    HW1 7604   2.757   0.002   1.433
 2235SOL    HW2 7605   2.867   0.044   1.547
 2236SOL     OW 7606   1.629   4.777   6.042
 2236SOL    HW1 7607   1.628   4.876   6.053
 2236SOL    HW2 7608   1.582   4.752   5.958
 2237SOL     OW 7609   6.255   5.019   4.370
 2237SOL    HW1 7610   6.168   5.055   4.339
 2237SOL    HW2 7611   6.315   5.095   4.397
 2238SOL     OW 7612   5.404   4.600   0.928
 2238SOL    HW1 7613   5.416   4.501   0.934
 2238SOL    HW2 7614   5.405   4.628   0.831
 2239SOL     OW 7615   3.956   4.940   3.207
 2239SOL    HW1 7616   3.905   4.948   3.293
 2239SOL    HW2 7617   3.903   4.981   3.133
 2240SOL     OW 7618   5.239   5.317   3.994
 2240SOL    HW1 7619   5.230   5.416   3.977
 2240SOL    HW2 7620   5.176   5.291   4.067
 2241SOL     OW 7621   0.382   6.141   3.102
 2241SOL    HW1 7622   0.282   6.147   3.111
 2241SOL    HW2 7623   0.413   6.211   3.038
 2242SOL     OW 7624   4.807   2.161   3.002
 2242SOL    HW1 7625   4.895   2.175   2.957
 2242SOL    HW2 7626   4.738   2.221   2.962
 2243SOL     OW 7627   2.057   6.341   5.938
 2243SOL    HW1 7628   2.121   6.303   5.872
 2243SOL    HW2 7629   1.968   6.354   5.895
 2244SOL     OW 7630   2.155   6.630   1.484
 2244SOL    HW1 7631   2.063   6.592   1.475
 2244SOL    HW2 7632   2.152   6.708   1.546
 2245SOL     OW 7633   0.672   1.999   1.186
 2245SOL    HW1 7634   0.742   1.986   1.256
 2245SOL    HW2 7635   0.715   2.002   1.096
 2246SOL     OW 7636   1.034   2.196   5.450
 2246SOL    HW1 7637   1.089   2.145   5.516
 2246SOL    HW2 7638   0.970   2.133   5.405
 2247SOL     OW 7639   3.350   3.271   4.485
 2247SOL    HW1 7640   3.287   3.249   4.559
 2247SOL    HW2 7641   3.436   3.305   4.523
 2248SOL     OW 7642   4.798   3.872   5.617
 2248SOL    HW1 7643   4.895   3.861   5.637
 2248SOL    HW2 7644   4.772   3.813   5.540
 2249SOL     OW 7645   6.415   6.286   3.118
 2249SOL    HW1 7646   6.431   6.201   3.168
 2249SOL    HW2 7647   6.354   6.345   3.171
 2250SOL     OW 7648   4.211   3.624   6.446
 2250SOL    HW1 7649   4.234   3.684   6.523
 2250SOL    HW2 7650   4.285   3.625   6.379
 2251SOL     OW 7651   5.161   0.673   0.048
 2251SOL    HW1 7652   5.063   0.693   0.041
 2251SOL    HW2 7653   5.207   0.708   6.983
 2252SOL     OW 7654   5.041   3.021   2.583
 2252SOL    HW1 7655   4.961   2.964   2.568
 2252SOL    HW2 7656   5.093   2.987   2.661
 2253SOL     OW 7657   1.081   3.196   6.527
 2253SOL    HW1 7658   1.097   3.294   6.537
 2253SOL    HW2 7659   1.051   3.175   6.434
 2254SOL     OW 7660   3.809   3.082   4.952
 2254SOL    HW1 7661   3.794   3.004   4.892
 2254SOL    HW2 7662   3.761   3.162   4.916
 2255SOL     OW 7663   4.547   2.273   6.782
 2255SOL    HW1 7664   4.547   2.260   6.881
 2255SOL    HW2 7665   4.458   2.310   6.753
 2256SOL     OW 7666   5.723   5.895   1.375
 2256SOL    HW1 7667   5.641   5.838   1.379
 2256SOL    HW2 7668   5.724   5.945   1.289
 2257SOL     OW 7669   6.915   2.379   4.107
 2257SOL    HW1 7670   6.995   2.439   4.102
 2257SOL    HW2 7671   6.874   2.371   4.016
 2258SOL     OW 7672   1.212   5.309   5.626
 2258SOL    HW1 7673   1.312   5.305   5.631
 2258SOL    HW2 7674   1.180   5.386   5.682
 2259SOL     OW 7675   5.581   3.502   0.112
 2259SOL    HW1 7676   5.542   3.431   0.054
 2259SOL    HW2 7677   5.662   3.467   0.157
 2260SOL     OW 7678   6.430   4.782   2.423
 2260SOL    HW1 7679   6.399   4.796   2.517
 2260SOL    HW2 7680   6.380   4.844   2.362
 2261SOL     OW 7681   6.448   6.393   6.828
 2261SOL    HW1 7682   6.498   6.430   6.749
 2261SOL    HW2 7683   6.501   6.408   6.911
 2262SOL     OW 7684   5.564   1.540   2.531
 2262SOL    HW1 7685   5.663   1.544   2.543
 2262SOL    HW2 7686   5.521   1.616   2.582
 2263SOL     OW 7687   3.478   5.897   6.631
 2263SOL    HW1 7688   3.552   5.947   6.677
 2263SOL    HW2 7689   3.401   5.887   6.694
 2264SOL     OW 7690   3.166   3.856   0.685
 2264SOL    HW1 7691   3.144   3.762   0.710
 2264SOL    HW2 7692   3.247   3.857   0.626
 2265SOL     OW 7693   0.764   1.439   4.898
 2265SOL    HW1 7694   0.699   1.371   4.932
 2265SOL    HW2 7695   0.797   1.411   4.808
 2266SOL     OW 7696   5.619   2.095   0.511
 2266SOL    HW1 7697   5.544   2.079   0.446
 2266SOL    HW2 7698   5.596   2.054   0.599
 2267SOL     OW 7699   4.735   2.538   4.942
 2267SOL    HW1 7700   4.679   2.621   4.932
 2267SOL    HW2 7701   4.675   2.460   4.958
 2268SOL     OW 7702   6.788   3.530   6.598
 2268SOL    HW1 7703   6.697   3.531   6.557
 2268SOL    HW2 7704   6.832   3.442   6.582
 2269SOL     OW 7705   5.856   5.456   4.844
 2269SOL    HW1 7706   5.766   5.433   4.881
 2269SOL    HW2 7707   5.887   5.542   4.884
 2270SOL     OW 7708   3.137   2.381   6.187
 2270SOL    HW1 7709   3.088   2.430   6.259
 2270SOL    HW2 7710   3.110   2.418   6.098
 2271SOL     OW 7711   5.818   4.115   0.268
 2271SOL    HW1 7712   5.763   4.137   0.349
 2271SOL    HW2 7713   5.790   4.174   0.192
 2272SOL     OW 7714   6.279   2.160   6.039
 2272SOL    HW1 7715   6.278   2.118   6.130
 2272SOL    HW2 7716   6.350   2.230   6.035
 2273SOL     OW 7717   1.863   0.439   2.081
 2273SOL    HW1 7718   1.808   0.518   2.054
 2273SOL    HW2 7719   1.851   0.365   2.014
 2274SOL     OW 7720   6.972   2.832   6.489
 2274SOL    HW1 7721   6.952   2.848   6.585
 2274SOL    HW2 7722   6.953   2.915   6.436
 2275SOL     OW 7723   5.984   0.894   4.099
 2275SOL    HW1 7724   6.036   0.822   4.144
 2275SOL    HW2 7725   6.044   0.946   4.039
 2276SOL     OW 7726   2.328   5.040   0.962
 2276SOL    HW1 7727   2.367   5.118   1.011
 2276SOL    HW2 7728   2.372   4.956   0.991
 2277SOL     OW 7729   4.321   3.489   5.372
 2277SOL    HW1 7730   4.373   3.409   5.342
 2277SOL    HW2 7731   4.381   3.568   5.376
 2278SOL     OW 7732   6.286   5.051   4.072
 2278SOL    HW1 7733   6.355   5.072   4.141
 2278SOL    HW2 7734   6.195   5.064   4.111
 2279SOL     OW 7735   5.272   5.941   4.636
 2279SOL    HW1 7736   5.257   6.034   4.669
 2279SOL    HW2 7737   5.184   5.895   4.627
 2280SOL     OW 7738   0.442   6.613   4.508
 2280SOL    HW1 7739   0.375   6.670   4.459
 2280SOL    HW2 7740   0.401   6.525   4.530
 2281SOL     OW 7741   3.376   1.334   2.019
 2281SOL    HW1 7742   3.367   1.424   1.977
 2281SOL    HW2 7743   3.295   1.279   1.997
 2282SOL     OW 7744   4.858   0.014   5.029
 2282SOL    HW1 7745   4.778   0.063   4.995
 2282SOL    HW2 7746   4.852   6.933   5.003
 2283SOL     OW 7747   0.403   4.670   2.245
 2283SOL    HW1 7748   0.440   4.586   2.206
 2283SOL    HW2 7749   0.323   4.649   2.301
 2284SOL     OW 7750   1.949   2.307   6.937
 2284SOL    HW1 7751   1.905   2.392   6.909
 2284SOL    HW2 7752   1.884   2.252   6.990
 2285SOL     OW 7753   2.252   2.110   1.141
 2285SOL    HW1 7754   2.202   2.150   1.218
 2285SOL    HW2 7755   2.350   2.109   1.162
 2286SOL     OW 7756   6.948   0.490   4.012
 2286SOL    HW1 7757   6.895   0.575   4.014
 2286SOL    HW2 7758   6.903   0.422   4.070
 2287SOL     OW 7759   1.365   1.388   3.412
 2287SOL    HW1 7760   1.357   1.324   3.336
 2287SOL    HW2 7761   1.294   1.368   3.480
 2288SOL     OW 7762   6.641   5.368   4.765
 2288SOL    HW1 7763   6.741   5.377   4.758
 2288SOL    HW2 7764   6.616   5.274   4.741
 2289SOL     OW 7765   0.562   4.482   2.432
 2289SOL    HW1 7766   0.485   4.422   2.455
 2289SOL    HW2 7767   0.582   4.474   2.334
 2290SOL     OW 7768   1.684   4.382   1.883
 2290SOL    HW1 7769   1.749   4.353   1.953
 2290SOL    HW2 7770   1.622   4.451   1.922
 2291SOL     OW 7771   2.443   2.212   6.517
 2291SOL    HW1 7772   2.461   2.133   6.458
 2291SOL    HW2 7773   2.358   2.256   6.488
 2292SOL     OW 7774   5.708   2.203   4.435
 2292SOL    HW1 7775   5.730   2.172   4.528
 2292SOL    HW2 7776   5.783   2.177   4.373
 2293SOL     OW 7777   5.416   6.751   1.240
 2293SOL    HW1 7778   5.423   6.783   1.335
 2293SOL    HW2 7779   5.411   6.651   1.239
 2294SOL     OW 7780   3.185   1.295   6.608
 2294SOL    HW1 7781   3.227   1.233   6.542
 2294SOL    HW2 7782   3.099   1.330   6.570
 2295SOL     OW 7783   0.629   1.810   2.741
 2295SOL    HW1 7784   0.563   1.741   2.770
 2295SOL    HW2 7785   0.609   1.839   2.648
 2296SOL     OW 7786   3.606   6.014   2.057
 2296SOL    HW1 7787   3.521   6.056   2.026
 2296SOL    HW2 7788   3.590   5.919   2.081
 2297SOL     OW 7789   4.667   4.421   5.477
 2297SOL    HW1 7790   4.712   4.332   5.481
 2297SOL    HW2 7791   4.624   4.432   5.387
 2298SOL     OW 7792   4.200   3.362   1.953
 2298SOL    HW1 7793   4.150   3.444   1.981
 2298SOL    HW2 7794   4.182   3.289   2.019
 2299SOL     OW 7795   4.687   5.069   4.839
 2299SOL    HW1 7796   4.621   5.102   4.906
 2299SOL    HW2 7797   4.727   4.983   4.871
 2300SOL     OW 7798   2.419   5.969   1.765
 2300SOL    HW1 7799   2.400   5.871   1.770
 2300SOL    HW2 7800   2.358   6.018   1.828
 2301SOL     OW 7801   3.540   2.946   2.485
 2301SOL    HW1 7802   3.493   3.033   2.475
 2301SOL    HW2 7803   3.474   2.871   2.477
 2302SOL     OW 7804   3.484   0.046   1.064
 2302SOL    HW1 7805   3.570   0.052   1.115
 2302SOL    HW2 7806   3.495   6.999   0.988
 2303SOL     OW 7807   2.121   3.436   6.472
 2303SOL    HW1 7808   2.068   3.355   6.499
 2303SOL    HW2 7809   2.198   3.408   6.415
 2304SOL     OW 7810   5.067   6.652   3.925
 2304SOL    HW1 7811   5.166   6.650   3.914
 2304SOL    HW2 7812   5.043   6.647   4.022
 2305SOL     OW 7813   2.114   0.060   2.460
 2305SOL    HW1 7814   2.115   6.993   2.515
 2305SOL    HW2 7815   2.036   0.058   2.398
 2306SOL     OW 7816   2.538   4.874   1.766
 2306SOL    HW1 7817   2.525   4.797   1.704
 2306SOL    HW2 7818   2.450   4.908   1.797
 2307SOL     OW 7819   6.552   3.957   3.744
 2307SOL    HW1 7820   6.595   3.867   3.741
 2307SOL    HW2 7821   6.464   3.953   3.698
 2308SOL     OW 7822   1.535   4.824   1.439
 2308SOL    HW1 7823   1.586   4.856   1.519
 2308SOL    HW2 7824   1.588   4.754   1.391
 2309SOL     OW 7825   1.251   0.872   6.479
 2309SOL    HW1 7826   1.220   0.806   6.410
 2309SOL    HW2 7827   1.345   0.900   6.458
 2310SOL     OW 7828   5.676   5.989   0.346
 2310SOL    HW1 7829   5.591   5.954   0.384
 2310SOL    HW2 7830   5.658   6.038   0.261
 2311SOL     OW 7831   2.002   6.872   1.368
 2311SOL    HW1 7832   1.961   6.794   1.416
 2311SOL    HW2 7833   2.080   6.841   1.315
 2312SOL     OW 7834   3.895   5.947   2.826
 2312SOL    HW1 7835   3.898   5.857   2.781
 2312SOL    HW2 7836   3.858   6.015   2.763
 2313SOL     OW 7837   6.044   5.961   1.394
 2313SOL    HW1 7838   6.064   5.873   1.352
 2313SOL    HW2 7839   5.967   5.951   1.458
 2314SOL     OW 7840   5.564   6.660   3.719
 2314SOL    HW1 7841   5.576   6.601   3.640
 2314SOL    HW2 7842   5.646   6.715   3.733
 2315SOL     OW 7843   4.991   3.238   6.328
 2315SOL    HW1 7844   4.942   3.270   6.408
 2315SOL    HW2 7845   4.946   3.157   6.290
 2316SOL     OW 7846   3.617   1.218   4.128
 2316SOL    HW1 7847   3.518   1.211   4.114
 2316SOL    HW2 7848   3.664   1.156   4.066
 2317SOL     OW 7849   0.742   6.497   3.118
 2317SOL    HW1 7850   0.802   6.547   3.056
 2317SOL    HW2 7851   0.761   6.399   3.111
 2318SOL     OW 7852   1.870   2.787   4.019
 2318SOL    HW1 7853   1.954   2.737   4.040
 2318SOL    HW2 7854   1.845   2.845   4.096
 2319SOL     OW 7855   1.912   4.858   4.070
 2319SOL    HW1 7856   2.000   4.824   4.036
 2319SOL    HW2 7857   1.920   4.954   4.094
 2320SOL     OW 7858   0.817   2.113   4.984
 2320SOL    HW1 7859   0.748   2.126   5.055
 2320SOL    HW2 7860   0.829   2.015   4.968
 2321SOL     OW 7861   2.434   0.560   0.222
 2321SOL    HW1 7862   2.393   0.561   0.131
 2321SOL    HW2 7863   2.515   0.500   0.222
 2322SOL     OW 7864   3.369   1.229   4.539
 2322SOL    HW1 7865   3.414   1.317   4.553
 2322SOL    HW2 7866   3.286   1.226   4.594
 2323SOL     OW 7867   2.567   5.110   1.619
 2323SOL    HW1 7868   2.498   5.110   1.546
 2323SOL    HW2 7869   2.527   5.075   1.703
 2324SOL     OW 7870   6.617   6.918   1.549
 2324SOL    HW1 7871   6.687   6.973   1.503
 2324SOL    HW2 7872   6.532   6.923   1.497
 2325SOL     OW 7873   1.408   4.811   2.211
 2325SOL    HW1 7874   1.447   4.820   2.303
 2325SOL    HW2 7875   1.308   4.811   2.217
 2326SOL     OW 7876   3.106   6.297   5.562
 2326SOL    HW1 7877   3.022   6.261   5.603
 2326SOL    HW2 7878   3.186   6.258   5.609
 2327SOL     OW 7879   6.329   2.957   4.422
 2327SOL    HW1 7880   6.239   2.946   4.379
 2327SOL    HW2 7881   6.349   2.875   4.476
 2328SOL     OW 7882   3.439   1.678   2.398
 2328SOL    HW1 7883   3.367   1.745   2.419
 2328SOL    HW2 7884   3.526   1.726   2.385
 2329SOL     OW 7885   1.614   3.760   5.070
 2329SOL    HW1 7886   1.647   3.820   5.143
 2329SOL    HW2 7887   1.674   3.681   5.062
 2330SOL     OW 7888   1.020   3.469   1.838
 2330SOL    HW1 7889   0.985   3.445   1.929
 2330SOL    HW2 7890   1.112   3.430   1.827
 2331SOL     OW 7891   5.787   4.867   1.156
 2331SOL    HW1 7892   5.747   4.940   1.099
 2331SOL    HW2 7893   5.714   4.820   1.205
 2332SOL     OW 7894   4.483   1.557   5.020
 2332SOL    HW1 7895   4.571   1.577   5.062
 2332SOL    HW2 7896   4.416   1.533   5.091
 2333SOL     OW 7897   0.420   5.477   2.931
 2333SOL    HW1 7898   0.425   5.398   2.869
 2333SOL    HW2 7899   0.427   5.561   2.879
 2334SOL     OW 7900   2.273   0.182   6.977
 2334SOL    HW1 7901   2.352   0.158   0.017
 2334SOL    HW2 7902   2.224   0.099   6.952
 2335SOL     OW 7903   6.192   1.708   2.675
 2335SOL    HW1 7904   6.133   1.645   2.725
 2335SOL    HW2 7905   6.288   1.688   2.696
 2336SOL     OW 7906   4.215   1.745   4.677
 2336SOL    HW1 7907   4.221   1.843   4.659
 2336SOL    HW2 7908   4.120   1.715   4.672
 2337SOL     OW 7909   4.099   1.083   3.359
 2337SOL    HW1 7910   4.193   1.085   3.324
 2337SOL    HW2 7911   4.079   0.993   3.396
 2338SOL     OW 7912   0.955   1.680   6.015
 2338SOL    HW1 7913   1.032   1.691   5.952
 2338SOL    HW2 7914   0.875   1.729   5.980
 2339SOL     OW 7915   3.821   4.041   4.777
 2339SOL    HW1 7916   3.729   4.011   4.803
 2339SOL    HW2 7917   3.879   4.043   4.858
 2340SOL     OW 7918   5.107   4.903   0.003
 2340SOL    HW1 7919   5.036   4.843   6.983
 2340SOL    HW2 7920   5.094   4.995   6.982
 2341SOL     OW 7921   5.548   4.213   1.170
 2341SOL    HW1 7922   5.520   4.136   1.229
 2341SOL    HW2 7923   5.619   4.182   1.107
 2342SOL     OW 7924   0.617   6.316   5.266
 2342SOL    HW1 7925   0.678   6.382   5.222
 2342SOL    HW2 7926   0.527   6.319   5.222
 2343SOL     OW 7927   1.513   6.061   2.573
 2343SOL    HW1 7928   1.573   5.981   2.581
 2343SOL    HW2 7929   1.451   6.048   2.495
 2344SOL     OW 7930   1.747   1.047   1.193
 2344SOL    HW1 7931   1.806   1.000   1.259
 2344SOL    HW2 7932   1.799   1.117   1.146
 2345SOL     OW 7933   3.173   5.356   5.728
 2345SOL    HW1 7934   3.142   5.389   5.817
 2345SOL    HW2 7935   3.272   5.370   5.720
 2346SOL     OW 7936   4.610   2.791   4.948
 2346SOL    HW1 7937   4.662   2.845   5.013
 2346SOL    HW2 7938   4.660   2.782   4.862
 2347SOL     OW 7939   2.360   3.237   1.708
 2347SOL    HW1 7940   2.377   3.306   1.779
 2347SOL    HW2 7941   2.263   3.212   1.708
 2348SOL     OW 7942   3.753   6.173   3.310
 2348SOL    HW1 7943   3.797   6.133   3.391
 2348SOL    HW2 7944   3.822   6.208   3.248
 2349SOL     OW 7945   0.413   4.761   5.998
 2349SOL    HW1 7946   0.359   4.841   5.972
 2349SOL    HW2 7947   0.510   4.787   6.005
 2350SOL     OW 7948   5.571   6.860   6.378
 2350SOL    HW1 7949   5.552   6.903   6.466
 2350SOL    HW2 7950   5.661   6.889   6.345
 2351SOL     OW 7951   3.245   5.082   2.251
 2351SOL    HW1 7952   3.237   5.166   2.303
 2351SOL    HW2 7953   3.263   5.006   2.313
 2352SOL     OW 7954   0.967   3.325   2.077
 2352SOL    HW1 7955   0.980   3.416   2.117
 2352SOL    HW2 7956   0.921   3.266   2.142
 2353SOL     OW 7957   3.128   4.655   5.384
 2353SOL    HW1 7958   3.108   4.571   5.333
 2353SOL    HW2 7959   3.189   4.634   5.461
 2354SOL     OW 7960   3.230   1.932   6.234
 2354SOL    HW1 7961   3.266   2.021   6.210
 2354SOL    HW2 7962   3.211   1.879   6.151
 2355SOL     OW 7963   1.397   5.633   6.461
 2355SOL    HW1 7964   1.497   5.637   6.459
 2355SOL    HW2 7965   1.367   5.551   6.510
 2356SOL     OW 7966   2.298   4.008   0.237
 2356SOL    HW1 7967   2.355   4.090   0.230
 2356SOL    HW2 7968   2.305   3.954   0.153
 2357SOL     OW 7969   4.449   5.181   3.834
 2357SOL    HW1 7970   4.453   5.100   3.774
 2357SOL    HW2 7971   4.401   5.157   3.918
 2358SOL     OW 7972   2.752   5.328   5.387
 2358SOL    HW1 7973   2.799   5.246   5.355
 2358SOL    HW2 7974   2.819   5.399   5.408
 2359SOL     OW 7975   0.127   0.830   5.466
 2359SOL    HW1 7976   0.192   0.853   5.393
 2359SOL    HW2 7977   0.178   0.813   5.551
 2360SOL     OW 7978   5.289   6.329   6.069
 2360SOL    HW1 7979   5.213   6.344   6.005
 2360SOL    HW2 7980   5.280   6.392   6.146
 2361SOL     OW 7981   3.002   0.507   5.181
 2361SOL    HW1 7982   3.026   0.600   5.156
 2361SOL    HW2 7983   2.999   0.498   5.281
 2362SOL     OW 7984   2.781   0.618   5.394
 2362SOL    HW1 7985   2.794   0.696   5.454
 2362SOL    HW2 7986   2.838   0.542   5.425
 2363SOL     OW 7987   3.997   2.629   5.641
 2363SOL    HW1 7988   4.034   2.538   5.625
 2363SOL    HW2 7989   3.961   2.635   5.734
 2364SOL     OW 7990   0.418   2.455   2.990
 2364SOL    HW1 7991   0.502   2.461   2.936
 2364SOL    HW2 7992   0.347   2.409   2.935
 2365SOL     OW 7993   6.492   2.314   6.083
 2365SOL    HW1 7994   6.543   2.234   6.049
 2365SOL    HW2 7995   6.556   2.390   6.097
 2366SOL     OW 7996   1.216   4.683   5.687
 2366SOL    HW1 7997   1.237   4.716   5.595
 2366SOL    HW2 7998   1.117   4.669   5.696
 2367SOL     OW 7999   3.705   3.941   6.974
 2367SOL    HW1 8000   3.670   3.903   6.888
 2367SOL    HW2 8001   3.632   3.942   0.026
 2368SOL     OW 8002   4.983   0.183   3.624
 2368SOL    HW1 8003   4.894   0.170   3.581
 2368SOL    HW2 8004   4.985   0.271   3.672
 2369SOL     OW 8005   1.916   2.584   5.050
 2369SOL    HW1 8006   1.970   2.632   5.119
 2369SOL    HW2 8007   1.898   2.645   4.973
 2370SOL     OW 8008   4.879   3.907   6.912
 2370SOL    HW1 8009   4.889   3.953   6.824
 2370SOL    HW2 8010   4.835   3.969   6.977
 2371SOL     OW 8011   1.235   6.081   1.421
 2371SOL    HW1 8012   1.263   6.008   1.483
 2371SOL    HW2 8013   1.249   6.051   1.327
 2372SOL     OW 8014   0.549   2.480   1.722
 2372SOL    HW1 8015   0.621   2.546   1.744
 2372SOL    HW2 8016   0.561   2.448   1.628
 2373SOL     OW 8017   6.609   6.994   0.276
 2373SOL    HW1 8018   6.546   0.052   0.252
 2373SOL    HW2 8019   6.694   0.016   0.311
 2374SOL     OW 8020   6.158   1.071   3.957
 2374SOL    HW1 8021   6.231   1.139   3.966
 2374SOL    HW2 8022   6.114   1.081   3.868
 2375SOL     OW 8023   2.148   6.661   4.628
 2375SOL    HW1 8024   2.228   6.665   4.568
 2375SOL    HW2 8025   2.127   6.753   4.661
 2376SOL     OW 8026   5.816   2.199   4.118
 2376SOL    HW1 8027   5.876   2.256   4.062
 2376SOL    HW2 8028   5.859   2.111   4.134
 2377SOL     OW 8029   3.487   4.156   3.157
 2377SOL    HW1 8030   3.556   4.226   3.172
 2377SOL    HW2 8031   3.471   4.145   3.059
 2378SOL     OW 8032   4.970   2.359   6.787
 2378SOL    HW1 8033   4.988   2.433   6.721
 2378SOL    HW2 8034   4.961   2.398   6.878
 2379SOL     OW 8035   6.281   1.552   6.541
 2379SOL    HW1 8036   6.223   1.510   6.471
 2379SOL    HW2 8037   6.224   1.578   6.619
 2380SOL     OW 8038   6.408   6.573   5.978
 2380SOL    HW1 8039   6.346   6.630   5.925
 2380SOL    HW2 8040   6.394   6.477   5.953
 2381SOL     OW 8041   2.256   4.147   4.025
 2381SOL    HW1 8042   2.240   4.083   3.950
 2381SOL    HW2 8043   2.260   4.241   3.988
 2382SOL     OW 8044   2.256   5.016   3.254
 2382SOL    HW1 8045   2.345   4.985   3.221
 2382SOL    HW2 8046   2.199   5.042   3.176
 2383SOL     OW 8047   5.287   6.022   6.949
 2383SOL    HW1 8048   5.228   6.083   7.003
 2383SOL    HW2 8049   5.240   5.934   6.936
 2384SOL     OW 8050   0.415   6.761   2.111
 2384SOL    HW1 8051   0.399   6.767   2.210
 2384SOL    HW2 8052   0.473   6.838   2.083
 2385SOL     OW 8053   6.394   6.668   1.455
 2385SOL    HW1 8054   6.302   6.660   1.492
 2385SOL    HW2 8055   6.397   6.744   1.389
 2386SOL     OW 8056   5.381   4.627   4.186
 2386SOL    HW1 8057   5.458   4.580   4.143
 2386SOL    HW2 8058   5.313   4.560   4.216
 2387SOL     OW 8059   0.136   1.763   3.392
 2387SOL    HW1 8060   0.159   1.840   3.451
 2387SOL    HW2 8061   0.062   1.789   3.330
 2388SOL     OW 8062   1.500   2.129   3.977
 2388SOL    HW1 8063   1.446   2.187   4.038
 2388SOL    HW2 8064   1.542   2.055   4.029
 2389SOL     OW 8065   5.374   3.234   3.787
 2389SOL    HW1 8066   5.426   3.235   3.702
 2389SOL    HW2 8067   5.397   3.315   3.841
 2390SOL     OW 8068   3.471   3.623   4.356
 2390SOL    HW1 8069   3.454   3.711   4.311
 2390SOL    HW2 8070   3.410   3.614   4.435
 2391SOL     OW 8071   4.537   4.484   5.723
 2391SOL    HW1 8072   4.622   4.509   5.768
 2391SOL    HW2 8073   4.558   4.435   5.638
 2392SOL     OW 8074   3.564   6.791   5.235
 2392SOL    HW1 8075   3.607   6.809   5.147
 2392SOL    HW2 8076   3.523   6.699   5.234
 2393SOL     OW 8077   4.004   5.315   0.766
 2393SOL    HW1 8078   3.943   5.237   0.758
 2393SOL    HW2 8079   4.027   5.349   0.674
 2394SOL     OW 8080   1.666   3.109   4.861
 2394SOL    HW1 8081   1.649   3.062   4.774
 2394SOL    HW2 8082   1.704   3.200   4.844
 2395SOL     OW 8083   6.177   2.791   0.224
 2395SOL    HW1 8084   6.237   2.732   0.277
 2395SOL    HW2 8085   6.207   2.792   0.129
 2396SOL     OW 8086   4.221   5.872   7.008
 2396SOL    HW1 8087   4.189   5.925   6.929
 2396SOL    HW2 8088   4.179   5.908   0.075
 2397SOL     OW 8089   0.024   3.524   0.553
 2397SOL    HW1 8090   6.949   3.516   0.595
 2397SOL    HW2 8091   0.056   3.619   0.561
 2398SOL     OW 8092   3.063   4.320   6.232
 2398SOL    HW1 8093   3.147   4.332   6.179
 2398SOL    HW2 8094   3.078   4.249   6.301
 2399SOL     OW 8095   4.840   1.072   2.413
 2399SOL    HW1 8096   4.800   1.084   2.322
 2399SOL    HW2 8097   4.910   1.001   2.409
 2400SOL     OW 8098   4.099   4.972   0.577
 2400SOL    HW1 8099   4.008   4.951   0.613
 2400SOL    HW2 8100   4.152   5.019   0.648
 2401SOL     OW 8101   4.016   0.762   6.145
 2401SOL    HW1 8102   3.980   0.830   6.082
 2401SOL    HW2 8103   4.037   0.805   6.233
 2402SOL     OW 8104   0.369   2.027   4.070
 2402SOL    HW1 8105   0.376   2.110   4.126
 2402SOL    HW2 8106   0.304   1.964   4.113
 2403SOL     OW 8107   2.771   2.789   0.132
 2403SOL    HW1 8108   2.730   2.771   0.221
 2403SOL    HW2 8109   2.792   2.886   0.123
 2404SOL     OW 8110   5.923   0.694   2.268
 2404SOL    HW1 8111   5.985   0.718   2.342
 2404SOL    HW2 8112   5.840   0.653   2.306
 2405SOL     OW 8113   3.180   3.496   3.702
 2405SOL    HW1 8114   3.204   3.540   3.615
 2405SOL    HW2 8115   3.243   3.420   3.719
 2406SOL     OW 8116   1.638   0.257   3.709
 2406SOL    HW1 8117   1.627   0.294   3.617
 2406SOL    HW2 8118   1.609   0.326   3.776
 2407SOL     OW 8119   4.823   3.070   2.956
 2407SOL    HW1 8120   4.879   3.022   3.024
 2407SOL    HW2 8121   4.743   3.014   2.934
 2408SOL     OW 8122   3.031   4.810   2.365
 2408SOL    HW1 8123   3.120   4.837   2.400
 2408SOL    HW2 8124   3.036   4.797   2.266
 2409SOL     OW 8125   1.929   2.505   1.956
 2409SOL    HW1 8126   1.956   2.601   1.958
 2409SOL    HW2 8127   2.002   2.449   1.997
 2410SOL     OW 8128   5.418   2.722   6.076
 2410SOL    HW1 8129   5.516   2.739   6.074
 2410SOL    HW2 8130   5.374   2.789   6.136
 2411SOL     OW 8131   4.450   5.526   5.496
 2411SOL    HW1 8132   4.404   5.601   5.447
 2411SOL    HW2 8133   4.385   5.481   5.556
 2412SOL     OW 8134   2.770   3.968   7.011
 2412SOL    HW1 8135   2.770   4.052   6.957
 2412SOL    HW2 8136   2.689   3.914   6.989
 2413SOL     OW 8137   6.464   2.734   6.798
 2413SOL    HW1 8138   6.495   2.702   6.708
 2413SOL    HW2 8139   6.543   2.753   6.856
 2414SOL     OW 8140   5.863   4.260   2.149
 2414SOL    HW1 8141   5.851   4.182   2.211
 2414SOL    HW2 8142   5.949   4.307   2.171
 2415SOL     OW 8143   0.639   6.949   1.115
 2415SOL    HW1 8144   0.577   6.931   1.039
 2415SOL    HW2 8145   0.587   6.978   1.195
 2416SOL     OW 8146   3.403   2.060   5.006
 2416SOL    HW1 8147   3.355   2.148   5.008
 2416SOL    HW2 8148   3.424   2.031   5.099
 2417SOL     OW 8149   4.082   2.534   6.689
 2417SOL    HW1 8150   4.021   2.491   6.622
 2417SOL    HW2 8151   4.127   2.463   6.743
 2418SOL     OW 8152   2.868   3.484   3.205
 2418SOL    HW1 8153   2.813   3.531   3.274
 2418SOL    HW2 8154   2.878   3.388   3.230
 2419SOL     OW 8155   0.694   6.355   3.596
 2419SOL    HW1 8156   0.742   6.318   3.516
 2419SOL    HW2 8157   0.659   6.447   3.574
 2420SOL     OW 8158   3.452   0.948   2.473
 2420SOL    HW1 8159   3.448   0.953   2.373
 2420SOL    HW2 8160   3.471   1.039   2.511
 2421SOL     OW 8161   2.805   1.106   5.096
 2421SOL    HW1 8162   2.843   1.050   5.170
 2421SOL    HW2 8163   2.873   1.115   5.024
 2422SOL     OW 8164   5.353   0.182   1.762
 2422SOL    HW1 8165   5.314   0.160   1.672
 2422SOL    HW2 8166   5.443   0.224   1.749
 2423SOL     OW 8167   1.948   5.763   3.654
 2423SOL    HW1 8168   1.933   5.799   3.747
 2423SOL    HW2 8169   1.988   5.672   3.660
 2424SOL     OW 8170   5.491   6.372   5.883
 2424SOL    HW1 8171   5.496   6.304   5.811
 2424SOL    HW2 8172   5.408   6.359   5.937
 2425SOL     OW 8173   6.029   0.244   4.421
 2425SOL    HW1 8174   6.125   0.252   4.447
 2425SOL    HW2 8175   6.004   0.319   4.359
 2426SOL     OW 8176   0.740   4.570   3.799
 2426SOL    HW1 8177   0.775   4.662   3.813
 2426SOL    HW2 8178   0.753   4.543   3.704
 2427SOL     OW 8179   6.376   5.243   6.427
 2427SOL    HW1 8180   6.294   5.289   6.394
 2427SOL    HW2 8181   6.395   5.273   6.521
 2428SOL     OW 8182   0.170   0.024   3.171
 2428SOL    HW1 8183   0.084   7.002   3.138
 2428SOL    HW2 8184   0.247   6.988   3.133
 2429SOL     OW 8185   6.553   6.069   4.332
 2429SOL    HW1 8186   6.541   6.051   4.234
 2429SOL    HW2 8187   6.567   5.983   4.380
 2430SOL     OW 8188   5.962   2.337   1.862
 2430SOL    HW1 8189   5.971   2.421   1.809
 2430SOL    HW2 8190   5.885   2.284   1.826
 2431SOL     OW 8191   3.769   0.322   1.765
 2431SOL    HW1 8192   3.679   0.359   1.742
 2431SOL    HW2 8193   3.791   0.343   1.860
 2432SOL     OW 8194   3.694   6.560   3.095
 2432SOL    HW1 8195   3.781   6.604   3.071
 2432SOL    HW2 8196   3.621   6.629   3.096
 2433SOL     OW 8197   2.932   6.690   0.784
 2433SOL    HW1 8198   2.878   6.633   0.846
 2433SOL    HW2 8199   2.949   6.779   0.826
 2434SOL     OW 8200   4.122   1.323   3.447
 2434SOL    HW1 8201   4.175   1.374   3.379
 2434SOL    HW2 8202   4.112   1.228   3.418
 2435SOL     OW 8203   4.717   5.643   5.725
 2435SOL    HW1 8204   4.796   5.643   5.664
 2435SOL    HW2 8205   4.647   5.581   5.689
 2436SOL     OW 8206   1.669   6.982   0.682
 2436SOL    HW1 8207   1.669   6.882   0.691
 2436SOL    HW2 8208   1.574   7.014   0.680
 2437SOL     OW 8209   3.962   5.608   0.755
 2437SOL    HW1 8210   4.003   5.525   0.792
 2437SOL    HW2 8211   3.862   5.603   0.762
 2438SOL     OW 8212   3.824   1.638   5.484
 2438SOL    HW1 8213   3.739   1.662   5.438
 2438SOL    HW2 8214   3.862   1.719   5.530
 2439SOL     OW 8215   1.231   4.264   0.199
 2439SOL    HW1 8216   1.238   4.236   0.103
 2439SOL    HW2 8217   1.303   4.219   0.252
 2440SOL     OW 8218   3.696   6.400   4.976
 2440SOL    HW1 8219   3.662   6.306   4.976
 2440SOL    HW2 8220   3.767   6.409   4.906
 2441SOL     OW 8221   6.109   0.711   0.063
 2441SOL    HW1 8222   6.060   0.655   0.130
 2441SOL    HW2 8223   6.057   0.714   6.994
 2442SOL     OW 8224   0.309   5.912   3.844
 2442SOL    HW1 8225   0.351   5.879   3.760
 2442SOL    HW2 8226   0.357   5.873   3.923
 2443SOL     OW 8227   3.385   6.673   6.359
 2443SOL    HW1 8228   3.325   6.612   6.409
 2443SOL    HW2 8229   3.439   6.729   6.423
 2444SOL     OW 8230   3.621   4.330   6.215
 2444SOL    HW1 8231   3.704   4.289   6.177
 2444SOL    HW2 8232   3.646   4.393   6.289
 2445SOL     OW 8233   6.650   1.237   2.338
 2445SOL    HW1 8234   6.744   1.253   2.311
 2445SOL    HW2 8235   6.639   1.141   2.365
 2446SOL     OW 8236   0.540   3.135   4.384
 2446SOL    HW1 8237   0.618   3.078   4.361
 2446SOL    HW2 8238   0.464   3.078   4.414
 2447SOL     OW 8239   2.394   1.219   1.038
 2447SOL    HW1 8240   2.350   1.154   1.100
 2447SOL    HW2 8241   2.423   1.171   0.955
 2448SOL     OW 8242   0.911   0.189   4.494
 2448SOL    HW1 8243   0.980   0.118   4.507
 2448SOL    HW2 8244   0.883   0.225   4.583
 2449SOL     OW 8245   0.110   3.833   2.272
 2449SOL    HW1 8246   0.057   3.917   2.260
 2449SOL    HW2 8247   0.184   3.850   2.338
 2450SOL     OW 8248   2.790   4.754   4.510
 2450SOL    HW1 8249   2.856   4.812   4.557
 2450SOL    HW2 8250   2.745   4.693   4.576
 2451SOL     OW 8251   0.024   6.982   4.194
 2451SOL    HW1 8252   0.002   6.979   4.096
 2451SOL    HW2 8253   0.093   0.036   4.211
 2452SOL     OW 8254   2.916   2.263   3.307
 2452SOL    HW1 8255   2.835   2.221   3.348
 2452SOL    HW2 8256   2.963   2.319   3.376
 2453SOL     OW 8257   6.817   3.551   0.720
 2453SOL    HW1 8258   6.831   3.608   0.801
 2453SOL    HW2 8259   6.801   3.456   0.749
 2454SOL     OW 8260   3.315   0.768   6.971
 2454SOL    HW1 8261   3.303   0.791   6.875
 2454SOL    HW2 8262   3.394   0.819   7.008
 2455SOL     OW 8263   5.214   0.037   0.907
 2455SOL    HW1 8264   5.296   7.010   0.945
 2455SOL    HW2 8265   5.240   0.118   0.856
 2456SOL     OW 8266   5.772   0.966   6.688
 2456SOL    HW1 8267   5.819   0.954   6.601
 2456SOL    HW2 8268   5.760   0.878   6.732
 2457SOL     OW 8269   6.028   6.112   6.558
 2457SOL    HW1 8270   6.065   6.033   6.606
 2457SOL    HW2 8271   5.988   6.083   6.471
 2458SOL     OW 8272   2.276   5.878   3.998
 2458SOL    HW1 8273   2.308   5.824   3.920
 2458SOL    HW2 8274   2.316   5.844   4.082
 2459SOL     OW 8275   2.475   6.189   0.177
 2459SOL    HW1 8276   2.433   6.249   0.109
 2459SOL    HW2 8277   2.486   6.238   0.263
 2460SOL     OW 8278   1.866   1.375   1.708
 2460SOL    HW1 8279   1.817   1.333   1.784
 2460SOL    HW2 8280   1.841   1.472   1.702
 2461SOL     OW 8281   4.367   0.287   2.910
 2461SOL    HW1 8282   4.402   0.246   2.826
 2461SOL    HW2 8283   4.368   0.219   2.983
 2462SOL     OW 8284   2.811   5.232   7.016
 2462SOL    HW1 8285   2.730   5.244   6.960
 2462SOL    HW2 8286   2.893   5.249   6.960
 2463SOL     OW 8287   6.296   2.601   4.197
 2463SOL    HW1 8288   6.351   2.545   4.135
 2463SOL    HW2 8289   6.224   2.544   4.237
 2464SOL     OW 8290   1.993   3.940   1.571
 2464SOL    HW1 8291   1.992   3.840   1.570
 2464SOL    HW2 8292   1.950   3.975   1.488
 2465SOL     OW 8293   0.782   6.933   1.824
 2465SOL    HW1 8294   0.815   6.960   1.734
 2465SOL    HW2 8295   0.790   7.010   1.887
 2466SOL     OW 8296   3.079   1.448   1.866
 2466SOL    HW1 8297   3.109   1.385   1.794
 2466SOL    HW2 8298   3.153   1.512   1.887
 2467SOL     OW 8299   5.757   1.607   5.092
 2467SOL    HW1 8300   5.669   1.564   5.113
 2467SOL    HW2 8301   5.807   1.551   5.026
 2468SOL     OW 8302   5.786   6.088   2.476
 2468SOL    HW1 8303   5.885   6.097   2.465
 2468SOL    HW2 8304   5.755   6.156   2.543
 2469SOL     OW 8305   4.000   4.570   5.282
 2469SOL    HW1 8306   3.912   4.530   5.257
 2469SOL    HW2 8307   4.071   4.535   5.220
 2470SOL     OW 8308   3.599   4.616   6.117
 2470SOL    HW1 8309   3.560   4.528   6.144
 2470SOL    HW2 8310   3.527   4.684   6.109
 2471SOL     OW 8311   2.115   6.374   0.494
 2471SOL    HW1 8312   2.146   6.400   0.586
 2471SOL    HW2 8313   2.174   6.417   0.426
 2472SOL     OW 8314   4.376   2.037   3.700
 2472SOL    HW1 8315   4.380   2.136   3.713
 2472SOL    HW2 8316   4.451   1.994   3.751
 2473SOL     OW 8317   2.004   3.971   5.136
 2473SOL    HW1 8318   1.950   3.927   5.063
 2473SOL    HW2 8319   2.093   3.998   5.099
 2474SOL     OW 8320   0.698   5.727   0.659
 2474SOL    HW1 8321   0.714   5.822   0.635
 2474SOL    HW2 8322   0.646   5.682   0.585
 2475SOL     OW 8323   5.217   0.914   1.012
 2475SOL    HW1 8324   5.212   0.983   0.940
 2475SOL    HW2 8325   5.148   0.934   1.081
 2476SOL     OW 8326   0.687   2.912   3.521
 2476SOL    HW1 8327   0.634   2.906   3.606
 2476SOL    HW2 8328   0.785   2.915   3.543
 2477SOL     OW 8329   5.527   1.123   2.306
 2477SOL    HW1 8330   5.489   1.182   2.377
 2477SOL    HW2 8331   5.513   1.027   2.331
 2478SOL     OW 8332   5.891   0.441   2.148
 2478SOL    HW1 8333   5.919   0.531   2.180
 2478SOL    HW2 8334   5.804   0.448   2.099
 2479SOL     OW 8335   1.403   3.958   1.383
 2479SOL    HW1 8336   1.420   3.965   1.284
 2479SOL    HW2 8337   1.490   3.963   1.432
 2480SOL     OW 8338   6.010   4.667   0.835
 2480SOL    HW1 8339   6.039   4.719   0.755
 2480SOL    HW2 8340   5.922   4.702   0.868
 2481SOL     OW 8341   2.535   0.057   0.450
 2481SOL    HW1 8342   2.634   0.038   0.454
 2481SOL    HW2 8343   2.515   0.140   0.501
 2482SOL     OW 8344   4.961   2.965   5.892
 2482SOL    HW1 8345   4.886   2.913   5.933
 2482SOL    HW2 8346   5.035   2.903   5.867
 2483SOL     OW 8347   2.168   1.290   6.930
 2483SOL    HW1 8348   2.153   1.368   6.991
 2483SOL    HW2 8349   2.225   1.318   6.853
 2484SOL     OW 8350   1.968   0.550   0.421
 2484SOL    HW1 8351   1.892   0.508   0.370
 2484SOL    HW2 8352   2.054   0.509   0.392
 2485SOL     OW 8353   4.775   4.585   2.240
 2485SOL    HW1 8354   4.700   4.523   2.262
 2485SOL    HW2 8355   4.790   4.647   2.318
 2486SOL     OW 8356   3.440   5.226   3.479
 2486SOL    HW1 8357   3.438   5.237   3.578
 2486SOL    HW2 8358   3.367   5.280   3.438
 2487SOL     OW 8359   3.946   5.501   6.674
 2487SOL    HW1 8360   3.962   5.599   6.687
 2487SOL    HW2 8361   4.009   5.466   6.605
 2488SOL     OW 8362   2.193   4.301   2.774
 2488SOL    HW1 8363   2.177   4.399   2.784
 2488SOL    HW2 8364   2.118   4.261   2.721
 2489SOL     OW 8365   2.296   5.838   3.651
 2489SOL    HW1 8366   2.354   5.758   3.668
 2489SOL    HW2 8367   2.342   5.899   3.587
 2490SOL     OW 8368   6.616   5.522   0.959
 2490SOL    HW1 8369   6.663   5.530   0.871
 2490SOL    HW2 8370   6.662   5.454   1.016
 2491SOL     OW 8371   2.484   6.462   1.092
 2491SOL    HW1 8372   2.398   6.489   1.136
 2491SOL    HW2 8373   2.552   6.440   1.162
 2492SOL     OW 8374   4.423   3.169   6.683
 2492SOL    HW1 8375   4.409   3.266   6.702
 2492SOL    HW2 8376   4.348   3.135   6.626
 2493SOL     OW 8377   5.801   0.099   2.766
 2493SOL    HW1 8378   5.793   7.015   2.775
 2493SOL    HW2 8379   5.855   0.121   2.685
 2494SOL     OW 8380   5.752   3.539   2.615
 2494SOL    HW1 8381   5.675   3.570   2.560
 2494SOL    HW2 8382   5.819   3.494   2.557
 2495SOL     OW 8383   5.153   0.180   4.756
 2495SOL    HW1 8384   5.167   0.089   4.716
 2495SOL    HW2 8385   5.064   0.182   4.802
 2496SOL     OW 8386   0.661   4.637   6.271
 2496SOL    HW1 8387   0.616   4.570   6.329
 2496SOL    HW2 8388   0.737   4.678   6.321
 2497SOL     OW 8389   0.495   1.338   1.060
 2497SOL    HW1 8390   0.508   1.407   1.131
 2497SOL    HW2 8391   0.575   1.278   1.056
 2498SOL     OW 8392   3.021   2.176   3.607
 2498SOL    HW1 8393   3.110   2.149   3.572
 2498SOL    HW2 8394   2.958   2.099   3.604
 2499SOL     OW 8395   4.929   2.060   4.234
 2499SOL    HW1 8396   5.013   2.076   4.181
 2499SOL    HW2 8397   4.905   1.963   4.230
 2500SOL     OW 8398   4.430   3.250   5.814
 2500SOL    HW1 8399   4.472   3.213   5.731
 2500SOL    HW2 8400   4.359   3.316   5.790
 2501SOL     OW 8401   0.349   6.081   0.030
 2501SOL    HW1 8402   0.389   5.992   0.005
 2501SOL    HW2 8403   0.355   6.143   6.968
 2502SOL     OW 8404   2.398   6.013   3.454
 2502SOL    HW1 8405   2.407   6.015   3.354
 2502SOL    HW2 8406   2.412   6.106   3.489
 2503SOL     OW 8407   3.642   5.561   6.063
 2503SOL    HW1 8408   3.552   5.518   6.051
 2503SOL    HW2 8409   3.632   5.660   6.059
 2504SOL     OW 8410   3.193   5.482   5.457
 2504SOL    HW1 8411   3.157   5.555   5.516
 2504SOL    HW2 8412   3.185   5.394   5.504
 2505SOL     OW 8413   1.938   6.258   4.234
 2505SOL    HW1 8414   1.874   6.199   4.185
 2505SOL    HW2 8415   1.909   6.267   4.329
 2506SOL     OW 8416   5.946   3.282   6.077
 2506SOL    HW1 8417   5.882   3.357   6.065
 2506SOL    HW2 8418   5.931   3.239   6.166
 2507SOL     OW 8419   0.138   3.785   0.538
 2507SOL    HW1 8420   0.187   3.784   0.451
 2507SOL    HW2 8421   0.136   3.878   0.575
 2508SOL     OW 8422   2.856   1.140   2.469
 2508SOL    HW1 8423   2.923   1.174   2.402
 2508SOL    HW2 8424   2.812   1.217   2.514
 2509SOL     OW 8425   5.916   3.015   2.909
 2509SOL    HW1 8426   5.848   2.962   2.858
 2509SOL    HW2 8427   5.899   3.004   3.007
 2510SOL     OW 8428   3.605   4.629   1.263
 2510SOL    HW1 8429   3.597   4.659   1.168
 2510SOL    HW2 8430   3.658   4.696   1.315
 2511SOL     OW 8431   2.226   2.143   4.455
 2511SOL    HW1 8432   2.145   2.141   4.395
 2511SOL    HW2 8433   2.299   2.089   4.413
 2512SOL     OW 8434   5.106   5.452   5.542
 2512SOL    HW1 8435   5.009   5.428   5.541
 2512SOL    HW2 8436   5.130   5.491   5.630
 2513SOL     OW 8437   0.984   2.936   5.428
 2513SOL    HW1 8438   0.932   2.895   5.353
 2513SOL    HW2 8439   0.972   3.035   5.427
 2514SOL     OW 8440   6.566   3.870   4.353
 2514SOL    HW1 8441   6.527   3.811   4.423
 2514SOL    HW2 8442   6.556   3.826   4.263
 2515SOL     OW 8443   1.428   0.020   0.773
 2515SOL    HW1 8444   1.438   0.089   0.845
 2515SOL    HW2 8445   1.384   0.063   0.693
 2516SOL     OW 8446   5.956   6.766   3.428
 2516SOL    HW1 8447   5.885   6.833   3.450
 2516SOL    HW2 8448   6.012   6.802   3.353
 2517SOL     OW 8449   1.830   5.613   5.496
 2517SOL    HW1 8450   1.731   5.624   5.490
 2517SOL    HW2 8451   1.870   5.631   5.406
 2518SOL     OW 8452   2.358   2.900   7.011
 2518SOL    HW1 8453   2.329   2.973   6.949
 2518SOL    HW2 8454   2.365   2.814   6.960
 2519SOL     OW 8455   5.022   5.286   4.445
 2519SOL    HW1 8456   5.106   5.342   4.446
 2519SOL    HW2 8457   4.962   5.315   4.519
 2520SOL     OW 8458   1.070   2.790   1.051
 2520SOL    HW1 8459   0.972   2.807   1.058
 2520SOL    HW2 8460   1.091   2.746   0.964
 2521SOL     OW 8461   0.904   6.314   5.695
 2521SOL    HW1 8462   0.884   6.352   5.785
 2521SOL    HW2 8463   1.003   6.303   5.683
 2522SOL     OW 8464   0.878   3.142   5.974
 2522SOL    HW1 8465   0.935   3.220   5.998
 2522SOL    HW2 8466   0.855   3.147   5.877
 2523SOL     OW 8467   0.517   3.278   1.091
 2523SOL    HW1 8468   0.571   3.346   1.040
 2523SOL    HW2 8469   0.570   3.246   1.169
 2524SOL     OW 8470   0.810   6.004   4.236
 2524SOL    HW1 8471   0.800   6.090   4.187
 2524SOL    HW2 8472   0.772   6.013   4.328
 2525SOL     OW 8473   1.244   2.456   4.792
 2525SOL    HW1 8474   1.332   2.448   4.839
 2525SOL    HW2 8475   1.170   2.452   4.860
 2526SOL     OW 8476   1.267   3.958   5.793
 2526SOL    HW1 8477   1.342   4.007   5.838
 2526SOL    HW2 8478   1.282   3.859   5.803
 2527SOL     OW 8479   4.655   0.116   4.783
 2527SOL    HW1 8480   4.700   0.156   4.703
 2527SOL    HW2 8481   4.640   0.019   4.767
 2528SOL     OW 8482   6.203   4.641   1.019
 2528SOL    HW1 8483   6.121   4.644   0.962
 2528SOL    HW2 8484   6.282   4.671   0.965
 2529SOL     OW 8485   6.122   5.764   5.904
 2529SOL    HW1 8486   6.073   5.729   5.984
 2529SOL    HW2 8487   6.100   5.709   5.824
 2530SOL     OW 8488   1.025   5.891   4.769
 2530SOL    HW1 8489   1.008   5.810   4.713
 2530SOL    HW2 8490   0.943   5.950   4.768
 2531SOL     OW 8491   5.618   5.656   4.377
 2531SOL    HW1 8492   5.550   5.682   4.445
 2531SOL    HW2 8493   5.696   5.612   4.422
 2532SOL     OW 8494   0.694   6.033   0.669
 2532SOL    HW1 8495   0.605   6.010   0.709
 2532SOL    HW2 8496   0.680   6.094   0.591
 2533SOL     OW 8497   4.892   6.366   3.596
 2533SOL    HW1 8498   4.950   6.381   3.675
 2533SOL    HW2 8499   4.835   6.447   3.580
 2534SOL     OW 8500   1.965   6.961   3.439
 2534SOL    HW1 8501   1.992   6.989   3.531
 2534SOL    HW2 8502   1.884   6.902   3.444
 2535SOL     OW 8503   2.463   2.444   6.859
 2535SOL    HW1 8504   2.475   2.351   6.822
 2535SOL    HW2 8505   2.536   2.503   6.823
 2536SOL     OW 8506   0.349   1.675   3.215
 2536SOL    HW1 8507   0.383   1.641   3.302
 2536SOL    HW2 8508   0.265   1.728   3.230
 2537SOL     OW 8509   5.598   5.563   6.852
 2537SOL    HW1 8510   5.563   5.635   6.792
 2537SOL    HW2 8511   5.552   5.569   6.941
 2538SOL     OW 8512   1.592   4.106   4.590
 2538SOL    HW1 8513   1.610   4.008   4.582
 2538SOL    HW2 8514   1.623   4.152   4.508
 2539SOL     OW 8515   4.443   0.137   5.969
 2539SOL    HW1 8516   4.352   0.160   5.935
 2539SOL    HW2 8517   4.485   0.069   5.909
 2540SOL     OW 8518   4.785   1.106   1.309
 2540SOL    HW1 8519   4.736   1.133   1.226
 2540SOL    HW2 8520   4.726   1.124   1.389
 2541SOL     OW 8521   1.429   0.423   5.981
 2541SOL    HW1 8522   1.470   0.508   6.016
 2541SOL    HW2 8523   1.343   0.406   6.029
 2542SOL     OW 8524   4.216   1.409   5.030
 2542SOL    HW1 8525   4.259   1.462   5.103
 2542SOL    HW2 8526   4.129   1.452   5.005
 2543SOL     OW 8527   1.972   0.911   2.855
 2543SOL    HW1 8528   1.972   0.986   2.789
 2543SOL    HW2 8529   1.897   0.848   2.834
 2544SOL     OW 8530   0.426   5.271   2.751
 2544SOL    HW1 8531   0.507   5.212   2.752
 2544SOL    HW2 8532   0.347   5.218   2.719
 2545SOL     OW 8533   1.281   0.782   1.185
 2545SOL    HW1 8534   1.376   0.806   1.205
 2545SOL    HW2 8535   1.280   0.712   1.113
 2546SOL     OW 8536   6.378   3.254   1.716
 2546SOL    HW1 8537   6.381   3.348   1.753
 2546SOL    HW2 8538   6.470   3.227   1.688
 2547SOL     OW 8539   5.271   5.410   6.681
 2547SOL    HW1 8540   5.300   5.462   6.601
 2547SOL    HW2 8541   5.341   5.343   6.704
 2548SOL     OW 8542   2.540   0.708   5.349
 2548SOL    HW1 8543   2.558   0.777   5.279
 2548SOL    HW2 8544   2.625   0.661   5.372
 2549SOL     OW 8545   2.277   1.767   2.019
 2549SOL    HW1 8546   2.270   1.691   2.084
 2549SOL    HW2 8547   2.312   1.848   2.066
 2550SOL     OW 8548   6.651   0.629   6.648
 2550SOL    HW1 8549   6.569   0.667   6.605
 2550SOL    HW2 8550   6.712   0.594   6.578
 2551SOL     OW 8551   3.084   5.150   0.363
 2551SOL    HW1 8552   3.010   5.158   0.430
 2551SOL    HW2 8553   3.170   5.133   0.410
 2552SOL     OW 8554   1.673   5.546   5.794
 2552SOL    HW1 8555   1.638   5.632   5.757
 2552SOL    HW2 8556   1.596   5.487   5.820
 2553SOL     OW 8557   2.934   3.361   6.532
 2553SOL    HW1 8558   2.926   3.361   6.432
 2553SOL    HW2 8559   3.029   3.379   6.557
 2554SOL     OW 8560   1.348   6.010   6.416
 2554SOL    HW1 8561   1.311   5.918   6.401
 2554SOL    HW2 8562   1.448   6.005   6.421
 2555SOL     OW 8563   6.126   6.515   6.567
 2555SOL    HW1 8564   6.136   6.594   6.506
 2555SOL    HW2 8565   6.216   6.473   6.581
 2556SOL     OW 8566   3.972   6.083   0.941
 2556SOL    HW1 8567   3.924   6.017   0.883
 2556SOL    HW2 8568   3.909   6.155   0.970
 2557SOL     OW 8569   2.276   1.864   6.633
 2557SOL    HW1 8570   2.197   1.833   6.582
 2557SOL    HW2 8571   2.253   1.946   6.685
 2558SOL     OW 8572   3.740   3.620   5.855
 2558SOL    HW1 8573   3.814   3.634   5.790
 2558SOL    HW2 8574   3.655   3.659   5.819
 2559SOL     OW 8575   6.420   3.383   4.313
 2559SOL    HW1 8576   6.457   3.304   4.361
 2559SOL    HW2 8577   6.402   3.358   4.218
 2560SOL     OW 8578   4.867   3.353   4.185
 2560SOL    HW1 8579   4.860   3.312   4.094
 2560SOL    HW2 8580   4.848   3.284   4.255
 2561SOL     OW 8581   3.717   0.493   3.280
 2561SOL    HW1 8582   3.686   0.562   3.346
 2561SOL    HW2 8583   3.650   0.484   3.207
 2562SOL     OW 8584   2.159   5.383   2.755
 2562SOL    HW1 8585   2.086   5.315   2.748
 2562SOL    HW2 8586   2.123   5.472   2.726
 2563SOL     OW 8587   4.119   1.586   6.668
 2563SOL    HW1 8588   4.137   1.534   6.584
 2563SOL    HW2 8589   4.025   1.567   6.698
 2564SOL     OW 8590   1.088   6.673   6.141
 2564SOL    HW1 8591   1.178   6.716   6.132
 2564SOL    HW2 8592   1.096   6.589   6.195
 2565SOL     OW 8593   0.067   0.810   0.739
 2565SOL    HW1 8594   0.051   0.901   0.778
 2565SOL    HW2 8595   7.010   0.789   0.674
 2566SOL     OW 8596   1.070   6.959   0.442
 2566SOL    HW1 8597   1.099   0.020   0.385
 2566SOL    HW2 8598   1.147   6.930   0.499
 2567SOL     OW 8599   1.727   1.001   2.090
 2567SOL    HW1 8600   1.797   0.985   2.159
 2567SOL    HW2 8601   1.713   0.918   2.036
 2568SOL     OW 8602   2.762   0.450   0.507
 2568SOL    HW1 8603   2.772   0.550   0.506
 2568SOL    HW2 8604   2.852   0.408   0.495
 2569SOL     OW 8605   2.189   1.349   2.418
 2569SOL    HW1 8606   2.104   1.400   2.434
 2569SOL    HW2 8607   2.170   1.251   2.418
 2570SOL     OW 8608   5.710   0.281   6.318
 2570SOL    HW1 8609   5.645   0.356   6.314
 2570SOL    HW2 8610   5.730   0.258   6.413
 2571SOL     OW 8611   2.984   3.197   4.134
 2571SOL    HW1 8612   2.959   3.294   4.128
 2571SOL    HW2 8613   2.963   3.163   4.225
 2572SOL     OW 8614   1.638   6.545   1.473
 2572SOL    HW1 8615   1.552   6.556   1.523
 2572SOL    HW2 8616   1.620   6.506   1.383
 2573SOL     OW 8617   6.319   1.249   2.015
 2573SOL    HW1 8618   6.239   1.284   2.064
 2573SOL    HW2 8619   6.303   1.255   1.917
 2574SOL     OW 8620   0.107   3.175   0.043
 2574SOL    HW1 8621   0.114   3.077   0.021
 2574SOL    HW2 8622   0.154   3.193   0.130
 2575SOL     OW 8623   4.660   4.118   1.051
 2575SOL    HW1 8624   4.613   4.057   1.115
 2575SOL    HW2 8625   4.593   4.174   1.003
 2576SOL     OW 8626   3.822   0.117   3.665
 2576SOL    HW1 8627   3.727   0.101   3.640
 2576SOL    HW2 8628   3.833   0.108   3.764
 2577SOL     OW 8629   4.308   0.166   2.616
 2577SOL    HW1 8630   4.395   0.211   2.633
 2577SOL    HW2 8631   4.234   0.234   2.616
 2578SOL     OW 8632   4.589   3.157   5.584
 2578SOL    HW1 8633   4.680   3.127   5.613
 2578SOL    HW2 8634   4.526   3.080   5.590
 2579SOL     OW 8635   0.981   1.238   4.259
 2579SOL    HW1 8636   1.059   1.238   4.322
 2579SOL    HW2 8637   0.915   1.170   4.289
 2580SOL     OW 8638   1.575   3.043   6.411
 2580SOL    HW1 8639   1.551   3.032   6.507
 2580SOL    HW2 8640   1.514   2.987   6.355
 2581SOL     OW 8641   6.416   4.844   1.732
 2581SOL    HW1 8642   6.327   4.868   1.772
 2581SOL    HW2 8643   6.412   4.855   1.633
 2582SOL     OW 8644   1.474   4.131   2.924
 2582SOL    HW1 8645   1.461   4.036   2.897
 2582SOL    HW2 8646   1.442   4.191   2.851
 2583SOL     OW 8647   1.204   1.645   1.375
 2583SOL    HW1 8648   1.111   1.638   1.339
 2583SOL    HW2 8649   1.246   1.554   1.375
 2584SOL     OW 8650   3.149   5.549   0.347
 2584SOL    HW1 8651   3.113   5.497   0.424
 2584SOL    HW2 8652   3.230   5.502   0.311
 2585SOL     OW 8653   3.233   0.679   0.247
 2585SOL    HW1 8654   3.326   0.710   0.227
 2585SOL    HW2 8655   3.200   0.623   0.171
 2586SOL     OW 8656   4.827   1.799   3.713
 2586SOL    HW1 8657   4.882   1.849   3.781
 2586SOL    HW2 8658   4.883   1.728   3.671
 2587SOL     OW 8659   6.560   1.084   4.240
 2587SOL    HW1 8660   6.566   1.001   4.185
 2587SOL    HW2 8661   6.574   1.164   4.183
 2588SOL     OW 8662   4.654   6.936   0.567
 2588SOL    HW1 8663   4.577   6.945   0.630
 2588SOL    HW2 8664   4.702   6.850   0.584
 2589SOL     OW 8665   0.142   6.342   5.462
 2589SOL    HW1 8666   0.044   6.362   5.464
 2589SOL    HW2 8667   0.165   6.281   5.538
 2590SOL     OW 8668   3.504   6.392   2.000
 2590SOL    HW1 8669   3.597   6.412   2.030
 2590SOL    HW2 8670   3.451   6.477   1.997
 2591SOL     OW 8671   6.374   6.009   2.546
 2591SOL    HW1 8672   6.376   5.954   2.463
 2591SOL    HW2 8673   6.283   6.050   2.558
 2592SOL     OW 8674   2.275   6.835   1.280
 2592SOL    HW1 8675   2.352   6.773   1.266
 2592SOL    HW2 8676   2.284   6.914   1.219
 2593SOL     OW 8677   3.245   6.421   1.698
 2593SOL    HW1 8678   3.282   6.333   1.725
 2593SOL    HW2 8679   3.287   6.451   1.612
 2594SOL     OW 8680   0.249   6.436   6.053
 2594SOL    HW1 8681   0.256   6.476   5.961
 2594SOL    HW2 8682   0.161   6.388   6.061
 2595SOL     OW 8683   6.167   1.776   5.277
 2595SOL    HW1 8684   6.189   1.730   5.362
 2595SOL    HW2 8685   6.068   1.785   5.268
 2596SOL     OW 8686   3.928   2.230   1.834
 2596SOL    HW1 8687   3.966   2.195   1.920
 2596SOL    HW2 8688   3.829   2.237   1.843
 2597SOL     OW 8689   1.651   3.809   6.962
 2597SOL    HW1 8690   1.555   3.817   6.935
 2597SOL    HW2 8691   1.675   3.713   6.972
 2598SOL     OW 8692   6.586   1.451   4.640
 2598SOL    HW1 8693   6.597   1.364   4.592
 2598SOL    HW2 8694   6.510   1.502   4.600
 2599SOL     OW 8695   2.599   0.672   0.760
 2599SOL    HW1 8696   2.526   0.652   0.694
 2599SOL    HW2 8697   2.575   0.754   0.812
 2600SOL     OW 8698   4.872   3.484   4.645
 2600SOL    HW1 8699   4.825   3.573   4.647
 2600SOL    HW2 8700   4.928   3.474   4.727
 2601SOL     OW 8701   2.875   1.632   6.855
 2601SOL    HW1 8702   2.933   1.680   6.790
 2601SOL    HW2 8703   2.831   1.698   6.916
 2602SOL     OW 8704   6.666   4.835   3.913
 2602SOL    HW1 8705   6.743   4.858   3.973
 2602SOL    HW2 8706   6.633   4.919   3.869
 2603SOL     OW 8707   2.274   2.345   1.863
 2603SOL    HW1 8708   2.228   2.398   1.791
 2603SOL    HW2 8709   2.255   2.248   1.849
 2604SOL     OW 8710   5.111   1.240   2.708
 2604SOL    HW1 8711   5.041   1.169   2.717
 2604SOL    HW2 8712   5.068   1.324   2.675
 2605SOL     OW 8713   3.109   5.021   3.383
 2605SOL    HW1 8714   3.140   5.097   3.440
 2605SOL    HW2 8715   3.173   4.945   3.391
 2606SOL     OW 8716   0.350   4.624   0.944
 2606SOL    HW1 8717   0.284   4.577   1.002
 2606SOL    HW2 8718   0.343   4.722   0.958
 2607SOL     OW 8719   0.590   1.536   5.695
 2607SOL    HW1 8720   0.501   1.576   5.671
 2607SOL    HW2 8721   0.600   1.534   5.794
 2608SOL     OW 8722   4.126   5.453   2.458
 2608SOL    HW1 8723   4.077   5.470   2.544
 2608SOL    HW2 8724   4.169   5.362   2.462
 2609SOL     OW 8725   0.685   2.274   1.882
 2609SOL    HW1 8726   0.629   2.345   1.838
 2609SOL    HW2 8727   0.626   2.197   1.908
 2610SOL     OW 8728   6.967   4.828   4.495
 2610SOL    HW1 8729   6.942   4.731   4.488
 2610SOL    HW2 8730   0.050   4.836   4.503
 2611SOL     OW 8731   5.668   6.527   1.666
 2611SOL    HW1 8732   5.645   6.430   1.658
 2611SOL    HW2 8733   5.639   6.561   1.756
 2612SOL     OW 8734   6.607   6.783   6.118
 2612SOL    HW1 8735   6.686   6.737   6.158
 2612SOL    HW2 8736   6.633   6.824   6.030
 2613SOL     OW 8737   2.797   6.585   1.119
 2613SOL    HW1 8738   2.757   6.676   1.126
 2613SOL    HW2 8739   2.861   6.570   1.195
 2614SOL     OW 8740   6.630   0.077   6.065
 2614SOL    HW1 8741   6.573   0.084   6.148
 2614SOL    HW2 8742   6.714   0.029   6.087
 2615SOL     OW 8743   6.292   3.887   2.818
 2615SOL    HW1 8744   6.216   3.833   2.782
 2615SOL    HW2 8745   6.319   3.956   2.752
 2616SOL     OW 8746   3.565   3.457   3.794
 2616SOL    HW1 8747   3.545   3.541   3.845
 2616SOL    HW2 8748   3.492   3.390   3.810
 2617SOL     OW 8749   4.111   6.318   1.165
 2617SOL    HW1 8750   4.134   6.329   1.262
 2617SOL    HW2 8751   4.186   6.352   1.109
 2618SOL     OW 8752   6.670   0.095   4.320
 2618SOL    HW1 8753   6.738   0.040   4.369
 2618SOL    HW2 8754   6.580   0.081   4.361
 2619SOL     OW 8755   3.327   1.459   3.378
 2619SOL    HW1 8756   3.362   1.403   3.453
 2619SOL    HW2 8757   3.361   1.553   3.388
 2620SOL     OW 8758   0.777   6.236   3.074
 2620SOL    HW1 8759   0.870   6.209   3.047
 2620SOL    HW2 8760   0.715   6.221   2.998
 2621SOL     OW 8761   1.762   5.554   2.419
 2621SOL    HW1 8762   1.827   5.485   2.387
 2621SOL    HW2 8763   1.742   5.539   2.516
 2622SOL     OW 8764   2.522   1.813   6.551
 2622SOL    HW1 8765   2.568   1.814   6.641
 2622SOL    HW2 8766   2.423   1.812   6.564
 2623SOL     OW 8767   3.574   1.916   4.851
 2623SOL    HW1 8768   3.498   1.967   4.892
 2623SOL    HW2 8769   3.634   1.980   4.803
 2624SOL     OW 8770   6.700   2.789   5.347
 2624SOL    HW1 8771   6.656   2.711   5.391
 2624SOL    HW2 8772   6.724   2.766   5.253
 2625SOL     OW 8773   3.131   2.368   5.694
 2625SOL    HW1 8774   3.125   2.298   5.765
 2625SOL    HW2 8775   3.042   2.376   5.648
 2626SOL     OW 8776   0.269   0.615   5.170
 2626SOL    HW1 8777   0.238   0.595   5.077
 2626SOL    HW2 8778   0.273   0.530   5.222
 2627SOL     OW 8779   0.892   0.852   5.001
 2627SOL    HW1 8780   0.804   0.841   5.048
 2627SOL    HW2 8781   0.952   0.776   5.027
 2628SOL     OW 8782   2.137   4.535   6.642
 2628SOL    HW1 8783   2.101   4.619   6.599
 2628SOL    HW2 8784   2.166   4.556   6.735
 2629SOL     OW 8785   3.507   4.236   1.817
 2629SOL    HW1 8786   3.434   4.283   1.769
 2629SOL    HW2 8787   3.477   4.144   1.842
 2630SOL     OW 8788   3.250   1.615   3.735
 2630SOL    HW1 8789   3.207   1.689   3.684
 2630SOL    HW2 8790   3.302   1.558   3.671
 2631SOL     OW 8791   4.906   0.251   4.060
 2631SOL    HW1 8792   4.852   0.318   4.009
 2631SOL    HW2 8793   4.993   0.293   4.087
 2632SOL     OW 8794   2.832   2.035   6.528
 2632SOL    HW1 8795   2.743   2.013   6.569
 2632SOL    HW2 8796   2.823   2.118   6.472
 2633SOL     OW 8797   6.323   1.678   5.487
 2633SOL    HW1 8798   6.358   1.737   5.560
 2633SOL    HW2 8799   6.395   1.615   5.459
 2634SOL     OW 8800   1.360   4.145   3.191
 2634SOL    HW1 8801   1.411   4.076   3.242
 2634SOL    HW2 8802   1.392   4.148   3.097
 2635SOL     OW 8803   6.118   5.841   5.232
 2635SOL    HW1 8804   6.085   5.933   5.256
 2635SOL    HW2 8805   6.186   5.812   5.300
 2636SOL     OW 8806   4.854   0.337   5.338
 2636SOL    HW1 8807   4.876   0.357   5.433
 2636SOL    HW2 8808   4.775   0.392   5.310
 2637SOL     OW 8809   5.576   1.602   3.751
 2637SOL    HW1 8810   5.482   1.606   3.786
 2637SOL    HW2 8811   5.601   1.507   3.735
 2638SOL     OW 8812   6.656   0.066   2.756
 2638SOL    HW1 8813   6.651   0.034   2.662
 2638SOL    HW2 8814   6.700   0.156   2.759
 2639SOL     OW 8815   0.869   0.164   1.922
 2639SOL    HW1 8816   0.828   0.222   1.992
 2639SOL    HW2 8817   0.860   0.208   1.833
 2640SOL     OW 8818   0.071   6.111   4.767
 2640SOL    HW1 8819   0.145   6.165   4.806
 2640SOL    HW2 8820   0.069   6.124   4.668
 2641SOL     OW 8821   4.897   3.074   1.815
 2641SOL    HW1 8822   4.834   3.035   1.883
 2641SOL    HW2 8823   4.846   3.133   1.752
 2642SOL     OW 8824   4.311   6.957   4.253
 2642SOL    HW1 8825   4.239   7.001   4.306
 2642SOL    HW2 8826   4.277   6.939   4.161
 2643SOL     OW 8827   0.798   4.005   2.361
 2643SOL    HW1 8828   0.761   4.071   2.296
 2643SOL    HW2 8829   0.729   3.935   2.379
 2644SOL     OW 8830   6.200   6.023   5.924
 2644SOL    HW1 8831   6.167   5.930   5.906
 2644SOL    HW2 8832   6.300   6.025   5.916
 2645SOL     OW 8833   4.613   5.287   4.032
 2645SOL    HW1 8834   4.562   5.274   3.947
 2645SOL    HW2 8835   4.651   5.200   4.062
 2646SOL     OW 8836   6.031   0.095   6.919
 2646SOL    HW1 8837   5.977   0.127   6.997
 2646SOL    HW2 8838   6.020   7.012   6.909
 2647SOL     OW 8839   6.537   0.660   2.298
 2647SOL    HW1 8840   6.605   0.588   2.311
 2647SOL    HW2 8841   6.548   0.699   2.206
 2648SOL     OW 8842   0.010   0.050   3.431
 2648SOL    HW1 8843   0.096   0.067   3.383
 2648SOL    HW2 8844   6.954   0.034   3.364
 2649SOL     OW 8845   5.943   3.618   6.313
 2649SOL    HW1 8846   6.024   3.643   6.260
 2649SOL    HW2 8847   5.969   3.559   6.389
 2650SOL     OW 8848   0.373   3.770   4.552
 2650SOL    HW1 8849   0.343   3.859   4.519
 2650SOL    HW2 8850   0.436   3.729   4.487
 2651SOL     OW 8851   0.096   2.313   7.005
 2651SOL    HW1 8852   0.175   2.265   6.966
 2651SOL    HW2 8853   0.037   2.247   0.035
 2652SOL     OW 8854   3.236   3.752   3.980
 2652SOL    HW1 8855   3.229   3.669   4.036
 2652SOL    HW2 8856   3.147   3.775   3.943
 2653SOL     OW 8857   5.291   0.244   5.743
 2653SOL    HW1 8858   5.367   0.295   5.783
 2653SOL    HW2 8859   5.290   0.151   5.780
 2654SOL     OW 8860   5.160   5.001   0.921
 2654SOL    HW1 8861   5.115   5.089   0.938
 2654SOL    HW2 8862   5.172   4.988   0.823
 2655SOL     OW 8863   4.902   4.807   4.173
 2655SOL    HW1 8864   4.944   4.800   4.263
 2655SOL    HW2 8865   4.937   4.734   4.114
 2656SOL     OW 8866   3.681   4.895   4.145
 2656SOL    HW1 8867   3.582   4.901   4.161
 2656SOL    HW2 8868   3.721   4.837   4.216
 2657SOL     OW 8869   2.030   4.146   6.690
 2657SOL    HW1 8870   2.024   4.196   6.604
 2657SOL    HW2 8871   2.057   4.051   6.671
 2658SOL     OW 8872   4.936   4.519   0.145
 2658SOL    HW1 8873   5.022   4.542   0.191
 2658SOL    HW2 8874   4.954   4.458   0.068
 2659SOL     OW 8875   6.354   2.802   4.641
 2659SOL    HW1 8876   6.318   2.721   4.594
 2659SOL    HW2 8877   6.395   2.775   4.728
 2660SOL     OW 8878   0.509   1.553   1.262
 2660SOL    HW1 8879   0.475   1.634   1.215
 2660SOL    HW2 8880   0.459   1.541   1.348
 2661SOL     OW 8881   2.236   6.406   0.785
 2661SOL    HW1 8882   2.246   6.477   0.854
 2661SOL    HW2 8883   2.308   6.337   0.798
 2662SOL     OW 8884   4.467   0.237   5.219
 2662SOL    HW1 8885   4.382   0.250   5.268
 2662SOL    HW2 8886   4.470   0.144   5.181
 2663SOL     OW 8887   2.556   4.226   0.677
 2663SOL    HW1 8888   2.463   4.249   0.648
 2663SOL    HW2 8889   2.552   4.150   0.743
 2664SOL     OW 8890   4.121   3.752   4.899
 2664SOL    HW1 8891   4.032   3.706   4.889
 2664SOL    HW2 8892   4.158   3.731   4.990
 2665SOL     OW 8893   2.731   2.389   4.864
 2665SOL    HW1 8894   2.691   2.303   4.893
 2665SOL    HW2 8895   2.753   2.445   4.944
 2666SOL     OW 8896   5.231   3.959   1.489
 2666SOL    HW1 8897   5.276   3.995   1.571
 2666SOL    HW2 8898   5.226   3.859   1.494
 2667SOL     OW 8899   1.738   6.094   4.101
 2667SOL    HW1 8900   1.799   6.019   4.126
 2667SOL    HW2 8901   1.659   6.095   4.162
 2668SOL     OW 8902   6.085   3.484   4.076
 2668SOL    HW1 8903   5.992   3.516   4.094
 2668SOL    HW2 8904   6.108   3.411   4.141
 2669SOL     OW 8905   3.015   4.808   5.178
 2669SOL    HW1 8906   3.059   4.743   5.241
 2669SOL    HW2 8907   2.941   4.762   5.130
 2670SOL     OW 8908   5.404   2.452   6.725
 2670SOL    HW1 8909   5.499   2.424   6.711
 2670SOL    HW2 8910   5.363   2.394   6.795
 2671SOL     OW 8911   3.705   5.133   6.743
 2671SOL    HW1 8912   3.651   5.060   6.784
 2671SOL    HW2 8913   3.647   5.188   6.683
 2672SOL     OW 8914   0.106   4.832   0.728
 2672SOL    HW1 8915   0.087   4.828   0.826
 2672SOL    HW2 8916   0.201   4.861   0.714
 2673SOL     OW 8917   6.155   1.828   4.077
 2673SOL    HW1 8918   6.082   1.761   4.067
 2673SOL    HW2 8919   6.172   1.873   3.990
 2674SOL     OW 8920   1.631   3.981   3.668
 2674SOL    HW1 8921   1.611   4.004   3.763
 2674SOL    HW2 8922   1.553   3.934   3.627
 2675SOL     OW 8923   6.330   5.186   4.882
 2675SOL    HW1 8924   6.392   5.113   4.910
 2675SOL    HW2 8925   6.236   5.151   4.880
 2676SOL     OW 8926   4.561   1.751   1.490
 2676SOL    HW1 8927   4.514   1.757   1.578
 2676SOL    HW2 8928   4.553   1.838   1.441
 2677SOL     OW 8929   2.941   4.023   0.197
 2677SOL    HW1 8930   3.006   4.085   0.154
 2677SOL    HW2 8931   2.859   4.016   0.141
 2678SOL     OW 8932   6.523   3.964   1.312
 2678SOL    HW1 8933   6.473   4.050   1.320
 2678SOL    HW2 8934   6.621   3.982   1.307
 2679SOL     OW 8935   3.084   5.360   0.932
 2679SOL    HW1 8936   3.108   5.431   0.999
 2679SOL    HW2 8937   3.033   5.287   0.978
 2680SOL     OW 8938   0.622   1.418   0.386
 2680SOL    HW1 8939   0.669   1.506   0.389
 2680SOL    HW2 8940   0.524   1.432   0.401
 2681SOL     OW 8941   1.396   2.190   4.698
 2681SOL    HW1 8942   1.323   2.179   4.765
 2681SOL    HW2 8943   1.485   2.187   4.744
 2682SOL     OW 8944   5.549   4.154   2.594
 2682SOL    HW1 8945   5.553   4.077   2.657
 2682SOL    HW2 8946   5.573   4.124   2.502
 2683SOL     OW 8947   2.834   3.456   0.486
 2683SOL    HW1 8948   2.782   3.452   0.401
 2683SOL    HW2 8949   2.800   3.531   0.542
 2684SOL     OW 8950   4.577   5.981   1.427
 2684SOL    HW1 8951   4.522   6.061   1.449
 2684SOL    HW2 8952   4.661   6.009   1.380
 2685SOL     OW 8953   6.125   5.939   6.741
 2685SOL    HW1 8954   6.104   5.847   6.708
 2685SOL    HW2 8955   6.110   5.944   6.839
 2686SOL     OW 8956   1.776   1.773   5.403
 2686SOL    HW1 8957   1.738   1.680   5.398
 2686SOL    HW2 8958   1.768   1.808   5.496
 2687SOL     OW 8959   4.515   4.786   2.246
 2687SOL    HW1 8960   4.457   4.816   2.171
 2687SOL    HW2 8961   4.516   4.686   2.250
 2688SOL     OW 8962   4.823   5.155   7.010
 2688SOL    HW1 8963   4.726   5.175   7.006
 2688SOL    HW2 8964   4.868   5.220   0.055
 2689SOL     OW 8965   1.282   3.467   3.736
 2689SOL    HW1 8966   1.335   3.414   3.670
 2689SOL    HW2 8967   1.189   3.479   3.703
 2690SOL     OW 8968   3.399   3.510   4.130
 2690SOL    HW1 8969   3.412   3.554   4.218
 2690SOL    HW2 8970   3.459   3.431   4.122
 2691SOL     OW 8971   1.380   5.201   2.299
 2691SOL    HW1 8972   1.422   5.289   2.322
 2691SOL    HW2 8973   1.281   5.208   2.307
 2692SOL     OW 8974   3.524   5.000   3.276
 2692SOL    HW1 8975   3.481   5.090   3.292
 2692SOL    HW2 8976   3.579   5.004   3.193
 2693SOL     OW 8977   1.131   4.089   2.968
 2693SOL    HW1 8978   1.057   4.129   3.021
 2693SOL    HW2 8979   1.171   4.012   3.019
 2694SOL     OW 8980   4.924   6.582   2.878
 2694SOL    HW1 8981   4.957   6.593   2.972
 2694SOL    HW2 8982   4.857   6.507   2.875
 2695SOL     OW 8983   4.544   0.600   2.629
 2695SOL    HW1 8984   4.470   0.620   2.565
 2695SOL    HW2 8985   4.506   0.566   2.715
 2696SOL     OW 8986   4.075   3.697   5.374
 2696SOL    HW1 8987   3.996   3.747   5.339
 2696SOL    HW2 8988   4.046   3.609   5.411
 2697SOL     OW 8989   3.424   1.442   2.525
 2697SOL    HW1 8990   3.423   1.372   2.454
 2697SOL    HW2 8991   3.421   1.532   2.483
 2698SOL     OW 8992   1.668   6.070   0.574
 2698SOL    HW1 8993   1.697   6.009   0.500
 2698SOL    HW2 8994   1.700   6.163   0.555
 2699SOL     OW 8995   3.165   6.401   0.375
 2699SOL    HW1 8996   3.084   6.384   0.432
 2699SOL    HW2 8997   3.189   6.318   0.324
 2700SOL     OW 8998   2.006   3.766   0.278
 2700SOL    HW1 8999   1.970   3.859   0.285
 2700SOL    HW2 9000   1.931   3.701   0.293
 2701SOL     OW 9001   4.119   0.889   6.366
 2701SOL    HW1 9002   4.174   0.960   6.320
 2701SOL    HW2 9003   4.043   0.932   6.414
 2702SOL     OW 9004   0.534   2.948   3.739
 2702SOL    HW1 9005   0.479   3.023   3.703
 2702SOL    HW2 9006   0.478   2.865   3.742
 2703SOL     OW 9007   1.752   0.508   2.369
 2703SOL    HW1 9008   1.762   0.432   2.434
 2703SOL    HW2 9009   1.793   0.482   2.282
 2704SOL     OW 9010   6.808   6.408   1.089
 2704SOL    HW1 9011   6.808   6.343   1.014
 2704SOL    HW2 9012   6.831   6.360   1.174
 2705SOL     OW 9013   1.053   4.670   4.188
 2705SOL    HW1 9014   1.120   4.732   4.148
 2705SOL    HW2 9015   1.021   4.706   4.275
 2706SOL     OW 9016   0.725   0.585   1.535
 2706SOL    HW1 9017   0.823   0.563   1.533
 2706SOL    HW2 9018   0.700   0.636   1.453
 2707SOL     OW 9019   2.490   0.896   4.892
 2707SOL    HW1 9020   2.557   0.841   4.943
 2707SOL    HW2 9021   2.449   0.963   4.954
 2708SOL     OW 9022   0.676   2.352   0.650
 2708SOL    HW1 9023   0.699   2.297   0.569
 2708SOL    HW2 9024   0.755   2.407   0.676
 2709SOL     OW 9025   5.792   6.122   0.537
 2709SOL    HW1 9026   5.735   6.076   0.468
 2709SOL    HW2 9027   5.846   6.194   0.494
 2710SOL     OW 9028   0.932   2.881   3.741
 2710SOL    HW1 9029   0.997   2.942   3.697
 2710SOL    HW2 9030   0.980   2.824   3.808
 2711SOL     OW 9031   2.354   1.252   3.866
 2711SOL    HW1 9032   2.287   1.180   3.881
 2711SOL    HW2 9033   2.412   1.261   3.947
 2712SOL     OW 9034   3.152   4.781   0.771
 2712SOL    HW1 9035   3.125   4.726   0.850
 2712SOL    HW2 9036   3.249   4.801   0.775
 2713SOL     OW 9037   2.394   2.012   5.180
 2713SOL    HW1 9038   2.320   1.959   5.139
 2713SOL    HW2 9039   2.407   2.097   5.127
 2714SOL     OW 9040   4.747   2.190   0.449
 2714SOL    HW1 9041   4.728   2.091   0.451
 2714SOL    HW2 9042   4.843   2.205   0.427
 2715SOL     OW 9043   5.026   1.364   0.596
 2715SOL    HW1 9044   5.020   1.354   0.497
 2715SOL    HW2 9045   4.935   1.381   0.634
 2716SOL     OW 9046   5.368   4.447   2.917
 2716SOL    HW1 9047   5.366   4.377   2.846
 2716SOL    HW2 9048   5.408   4.531   2.881
 2717SOL     OW 9049   2.383   4.673   2.142
 2717SOL    HW1 9050   2.470   4.653   2.187
 2717SOL    HW2 9051   2.389   4.649   2.045
 2718SOL     OW 9052   1.356   3.181   5.977
 2718SOL    HW1 9053   1.375   3.250   5.907
 2718SOL    HW2 9054   1.426   3.187   6.048
 2719SOL     OW 9055   6.599   5.743   1.179
 2719SOL    HW1 9056   6.605   5.833   1.135
 2719SOL    HW2 9057   6.614   5.671   1.111
 2720SOL     OW 9058   2.014   5.987   2.489
 2720SOL    HW1 9059   2.113   5.985   2.477
 2720SOL    HW2 9060   1.970   6.015   2.404
 2721SOL     OW 9061   2.967   0.588   4.397
 2721SOL    HW1 9062   2.869   0.609   4.391
 2721SOL    HW2 9063   2.981   0.514   4.464
 2722SOL     OW 9064   6.907   5.734   1.665
 2722SOL    HW1 9065   6.821   5.682   1.666
 2722SOL    HW2 9066   6.918   5.776   1.575
 2723SOL     OW 9067   0.615   6.693   5.698
 2723SOL    HW1 9068   0.669   6.631   5.640
 2723SOL    HW2 9069   0.583   6.644   5.779
 2724SOL     OW 9070   2.191   6.879   6.656
 2724SOL    HW1 9071   2.204   6.816   6.580
 2724SOL    HW2 9072   2.274   6.883   6.711
 2725SOL     OW 9073   5.996   4.769   4.173
 2725SOL    HW1 9074   6.017   4.786   4.269
 2725SOL    HW2 9075   5.896   4.772   4.160
 2726SOL     OW 9076   0.082   3.497   0.973
 2726SOL    HW1 9077   0.064   3.595   0.981
 2726SOL    HW2 9078   0.178   3.482   0.951
 2727SOL     OW 9079   0.471   5.472   3.959
 2727SOL    HW1 9080   0.526   5.429   4.031
 2727SOL    HW2 9081   0.386   5.507   3.997
 2728SOL     OW 9082   3.967   6.657   6.045
 2728SOL    HW1 9083   4.064   6.684   6.041
 2728SOL    HW2 9084   3.960   6.564   6.079
 2729SOL     OW 9085   6.698   5.645   1.397
 2729SOL    HW1 9086   6.786   5.602   1.376
 2729SOL    HW2 9087   6.660   5.686   1.315
 2730SOL     OW 9088   2.096   4.936   1.307
 2730SOL    HW1 9089   2.074   4.840   1.326
 2730SOL    HW2 9090   2.084   4.954   1.209
 2731SOL     OW 9091   4.004   3.552   2.015
 2731SOL    HW1 9092   3.967   3.562   1.922
 2731SOL    HW2 9093   4.039   3.641   2.046
 2732SOL     OW 9094   5.597   2.580   2.255
 2732SOL    HW1 9095   5.567   2.488   2.228
 2732SOL    HW2 9096   5.696   2.580   2.267
 2733SOL     OW 9097   0.541   0.228   5.258
 2733SOL    HW1 9098   0.600   0.255   5.182
 2733SOL    HW2 9099   0.537   0.128   5.262
 2734SOL     OW 9100   2.344   5.696   1.794
 2734SOL    HW1 9101   2.278   5.677   1.867
 2734SOL    HW2 9102   2.437   5.685   1.830
 2735SOL     OW 9103   1.136   3.027   2.712
 2735SOL    HW1 9104   1.148   3.052   2.808
 2735SOL    HW2 9105   1.159   2.931   2.700
 2736SOL     OW 9106   4.054   6.716   5.045
 2736SOL    HW1 9107   4.007   6.630   5.027
 2736SOL    HW2 9108   4.132   6.726   4.983
 2737SOL     OW 9109   3.494   3.679   5.765
 2737SOL    HW1 9110   3.423   3.608   5.771
 2737SOL    HW2 9111   3.462   3.761   5.812
 2738SOL     OW 9112   5.721   4.777   4.193
 2738SOL    HW1 9113   5.676   4.826   4.268
 2738SOL    HW2 9114   5.671   4.692   4.174
 2739SOL     OW 9115   6.735   4.717   0.870
 2739SOL    HW1 9116   6.653   4.764   0.902
 2739SOL    HW2 9117   6.731   4.706   0.771
 2740SOL     OW 9118   6.044   3.759   2.724
 2740SOL    HW1 9119   6.067   3.683   2.663
 2740SOL    HW2 9120   5.988   3.725   2.799
 2741SOL     OW 9121   6.356   0.731   5.357
 2741SOL    HW1 9122   6.323   0.642   5.326
 2741SOL    HW2 9123   6.321   0.748   5.450
 2742SOL     OW 9124   2.449   4.826   6.641
 2742SOL    HW1 9125   2.511   4.748   6.648
 2742SOL    HW2 9126   2.434   4.848   6.544
 2743SOL     OW 9127   0.085   5.570   2.431
 2743SOL    HW1 9128   0.175   5.606   2.456
 2743SOL    HW2 9129   0.071   5.481   2.475
 2744SOL     OW 9130   5.294   1.314   0.058
 2744SOL    HW1 9131   5.288   1.363   0.145
 2744SOL    HW2 9132   5.209   1.264   0.041
 2745SOL     OW 9133   1.005   6.943   6.595
 2745SOL    HW1 9134   0.936   7.000   6.550
 2745SOL    HW2 9135   0.984   6.937   6.693
 2746SOL     OW 9136   1.925   2.300   3.972
 2746SOL    HW1 9137   1.841   2.354   3.965
 2746SOL    HW2 9138   1.980   2.313   3.890
 2747SOL     OW 9139   5.800   3.611   5.686
 2747SOL    HW1 9140   5.833   3.568   5.602
 2747SOL    HW2 9141   5.756   3.542   5.744
 2748SOL     OW 9142   4.540   2.310   0.922
 2748SOL    HW1 9143   4.553   2.384   0.857
 2748SOL    HW2 9144   4.554   2.222   0.876
 2749SOL     OW 9145   6.329   4.684   3.601
 2749SOL    HW1 9146   6.268   4.722   3.671
 2749SOL    HW2 9147   6.365   4.758   3.544
 2750SOL     OW 9148   0.894   4.626   1.249
 2750SOL    HW1 9149   0.804   4.612   1.207
 2750SOL    HW2 9150   0.911   4.554   1.316
 2751SOL     OW 9151   0.096   6.213   0.952
 2751SOL    HW1 9152   0.002   6.206   0.916
 2751SOL    HW2 9153   0.159   6.168   0.888
 2752SOL     OW 9154   4.733   4.700   5.511
 2752SOL    HW1 9155   4.721   4.601   5.497
 2752SOL    HW2 9156   4.821   4.728   5.472
 2753SOL     OW 9157   0.685   6.882   5.908
 2753SOL    HW1 9158   0.678   6.974   5.869
 2753SOL    HW2 9159   0.627   6.819   5.856
 2754SOL     OW 9160   6.886   0.685   3.395
 2754SOL    HW1 9161   6.849   0.596   3.368
 2754SOL    HW2 9162   6.982   0.674   3.422
 2755SOL     OW 9163   2.734   7.010   3.702
 2755SOL    HW1 9164   2.819   6.965   3.673
 2755SOL    HW2 9165   2.750   0.092   3.710
 2756SOL     OW 9166   5.494   4.179   5.924
 2756SOL    HW1 9167   5.421   4.208   5.862
 2756SOL    HW2 9168   5.563   4.127   5.873
 2757SOL     OW 9169   2.133   1.688   6.248
 2757SOL    HW1 9170   2.041   1.677   6.211
 2757SOL    HW2 9171   2.173   1.774   6.215
 2758SOL     OW 9172   5.063   6.370   3.221
 2758SOL    HW1 9173   4.983   6.428   3.237
 2758SOL    HW2 9174   5.032   6.278   3.195
 2759SOL     OW 9175   4.307   5.777   5.647
 2759SOL    HW1 9176   4.388   5.832   5.628
 2759SOL    HW2 9177   4.257   5.760   5.561
 2760SOL     OW 9178   0.128   5.645   2.744
 2760SOL    HW1 9179   0.182   5.589   2.806
 2760SOL    HW2 9180   0.188   5.693   2.681
 2761SOL     OW 9181   1.779   4.454   4.672
 2761SOL    HW1 9182   1.776   4.492   4.579
 2761SOL    HW2 9183   1.803   4.357   4.667
 2762SOL     OW 9184   1.866   1.948   6.601
 2762SOL    HW1 9185   1.830   1.978   6.689
 2762SOL    HW2 9186   1.927   1.869   6.615
 2763SOL     OW 9187   4.726   1.787   4.734
 2763SOL    HW1 9188   4.780   1.771   4.817
 2763SOL    HW2 9189   4.631   1.758   4.750
 2764SOL     OW 9190   6.730   0.441   2.315
 2764SOL    HW1 9191   6.726   0.465   2.412
 2764SOL    HW2 9192   6.745   0.343   2.305
 2765SOL     OW 9193   6.369   6.975   1.025
 2765SOL    HW1 9194   6.384   6.909   0.951
 2765SOL    HW2 9195   6.441   0.028   1.024
 2766SOL     OW 9196   4.391   2.597   6.893
 2766SOL    HW1 9197   4.297   2.568   6.909
 2766SOL    HW2 9198   4.454   2.524   6.920
 2767SOL     OW 9199   6.678   5.561   6.661
 2767SOL    HW1 9200   6.582   5.568   6.636
 2767SOL    HW2 9201   6.695   5.615   6.744
 2768SOL     OW 9202   4.607   0.496   1.401
 2768SOL    HW1 9203   4.634   0.589   1.375
 2768SOL    HW2 9204   4.550   0.500   1.483
 2769SOL     OW 9205   2.287   4.223   6.415
 2769SOL    HW1 9206   2.357   4.173   6.364
 2769SOL    HW2 9207   2.197   4.198   6.378
 2770SOL     OW 9208   4.691   5.904   5.280
 2770SOL    HW1 9209   4.777   5.883   5.326
 2770SOL    HW2 9210   4.675   5.838   5.207
 2771SOL     OW 9211   5.604   1.582   4.454
 2771SOL    HW1 9212   5.598   1.504   4.516
 2771SOL    HW2 9213   5.680   1.569   4.391
 2772SOL     OW 9214   2.931   0.969   1.231
 2772SOL    HW1 9215   2.856   0.916   1.192
 2772SOL    HW2 9216   2.957   1.042   1.167
 2773SOL     OW 9217   6.395   2.718   3.873
 2773SOL    HW1 9218   6.461   2.789   3.848
 2773SOL    HW2 9219   6.432   2.665   3.950
 2774SOL     OW 9220   5.320   3.313   2.908
 2774SOL    HW1 9221   5.382   3.249   2.862
 2774SOL    HW2 9222   5.283   3.270   2.990
 2775SOL     OW 9223   6.164   3.544   5.130
 2775SOL    HW1 9224   6.183   3.487   5.210
 2775SOL    HW2 9225   6.087   3.506   5.080
 2776SOL     OW 9226   5.000   4.307   6.217
 2776SOL    HW1 9227   5.066   4.310   6.143
 2776SOL    HW2 9228   5.012   4.388   6.275
 2777SOL     OW 9229   2.816   2.166   1.260
 2777SOL    HW1 9230   2.814   2.188   1.163
 2777SOL    HW2 9231   2.857   2.076   1.273
 2778SOL     OW 9232   1.103   6.451   6.264
 2778SOL    HW1 9233   1.026   6.413   6.316
 2778SOL    HW2 9234   1.186   6.402   6.289
 2779SOL     OW 9235   5.691   6.454   2.105
 2779SOL    HW1 9236   5.682   6.475   2.008
 2779SOL    HW2 9237   5.603   6.421   2.140
 2780SOL     OW 9238   6.987   0.026   5.745
 2780SOL    HW1 9239   6.905   0.083   5.739
 2780SOL    HW2 9240   6.976   6.963   5.685
 2781SOL     OW 9241   5.776   0.580   2.812
 2781SOL    HW1 9242   5.786   0.517   2.890
 2781SOL    HW2 9243   5.760   0.672   2.846
 2782SOL     OW 9244   4.527   1.228   4.986
 2782SOL    HW1 9245   4.473   1.312   4.974
 2782SOL    HW2 9246   4.562   1.224   5.079
 2783SOL     OW 9247   6.657   4.032   2.168
 2783SOL    HW1 9248   6.696   4.121   2.190
 2783SOL    HW2 9249   6.557   4.036   2.177
 2784SOL     OW 9250   3.438   1.291   2.292
 2784SOL    HW1 9251   3.424   1.285   2.193
 2784SOL    HW2 9252   3.532   1.319   2.311
 2785SOL     OW 9253   5.361   2.302   0.804
 2785SOL    HW1 9254   5.275   2.250   0.804
 2785SOL    HW2 9255   5.405   2.295   0.893
 2786SOL     OW 9256   6.371   6.777   1.948
 2786SOL    HW1 9257   6.296   6.716   1.975
 2786SOL    HW2 9258   6.412   6.744   1.864
 2787SOL     OW 9259   5.932   6.980   5.399
 2787SOL    HW1 9260   5.955   6.962   5.303
 2787SOL    HW2 9261   5.937   6.894   5.451
 2788SOL     OW 9262   2.642   6.677   5.834
 2788SOL    HW1 9263   2.633   6.740   5.757
 2788SOL    HW2 9264   2.728   6.694   5.881
 2789SOL     OW 9265   1.845   2.070   3.832
 2789SOL    HW1 9266   1.877   2.137   3.900
 2789SOL    HW2 9267   1.820   2.117   3.748
 2790SOL     OW 9268   3.181   5.407   1.629
 2790SOL    HW1 9269   3.221   5.385   1.717
 2790SOL    HW2 9270   3.105   5.345   1.609
 2791SOL     OW 9271   0.807   3.253   2.304
 2791SOL    HW1 9272   0.714   3.228   2.278
 2791SOL    HW2 9273   0.803   3.328   2.370
 2792SOL     OW 9274   2.302   0.445   4.333
 2792SOL    HW1 9275   2.315   0.377   4.405
 2792SOL    HW2 9276   2.231   0.414   4.270
 2793SOL     OW 9277   5.094   3.724   1.836
 2793SOL    HW1 9278   5.145   3.711   1.751
 2793SOL    HW2 9279   5.151   3.698   1.914
 2794SOL     OW 9280   6.630   2.156   5.727
 2794SOL    HW1 9281   6.658   2.252   5.727
 2794SOL    HW2 9282   6.533   2.150   5.701
 2795SOL     OW 9283   0.698   3.436   0.971
 2795SOL    HW1 9284   0.746   3.503   0.914
 2795SOL    HW2 9285   0.745   3.426   1.059
 2796SOL     OW 9286   0.095   6.007   3.449
 2796SOL    HW1 9287   0.188   5.992   3.417
 2796SOL    HW2 9288   0.032   6.000   3.373
 2797SOL     OW 9289   5.156   5.308   5.268
 2797SOL    HW1 9290   5.100   5.368   5.326
 2797SOL    HW2 9291   5.245   5.352   5.251
 2798SOL     OW 9292   6.333   5.666   2.594
 2798SOL    HW1 9293   6.275   5.607   2.650
 2798SOL    HW2 9294   6.368   5.741   2.650
 2799SOL     OW 9295   5.758   6.045   6.006
 2799SOL    HW1 9296   5.748   5.988   5.924
 2799SOL    HW2 9297   5.760   6.141   5.979
 2800SOL     OW 9298   5.725   6.549   5.702
 2800SOL    HW1 9299   5.717   6.455   5.737
 2800SOL    HW2 9300   5.665   6.560   5.623
 2801SOL     OW 9301   0.354   5.767   5.853
 2801SOL    HW1 9302   0.266   5.781   5.897
 2801SOL    HW2 9303   0.401   5.855   5.844
 2802SOL     OW 9304   5.581   6.584   5.487
 2802SOL    HW1 9305   5.506   6.648   5.503
 2802SOL    HW2 9306   5.621   6.602   5.397
 2803SOL     OW 9307   3.866   5.313   5.494
 2803SOL    HW1 9308   3.807   5.233   5.504
 2803SOL    HW2 9309   3.810   5.394   5.480
 2804SOL     OW 9310   0.718   3.874   5.142
 2804SOL    HW1 9311   0.775   3.793   5.131
 2804SOL    HW2 9312   0.757   3.934   5.212
 2805SOL     OW 9313   5.679   3.211   3.119
 2805SOL    HW1 9314   5.726   3.274   3.056
 2805SOL    HW2 9315   5.746   3.148   3.158
 2806SOL     OW 9316   2.170   3.928   5.807
 2806SOL    HW1 9317   2.150   3.832   5.788
 2806SOL    HW2 9318   2.255   3.935   5.860
 2807SOL     OW 9319   4.712   6.806   3.039
 2807SOL    HW1 9320   4.704   6.715   3.079
 2807SOL    HW2 9321   4.627   6.828   2.991
 2808SOL     OW 9322   6.649   5.263   1.501
 2808SOL    HW1 9323   6.600   5.305   1.424
 2808SOL    HW2 9324   6.625   5.166   1.508
 2809SOL     OW 9325   5.120   2.608   1.387
 2809SOL    HW1 9326   5.190   2.678   1.373
 2809SOL    HW2 9327   5.031   2.645   1.363
 2810SOL     OW 9328   2.654   6.019   2.833
 2810SOL    HW1 9329   2.620   5.949   2.895
 2810SOL    HW2 9330   2.740   5.988   2.791
 2811SOL     OW 9331   1.139   1.722   2.930
 2811SOL    HW1 9332   1.182   1.741   3.019
 2811SOL    HW2 9333   1.080   1.798   2.905
 2812SOL     OW 9334   6.079   3.632   0.586
 2812SOL    HW1 9335   6.049   3.711   0.640
 2812SOL    HW2 9336   6.031   3.632   0.498
 2813SOL     OW 9337   0.416   1.740   6.944
 2813SOL    HW1 9338   0.400   1.835   6.970
 2813SOL    HW2 9339   0.416   1.733   6.845
 2814SOL     OW 9340   3.263   3.989   5.663
 2814SOL    HW1 9341   3.246   4.087   5.672
 2814SOL    HW2 9342   3.309   3.955   5.745
 2815SOL     OW 9343   6.697   4.998   6.225
 2815SOL    HW1 9344   6.751   5.048   6.292
 2815SOL    HW2 9345   6.709   4.899   6.239
 2816SOL     OW 9346   6.632   6.339   4.284
 2816SOL    HW1 9347   6.546   6.387   4.300
 2816SOL    HW2 9348   6.626   6.246   4.321
 2817SOL     OW 9349   3.153   0.477   2.916
 2817SOL    HW1 9350   3.063   0.499   2.955
 2817SOL    HW2 9351   3.190   0.557   2.870
 2818SOL     OW 9352   0.457   0.944   2.337
 2818SOL    HW1 9353   0.392   0.951   2.262
 2818SOL    HW2 9354   0.407   0.935   2.423
 2819SOL     OW 9355   1.746   0.097   1.913
 2819SOL    HW1 9356   1.838   0.127   1.939
 2819SOL    HW2 9357   1.678   0.158   1.954
 2820SOL     OW 9358   1.378   1.871   2.641
 2820SOL    HW1 9359   1.446   1.865   2.713
 2820SOL    HW2 9360   1.421   1.855   2.552
 2821SOL     OW 9361   3.017   5.080   5.875
 2821SOL    HW1 9362   2.971   5.022   5.942
 2821SOL    HW2 9363   2.966   5.078   5.789
 2822SOL     OW 9364   4.695   1.887   0.384
 2822SOL    HW1 9365   4.669   1.874   0.288
 2822SOL    HW2 9366   4.682   1.801   0.433
 2823SOL     OW 9367   6.155   1.265   0.132
 2823SOL    HW1 9368   6.215   1.216   0.194
 2823SOL    HW2 9369   6.133   1.354   0.171
 2824SOL     OW 9370   2.203   2.064   5.432
 2824SOL    HW1 9371   2.162   2.137   5.377
 2824SOL    HW2 9372   2.288   2.032   5.388
 2825SOL     OW 9373   5.638   0.316   5.836
 2825SOL    HW1 9374   5.563   0.382   5.832
 2825SOL    HW2 9375   5.624   0.255   5.914
 2826SOL     OW 9376   3.809   2.948   6.216
 2826SOL    HW1 9377   3.752   2.998   6.151
 2826SOL    HW2 9378   3.754   2.922   6.295
 2827SOL     OW 9379   0.169   0.325   6.393
 2827SOL    HW1 9380   0.135   0.330   6.487
 2827SOL    HW2 9381   0.232   0.401   6.376
 2828SOL     OW 9382   1.974   3.039   0.660
 2828SOL    HW1 9383   1.974   2.971   0.587
 2828SOL    HW2 9384   1.998   2.994   0.747
 2829SOL     OW 9385   3.204   3.208   3.410
 2829SOL    HW1 9386   3.276   3.271   3.382
 2829SOL    HW2 9387   3.234   3.114   3.392
 2830SOL     OW 9388   3.296   3.874   5.418
 2830SOL    HW1 9389   3.269   3.915   5.506
 2830SOL    HW2 9390   3.356   3.937   5.369
 2831SOL     OW 9391   1.208   3.385   2.785
 2831SOL    HW1 9392   1.160   3.357   2.868
 2831SOL    HW2 9393   1.155   3.358   2.705
 2832SOL     OW 9394   1.004   2.839   1.661
 2832SOL    HW1 9395   0.999   2.783   1.744
 2832SOL    HW2 9396   0.913   2.847   1.621
 2833SOL     OW 9397   2.985   1.376   2.292
 2833SOL    HW1 9398   2.912   1.437   2.323
 2833SOL    HW2 9399   3.067   1.429   2.271
 2834SOL     OW 9400   4.011   6.652   4.748
 2834SOL    HW1 9401   3.976   6.576   4.802
 2834SOL    HW2 9402   3.983   6.641   4.653
 2835SOL     OW 9403   0.371   6.631   0.807
 2835SOL    HW1 9404   0.393   6.693   0.882
 2835SOL    HW2 9405   0.313   6.556   0.840
 2836SOL     OW 9406   1.378   6.563   1.616
 2836SOL    HW1 9407   1.320   6.546   1.536
 2836SOL    HW2 9408   1.369   6.487   1.681
 2837SOL     OW 9409   5.289   4.948   2.726
 2837SOL    HW1 9410   5.342   5.032   2.742
 2837SOL    HW2 9411   5.341   4.887   2.666
 2838SOL     OW 9412   4.234   3.534   0.999
 2838SOL    HW1 9413   4.303   3.606   1.001
 2838SOL    HW2 9414   4.267   3.454   1.050
 2839SOL     OW 9415   0.166   2.694   2.258
 2839SOL    HW1 9416   0.219   2.711   2.341
 2839SOL    HW2 9417   0.229   2.681   2.181
 2840SOL     OW 9418   1.666   5.985   1.862
 2840SOL    HW1 9419   1.613   5.904   1.886
 2840SOL    HW2 9420   1.634   6.063   1.916
 2841SOL     OW 9421   6.342   2.579   6.155
 2841SOL    HW1 9422   6.390   2.603   6.239
 2841SOL    HW2 9423   6.356   2.482   6.134
 2842SOL     OW 9424   0.451   5.309   4.379
 2842SOL    HW1 9425   0.356   5.341   4.385
 2842SOL    HW2 9426   0.477   5.266   4.466
 2843SOL     OW 9427   2.754   1.520   2.385
 2843SOL    HW1 9428   2.743   1.483   2.477
 2843SOL    HW2 9429   2.664   1.548   2.349
 2844SOL     OW 9430   6.304   5.320   0.452
 2844SOL    HW1 9431   6.392   5.330   0.498
 2844SOL    HW2 9432   6.234   5.370   0.503
 2845SOL     OW 9433   5.167   3.003   2.342
 2845SOL    HW1 9434   5.137   2.938   2.273
 2845SOL    HW2 9435   5.116   2.988   2.427
 2846SOL     OW 9436   3.912   0.513   0.590
 2846SOL    HW1 9437   3.826   0.555   0.620
 2846SOL    HW2 9438   3.951   0.460   0.665
 2847SOL     OW 9439   5.241   3.991   3.364
 2847SOL    HW1 9440   5.236   4.018   3.460
 2847SOL    HW2 9441   5.197   4.061   3.308
 2848SOL     OW 9442   2.446   2.809   5.720
 2848SOL    HW1 9443   2.360   2.760   5.707
 2848SOL    HW2 9444   2.432   2.906   5.700
 2849SOL     OW 9445   3.460   0.524   1.528
 2849SOL    HW1 9446   3.425   0.448   1.584
 2849SOL    HW2 9447   3.420   0.610   1.560
 2850SOL     OW 9448   2.077   0.312   3.357
 2850SOL    HW1 9449   1.998   0.256   3.334
 2850SOL    HW2 9450   2.157   0.252   3.371
 2851SOL     OW 9451   4.968   3.106   6.786
 2851SOL    HW1 9452   4.948   3.093   6.883
 2851SOL    HW2 9453   4.885   3.137   6.739
 2852SOL     OW 9454   6.172   4.486   6.622
 2852SOL    HW1 9455   6.132   4.413   6.679
 2852SOL    HW2 9456   6.201   4.448   6.535
 2853SOL     OW 9457   1.089   2.445   6.802
 2853SOL    HW1 9458   1.026   2.515   6.836
 2853SOL    HW2 9459   1.179   2.486   6.785
 2854SOL     OW 9460   3.942   0.356   5.793
 2854SOL    HW1 9461   4.038   0.328   5.805
 2854SOL    HW2 9462   3.928   0.386   5.699
 2855SOL     OW 9463   1.489   2.006   5.371
 2855SOL    HW1 9464   1.570   2.021   5.427
 2855SOL    HW2 9465   1.516   1.973   5.281
 2856SOL     OW 9466   1.225   3.187   4.369
 2856SOL    HW1 9467   1.168   3.108   4.390
 2856SOL    HW2 9468   1.320   3.165   4.391
 2857SOL     OW 9469   0.765   2.829   1.516
 2857SOL    HW1 9470   0.760   2.824   1.417
 2857SOL    HW2 9471   0.697   2.895   1.550
 2858SOL     OW 9472   4.945   5.246   2.276
 2858SOL    HW1 9473   4.938   5.279   2.370
 2858SOL    HW2 9474   4.905   5.312   2.214
 2859SOL     OW 9475   6.430   6.712   0.220
 2859SOL    HW1 9476   6.355   6.724   0.156
 2859SOL    HW2 9477   6.480   6.798   0.229
 2860SOL     OW 9478   2.412   0.523   2.469
 2860SOL    HW1 9479   2.318   0.508   2.440
 2860SOL    HW2 9480   2.449   0.605   2.424
 2861SOL     OW 9481   3.553   5.590   5.467
 2861SOL    HW1 9482   3.623   5.632   5.408
 2861SOL    HW2 9483   3.465   5.635   5.451
 2862SOL     OW 9484   4.287   2.370   1.898
 2862SOL    HW1 9485   4.216   2.413   1.841
 2862SOL    HW2 9486   4.377   2.394   1.862
 2863SOL     OW 9487   4.849   1.561   6.019
 2863SOL    HW1 9488   4.861   1.462   6.007
 2863SOL    HW2 9489   4.877   1.608   5.935
 2864SOL     OW 9490   4.673   2.531   0.802
 2864SOL    HW1 9491   4.734   2.598   0.844
 2864SOL    HW2 9492   4.725   2.448   0.780
 2865SOL     OW 9493   4.180   6.674   3.806
 2865SOL    HW1 9494   4.122   6.594   3.792
 2865SOL    HW2 9495   4.144   6.751   3.753
 2866SOL     OW 9496   5.481   4.199   0.110
 2866SOL    HW1 9497   5.510   4.135   0.039
 2866SOL    HW2 9498   5.406   4.159   0.162
 2867SOL     OW 9499   6.167   6.086   3.245
 2867SOL    HW1 9500   6.193   6.055   3.336
 2867SOL    HW2 9501   6.115   6.171   3.252
 2868SOL     OW 9502   1.335   1.314   5.317
 2868SOL    HW1 9503   1.382   1.304   5.404
 2868SOL    HW2 9504   1.246   1.358   5.331
 2869SOL     OW 9505   6.390   0.925   3.372
 2869SOL    HW1 9506   6.455   1.001   3.375
 2869SOL    HW2 9507   6.353   0.915   3.280
 2870SOL     OW 9508   0.726   1.781   5.913
 2870SOL    HW1 9509   0.656   1.793   5.983
 2870SOL    HW2 9510   0.706   1.840   5.835
 2871SOL     OW 9511   5.895   0.865   0.826
 2871SOL    HW1 9512   5.826   0.889   0.758
 2871SOL    HW2 9513   5.940   0.948   0.859
 2872SOL     OW 9514   2.522   2.080   1.157
 2872SOL    HW1 9515   2.539   1.989   1.195
 2872SOL    HW2 9516   2.577   2.148   1.205
 2873SOL     OW 9517   6.725   6.829   2.624
 2873SOL    HW1 9518   6.774   6.874   2.699
 2873SOL    HW2 9519   6.730   6.730   2.636
 2874SOL     OW 9520   3.655   6.286   2.818
 2874SOL    HW1 9521   3.672   6.385   2.814
 2874SOL    HW2 9522   3.563   6.267   2.786
 2875SOL     OW 9523   4.374   0.317   1.909
 2875SOL    HW1 9524   4.464   0.342   1.944
 2875SOL    HW2 9525   4.363   0.354   1.816
 2876SOL     OW 9526   2.006   0.362   3.083
 2876SOL    HW1 9527   1.935   0.291   3.080
 2876SOL    HW2 9528   2.077   0.334   3.148
 2877SOL     OW 9529   2.672   0.984   6.255
 2877SOL    HW1 9530   2.614   1.022   6.183
 2877SOL    HW2 9531   2.741   1.051   6.282
 2878SOL     OW 9532   3.026   3.860   5.011
 2878SOL    HW1 9533   3.082   3.790   5.056
 2878SOL    HW2 9534   2.947   3.817   4.968
 2879SOL     OW 9535   5.743   5.905   5.766
 2879SOL    HW1 9536   5.763   5.975   5.697
 2879SOL    HW2 9537   5.794   5.822   5.746
 2880SOL     OW 9538   0.569   1.327   3.360
 2880SOL    HW1 9539   0.477   1.368   3.359
 2880SOL    HW2 9540   0.621   1.362   3.283
 2881SOL     OW 9541   3.681   5.694   0.382
 2881SOL    HW1 9542   3.610   5.741   0.330
 2881SOL    HW2 9543   3.648   5.677   0.475
 2882SOL     OW 9544   6.991   5.570   1.380
 2882SOL    HW1 9545   0.049   5.527   1.433
 2882SOL    HW2 9546   0.014   5.617   1.301
 2883SOL     OW 9547   5.776   0.130   3.690
 2883SOL    HW1 9548   5.873   0.144   3.669
 2883SOL    HW2 9549   5.724   0.208   3.656
 2884SOL     OW 9550   0.809   6.493   2.693
 2884SOL    HW1 9551   0.886   6.471   2.633
 2884SOL    HW2 9552   0.725   6.495   2.640
 2885SOL     OW 9553   1.923   2.288   4.723
 2885SOL    HW1 9554   1.892   2.276   4.818
 2885SOL    HW2 9555   1.848   2.270   4.661
 2886SOL     OW 9556   1.863   3.258   6.522
 2886SOL    HW1 9557   1.862   3.320   6.600
 2886SOL    HW2 9558   1.831   3.167   6.552
 2887SOL     OW 9559   0.782   6.471   5.107
 2887SOL    HW1 9560   0.792   6.428   5.017
 2887SOL    HW2 9561   0.870   6.511   5.133
 2888SOL     OW 9562   0.265   4.554   0.370
 2888SOL    HW1 9563   0.287   4.532   0.275
 2888SOL    HW2 9564   0.318   4.633   0.399
 2889SOL     OW 9565   3.091   5.761   2.901
 2889SOL    HW1 9566   3.118   5.831   2.967
 2889SOL    HW2 9567   3.040   5.803   2.827
 2890SOL     OW 9568   1.467   6.227   0.705
 2890SOL    HW1 9569   1.538   6.171   0.662
 2890SOL    HW2 9570   1.484   6.323   0.684
 2891SOL     OW 9571   0.775   3.690   3.317
 2891SOL    HW1 9572   0.818   3.660   3.403
 2891SOL    HW2 9573   0.737   3.782   3.329
 2892SOL     OW 9574   6.179   2.684   1.633
 2892SOL    HW1 9575   6.138   2.767   1.670
 2892SOL    HW2 9576   6.188   2.693   1.534
 2893SOL     OW 9577   0.848   4.716   4.406
 2893SOL    HW1 9578   0.853   4.622   4.439
 2893SOL    HW2 9579   0.762   4.758   4.435
 2894SOL     OW 9580   1.235   3.700   1.686
 2894SOL    HW1 9581   1.149   3.739   1.720
 2894SOL    HW2 9582   1.227   3.685   1.587
 2895SOL     OW 9583   5.529   1.180   5.730
 2895SOL    HW1 9584   5.493   1.135   5.648
 2895SOL    HW2 9585   5.626   1.158   5.739
 2896SOL     OW 9586   4.042   6.933   5.559
 2896SOL    HW1 9587   4.048   6.839   5.524
 2896SOL    HW2 9588   4.110   6.989   5.513
 2897SOL     OW 9589   3.893   4.876   2.365
 2897SOL    HW1 9590   3.814   4.910   2.416
 2897SOL    HW2 9591   3.888   4.908   2.271
 2898SOL     OW 9592   4.328   4.685   4.170
 2898SOL    HW1 9593   4.367   4.776   4.159
 2898SOL    HW2 9594   4.344   4.652   4.263
 2899SOL     OW 9595   0.229   1.728   0.531
 2899SOL    HW1 9596   0.144   1.689   0.495
 2899SOL    HW2 9597   0.260   1.801   0.470
 2900SOL     OW 9598   3.584   4.605   6.845
 2900SOL    HW1 9599   3.601   4.693   6.801
 2900SOL    HW2 9600   3.627   4.603   6.935
 2901SOL     OW 9601   2.200   4.570   3.560
 2901SOL    HW1 9602   2.117   4.614   3.595
 2901SOL    HW2 9603   2.256   4.637   3.513
 2902SOL     OW 9604   6.367   5.163   3.132
 2902SOL    HW1 9605   6.412   5.125   3.052
 2902SOL    HW2 9606   6.325   5.089   3.185
 2903SOL     OW 9607   4.134   6.441   0.587
 2903SOL    HW1 9608   4.062   6.469   0.651
 2903SOL    HW2 9609   4.097   6.437   0.495
 2904SOL     OW 9610   2.833   5.082   5.273
 2904SOL    HW1 9611   2.886   5.005   5.237
 2904SOL    HW2 9612   2.772   5.116   5.202
 2905SOL     OW 9613   1.502   3.681   4.051
 2905SOL    HW1 9614   1.567   3.628   4.106
 2905SOL    HW2 9615   1.546   3.713   3.968
 2906SOL     OW 9616   4.947   5.680   2.815
 2906SOL    HW1 9617   4.917   5.733   2.735
 2906SOL    HW2 9618   4.878   5.610   2.835
 2907SOL     OW 9619   0.412   1.571   3.455
 2907SOL    HW1 9620   0.481   1.525   3.511
 2907SOL    HW2 9621   0.378   1.651   3.504
 2908SOL     OW 9622   4.894   0.190   3.175
 2908SOL    HW1 9623   4.895   0.090   3.169
 2908SOL    HW2 9624   4.984   0.226   3.148
 2909SOL     OW 9625   2.389   5.541   4.427
 2909SOL    HW1 9626   2.322   5.504   4.492
 2909SOL    HW2 9627   2.481   5.532   4.464
 2910SOL     OW 9628   5.789   0.091   3.983
 2910SOL    HW1 9629   5.760   0.166   4.042
 2910SOL    HW2 9630   5.825   0.128   3.897
 2911SOL     OW 9631   1.782   5.139   3.797
 2911SOL    HW1 9632   1.748   5.076   3.867
 2911SOL    HW2 9633   1.726   5.130   3.715
 2912SOL     OW 9634   6.432   6.569   0.454
 2912SOL    HW1 9635   6.464   6.642   0.514
 2912SOL    HW2 9636   6.444   6.597   0.359
 2913SOL     OW 9637   3.655   5.250   1.891
 2913SOL    HW1 9638   3.558   5.271   1.880
 2913SOL    HW2 9639   3.666   5.151   1.906
 2914SOL     OW 9640   6.196   5.702   0.132
 2914SOL    HW1 9641   6.129   5.627   0.136
 2914SOL    HW2 9642   6.149   5.786   0.104
 2915SOL     OW 9643   2.859   1.972   3.582
 2915SOL    HW1 9644   2.780   2.007   3.532
 2915SOL    HW2 9645   2.834   1.957   3.678
 2916SOL     OW 9646   1.066   5.481   0.479
 2916SOL    HW1 9647   1.124   5.412   0.522
 2916SOL    HW2 9648   1.087   5.487   0.382
 2917SOL     OW 9649   2.971   0.161   4.396
 2917SOL    HW1 9650   2.873   0.153   4.415
 2917SOL    HW2 9651   2.985   0.224   4.320
 2918SOL     OW 9652   6.120   4.137   5.507
 2918SOL    HW1 9653   6.073   4.064   5.556
 2918SOL    HW2 9654   6.197   4.099   5.456
 2919SOL     OW 9655   6.126   0.656   2.910
 2919SOL    HW1 9656   6.094   0.569   2.873
 2919SOL    HW2 9657   6.122   0.652   3.010
 2920SOL     OW 9658   3.094   0.771   1.132
 2920SOL    HW1 9659   3.163   0.721   1.184
 2920SOL    HW2 9660   3.054   0.843   1.189
 2921SOL     OW 9661   0.595   0.406   5.458
 2921SOL    HW1 9662   0.694   0.417   5.467
 2921SOL    HW2 9663   0.575   0.350   5.378
 2922SOL     OW 9664   4.822   6.419   1.699
 2922SOL    HW1 9665   4.819   6.503   1.754
 2922SOL    HW2 9666   4.762   6.429   1.620
 2923SOL     OW 9667   6.776   5.802   4.155
 2923SOL    HW1 9668   6.685   5.842   4.142
 2923SOL    HW2 9669   6.768   5.721   4.213
 2924SOL     OW 9670   6.923   2.457   5.194
 2924SOL    HW1 9671   0.000   2.438   5.226
 2924SOL    HW2 9672   6.858   2.428   5.264
 2925SOL     OW 9673   5.809   2.502   0.694
 2925SOL    HW1 9674   5.744   2.429   0.673
 2925SOL    HW2 9675   5.884   2.500   0.627
 2926SOL     OW 9676   5.671   2.283   6.618
 2926SOL    HW1 9677   5.683   2.262   6.521
 2926SOL    HW2 9678   5.759   2.312   6.657
 2927SOL     OW 9679   1.805   3.781   1.055
 2927SOL    HW1 9680   1.767   3.732   1.133
 2927SOL    HW2 9681   1.824   3.716   0.981
 2928SOL     OW 9682   0.242   0.516   6.623
 2928SOL    HW1 9683   0.153   0.517   6.669
 2928SOL    HW2 9684   0.286   0.605   6.634
 2929SOL     OW 9685   1.246   2.925   5.844
 2929SOL    HW1 9686   1.153   2.949   5.816
 2929SOL    HW2 9687   1.286   3.001   5.895
 2930SOL     OW 9688   5.299   6.932   5.400
 2930SOL    HW1 9689   5.217   6.970   5.443
 2930SOL    HW2 9690   5.357   7.007   5.367
 2931SOL     OW 9691   5.068   5.022   6.595
 2931SOL    HW1 9692   5.148   4.963   6.587
 2931SOL    HW2 9693   5.077   5.079   6.676
 2932SOL     OW 9694   1.049   5.586   1.977
 2932SOL    HW1 9695   1.115   5.580   2.052
 2932SOL    HW2 9696   0.962   5.623   2.012
 2933SOL     OW 9697   1.688   6.556   2.025
 2933SOL    HW1 9698   1.610   6.553   2.087
 2933SOL    HW2 9699   1.694   6.469   1.975
 2934SOL     OW 9700   5.570   2.726   6.969
 2934SOL    HW1 9701   5.636   2.769   0.016
 2934SOL    HW2 9702   5.542   2.637   7.007
 2935SOL     OW 9703   6.869   2.672   6.262
 2935SOL    HW1 9704   6.905   2.735   6.193
 2935SOL    HW2 9705   6.902   2.698   6.352
 2936SOL     OW 9706   4.744   6.032   0.324
 2936SOL    HW1 9707   4.680   6.082   0.267
 2936SOL    HW2 9708   4.714   6.034   0.419
 2937SOL     OW 9709   5.488   4.870   1.181
 2937SOL    HW1 9710   5.505   4.947   1.243
 2937SOL    HW2 9711   5.488   4.902   1.087
 2938SOL     OW 9712   5.483   4.670   0.163
 2938SOL    HW1 9713   5.515   4.610   0.090
 2938SOL    HW2 9714   5.449   4.755   0.124
 2939SOL     OW 9715   2.317   0.580   1.877
 2939SOL    HW1 9716   2.411   0.559   1.849
 2939SOL    HW2 9717   2.314   0.669   1.921
 2940SOL     OW 9718   5.291   4.834   5.412
 2940SOL    HW1 9719   5.305   4.766   5.341
 2940SOL    HW2 9720   5.319   4.924   5.379
 2941SOL     OW 9721   1.487   2.305   4.444
 2941SOL    HW1 9722   1.452   2.270   4.531
 2941SOL    HW2 9723   1.521   2.398   4.457
 2942SOL     OW 9724   3.879   1.625   0.974
 2942SOL    HW1 9725   3.860   1.647   0.878
 2942SOL    HW2 9726   3.961   1.568   0.979
 2943SOL     OW 9727   5.802   4.170   4.050
 2943SOL    HW1 9728   5.866   4.228   4.101
 2943SOL    HW2 9729   5.851   4.090   4.016
 2944SOL     OW 9730   3.029   6.386   4.077
 2944SOL    HW1 9731   2.988   6.476   4.095
 2944SOL    HW2 9732   3.127   6.396   4.062
 2945SOL     OW 9733   4.399   3.114   1.475
 2945SOL    HW1 9734   4.367   3.131   1.569
 2945SOL    HW2 9735   4.484   3.062   1.478
 2946SOL     OW 9736   1.936   4.772   6.052
 2946SOL    HW1 9737   1.838   4.766   6.034
 2946SOL    HW2 9738   1.986   4.767   5.966
 2947SOL     OW 9739   1.047   5.750   1.545
 2947SOL    HW1 9740   1.133   5.793   1.574
 2947SOL    HW2 9741   1.042   5.658   1.583
 2948SOL     OW 9742   0.255   4.356   4.626
 2948SOL    HW1 9743   0.188   4.288   4.657
 2948SOL    HW2 9744   0.282   4.336   4.532
 2949SOL     OW 9745   1.067   5.514   0.938
 2949SOL    HW1 9746   1.113   5.592   0.979
 2949SOL    HW2 9747   1.042   5.536   0.844
 2950SOL     OW 9748   5.974   5.680   4.503
 2950SOL    HW1 9749   5.946   5.770   4.469
 2950SOL    HW2 9750   5.999   5.687   4.599
 2951SOL     OW 9751   5.584   2.031   1.895
 2951SOL    HW1 9752   5.676   2.069   1.880
 2951SOL    HW2 9753   5.581   1.988   1.985
 2952SOL     OW 9754   0.302   6.230   5.681
 2952SOL    HW1 9755   0.393   6.268   5.697
 2952SOL    HW2 9756   0.261   6.205   5.769
 2953SOL     OW 9757   6.432   4.159   2.939
 2953SOL    HW1 9758   6.422   4.136   2.842
 2953SOL    HW2 9759   6.342   4.169   2.981
 2954SOL     OW 9760   1.069   4.969   1.909
 2954SOL    HW1 9761   1.013   4.935   1.833
 2954SOL    HW2 9762   1.088   5.067   1.895
 2955SOL     OW 9763   0.845   4.165   1.448
 2955SOL    HW1 9764   0.828   4.113   1.364
 2955SOL    HW2 9765   0.879   4.103   1.519
 2956SOL     OW 9766   5.631   5.489   2.967
 2956SOL    HW1 9767   5.730   5.500   2.973
 2956SOL    HW2 9768   5.608   5.438   2.884
 2957SOL     OW 9769   5.028   4.118   1.640
 2957SOL    HW1 9770   4.981   4.066   1.711
 2957SOL    HW2 9771   5.015   4.073   1.552
 2958SOL     OW 9772   1.997   4.107   3.463
 2958SOL    HW1 9773   2.014   4.038   3.392
 2958SOL    HW2 9774   2.055   4.186   3.447
 2959SOL     OW 9775   4.944   3.460   1.991
 2959SOL    HW1 9776   5.042   3.461   1.968
 2959SOL    HW2 9777   4.923   3.375   2.039
 2960SOL     OW 9778   3.229   0.040   0.293
 2960SOL    HW1 9779   3.181   0.047   0.380
 2960SOL    HW2 9780   3.317   7.012   0.307
 2961SOL     OW 9781   5.801   4.824   3.339
 2961SOL    HW1 9782   5.848   4.739   3.362
 2961SOL    HW2 9783   5.732   4.844   3.408
 2962SOL     OW 9784   4.467   5.810   3.670
 2962SOL    HW1 9785   4.539   5.852   3.726
 2962SOL    HW2 9786   4.496   5.808   3.574
 2963SOL     OW 9787   0.747   1.002   0.023
 2963SOL    HW1 9788   0.731   1.098   0.001
 2963SOL    HW2 9789   0.808   0.961   6.971
 2964SOL     OW 9790   0.192   1.680   5.460
 2964SOL    HW1 9791   0.168   1.736   5.539
 2964SOL    HW2 9792   0.193   1.584   5.486
 2965SOL     OW 9793   0.527   1.054   4.714
 2965SOL    HW1 9794   0.558   0.964   4.682
 2965SOL    HW2 9795   0.588   1.087   4.786
 2966SOL     OW 9796   4.801   5.099   3.195
 2966SOL    HW1 9797   4.864   5.124   3.122
 2966SOL    HW2 9798   4.803   5.168   3.266
 2967SOL     OW 9799   5.948   0.928   5.734
 2967SOL    HW1 9800   5.967   0.957   5.640
 2967SOL    HW2 9801   6.029   0.945   5.791
 2968SOL     OW 9802   0.872   2.537   0.718
 2968SOL    HW1 9803   0.868   2.597   0.638
 2968SOL    HW2 9804   0.875   2.592   0.801
 2969SOL     OW 9805   4.724   2.451   4.327
 2969SOL    HW1 9806   4.790   2.501   4.271
 2969SOL    HW2 9807   4.698   2.367   4.281
 2970SOL     OW 9808   2.666   2.921   5.402
 2970SOL    HW1 9809   2.600   2.959   5.337
 2970SOL    HW2 9810   2.628   2.838   5.443
 2971SOL     OW 9811   4.972   3.906   1.155
 2971SOL    HW1 9812   5.067   3.885   1.135
 2971SOL    HW2 9813   4.914   3.876   1.079
 2972SOL     OW 9814   6.265   4.970   6.635
 2972SOL    HW1 9815   6.356   5.003   6.610
 2972SOL    HW2 9816   6.211   4.958   6.551
 2973SOL     OW 9817   5.123   5.949   1.983
 2973SOL    HW1 9818   5.107   5.916   1.890
 2973SOL    HW2 9819   5.048   6.010   2.010
 2974SOL     OW 9820   0.169   4.500   3.640
 2974SOL    HW1 9821   0.094   4.513   3.705
 2974SOL    HW2 9822   0.256   4.495   3.689
 2975SOL     OW 9823   5.005   4.211   4.005
 2975SOL    HW1 9824   4.933   4.166   3.952
 2975SOL    HW2 9825   5.088   4.216   3.949
 2976SOL     OW 9826   4.643   1.786   2.445
 2976SOL    HW1 9827   4.653   1.806   2.543
 2976SOL    HW2 9828   4.551   1.752   2.427
 2977SOL     OW 9829   1.049   0.485   2.844
 2977SOL    HW1 9830   1.146   0.507   2.833
 2977SOL    HW2 9831   1.033   0.389   2.819
 2978SOL     OW 9832   3.601   4.654   0.163
 2978SOL    HW1 9833   3.620   4.737   0.216
 2978SOL    HW2 9834   3.506   4.655   0.130
 2979SOL     OW 9835   3.301   1.245   3.894
 2979SOL    HW1 9836   3.235   1.320   3.901
 2979SOL    HW2 9837   3.298   1.190   3.978
 2980SOL     OW 9838   2.006   5.511   5.688
 2980SOL    HW1 9839   1.952   5.502   5.771
 2980SOL    HW2 9840   1.949   5.545   5.614
 2981SOL     OW 9841   2.653   0.751   6.658
 2981SOL    HW1 9842   2.603   0.837   6.666
 2981SOL    HW2 9843   2.698   0.747   6.568
 2982SOL     OW 9844   2.668   6.109   1.204
 2982SOL    HW1 9845   2.614   6.075   1.281
 2982SOL    HW2 9846   2.680   6.208   1.212
 2983SOL     OW 9847   6.207   2.188   1.889
 2983SOL    HW1 9848   6.182   2.205   1.984
 2983SOL    HW2 9849   6.217   2.276   1.841
 2984SOL     OW 9850   6.356   5.129   0.041
 2984SOL    HW1 9851   6.259   5.120   0.017
 2984SOL    HW2 9852   6.411   5.118   6.975
 2985SOL     OW 9853   2.113   1.994   4.646
 2985SOL    HW1 9854   2.020   1.976   4.614
 2985SOL    HW2 9855   2.163   2.045   4.576
 2986SOL     OW 9856   3.631   3.990   2.657
 2986SOL    HW1 9857   3.567   3.918   2.632
 2986SOL    HW2 9858   3.696   3.955   2.724
 2987SOL     OW 9859   1.181   1.237   4.466
 2987SOL    HW1 9860   1.278   1.213   4.458
 2987SOL    HW2 9861   1.174   1.329   4.505
 2988SOL     OW 9862   1.510   6.742   2.519
 2988SOL    HW1 9863   1.418   6.763   2.486
 2988SOL    HW2 9864   1.544   6.659   2.475
 2989SOL     OW 9865   4.980   5.029   5.838
 2989SOL    HW1 9866   5.022   5.072   5.918
 2989SOL    HW2 9867   5.038   4.955   5.806
 2990SOL     OW 9868   4.314   1.845   4.237
 2990SOL    HW1 9869   4.265   1.882   4.316
 2990SOL    HW2 9870   4.276   1.884   4.153
 2991SOL     OW 9871   6.176   3.161   5.813
 2991SOL    HW1 9872   6.162   3.257   5.786
 2991SOL    HW2 9873   6.270   3.135   5.793
 2992SOL     OW 9874   1.225   4.856   4.677
 2992SOL    HW1 9875   1.272   4.865   4.764
 2992SOL    HW2 9876   1.165   4.935   4.664
 2993SOL     OW 9877   0.877   5.225   1.531
 2993SOL    HW1 9878   0.805   5.181   1.477
 2993SOL    HW2 9879   0.854   5.218   1.629
 2994SOL     OW 9880   4.043   6.426   0.300
 2994SOL    HW1 9881   4.137   6.445   0.273
 2994SOL    HW2 9882   3.983   6.498   0.264
 2995SOL     OW 9883   3.921   1.057   6.433
 2995SOL    HW1 9884   3.969   1.109   6.504
 2995SOL    HW2 9885   3.822   1.065   6.447
 2996SOL     OW 9886   0.468   1.089   5.159
 2996SOL    HW1 9887   0.448   0.998   5.123
 2996SOL    HW2 9888   0.430   1.097   5.252
 2997SOL     OW 9889   4.776   0.391   2.826
 2997SOL    HW1 9890   4.803   0.297   2.849
 2997SOL    HW2 9891   4.727   0.431   2.904
 2998SOL     OW 9892   5.264   6.670   3.624
 2998SOL    HW1 9893   5.266   6.604   3.548
 2998SOL    HW2 9894   5.287   6.623   3.709
 2999SOL     OW 9895   2.493   5.258   5.510
 2999SOL    HW1 9896   2.579   5.304   5.484
 2999SOL    HW2 9897   2.438   5.244   5.428
 3000SOL     OW 9898   3.130   4.067   6.321
 3000SOL    HW1 9899   3.208   4.031   6.373
 3000SOL    HW2 9900   3.106   4.002   6.249
 3001SOL     OW 9901   6.550   1.562   6.765
 3001SOL    HW1 9902   6.593   1.523   6.847
 3001SOL    HW2 9903   6.456   1.529   6.758
 3002SOL     OW 9904   3.635   2.595   0.358
 3002SOL    HW1 9905   3.616   2.499   0.342
 3002SOL    HW2 9906   3.561   2.636   0.412
 3003SOL     OW 9907   0.592   6.702   0.676
 3003SOL    HW1 9908   0.599   6.796   0.644
 3003SOL    HW2 9909   0.514   6.693   0.738
 3004SOL     OW 9910   1.017   4.180   2.360
 3004SOL    HW1 9911   1.028   4.267   2.408
 3004SOL    HW2 9912   0.924   4.146   2.373
 3005SOL     OW 9913   1.377   2.418   6.855
 3005SOL    HW1 9914   1.378   2.477   6.936
 3005SOL    HW2 9915   1.334   2.330   6.879
 3006SOL     OW 9916   5.575   2.676   4.566
 3006SOL    HW1 9917   5.501   2.616   4.596
 3006SOL    HW2 9918   5.537   2.754   4.515
 3007SOL     OW 9919   5.375   4.315   0.960
 3007SOL    HW1 9920   5.282   4.304   0.996
 3007SOL    HW2 9921   5.438   4.258   1.013
 3008SOL     OW 9922   2.944   2.516   6.340
 3008SOL    HW1 9923   2.989   2.582   6.400
 3008SOL    HW2 9924   2.845   2.531   6.343
 3009SOL     OW 9925   6.440   2.470   2.704
 3009SOL    HW1 9926   6.407   2.537   2.638
 3009SOL    HW2 9927   6.488   2.517   2.779
 3010SOL     OW 9928   2.795   5.703   3.596
 3010SOL    HW1 9929   2.893   5.707   3.615
 3010SOL    HW2 9930   2.776   5.625   3.537
 3011SOL     OW 9931   5.790   0.870   2.519
 3011SOL    HW1 9932   5.829   0.781   2.497
 3011SOL    HW2 9933   5.788   0.883   2.618
 3012SOL     OW 9934   2.384   3.094   6.803
 3012SOL    HW1 9935   2.471   3.045   6.798
 3012SOL    HW2 9936   2.394   3.184   6.761
 3013SOL     OW 9937   5.594   5.220   4.260
 3013SOL    HW1 9938   5.586   5.168   4.175
 3013SOL    HW2 9939   5.656   5.173   4.323
 3014SOL     OW 9940   4.684   2.071   5.496
 3014SOL    HW1 9941   4.784   2.082   5.497
 3014SOL    HW2 9942   4.657   2.017   5.417
 3015SOL     OW 9943   1.987   1.736   0.334
 3015SOL    HW1 9944   1.923   1.667   0.370
 3015SOL    HW2 9945   2.079   1.716   0.368
 3016SOL     OW 9946   3.389   6.264   4.285
 3016SOL    HW1 9947   3.484   6.256   4.253
 3016SOL    HW2 9948   3.386   6.249   4.383
 3017SOL     OW 9949   6.348   5.811   2.348
 3017SOL    HW1 9950   6.413   5.770   2.284
 3017SOL    HW2 9951   6.360   5.770   2.439
 3018SOL     OW 9952   2.724   0.313   6.480
 3018SOL    HW1 9953   2.710   0.352   6.572
 3018SOL    HW2 9954   2.813   0.342   6.445
 3019SOL     OW 9955   0.615   6.868   6.896
 3019SOL    HW1 9956   0.526   6.835   6.929
 3019SOL    HW2 9957   0.625   6.847   6.799
 3020SOL     OW 9958   3.957   3.197   0.791
 3020SOL    HW1 9959   4.002   3.258   0.726
 3020SOL    HW2 9960   4.025   3.153   0.849
 3021SOL     OW 9961   3.067   0.164   4.927
 3021SOL    HW1 9962   3.135   0.091   4.935
 3021SOL    HW2 9963   3.027   0.163   4.835
 3022SOL     OW 9964   4.339   5.035   4.477
 3022SOL    HW1 9965   4.434   5.065   4.490
 3022SOL    HW2 9966   4.284   5.112   4.447
 3023SOL     OW 9967   4.151   6.420   3.141
 3023SOL    HW1 9968   4.053   6.414   3.161
 3023SOL    HW2 9969   4.203   6.414   3.226
 3024SOL     OW 9970   5.508   6.450   4.405
 3024SOL    HW1 9971   5.548   6.396   4.332
 3024SOL    HW2 9972   5.532   6.410   4.493
 3025SOL     OW 9973   4.483   6.166   1.809
 3025SOL    HW1 9974   4.505   6.166   1.711
 3025SOL    HW2 9975   4.386   6.191   1.820
 3026SOL     OW 9976   7.001   1.247   5.782
 3026SOL    HW1 9977   7.009   1.211   5.875
 3026SOL    HW2 9978   0.054   1.203   5.724
 3027SOL     OW 9979   3.716   1.880   2.884
 3027SOL    HW1 9980   3.750   1.806   2.827
 3027SOL    HW2 9981   3.663   1.841   2.960
 3028SOL     OW 9982   1.653   3.145   5.399
 3028SOL    HW1 9983   1.745   3.152   5.438
 3028SOL    HW2 9984   1.586   3.149   5.473
 3029SOL     OW 9985   1.319   3.220   4.712
 3029SOL    HW1 9986   1.380   3.141   4.700
 3029SOL    HW2 9987   1.365   3.303   4.679
 3030SOL     OW 9988   1.323   3.035   0.974
 3030SOL    HW1 9989   1.332   3.118   1.029
 3030SOL    HW2 9990   1.276   2.965   1.028
 3031SOL     OW 9991   0.183   5.249   1.077
 3031SOL    HW1 9992   0.238   5.269   0.997
 3031SOL    HW2 9993   0.234   5.273   1.160
 3032SOL     OW 9994   2.105   6.851   1.716
 3032SOL    HW1 9995   2.137   6.938   1.678
 3032SOL    HW2 9996   2.037   6.868   1.787
 3033SOL     OW 9997   5.388   0.853   2.087
 3033SOL    HW1 9998   5.356   0.947   2.080
 3033SOL    HW2 9999   5.343   0.797   2.017
 3034SOL     OW10000   0.809   0.010   3.421
 3034SOL    HW110001   0.783   0.106   3.414
 3034SOL    HW210002   0.745   6.978   3.481
 3035SOL     OW10003   0.723   3.035   6.198
 3035SOL    HW110004   0.627   3.063   6.201
 3035SOL    HW210005   0.761   3.059   6.108
 3036SOL     OW10006   1.622   2.290   5.124
 3036SOL    HW110007   1.580   2.200   5.113
 3036SOL    HW210008   1.657   2.299   5.217
 3037SOL     OW10009   6.339   5.261   6.085
 3037SOL    HW110010   6.314   5.315   6.166
 3037SOL    HW210011   6.369   5.170   6.114
 3038SOL     OW10012   4.881   5.017   5.542
 3038SOL    HW110013   4.925   5.032   5.631
 3038SOL    HW210014   4.869   5.105   5.496
 3039SOL     OW10015   0.834   2.921   1.201
 3039SOL    HW110016   0.860   2.997   1.142
 3039SOL    HW210017   0.916   2.872   1.231
 3040SOL     OW10018   3.460   4.264   5.984
 3040SOL    HW110019   3.524   4.206   5.934
 3040SOL    HW210020   3.498   4.283   6.075
 3041SOL     OW10021   2.343   4.168   5.511
 3041SOL    HW110022   2.434   4.146   5.475
 3041SOL    HW210023   2.278   4.098   5.483
 3042SOL     OW10024   6.182   6.378   3.260
 3042SOL    HW110025   6.137   6.414   3.178
 3042SOL    HW210026   6.120   6.384   3.338
 3043SOL     OW10027   3.115   4.095   1.741
 3043SOL    HW110028   3.137   4.043   1.824
 3043SOL    HW210029   3.090   4.188   1.766
 3044SOL     OW10030   3.493   6.165   5.453
 3044SOL    HW110031   3.426   6.103   5.414
 3044SOL    HW210032   3.450   6.220   5.525
 3045SOL     OW10033   5.131   6.816   3.017
 3045SOL    HW110034   5.061   6.842   2.950
 3045SOL    HW210035   5.220   6.847   2.985
 3046SOL     OW10036   3.754   0.649   6.261
 3046SOL    HW110037   3.793   0.687   6.177
 3046SOL    HW210038   3.775   0.710   6.338
 3047SOL     OW10039   6.101   0.286   1.611
 3047SOL    HW110040   6.143   0.195   1.616
 3047SOL    HW210041   6.005   0.280   1.639
 3048SOL     OW10042   3.959   2.531   0.907
 3048SOL    HW110043   3.923   2.467   0.975
 3048SOL    HW210044   3.896   2.536   0.829
 3049SOL     OW10045   1.550   0.011   3.539
 3049SOL    HW110046   1.477   0.026   3.472
 3049SOL    HW210047   1.513   0.017   3.631
 3050SOL     OW10048   2.947   1.851   1.863
 3050SOL    HW110049   2.882   1.907   1.811
 3050SOL    HW210050   3.021   1.823   1.803
 3051SOL     OW10051   1.926   6.764   6.560
 3051SOL    HW110052   1.884   6.775   6.650
 3051SOL    HW210053   1.922   6.851   6.511
 3052SOL     OW10054   5.259   5.607   1.739
 3052SOL    HW110055   5.261   5.509   1.718
 3052SOL    HW210056   5.348   5.647   1.716
 3053SOL     OW10057   6.892   3.292   1.001
 3053SOL    HW110058   6.941   3.210   0.971
 3053SOL    HW210059   6.956   3.369   1.004
 3054SOL     OW10060   5.885   2.026   1.867
 3054SOL    HW110061   5.922   1.963   1.936
 3054SOL    HW210062   5.960   2.078   1.826
 3055SOL     OW10063   5.551   6.971   4.911
 3055SOL    HW110064   5.454   6.946   4.909
 3055SOL    HW210065   5.607   6.890   4.892
 3056SOL     OW10066   6.092   1.026   5.972
 3056SOL    HW110067   6.051   1.115   5.992
 3056SOL    HW210068   6.031   0.954   6.006
 3057SOL     OW10069   4.489   4.908   4.103
 3057SOL    HW110070   4.573   4.962   4.110
 3057SOL    HW210071   4.416   4.966   4.068
 3058SOL     OW10072   6.983   4.614   0.946
 3058SOL    HW110073   6.916   4.689   0.941
 3058SOL    HW210074   6.946   4.534   0.899
 3059SOL     OW10075   2.713   1.499   4.186
 3059SOL    HW110076   2.659   1.474   4.267
 3059SOL    HW210077   2.727   1.598   4.185
 3060SOL     OW10078   1.959   5.443   0.030
 3060SOL    HW110079   2.037   5.418   0.088
 3060SOL    HW210080   1.886   5.376   0.042
 3061SOL     OW10081   6.466   6.040   5.833
 3061SOL    HW110082   6.530   5.971   5.866
 3061SOL    HW210083   6.515   6.124   5.811
 3062SOL     OW10084   1.731   0.071   0.947
 3062SOL    HW110085   1.722   0.021   0.861
 3062SOL    HW210086   1.644   0.115   0.969
 3063SOL     OW10087   2.466   4.738   1.302
 3063SOL    HW110088   2.378   4.712   1.263
 3063SOL    HW210089   2.540   4.700   1.246
 3064SOL     OW10090   4.970   3.439   0.773
 3064SOL    HW110091   4.922   3.385   0.705
 3064SOL    HW210092   5.065   3.452   0.744
 3065SOL     OW10093   1.367   2.631   6.426
 3065SOL    HW110094   1.439   2.604   6.489
 3065SOL    HW210095   1.288   2.665   6.477
 3066SOL     OW10096   5.112   5.208   0.633
 3066SOL    HW110097   5.058   5.286   0.663
 3066SOL    HW210098   5.207   5.219   0.663
 3067SOL     OW10099   3.624   1.028   6.172
 3067SOL    HW110100   3.553   1.070   6.114
 3067SOL    HW210101   3.650   1.093   6.244
 3068SOL     OW10102   0.147   6.235   1.449
 3068SOL    HW110103   0.198   6.174   1.388
 3068SOL    HW210104   0.124   6.320   1.401
 3069SOL     OW10105   6.683   6.328   2.469
 3069SOL    HW110106   6.635   6.254   2.516
 3069SOL    HW210107   6.648   6.336   2.375
 3070SOL     OW10108   2.757   0.783   6.410
 3070SOL    HW110109   2.807   0.832   6.482
 3070SOL    HW210110   2.722   0.848   6.343
 3071SOL     OW10111   6.673   6.557   4.545
 3071SOL    HW110112   6.700   6.541   4.450
 3071SOL    HW210113   6.575   6.576   4.549
 3072SOL     OW10114   2.295   5.511   6.119
 3072SOL    HW110115   2.211   5.562   6.140
 3072SOL    HW210116   2.369   5.575   6.101
 3073SOL     OW10117   6.898   3.473   3.300
 3073SOL    HW110118   6.980   3.516   3.338
 3073SOL    HW210119   6.903   3.374   3.313
 3074SOL     OW10120   0.315   4.028   1.058
 3074SOL    HW110121   0.355   3.971   1.130
 3074SOL    HW210122   0.300   4.120   1.094
 3075SOL     OW10123   2.426   5.622   2.999
 3075SOL    HW110124   2.415   5.654   2.906
 3075SOL    HW210125   2.434   5.522   2.999
 3076SOL     OW10126   6.794   1.247   3.849
 3076SOL    HW110127   6.808   1.164   3.903
 3076SOL    HW210128   6.725   1.229   3.779
 3077SOL     OW10129   5.421   4.697   1.854
 3077SOL    HW110130   5.392   4.684   1.760
 3077SOL    HW210131   5.521   4.705   1.857
 3078SOL     OW10132   7.011   3.409   2.946
 3078SOL    HW110133   0.073   3.470   2.929
 3078SOL    HW210134   6.927   3.454   2.916
 3079SOL     OW10135   2.686   2.179   2.994
 3079SOL    HW110136   2.747   2.187   3.073
 3079SOL    HW210137   2.732   2.128   2.922
 3080SOL     OW10138   6.285   4.967   2.305
 3080SOL    HW110139   6.211   4.965   2.371
 3080SOL    HW210140   6.251   5.002   2.217
 3081SOL     OW10141   1.052   4.038   5.935
 3081SOL    HW110142   0.965   4.006   5.897
 3081SOL    HW210143   1.127   3.987   5.891
 3082SOL     OW10144   1.898   5.933   4.258
 3082SOL    HW110145   1.950   5.952   4.174
 3082SOL    HW210146   1.960   5.902   4.330
 3083SOL     OW10147   3.282   6.253   3.530
 3083SOL    HW110148   3.350   6.266   3.457
 3083SOL    HW210149   3.305   6.312   3.607
 3084SOL     OW10150   6.269   4.425   3.201
 3084SOL    HW110151   6.275   4.384   3.292
 3084SOL    HW210152   6.246   4.355   3.134
 3085SOL     OW10153   6.629   4.138   0.572
 3085SOL    HW110154   6.693   4.097   0.507
 3085SOL    HW210155   6.665   4.226   0.602
 3086SOL     OW10156   5.259   1.533   0.578
 3086SOL    HW110157   5.182   1.478   0.610
 3086SOL    HW210158   5.229   1.627   0.562
 3087SOL     OW10159   2.176   6.908   3.275
 3087SOL    HW110160   2.107   6.904   3.347
 3087SOL    HW210161   2.215   6.818   3.261
 3088SOL     OW10162   2.128   3.973   4.788
 3088SOL    HW110163   2.204   3.954   4.851
 3088SOL    HW210164   2.145   4.060   4.741
 3089SOL     OW10165   3.925   1.917   4.472
 3089SOL    HW110166   3.854   1.849   4.458
 3089SOL    HW210167   3.951   1.919   4.568
 3090SOL     OW10168   2.441   1.458   1.706
 3090SOL    HW110169   2.520   1.415   1.749
 3090SOL    HW210170   2.403   1.398   1.636
 3091SOL     OW10171   1.668   1.226   0.714
 3091SOL    HW110172   1.627   1.275   0.638
 3091SOL    HW210173   1.626   1.256   0.800
 3092SOL     OW10174   5.548   7.013   0.672
 3092SOL    HW110175   5.594   6.932   0.635
 3092SOL    HW210176   5.459   0.007   0.628
 3093SOL     OW10177   5.322   5.665   6.501
 3093SOL    HW110178   5.372   5.670   6.414
 3093SOL    HW210179   5.226   5.691   6.486
 3094SOL     OW10180   2.365   0.279   3.947
 3094SOL    HW110181   2.352   0.202   3.885
 3094SOL    HW210182   2.315   0.263   4.032
 3095SOL     OW10183   2.556   4.104   5.332
 3095SOL    HW110184   2.557   4.197   5.295
 3095SOL    HW210185   2.511   4.043   5.267
 3096SOL     OW10186   1.023   5.330   5.437
 3096SOL    HW110187   1.094   5.328   5.507
 3096SOL    HW210188   1.026   5.246   5.383
 3097SOL     OW10189   5.871   3.473   6.782
 3097SOL    HW110190   5.923   3.545   6.828
 3097SOL    HW210191   5.782   3.464   6.825
 3098SOL     OW10192   1.844   3.095   1.710
 3098SOL    HW110193   1.792   3.016   1.677
 3098SOL    HW210194   1.894   3.136   1.634
 3099SOL     OW10195   1.307   6.096   4.028
 3099SOL    HW110196   1.378   6.165   4.040
 3099SOL    HW210197   1.217   6.140   4.026
 3100SOL     OW10198   6.759   5.972   3.895
 3100SOL    HW110199   6.823   6.049   3.902
 3100SOL    HW210200   6.718   5.954   3.984
 3101SOL     OW10201   5.957   5.754   6.121
 3101SOL    HW110202   5.884   5.695   6.155
 3101SOL    HW210203   5.926   5.849   6.119
 3102SOL     OW10204   6.107   6.937   1.418
 3102SOL    HW110205   6.130   6.981   1.505
 3102SOL    HW210206   6.019   6.891   1.426
 3103SOL     OW10207   4.455   1.422   1.788
 3103SOL    HW110208   4.430   1.406   1.693
 3103SOL    HW210209   4.534   1.483   1.792
 3104SOL     OW10210   4.397   0.502   6.248
 3104SOL    HW110211   4.483   0.552   6.257
 3104SOL    HW210212   4.337   0.525   6.325
 3105SOL     OW10213   5.887   4.264   1.286
 3105SOL    HW110214   5.982   4.236   1.297
 3105SOL    HW210215   5.859   4.251   1.191
 3106SOL     OW10216   4.703   6.844   4.501
 3106SOL    HW110217   4.643   6.821   4.425
 3106SOL    HW210218   4.759   6.924   4.477
 3107SOL     OW10219   3.466   0.578   4.637
 3107SOL    HW110220   3.452   0.672   4.605
 3107SOL    HW210221   3.403   0.518   4.587
 3108SOL     OW10222   2.130   5.531   4.904
 3108SOL    HW110223   2.180   5.514   4.819
 3108SOL    HW210224   2.095   5.444   4.940
 3109SOL     OW10225   5.828   6.841   3.782
 3109SOL    HW110226   5.909   6.810   3.732
 3109SOL    HW210227   5.787   6.918   3.734
 3110SOL     OW10228   1.434   3.852   2.927
 3110SOL    HW110229   1.458   3.761   2.893
 3110SOL    HW210230   1.343   3.849   2.969
 3111SOL     OW10231   6.786   5.106   3.657
 3111SOL    HW110232   6.807   5.202   3.676
 3111SOL    HW210233   6.699   5.082   3.701
 3112SOL     OW10234   2.922   3.196   0.291
 3112SOL    HW110235   2.945   3.108   0.332
 3112SOL    HW210236   2.989   3.265   0.321
 3113SOL     OW10237   3.320   4.946   3.025
 3113SOL    HW110238   3.369   4.919   3.108
 3113SOL    HW210239   3.272   4.867   2.987
 3114SOL     OW10240   3.524   1.877   0.191
 3114SOL    HW110241   3.456   1.951   0.194
 3114SOL    HW210242   3.531   1.836   0.282
 3115SOL     OW10243   4.066   4.624   6.365
 3115SOL    HW110244   4.135   4.592   6.300
 3115SOL    HW210245   4.005   4.689   6.319
 3116SOL     OW10246   6.378   1.938   6.545
 3116SOL    HW110247   6.310   1.988   6.492
 3116SOL    HW210248   6.412   1.860   6.491
 3117SOL     OW10249   4.521   4.148   5.257
 3117SOL    HW110250   4.592   4.147   5.187
 3117SOL    HW210251   4.527   4.066   5.313
 3118SOL     OW10252   0.943   5.102   2.198
 3118SOL    HW110253   0.852   5.075   2.230
 3118SOL    HW210254   0.979   5.034   2.135
 3119SOL     OW10255   2.393   2.446   0.110
 3119SOL    HW110256   2.320   2.385   0.140
 3119SOL    HW210257   2.416   2.425   0.015
 3120SOL     OW10258   2.680   0.473   5.839
 3120SOL    HW110259   2.772   0.475   5.800
 3120SOL    HW210260   2.685   0.489   5.938
 3121SOL     OW10261   5.977   1.755   4.448
 3121SOL    HW110262   6.010   1.693   4.377
 3121SOL    HW210263   6.039   1.752   4.526
 3122SOL     OW10264   4.942   5.684   5.578
 3122SOL    HW110265   4.958   5.638   5.490
 3122SOL    HW210266   5.001   5.764   5.585
 3123SOL     OW10267   2.323   1.538   2.572
 3123SOL    HW110268   2.276   1.460   2.531
 3123SOL    HW210269   2.286   1.623   2.533
 3124SOL     OW10270   4.875   0.052   4.427
 3124SOL    HW110271   4.827   0.138   4.439
 3124SOL    HW210272   4.913   0.048   4.334
 3125SOL     OW10273   1.123   3.419   5.195
 3125SOL    HW110274   1.068   3.336   5.198
 3125SOL    HW210275   1.180   3.419   5.112
 3126SOL     OW10276   5.698   4.099   5.278
 3126SOL    HW110277   5.783   4.140   5.311
 3126SOL    HW210278   5.662   4.037   5.347
 3127SOL     OW10279   1.871   2.296   6.428
 3127SOL    HW110280   1.902   2.347   6.508
 3127SOL    HW210281   1.943   2.234   6.398
 3128SOL     OW10282   3.451   1.496   6.421
 3128SOL    HW110283   3.489   1.585   6.398
 3128SOL    HW210284   3.351   1.498   6.412
 3129SOL     OW10285   6.392   3.724   0.186
 3129SOL    HW110286   6.305   3.691   0.150
 3129SOL    HW210287   6.467   3.679   0.138
 3130SOL     OW10288   2.108   4.342   2.323
 3130SOL    HW110289   2.091   4.373   2.230
 3130SOL    HW210290   2.037   4.378   2.384
 3131SOL     OW10291   0.720   3.218   1.688
 3131SOL    HW110292   0.791   3.191   1.754
 3131SOL    HW210293   0.632   3.224   1.734
 3132SOL     OW10294   5.071   5.302   6.476
 3132SOL    HW110295   5.076   5.202   6.478
 3132SOL    HW210296   5.137   5.340   6.540
 3133SOL     OW10297   3.206   1.209   3.356
 3133SOL    HW110298   3.231   1.306   3.365
 3133SOL    HW210299   3.180   1.190   3.262
 3134SOL     OW10300   4.146   4.268   1.145
 3134SOL    HW110301   4.191   4.207   1.210
 3134SOL    HW210302   4.070   4.219   1.101
 3135SOL     OW10303   4.574   0.324   5.496
 3135SOL    HW110304   4.562   0.299   5.400
 3135SOL    HW210305   4.667   0.303   5.525
 3136SOL     OW10306   5.388   0.114   2.451
 3136SOL    HW110307   5.363   0.046   2.382
 3136SOL    HW210308   5.306   0.166   2.477
 3137SOL     OW10309   6.431   0.058   2.928
 3137SOL    HW110310   6.496   0.050   2.853
 3137SOL    HW210311   6.471   0.114   3.001
 3138SOL     OW10312   0.175   6.171   3.899
 3138SOL    HW110313   0.187   6.079   3.862
 3138SOL    HW210314   0.166   6.167   3.998
 3139SOL     OW10315   3.650   5.181   0.095
 3139SOL    HW110316   3.656   5.279   0.114
 3139SOL    HW210317   3.732   5.152   0.046
 3140SOL     OW10318   6.337   6.243   6.305
 3140SOL    HW110319   6.338   6.266   6.402
 3140SOL    HW210320   6.261   6.181   6.286
 3141SOL     OW10321   0.921   0.460   6.529
 3141SOL    HW110322   0.823   0.460   6.548
 3141SOL    HW210323   0.958   0.368   6.547
 3142SOL     OW10324   2.627   6.836   2.546
 3142SOL    HW110325   2.543   6.888   2.535
 3142SOL    HW210326   2.640   6.812   2.642
 3143SOL     OW10327   6.299   1.737   0.057
 3143SOL    HW110328   6.258   1.803   0.120
 3143SOL    HW210329   6.281   1.765   6.979
 3144SOL     OW10330   4.338   3.906   0.806
 3144SOL    HW110331   4.330   3.837   0.735
 3144SOL    HW210332   4.434   3.920   0.829
 3145SOL     OW10333   2.130   6.303   2.058
 3145SOL    HW110334   2.127   6.394   2.016
 3145SOL    HW210335   2.041   6.283   2.099
 3146SOL     OW10336   0.687   1.765   4.358
 3146SOL    HW110337   0.762   1.771   4.423
 3146SOL    HW210338   0.697   1.836   4.288
 3147SOL     OW10339   2.850   5.174   0.506
 3147SOL    HW110340   2.826   5.082   0.540
 3147SOL    HW210341   2.779   5.238   0.534
 3148SOL     OW10342   6.785   6.728   3.709
 3148SOL    HW110343   6.815   6.766   3.621
 3148SOL    HW210344   6.774   6.629   3.701
 3149SOL     OW10345   3.473   0.788   6.439
 3149SOL    HW110346   3.462   0.778   6.340
 3149SOL    HW210347   3.570   0.802   6.460
 3150SOL     OW10348   6.512   5.572   5.430
 3150SOL    HW110349   6.589   5.614   5.383
 3150SOL    HW210350   6.426   5.604   5.389
 3151SOL     OW10351   0.613   1.241   4.974
 3151SOL    HW110352   0.545   1.191   5.028
 3151SOL    HW210353   0.695   1.184   4.963
 3152SOL     OW10354   0.828   5.152   0.697
 3152SOL    HW110355   0.896   5.083   0.674
 3152SOL    HW210356   0.849   5.190   0.788
 3153SOL     OW10357   6.387   5.619   0.328
 3153SOL    HW110358   6.396   5.528   0.287
 3153SOL    HW210359   6.329   5.676   0.269
 3154SOL     OW10360   6.956   2.336   6.752
 3154SOL    HW110361   7.000   2.330   6.842
 3154SOL    HW210362   0.010   2.346   6.681
 3155SOL     OW10363   6.598   4.758   0.554
 3155SOL    HW110364   6.553   4.699   0.487
 3155SOL    HW210365   6.697   4.745   0.548
 3156SOL     OW10366   3.132   3.043   2.108
 3156SOL    HW110367   3.038   3.061   2.139
 3156SOL    HW210368   3.190   3.120   2.133
 3157SOL     OW10369   2.563   1.864   5.780
 3157SOL    HW110370   2.611   1.802   5.719
 3157SOL    HW210371   2.578   1.837   5.875
 3158SOL     OW10372   3.350   1.141   4.144
 3158SOL    HW110373   3.317   1.210   4.208
 3158SOL    HW210374   3.275   1.080   4.118
 3159SOL     OW10375   5.559   0.030   6.623
 3159SOL    HW110376   5.602   7.002   6.702
 3159SOL    HW210377   5.622   0.095   6.582
 3160SOL     OW10378   1.199   6.017   5.648
 3160SOL    HW110379   1.168   5.988   5.557
 3160SOL    HW210380   1.167   6.110   5.666
 3161SOL     OW10381   2.258   2.958   2.977
 3161SOL    HW110382   2.245   2.859   2.976
 3161SOL    HW210383   2.217   2.997   2.894
 3162SOL     OW10384   1.991   5.240   1.461
 3162SOL    HW110385   2.039   5.322   1.493
 3162SOL    HW210386   1.942   5.199   1.537
 3163SOL     OW10387   4.461   3.998   6.403
 3163SOL    HW110388   4.402   3.951   6.469
 3163SOL    HW210389   4.485   3.936   6.329
 3164SOL     OW10390   3.878   5.693   1.094
 3164SOL    HW110391   3.953   5.663   1.036
 3164SOL    HW210392   3.837   5.776   1.055
 3165SOL     OW10393   1.193   6.872   1.724
 3165SOL    HW110394   1.255   6.810   1.676
 3165SOL    HW210395   1.107   6.825   1.742
 3166SOL     OW10396   4.188   1.962   3.517
 3166SOL    HW110397   4.149   2.046   3.480
 3166SOL    HW210398   4.243   1.984   3.598
 3167SOL     OW10399   5.799   4.217   1.024
 3167SOL    HW110400   5.746   4.155   0.967
 3167SOL    HW210401   5.859   4.272   0.967
 3168SOL     OW10402   5.244   2.480   0.193
 3168SOL    HW110403   5.336   2.517   0.183
 3168SOL    HW210404   5.190   2.505   0.112
 3169SOL     OW10405   2.481   4.530   4.275
 3169SOL    HW110406   2.451   4.442   4.311
 3169SOL    HW210407   2.435   4.604   4.325
 3170SOL     OW10408   3.861   6.050   1.607
 3170SOL    HW110409   3.863   6.082   1.702
 3170SOL    HW210410   3.780   6.086   1.561
 3171SOL     OW10411   6.879   1.243   2.199
 3171SOL    HW110412   6.898   1.175   2.128
 3171SOL    HW210413   6.951   1.312   2.199
 3172SOL     OW10414   0.075   5.943   0.182
 3172SOL    HW110415   0.031   5.924   0.095
 3172SOL    HW210416   0.069   6.041   0.203
 3173SOL     OW10417   3.482   2.771   0.134
 3173SOL    HW110418   3.456   2.742   0.226
 3173SOL    HW210419   3.403   2.768   0.074
 3174SOL     OW10420   3.134   2.661   0.595
 3174SOL    HW110421   3.082   2.585   0.634
 3174SOL    HW210422   3.084   2.699   0.518
 3175SOL     OW10423   5.914   0.854   1.728
 3175SOL    HW110424   5.974   0.835   1.650
 3175SOL    HW210425   5.956   0.922   1.787
 3176SOL     OW10426   1.106   4.103   5.602
 3176SOL    HW110427   1.156   4.047   5.668
 3176SOL    HW210428   1.156   4.103   5.515
 3177SOL     OW10429   4.511   4.411   3.530
 3177SOL    HW110430   4.530   4.318   3.497
 3177SOL    HW210431   4.414   4.432   3.516
 3178SOL     OW10432   6.684   2.192   0.941
 3178SOL    HW110433   6.626   2.126   0.894
 3178SOL    HW210434   6.637   2.281   0.944
 3179SOL     OW10435   1.082   2.296   1.916
 3179SOL    HW110436   1.009   2.312   1.982
 3179SOL    HW210437   1.071   2.206   1.875
 3180SOL     OW10438   5.881   0.584   0.230
 3180SOL    HW110439   5.940   0.562   0.308
 3180SOL    HW210440   5.787   0.558   0.250
 3181SOL     OW10441   6.749   1.825   2.745
 3181SOL    HW110442   6.790   1.911   2.776
 3181SOL    HW210443   6.652   1.839   2.726
 3182SOL     OW10444   2.499   0.269   6.773
 3182SOL    HW110445   2.472   0.254   6.678
 3182SOL    HW210446   2.421   0.253   6.833
 3183SOL     OW10447   4.786   4.254   1.950
 3183SOL    HW110448   4.836   4.339   1.969
 3183SOL    HW210449   4.688   4.273   1.949
 3184SOL     OW10450   0.774   2.924   2.720
 3184SOL    HW110451   0.818   3.007   2.687
 3184SOL    HW210452   0.841   2.869   2.771
 3185SOL     OW10453   4.980   5.612   6.779
 3185SOL    HW110454   4.920   5.689   6.801
 3185SOL    HW210455   5.049   5.641   6.713
 3186SOL     OW10456   3.280   2.016   1.062
 3186SOL    HW110457   3.298   2.113   1.080
 3186SOL    HW210458   3.289   1.964   1.147
 3187SOL     OW10459   4.682   5.277   0.298
 3187SOL    HW110460   4.654   5.185   0.325
 3187SOL    HW210461   4.711   5.328   0.379
 3188SOL     OW10462   1.168   7.016   4.369
 3188SOL    HW110463   1.260   0.035   4.349
 3188SOL    HW210464   1.137   6.959   4.293
 3189SOL     OW10465   1.160   1.911   1.190
 3189SOL    HW110466   1.128   1.949   1.103
 3189SOL    HW210467   1.260   1.906   1.189
 3190SOL     OW10468   0.645   5.358   0.297
 3190SOL    HW110469   0.689   5.384   0.383
 3190SOL    HW210470   0.613   5.264   0.303
 3191SOL     OW10471   5.072   5.600   0.853
 3191SOL    HW110472   5.033   5.517   0.815
 3191SOL    HW210473   5.172   5.599   0.841
 3192SOL     OW10474   0.081   3.208   1.477
 3192SOL    HW110475   0.015   3.215   1.402
 3192SOL    HW210476   0.155   3.274   1.464
 3193SOL     OW10477   4.562   0.914   6.570
 3193SOL    HW110478   4.619   0.941   6.493
 3193SOL    HW210479   4.501   0.840   6.541
 3194SOL     OW10480   1.134   1.844   6.683
 3194SOL    HW110481   1.105   1.809   6.594
 3194SOL    HW210482   1.110   1.941   6.688
 3195SOL     OW10483   2.356   1.217   3.465
 3195SOL    HW110484   2.299   1.290   3.503
 3195SOL    HW210485   2.389   1.158   3.539
 3196SOL     OW10486   0.428   0.791   6.766
 3196SOL    HW110487   0.339   0.815   6.726
 3196SOL    HW210488   0.491   0.868   6.754
 3197SOL     OW10489   3.243   6.610   4.286
 3197SOL    HW110490   3.193   6.693   4.261
 3197SOL    HW210491   3.252   6.551   4.206
 3198SOL     OW10492   6.119   3.192   3.679
 3198SOL    HW110493   6.147   3.178   3.774
 3198SOL    HW210494   6.041   3.132   3.659
 3199SOL     OW10495   5.034   4.119   2.907
 3199SOL    HW110496   5.093   4.196   2.931
 3199SOL    HW210497   5.049   4.094   2.811
 3200SOL     OW10498   5.827   3.380   2.960
 3200SOL    HW110499   5.916   3.345   2.932
 3200SOL    HW210500   5.810   3.469   2.916
 3201SOL     OW10501   6.519   4.585   4.155
 3201SOL    HW110502   6.431   4.631   4.142
 3201SOL    HW210503   6.566   4.579   4.067
 3202SOL     OW10504   1.409   4.498   1.670
 3202SOL    HW110505   1.369   4.579   1.627
 3202SOL    HW210506   1.378   4.492   1.765
 3203SOL     OW10507   6.374   2.388   0.507
 3203SOL    HW110508   6.379   2.435   0.595
 3203SOL    HW210509   6.349   2.292   0.522
 3204SOL     OW10510   4.761   6.108   3.050
 3204SOL    HW110511   4.825   6.094   3.126
 3204SOL    HW210512   4.677   6.057   3.067
 3205SOL     OW10513   5.227   2.496   5.728
 3205SOL    HW110514   5.234   2.495   5.828
 3205SOL    HW210515   5.310   2.535   5.689
 3206SOL     OW10516   2.044   4.780   0.039
 3206SOL    HW110517   2.046   4.717   0.117
 3206SOL    HW210518   2.111   4.751   6.987
 3207SOL     OW10519   0.959   1.011   6.008
 3207SOL    HW110520   1.010   0.927   6.024
 3207SOL    HW210521   0.991   1.054   5.924
 3208SOL     OW10522   4.568   6.463   5.917
 3208SOL    HW110523   4.577   6.370   5.955
 3208SOL    HW210524   4.471   6.484   5.904
 3209SOL     OW10525   4.170   5.234   3.758
 3209SOL    HW110526   4.267   5.221   3.776
 3209SOL    HW210527   4.155   5.252   3.661
 3210SOL     OW10528   1.021   4.219   0.474
 3210SOL    HW110529   1.087   4.253   0.541
 3210SOL    HW210530   0.991   4.295   0.416
 3211SOL     OW10531   1.652   3.621   0.605
 3211SOL    HW110532   1.707   3.635   0.687
 3211SOL    HW210533   1.631   3.524   0.595
 3212SOL     OW10534   3.198   0.040   1.462
 3212SOL    HW110535   3.151   6.992   1.523
 3212SOL    HW210536   3.296   0.024   1.466
 3213SOL     OW10537   1.303   0.191   0.543
 3213SOL    HW110538   1.300   0.281   0.586
 3213SOL    HW210539   1.314   0.202   0.444
 3214SOL     OW10540   4.277   5.476   0.796
 3214SOL    HW110541   4.265   5.394   0.740
 3214SOL    HW210542   4.348   5.459   0.864
 3215SOL     OW10543   0.420   3.633   1.149
 3215SOL    HW110544   0.486   3.596   1.215
 3215SOL    HW210545   0.396   3.561   1.084
 3216SOL     OW10546   6.412   5.548   6.533
 3216SOL    HW110547   6.398   5.500   6.619
 3216SOL    HW210548   6.325   5.587   6.502
 3217SOL     OW10549   0.091   5.279   2.123
 3217SOL    HW110550   0.141   5.307   2.205
 3217SOL    HW210551   0.153   5.227   2.063
 3218SOL     OW10552   4.768   2.638   3.719
 3218SOL    HW110553   4.809   2.548   3.707
 3218SOL    HW210554   4.834   2.699   3.762
 3219SOL     OW10555   0.633   1.963   3.547
 3219SOL    HW110556   0.644   1.994   3.453
 3219SOL    HW210557   0.613   2.042   3.606
 3220SOL     OW10558   7.015   5.543   6.413
 3220SOL    HW110559   0.070   5.539   6.342
 3220SOL    HW210560   6.993   5.639   6.432
 3221SOL     OW10561   4.379   0.406   1.665
 3221SOL    HW110562   4.295   0.438   1.621
 3221SOL    HW210563   4.439   0.365   1.596
 3222SOL     OW10564   3.233   0.883   3.032
 3222SOL    HW110565   3.300   0.944   3.073
 3222SOL    HW210566   3.186   0.932   2.958
 3223SOL     OW10567   2.303   6.706   6.427
 3223SOL    HW110568   2.311   6.732   6.331
 3223SOL    HW210569   2.327   6.609   6.437
 3224SOL     OW10570   4.887   3.744   6.180
 3224SOL    HW110571   4.858   3.822   6.125
 3224SOL    HW210572   4.846   3.660   6.144
 3225SOL     OW10573   5.124   2.779   5.774
 3225SOL    HW110574   5.197   2.837   5.737
 3225SOL    HW210575   5.147   2.683   5.760
 3226SOL     OW10576   2.785   1.655   2.740
 3226SOL    HW110577   2.845   1.578   2.761
 3226SOL    HW210578   2.691   1.622   2.729
 3227SOL     OW10579   3.279   2.720   6.953
 3227SOL    HW110580   3.187   2.707   6.916
 3227SOL    HW210581   3.324   2.796   6.905
 3228SOL     OW10582   0.128   4.071   1.539
 3228SOL    HW110583   0.199   4.110   1.597
 3228SOL    HW210584   0.160   3.985   1.500
 3229SOL     OW10585   3.979   0.474   4.734
 3229SOL    HW110586   3.936   0.494   4.646
 3229SOL    HW210587   4.030   0.388   4.729
 3230SOL     OW10588   2.753   4.084   5.547
 3230SOL    HW110589   2.846   4.107   5.518
 3230SOL    HW210590   2.693   4.081   5.467
 3231SOL     OW10591   2.705   6.842   1.098
 3231SOL    HW110592   2.676   6.921   1.152
 3231SOL    HW210593   2.802   6.851   1.076
 3232SOL     OW10594   5.047   6.572   4.617
 3232SOL    HW110595   5.041   6.642   4.688
 3232SOL    HW210596   4.955   6.541   4.592
 3233SOL     OW10597   0.565   2.706   1.314
 3233SOL    HW110598   0.592   2.616   1.348
 3233SOL    HW210599   0.537   2.764   1.390
 3234SOL     OW10600   0.387   2.394   6.904
 3234SOL    HW110601   0.337   2.314   6.870
 3234SOL    HW210602   0.352   2.420   6.993
 3235SOL     OW10603   6.283   0.722   2.680
 3235SOL    HW110604   6.245   0.723   2.773
 3235SOL    HW210605   6.377   0.689   2.683
 3236SOL     OW10606   1.677   2.974   0.708
 3236SOL    HW110607   1.716   2.908   0.772
 3236SOL    HW210608   1.733   2.978   0.625
 3237SOL     OW10609   5.362   1.279   3.520
 3237SOL    HW110610   5.293   1.281   3.592
 3237SOL    HW210611   5.381   1.372   3.489
 3238SOL     OW10612   0.225   5.284   0.647
 3238SOL    HW110613   0.244   5.206   0.588
 3238SOL    HW210614   0.156   5.343   0.604
 3239SOL     OW10615   6.818   1.602   1.969
 3239SOL    HW110616   6.802   1.504   1.955
 3239SOL    HW210617   6.910   1.616   2.005
 3240SOL     OW10618   6.812   6.631   6.208
 3240SOL    HW110619   6.894   6.668   6.164
 3240SOL    HW210620   6.809   6.662   6.303
 3241SOL     OW10621   4.708   1.057   4.603
 3241SOL    HW110622   4.731   1.106   4.687
 3241SOL    HW210623   4.712   0.958   4.620
 3242SOL     OW10624   4.449   3.862   0.004
 3242SOL    HW110625   4.403   3.882   6.934
 3242SOL    HW210626   4.384   3.821   0.068
 3243SOL     OW10627   4.337   4.573   0.424
 3243SOL    HW110628   4.273   4.500   0.400
 3243SOL    HW210629   4.425   4.556   0.380
 3244SOL     OW10630   4.506   5.868   0.094
 3244SOL    HW110631   4.521   5.962   0.127
 3244SOL    HW210632   4.410   5.857   0.067
 3245SOL     OW10633   5.453   3.488   4.676
 3245SOL    HW110634   5.423   3.567   4.623
 3245SOL    HW210635   5.552   3.491   4.688
 3246SOL     OW10636   5.544   0.448   2.709
 3246SOL    HW110637   5.611   0.519   2.730
 3246SOL    HW210638   5.563   0.411   2.617
 3247SOL     OW10639   6.618   4.339   2.444
 3247SOL    HW110640   6.543   4.335   2.511
 3247SOL    HW210641   6.642   4.434   2.426
 3248SOL     OW10642   5.858   3.541   1.562
 3248SOL    HW110643   5.945   3.578   1.594
 3248SOL    HW210644   5.843   3.452   1.605
 3249SOL     OW10645   3.843   3.889   4.155
 3249SOL    HW110646   3.814   3.977   4.119
 3249SOL    HW210647   3.814   3.816   4.093
 3250SOL     OW10648   5.693   6.946   2.237
 3250SOL    HW110649   5.650   6.868   2.193
 3250SOL    HW210650   5.721   6.922   2.329
 3251SOL     OW10651   2.922   1.097   3.870
 3251SOL    HW110652   2.856   1.025   3.849
 3251SOL    HW210653   2.894   1.145   3.953
 3252SOL     OW10654   2.390   0.990   2.738
 3252SOL    HW110655   2.377   1.064   2.805
 3252SOL    HW210656   2.338   0.910   2.767
 3253SOL     OW10657   4.605   4.295   1.664
 3253SOL    HW110658   4.522   4.281   1.719
 3253SOL    HW210659   4.620   4.215   1.606
 3254SOL     OW10660   5.612   6.226   5.666
 3254SOL    HW110661   5.707   6.201   5.649
 3254SOL    HW210662   5.562   6.145   5.698
 3255SOL     OW10663   5.198   6.337   0.411
 3255SOL    HW110664   5.181   6.354   0.508
 3255SOL    HW210665   5.226   6.241   0.399
 3256SOL     OW10666   3.242   1.062   0.501
 3256SOL    HW110667   3.232   1.158   0.525
 3256SOL    HW210668   3.329   1.047   0.454
 3257SOL     OW10669   1.388   1.750   2.028
 3257SOL    HW110670   1.337   1.690   2.090
 3257SOL    HW210671   1.481   1.761   2.062
 3258SOL     OW10672   4.897   5.567   2.469
 3258SOL    HW110673   4.861   5.639   2.529
 3258SOL    HW210674   4.910   5.603   2.377
 3259SOL     OW10675   4.877   5.131   4.677
 3259SOL    HW110676   4.856   5.076   4.596
 3259SOL    HW210677   4.815   5.106   4.751
 3260SOL     OW10678   1.097   2.024   0.938
 3260SOL    HW110679   1.155   2.104   0.956
 3260SOL    HW210680   1.128   1.978   0.855
 3261SOL     OW10681   5.631   0.353   1.800
 3261SOL    HW110682   5.660   0.445   1.775
 3261SOL    HW210683   5.630   0.343   1.899
 3262SOL     OW10684   3.245   2.135   2.468
 3262SOL    HW110685   3.187   2.154   2.548
 3262SOL    HW210686   3.187   2.124   2.388
 3263SOL     OW10687   2.420   1.170   3.118
 3263SOL    HW110688   2.510   1.129   3.102
 3263SOL    HW210689   2.377   1.126   3.197
 3264SOL     OW10690   1.269   4.429   0.711
 3264SOL    HW110691   1.187   4.400   0.761
 3264SOL    HW210692   1.350   4.417   0.768
 3265SOL     OW10693   5.446   0.747   6.610
 3265SOL    HW110694   5.431   0.846   6.603
 3265SOL    HW210695   5.398   0.701   6.536
 3266SOL     OW10696   1.704   4.176   0.094
 3266SOL    HW110697   1.759   4.119   0.154
 3266SOL    HW210698   1.662   4.250   0.148
 3267SOL     OW10699   3.397   6.499   1.256
 3267SOL    HW110700   3.366   6.420   1.310
 3267SOL    HW210701   3.355   6.495   1.165
 3268SOL     OW10702   1.559   3.735   1.746
 3268SOL    HW110703   1.460   3.732   1.753
 3268SOL    HW210704   1.589   3.830   1.737
 3269SOL     OW10705   4.829   5.458   2.078
 3269SOL    HW110706   4.906   5.446   2.016
 3269SOL    HW210707   4.749   5.410   2.041
 3270SOL     OW10708   1.395   4.318   5.974
 3270SOL    HW110709   1.298   4.305   5.950
 3270SOL    HW210710   1.436   4.386   5.913
 3271SOL     OW10711   5.720   3.788   2.368
 3271SOL    HW110712   5.704   3.725   2.291
 3271SOL    HW210713   5.653   3.770   2.440
 3272SOL     OW10714   3.292   4.615   6.104
 3272SOL    HW110715   3.267   4.626   6.200
 3272SOL    HW210716   3.237   4.677   6.048
 3273SOL     OW10717   6.999   5.994   0.770
 3273SOL    HW110718   6.912   6.043   0.778
 3273SOL    HW210719   7.003   5.921   0.838
 3274SOL     OW10720   5.225   1.075   0.598
 3274SOL    HW110721   5.180   1.164   0.599
 3274SOL    HW210722   5.237   1.045   0.503
 3275SOL     OW10723   5.806   1.415   6.731
 3275SOL    HW110724   5.850   1.339   6.780
 3275SOL    HW210725   5.790   1.490   6.795
 3276SOL     OW10726   2.844   5.846   6.761
 3276SOL    HW110727   2.795   5.901   6.693
 3276SOL    HW210728   2.796   5.851   6.849
 3277SOL     OW10729   3.779   6.903   7.000
 3277SOL    HW110730   3.813   6.821   0.031
 3277SOL    HW210731   3.788   6.890   6.901
 3278SOL     OW10732   0.564   1.017   5.479
 3278SOL    HW110733   0.656   1.040   5.448
 3278SOL    HW210734   0.559   0.918   5.497
 3279SOL     OW10735   5.079   0.088   0.632
 3279SOL    HW110736   5.025   0.067   0.551
 3279SOL    HW210737   5.037   0.165   0.681
 3280SOL     OW10738   4.087   4.797   4.065
 3280SOL    HW110739   4.003   4.749   4.041
 3280SOL    HW210740   4.159   4.731   4.087
 3281SOL     OW10741   1.987   5.154   1.901
 3281SOL    HW110742   2.009   5.062   1.934
 3281SOL    HW210743   1.887   5.165   1.899
 3282SOL     OW10744   6.953   5.034   5.541
 3282SOL    HW110745   0.013   5.092   5.570
 3282SOL    HW210746   6.877   5.045   5.606
 3283SOL     OW10747   3.689   0.310   0.844
 3283SOL    HW110748   3.703   0.339   0.939
 3283SOL    HW210749   3.679   0.391   0.786
 3284SOL     OW10750   0.126   4.861   0.018
 3284SOL    HW110751   0.134   4.764   7.011
 3284SOL    HW210752   0.086   4.870   0.110
 3285SOL     OW10753   4.248   2.282   3.392
 3285SOL    HW110754   4.318   2.214   3.410
 3285SOL    HW210755   4.268   2.329   3.306
 3286SOL     OW10756   3.246   2.930   2.381
 3286SOL    HW110757   3.168   2.884   2.339
 3286SOL    HW210758   3.318   2.941   2.313
 3287SOL     OW10759   0.603   0.359   6.916
 3287SOL    HW110760   0.614   0.344   7.014
 3287SOL    HW210761   0.596   0.457   6.899
 3288SOL     OW10762   0.683   5.639   6.119
 3288SOL    HW110763   0.778   5.626   6.148
 3288SOL    HW210764   0.675   5.618   6.021
 3289SOL     OW10765   2.525   0.275   5.362
 3289SOL    HW110766   2.448   0.313   5.413
 3289SOL    HW210767   2.492   0.203   5.301
 3290SOL     OW10768   0.169   6.479   1.310
 3290SOL    HW110769   0.261   6.470   1.348
 3290SOL    HW210770   0.161   6.566   1.261
 3291SOL     OW10771   1.817   0.158   0.232
 3291SOL    HW110772   1.762   0.145   0.314
 3291SOL    HW210773   1.766   0.126   0.152
 3292SOL     OW10774   0.234   1.310   0.378
 3292SOL    HW110775   0.254   1.392   0.432
 3292SOL    HW210776   0.254   1.229   0.433
 3293SOL     OW10777   0.429   3.859   1.862
 3293SOL    HW110778   0.465   3.782   1.916
 3293SOL    HW210779   0.494   3.881   1.789
 3294SOL     OW10780   5.991   2.112   6.380
 3294SOL    HW110781   5.956   2.117   6.287
 3294SOL    HW210782   5.936   2.049   6.433
 3295SOL     OW10783   1.347   2.386   1.930
 3295SOL    HW110784   1.250   2.363   1.939
 3295SOL    HW210785   1.379   2.363   1.838
 3296SOL     OW10786   1.146   6.777   2.859
 3296SOL    HW110787   1.055   6.797   2.824
 3296SOL    HW210788   1.180   6.856   2.910
 3297SOL     OW10789   3.184   0.955   5.492
 3297SOL    HW110790   3.227   0.875   5.450
 3297SOL    HW210791   3.254   1.017   5.527
 3298SOL     OW10792   5.906   1.827   5.260
 3298SOL    HW110793   5.835   1.875   5.311
 3298SOL    HW210794   5.864   1.757   5.202
 3299SOL     OW10795   3.290   5.679   3.163
 3299SOL    HW110796   3.269   5.757   3.222
 3299SOL    HW210797   3.224   5.605   3.180
 3300SOL     OW10798   6.594   0.994   5.037
 3300SOL    HW110799   6.517   1.021   5.096
 3300SOL    HW210800   6.666   1.063   5.043
 3301SOL     OW10801   1.674   3.252   2.985
 3301SOL    HW110802   1.628   3.204   3.060
 3301SOL    HW210803   1.613   3.323   2.948
 3302SOL     OW10804   0.916   4.670   5.676
 3302SOL    HW110805   0.835   4.644   5.728
 3302SOL    HW210806   0.917   4.622   5.588
 3303SOL     OW10807   3.633   4.063   1.001
 3303SOL    HW110808   3.681   4.007   1.069
 3303SOL    HW210809   3.548   4.018   0.975
 3304SOL     OW10810   1.122   5.628   4.300
 3304SOL    HW110811   1.125   5.728   4.294
 3304SOL    HW210812   1.216   5.592   4.302
 3305SOL     OW10813   2.029   1.047   2.454
 3305SOL    HW110814   2.060   0.953   2.468
 3305SOL    HW210815   2.021   1.065   2.356
 3306SOL     OW10816   2.389   5.311   5.255
 3306SOL    HW110817   2.424   5.362   5.177
 3306SOL    HW210818   2.292   5.290   5.241
 3307SOL     OW10819   0.212   5.544   6.808
 3307SOL    HW110820   0.231   5.450   6.838
 3307SOL    HW210821   0.115   5.564   6.819
 3308SOL     OW10822   2.660   6.201   0.796
 3308SOL    HW110823   2.649   6.176   0.700
 3308SOL    HW210824   2.570   6.206   0.840
 3309SOL     OW10825   0.031   5.705   3.332
 3309SOL    HW110826   7.011   5.616   3.305
 3309SOL    HW210827   0.046   5.707   3.431
 3310SOL     OW10828   0.214   3.356   6.471
 3310SOL    HW110829   0.156   3.338   6.551
 3310SOL    HW210830   0.158   3.392   6.397
 3311SOL     OW10831   2.697   3.961   1.255
 3311SOL    HW110832   2.737   3.967   1.164
 3311SOL    HW210833   2.687   3.865   1.280
 3312SOL     OW10834   4.236   4.883   5.976
 3312SOL    HW110835   4.252   4.851   5.882
 3312SOL    HW210836   4.312   4.854   6.034
 3313SOL     OW10837   0.918   5.873   3.627
 3313SOL    HW110838   0.822   5.847   3.638
 3313SOL    HW210839   0.977   5.796   3.653
 3314SOL     OW10840   2.951   1.458   2.795
 3314SOL    HW110841   2.980   1.394   2.865
 3314SOL    HW210842   3.026   1.474   2.731
 3315SOL     OW10843   6.439   4.039   4.097
 3315SOL    HW110844   6.455   4.135   4.119
 3315SOL    HW210845   6.526   3.994   4.079
 3316SOL     OW10846   4.778   1.399   5.707
 3316SOL    HW110847   4.681   1.375   5.709
 3316SOL    HW210848   4.833   1.318   5.728
 3317SOL     OW10849   4.344   3.227   1.728
 3317SOL    HW110850   4.309   3.276   1.808
 3317SOL    HW210851   4.438   3.257   1.709
 3318SOL     OW10852   2.038   1.406   0.976
 3318SOL    HW110853   2.130   1.380   0.947
 3318SOL    HW210854   2.041   1.443   1.069
 3319SOL     OW10855   6.574   1.364   4.153
 3319SOL    HW110856   6.664   1.362   4.198
 3319SOL    HW210857   6.571   1.439   4.087
 3320SOL     OW10858   6.680   0.674   4.854
 3320SOL    HW110859   6.689   0.719   4.765
 3320SOL    HW210860   6.584   0.661   4.875
 3321SOL     OW10861   5.157   1.591   0.188
 3321SOL    HW110862   5.116   1.522   0.248
 3321SOL    HW210863   5.233   1.635   0.235
 3322SOL     OW10864   6.405   2.988   1.474
 3322SOL    HW110865   6.500   3.020   1.475
 3322SOL    HW210866   6.374   2.979   1.379
 3323SOL     OW10867   3.029   2.726   0.335
 3323SOL    HW110868   2.933   2.701   0.321
 3323SOL    HW210869   3.087   2.650   0.308
 3324SOL     OW10870   3.906   5.295   6.871
 3324SOL    HW110871   3.922   5.365   6.801
 3324SOL    HW210872   3.815   5.255   6.857
 3325SOL     OW10873   1.012   3.241   0.201
 3325SOL    HW110874   0.959   3.161   0.226
 3325SOL    HW210875   1.000   3.260   0.104
 3326SOL     OW10876   4.837   1.977   1.448
 3326SOL    HW110877   4.743   1.975   1.414
 3326SOL    HW210878   4.840   1.931   1.537
 3327SOL     OW10879   2.948   5.717   1.584
 3327SOL    HW110880   2.894   5.649   1.634
 3327SOL    HW210881   2.892   5.755   1.510
 3328SOL     OW10882   4.565   2.087   0.752
 3328SOL    HW110883   4.549   1.996   0.714
 3328SOL    HW210884   4.531   2.156   0.688
 3329SOL     OW10885   4.925   0.364   4.908
 3329SOL    HW110886   4.865   0.394   4.982
 3329SOL    HW210887   4.869   0.320   4.837
 3330SOL     OW10888   6.371   4.949   1.037
 3330SOL    HW110889   6.375   5.045   1.010
 3330SOL    HW210890   6.393   4.941   1.135
 3331SOL     OW10891   2.348   2.633   1.578
 3331SOL    HW110892   2.444   2.648   1.599
 3331SOL    HW210893   2.323   2.685   1.497
 3332SOL     OW10894   5.889   5.304   6.817
 3332SOL    HW110895   5.819   5.318   6.747
 3332SOL    HW210896   5.955   5.235   6.785
 3333SOL     OW10897   4.217   4.313   6.380
 3333SOL    HW110898   4.185   4.351   6.293
 3333SOL    HW210899   4.310   4.278   6.368
 3334SOL     OW10900   2.955   3.852   1.639
 3334SOL    HW110901   3.010   3.933   1.656
 3334SOL    HW210902   3.007   3.770   1.665
 3335SOL     OW10903   5.302   0.241   5.471
 3335SOL    HW110904   5.306   0.274   5.565
 3335SOL    HW210905   5.224   0.179   5.461
 3336SOL     OW10906   2.433   6.301   4.942
 3336SOL    HW110907   2.365   6.232   4.968
 3336SOL    HW210908   2.426   6.319   4.844
 3337SOL     OW10909   3.304   4.079   2.446
 3337SOL    HW110910   3.326   4.122   2.359
 3337SOL    HW210911   3.279   3.984   2.431
 3338SOL     OW10912   5.480   3.213   2.136
 3338SOL    HW110913   5.511   3.206   2.042
 3338SOL    HW210914   5.380   3.226   2.137
 3339SOL     OW10915   6.811   0.270   6.738
 3339SOL    HW110916   6.779   0.224   6.656
 3339SOL    HW210917   6.835   0.201   6.807
 3340SOL     OW10918   3.746   1.645   2.474
 3340SOL    HW110919   3.765   1.659   2.571
 3340SOL    HW210920   3.745   1.733   2.426
 3341SOL     OW10921   1.305   5.324   3.545
 3341SOL    HW110922   1.281   5.344   3.450
 3341SOL    HW210923   1.343   5.407   3.588
 3342SOL     OW10924   2.221   0.140   4.159
 3342SOL    HW110925   2.182   0.049   4.144
 3342SOL    HW210926   2.151   0.201   4.196
 3343SOL     OW10927   5.777   3.360   0.714
 3343SOL    HW110928   5.764   3.452   0.678
 3343SOL    HW210929   5.727   3.294   0.657
 3344SOL     OW10930   5.333   2.937   4.147
 3344SOL    HW110931   5.414   2.991   4.125
 3344SOL    HW210932   5.253   2.996   4.149
 3345SOL     OW10933   1.629   3.595   5.736
 3345SOL    HW110934   1.692   3.638   5.799
 3345SOL    HW210935   1.604   3.660   5.664
 3346SOL     OW10936   1.571   0.795   1.161
 3346SOL    HW110937   1.631   0.875   1.172
 3346SOL    HW210938   1.578   0.762   1.066
 3347SOL     OW10939   0.778   3.599   5.049
 3347SOL    HW110940   0.691   3.596   5.001
 3347SOL    HW210941   0.852   3.610   4.983
 3348SOL     OW10942   3.169   3.479   3.995
 3348SOL    HW110943   3.193   3.510   3.903
 3348SOL    HW210944   3.250   3.484   4.054
 3349SOL     OW10945   1.070   5.823   2.728
 3349SOL    HW110946   1.129   5.897   2.697
 3349SOL    HW210947   1.050   5.834   2.825
 3350SOL     OW10948   0.772   2.472   5.841
 3350SOL    HW110949   0.809   2.565   5.844
 3350SOL    HW210950   0.823   2.418   5.774
 3351SOL     OW10951   4.937   1.122   2.040
 3351SOL    HW110952   4.967   1.189   1.972
 3351SOL    HW210953   5.017   1.074   2.077
 3352SOL     OW10954   6.706   2.270   0.411
 3352SOL    HW110955   6.701   2.255   0.313
 3352SOL    HW210956   6.627   2.229   0.456
 3353SOL     OW10957   1.743   5.644   1.809
 3353SOL    HW110958   1.706   5.554   1.832
 3353SOL    HW210959   1.838   5.634   1.778
 3354SOL     OW10960   4.805   2.737   5.335
 3354SOL    HW110961   4.808   2.790   5.250
 3354SOL    HW210962   4.895   2.698   5.353
 3355SOL     OW10963   2.312   1.639   0.202
 3355SOL    HW110964   2.313   1.736   0.227
 3355SOL    HW210965   2.297   1.583   0.284
 3356SOL     OW10966   1.108   4.346   5.945
 3356SOL    HW110967   1.052   4.263   5.948
 3356SOL    HW210968   1.152   4.352   5.855
 3357SOL     OW10969   2.527   4.531   1.939
 3357SOL    HW110970   2.501   4.442   1.902
 3357SOL    HW210971   2.626   4.543   1.931
 3358SOL     OW10972   4.641   1.287   0.915
 3358SOL    HW110973   4.699   1.267   0.994
 3358SOL    HW210974   4.566   1.346   0.943
 3359SOL     OW10975   0.126   0.331   3.173
 3359SOL    HW110976   0.189   0.398   3.214
 3359SOL    HW210977   0.153   0.239   3.202
 3360SOL     OW10978   0.403   1.441   0.050
 3360SOL    HW110979   0.416   1.523   7.009
 3360SOL    HW210980   0.470   1.441   0.124
 3361SOL     OW10981   1.017   4.436   4.040
 3361SOL    HW110982   1.080   4.469   3.970
 3361SOL    HW210983   1.010   4.504   4.114
 3362SOL     OW10984   3.584   1.259   3.201
 3362SOL    HW110985   3.658   1.192   3.213
 3362SOL    HW210986   3.593   1.302   3.111
 3363SOL     OW10987   6.525   6.713   1.717
 3363SOL    HW110988   6.457   6.679   1.651
 3363SOL    HW210989   6.554   6.805   1.691
 3364SOL     OW10990   1.416   4.687   3.965
 3364SOL    HW110991   1.389   4.753   4.035
 3364SOL    HW210992   1.336   4.662   3.911
 3365SOL     OW10993   6.852   1.932   5.256
 3365SOL    HW110994   6.912   1.857   5.228
 3365SOL    HW210995   6.795   1.961   5.179
 3366SOL     OW10996   5.641   6.268   4.886
 3366SOL    HW110997   5.651   6.284   4.984
 3366SOL    HW210998   5.715   6.209   4.853
 3367SOL     OW10999   3.702   2.699   1.649
 3367SOL    HW111000   3.622   2.760   1.645
 3367SOL    HW211001   3.783   2.753   1.672
 3368SOL     OW11002   0.259   4.801   5.743
 3368SOL    HW111003   0.350   4.835   5.764
 3368SOL    HW211004   0.254   4.772   5.648
 3369SOL     OW11005   3.624   2.691   6.008
 3369SOL    HW111006   3.589   2.704   6.101
 3369SOL    HW211007   3.588   2.764   5.949
 3370SOL     OW11008   6.994   5.806   6.508
 3370SOL    HW111009   6.930   5.867   6.553
 3370SOL    HW211010   0.068   5.850   6.501
 3371SOL     OW11011   2.069   2.918   2.104
 3371SOL    HW111012   2.082   3.017   2.093
 3371SOL    HW211013   2.034   2.880   2.018
 3372SOL     OW11014   0.718   1.958   0.690
 3372SOL    HW111015   0.624   1.964   0.655
 3372SOL    HW211016   0.758   1.870   0.665
 3373SOL     OW11017   6.972   1.504   3.003
 3373SOL    HW111018   6.990   1.419   2.953
 3373SOL    HW211019   6.975   1.581   2.940
 3374SOL     OW11020   1.446   6.152   4.508
 3374SOL    HW111021   1.490   6.235   4.541
 3374SOL    HW211022   1.380   6.121   4.576
 3375SOL     OW11023   6.677   5.762   6.417
 3375SOL    HW111024   6.592   5.813   6.422
 3375SOL    HW211025   6.668   5.677   6.469
 3376SOL     OW11026   3.938   2.984   3.308
 3376SOL    HW111027   3.939   3.074   3.263
 3376SOL    HW211028   4.029   2.943   3.303
 3377SOL     OW11029   6.635   6.257   5.814
 3377SOL    HW111030   6.730   6.230   5.798
 3377SOL    HW211031   6.628   6.302   5.903
 3378SOL     OW11032   0.245   1.057   0.551
 3378SOL    HW111033   0.152   1.087   0.571
 3378SOL    HW211034   0.287   1.020   0.634
 3379SOL     OW11035   6.783   6.781   6.433
 3379SOL    HW111036   6.696   6.829   6.437
 3379SOL    HW211037   6.853   6.834   6.482
 3380SOL     OW11038   5.863   6.865   5.121
 3380SOL    HW111039   5.962   6.861   5.112
 3380SOL    HW211040   5.829   6.951   5.084
 3381SOL     OW11041   0.950   2.589   1.250
 3381SOL    HW111042   0.927   2.506   1.302
 3381SOL    HW211043   0.976   2.662   1.314
 3382SOL     OW11044   0.391   2.424   0.591
 3382SOL    HW111045   0.333   2.347   0.616
 3382SOL    HW211046   0.486   2.404   0.616
 3383SOL     OW11047   4.667   5.931   1.701
 3383SOL    HW111048   4.618   5.953   1.617
 3383SOL    HW211049   4.605   5.936   1.779
 3384SOL     OW11050   3.120   3.374   6.022
 3384SOL    HW111051   3.202   3.327   6.053
 3384SOL    HW211052   3.104   3.355   5.925
 3385SOL     OW11053   6.903   3.023   4.392
 3385SOL    HW111054   6.995   3.009   4.357
 3385SOL    HW211055   6.842   2.953   4.354
 3386SOL     OW11056   5.678   4.417   6.670
 3386SOL    HW111057   5.729   4.500   6.696
 3386SOL    HW211058   5.699   4.394   6.575
 3387SOL     OW11059   3.192   0.682   3.350
 3387SOL    HW111060   3.102   0.715   3.320
 3387SOL    HW211061   3.255   0.682   3.273
 3388SOL     OW11062   5.140   3.067   1.964
 3388SOL    HW111063   5.059   3.094   1.911
 3388SOL    HW211064   5.157   3.135   2.035
 3389SOL     OW11065   5.587   5.060   5.767
 3389SOL    HW111066   5.541   4.994   5.708
 3389SOL    HW211067   5.686   5.046   5.762
 3390SOL     OW11068   4.907   6.148   6.258
 3390SOL    HW111069   4.928   6.110   6.168
 3390SOL    HW211070   4.921   6.247   6.256
 3391SOL     OW11071   5.073   3.101   5.337
 3391SOL    HW111072   4.974   3.096   5.323
 3391SOL    HW211073   5.119   3.050   5.264
 3392SOL     OW11074   2.999   6.619   3.723
 3392SOL    HW111075   2.990   6.717   3.710
 3392SOL    HW211076   2.925   6.584   3.779
 3393SOL     OW11077   0.401   6.242   6.814
 3393SOL    HW111078   0.446   6.330   6.808
 3393SOL    HW211079   0.426   6.186   6.735
 3394SOL     OW11080   5.526   3.803   2.038
 3394SOL    HW111081   5.555   3.880   1.981
 3394SOL    HW211082   5.605   3.745   2.058
 3395SOL     OW11083   5.240   3.233   3.163
 3395SOL    HW111084   5.265   3.167   3.234
 3395SOL    HW211085   5.208   3.317   3.206
 3396SOL     OW11086   4.563   1.945   3.520
 3396SOL    HW111087   4.491   1.982   3.579
 3396SOL    HW211088   4.557   1.846   3.520
 3397SOL     OW11089   2.437   0.428   5.739
 3397SOL    HW111090   2.536   0.444   5.742
 3397SOL    HW211091   2.395   0.469   5.821
 3398SOL     OW11092   0.569   7.001   4.642
 3398SOL    HW111093   0.626   0.035   4.706
 3398SOL    HW211094   0.490   6.963   4.690
 3399SOL     OW11095   5.572   4.317   3.964
 3399SOL    HW111096   5.647   4.250   3.967
 3399SOL    HW211097   5.519   4.310   4.048
 3400SOL     OW11098   4.834   3.100   5.680
 3400SOL    HW111099   4.898   3.176   5.679
 3400SOL    HW211100   4.851   3.044   5.761
 3401SOL     OW11101   0.195   3.296   1.149
 3401SOL    HW111102   0.231   3.329   1.236
 3401SOL    HW211103   0.144   3.370   1.105
 3402SOL     OW11104   4.105   6.106   6.856
 3402SOL    HW111105   4.011   6.100   6.891
 3402SOL    HW211106   4.164   6.145   6.927
 3403SOL     OW11107   3.859   5.590   4.943
 3403SOL    HW111108   3.913   5.569   5.025
 3403SOL    HW211109   3.790   5.519   4.931
 3404SOL     OW11110   5.055   1.214   6.990
 3404SOL    HW111111   5.024   1.201   6.895
 3404SOL    HW211112   4.975   1.220   0.033
 3405SOL     OW11113   6.776   3.824   4.581
 3405SOL    HW111114   6.769   3.899   4.647
 3405SOL    HW211115   6.721   3.845   4.500
 3406SOL     OW11116   0.730   4.196   1.752
 3406SOL    HW111117   0.733   4.113   1.697
 3406SOL    HW211118   0.795   4.263   1.716
 3407SOL     OW11119   1.108   5.132   5.943
 3407SOL    HW111120   1.032   5.104   5.884
 3407SOL    HW211121   1.182   5.065   5.938
 3408SOL     OW11122   4.831   3.871   5.186
 3408SOL    HW111123   4.839   3.781   5.145
 3408SOL    HW211124   4.793   3.863   5.278
 3409SOL     OW11125   3.391   6.332   6.608
 3409SOL    HW111126   3.357   6.302   6.698
 3409SOL    HW211127   3.317   6.374   6.556
 3410SOL     OW11128   0.095   6.337   0.482
 3410SOL    HW111129   0.137   6.334   0.391
 3410SOL    HW211130   0.069   6.431   0.504
 3411SOL     OW11131   0.341   2.905   1.815
 3411SOL    HW111132   0.294   2.870   1.734
 3411SOL    HW211133   0.433   2.936   1.790
 3412SOL     OW11134   4.437   2.835   0.085
 3412SOL    HW111135   4.384   2.861   0.005
 3412SOL    HW211136   4.446   2.736   0.089
 3413SOL     OW11137   5.695   1.442   0.899
 3413SOL    HW111138   5.614   1.489   0.865
 3413SOL    HW211139   5.716   1.364   0.841
 3414SOL     OW11140   2.952   0.382   5.813
 3414SOL    HW111141   2.902   0.304   5.774
 3414SOL    HW211142   3.050   0.361   5.814
 3415SOL     OW11143   1.733   3.707   4.758
 3415SOL    HW111144   1.747   3.641   4.685
 3415SOL    HW211145   1.667   3.671   4.824
 3416SOL     OW11146   0.152   5.729   0.829
 3416SOL    HW111147   0.189   5.724   0.737
 3416SOL    HW211148   0.216   5.776   0.889
 3417SOL     OW11149   1.021   6.250   2.940
 3417SOL    HW111150   1.038   6.325   3.005
 3417SOL    HW211151   1.087   6.177   2.955
 3418SOL     OW11152   3.451   0.389   4.240
 3418SOL    HW111153   3.506   0.462   4.282
 3418SOL    HW211154   3.512   0.322   4.198
 3419SOL     OW11155   2.703   5.781   4.933
 3419SOL    HW111156   2.783   5.817   4.886
 3419SOL    HW211157   2.731   5.711   4.998
 3420SOL     OW11158   5.541   2.903   4.423
 3420SOL    HW111159   5.519   2.951   4.508
 3420SOL    HW211160   5.467   2.918   4.357
 3421SOL     OW11161   5.212   0.947   5.035
 3421SOL    HW111162   5.271   0.867   5.048
 3421SOL    HW211163   5.117   0.917   5.027
 3422SOL     OW11164   2.085   0.244   0.644
 3422SOL    HW111165   2.164   0.239   0.582
 3422SOL    HW211166   2.016   0.177   0.615
 3423SOL     OW11167   0.690   4.563   6.872
 3423SOL    HW111168   0.669   4.517   6.786
 3423SOL    HW211169   0.606   4.598   6.913
 3424SOL     OW11170   2.996   6.562   1.290
 3424SOL    HW111171   2.987   6.625   1.367
 3424SOL    HW211172   3.029   6.474   1.322
 3425SOL     OW11173   5.542   5.147   2.506
 3425SOL    HW111174   5.631   5.124   2.546
 3425SOL    HW211175   5.509   5.232   2.546
 3426SOL     OW11176   4.261   2.858   0.323
 3426SOL    HW111177   4.329   2.882   0.392
 3426SOL    HW211178   4.305   2.847   0.235
 3427SOL     OW11179   6.115   0.271   0.293
 3427SOL    HW111180   6.175   0.346   0.268
 3427SOL    HW211181   6.169   0.194   0.326
 3428SOL     OW11182   2.190   5.382   0.503
 3428SOL    HW111183   2.237   5.466   0.530
 3428SOL    HW211184   2.246   5.303   0.526
 3429SOL     OW11185   0.282   2.132   0.253
 3429SOL    HW111186   0.194   2.138   0.205
 3429SOL    HW211187   0.269   2.084   0.339
 3430SOL     OW11188   1.041   6.584   5.191
 3430SOL    HW111189   1.089   6.588   5.279
 3430SOL    HW211190   1.101   6.543   5.122
 3431SOL     OW11191   0.910   6.972   1.554
 3431SOL    HW111192   0.819   6.964   1.514
 3431SOL    HW211193   0.969   6.900   1.518
 3432SOL     OW11194   1.782   2.553   6.850
 3432SOL    HW111195   1.832   2.605   6.781
 3432SOL    HW211196   1.785   2.602   6.938
 3433SOL     OW11197   1.147   0.361   6.077
 3433SOL    HW111198   1.097   0.319   6.001
 3433SOL    HW211199   1.083   0.410   6.135
 3434SOL     OW11200   4.425   1.484   1.094
 3434SOL    HW111201   4.394   1.553   1.159
 3434SOL    HW211202   4.349   1.422   1.073
 3435SOL     OW11203   0.345   1.757   0.780
 3435SOL    HW111204   0.312   1.736   0.688
 3435SOL    HW211205   0.444   1.745   0.784
 3436SOL     OW11206   3.953   5.764   6.734
 3436SOL    HW111207   3.882   5.793   6.799
 3436SOL    HW211208   3.932   5.802   6.644
 3437SOL     OW11209   2.148   0.949   6.143
 3437SOL    HW111210   2.234   0.995   6.118
 3437SOL    HW211211   2.073   0.987   6.089
 3438SOL     OW11212   1.156   2.799   0.067
 3438SOL    HW111213   1.197   2.889   0.055
 3438SOL    HW211214   1.120   2.766   6.996
 3439SOL     OW11215   1.950   6.186   4.817
 3439SOL    HW111216   1.883   6.227   4.879
 3439SOL    HW211217   2.033   6.164   4.867
 3440SOL     OW11218   3.281   3.851   1.321
 3440SOL    HW111219   3.376   3.823   1.335
 3440SOL    HW211220   3.223   3.770   1.309
 3441SOL     OW11221   5.226   6.954   4.666
 3441SOL    HW111222   5.264   6.889   4.732
 3441SOL    HW211223   5.300   7.013   4.632
 3442SOL     OW11224   2.609   4.941   2.241
 3442SOL    HW111225   2.518   4.900   2.237
 3442SOL    HW211226   2.646   4.949   2.149
 3443SOL     OW11227   5.317   5.695   1.214
 3443SOL    HW111228   5.307   5.782   1.165
 3443SOL    HW211229   5.378   5.707   1.292
 3444SOL     OW11230   4.925   5.322   0.193
 3444SOL    HW111231   4.918   5.407   0.142
 3444SOL    HW211232   4.835   5.298   0.230
 3445SOL     OW11233   6.911   5.455   4.069
 3445SOL    HW111234   6.988   5.401   4.035
 3445SOL    HW211235   6.876   5.513   3.995
 3446SOL     OW11236   5.969   0.854   2.748
 3446SOL    HW111237   6.046   0.794   2.773
 3446SOL    HW211238   5.913   0.872   2.828
 3447SOL     OW11239   6.008   5.684   0.917
 3447SOL    HW111240   5.916   5.713   0.892
 3447SOL    HW211241   6.072   5.708   0.844
 3448SOL     OW11242   3.666   0.567   0.669
 3448SOL    HW111243   3.647   0.664   0.685
 3448SOL    HW211244   3.594   0.529   0.611
 3449SOL     OW11245   6.103   6.368   4.180
 3449SOL    HW111246   6.034   6.439   4.189
 3449SOL    HW211247   6.159   6.365   4.263
 3450SOL     OW11248   0.033   2.421   6.244
 3450SOL    HW111249   6.965   2.389   6.286
 3450SOL    HW211250   0.047   2.518   6.266
 3451SOL     OW11251   1.856   5.819   1.323
 3451SOL    HW111252   1.910   5.743   1.285
 3451SOL    HW211253   1.803   5.861   1.250
 3452SOL     OW11254   6.262   0.563   6.117
 3452SOL    HW111255   6.176   0.596   6.077
 3452SOL    HW211256   6.281   0.470   6.084
 3453SOL     OW11257   6.671   6.213   6.494
 3453SOL    HW111258   6.708   6.240   6.405
 3453SOL    HW211259   6.675   6.291   6.556
 3454SOL     OW11260   1.172   2.071   5.678
 3454SOL    HW111261   1.125   2.028   5.755
 3454SOL    HW211262   1.160   2.014   5.596
 3455SOL     OW11263   2.924   2.265   4.281
 3455SOL    HW111264   3.012   2.264   4.329
 3455SOL    HW211265   2.854   2.304   4.342
 3456SOL     OW11266   5.967   5.698   2.567
 3456SOL    HW111267   6.006   5.608   2.585
 3456SOL    HW211268   6.004   5.734   2.481
 3457SOL     OW11269   2.834   4.967   3.401
 3457SOL    HW111270   2.933   4.974   3.391
 3457SOL    HW211271   2.812   4.892   3.463
 3458SOL     OW11272   5.039   0.503   1.712
 3458SOL    HW111273   4.974   0.479   1.784
 3458SOL    HW211274   4.997   0.487   1.623
 3459SOL     OW11275   5.502   3.522   3.145
 3459SOL    HW111276   5.404   3.522   3.126
 3459SOL    HW211277   5.520   3.471   3.229
 3460SOL     OW11278   2.133   3.091   6.674
 3460SOL    HW111279   2.081   3.144   6.742
 3460SOL    HW211280   2.229   3.087   6.702
 3461SOL     OW11281   4.297   5.848   5.002
 3461SOL    HW111282   4.199   5.836   5.020
 3461SOL    HW211283   4.316   5.826   4.907
 3462SOL     OW11284   0.264   3.764   2.698
 3462SOL    HW111285   0.309   3.849   2.728
 3462SOL    HW211286   0.189   3.743   2.761
 3463SOL     OW11287   0.958   3.755   2.528
 3463SOL    HW111288   0.951   3.691   2.606
 3463SOL    HW211289   0.965   3.848   2.563
 3464SOL     OW11290   6.583   3.848   6.180
 3464SOL    HW111291   6.627   3.937   6.168
 3464SOL    HW211292   6.483   3.860   6.177
 3465SOL     OW11293   1.594   2.202   2.527
 3465SOL    HW111294   1.644   2.188   2.612
 3465SOL    HW211295   1.652   2.249   2.461
 3466SOL     OW11296   0.421   4.796   0.430
 3466SOL    HW111297   0.350   4.867   0.433
 3466SOL    HW211298   0.479   4.804   0.512
 3467SOL     OW11299   1.597   2.547   0.808
 3467SOL    HW111300   1.592   2.583   0.901
 3467SOL    HW211301   1.579   2.449   0.808
 3468SOL     OW11302   5.118   6.845   2.635
 3468SOL    HW111303   5.176   6.908   2.688
 3468SOL    HW211304   5.137   6.751   2.662
 3469SOL     OW11305   4.560   0.235   2.722
 3469SOL    HW111306   4.586   0.259   2.628
 3469SOL    HW211307   4.616   0.286   2.786
 3470SOL     OW11308   5.905   3.359   1.337
 3470SOL    HW111309   5.872   3.440   1.385
 3470SOL    HW211310   5.913   3.283   1.402
 3471SOL     OW11311   4.266   5.034   4.007
 3471SOL    HW111312   4.195   4.965   3.993
 3471SOL    HW211313   4.225   5.119   4.039
 3472SOL     OW11314   2.744   0.773   3.007
 3472SOL    HW111315   2.720   0.802   2.914
 3472SOL    HW211316   2.665   0.782   3.067
 3473SOL     OW11317   7.001   2.101   1.708
 3473SOL    HW111318   0.001   2.155   1.626
 3473SOL    HW211319   6.913   2.054   1.700
 3474SOL     OW11320   1.161   4.695   1.916
 3474SOL    HW111321   1.136   4.661   1.825
 3474SOL    HW211322   1.143   4.793   1.920
 3475SOL     OW11323   1.417   4.723   4.335
 3475SOL    HW111324   1.395   4.760   4.425
 3475SOL    HW211325   1.406   4.623   4.337
 3476SOL     OW11326   2.413   1.483   3.426
 3476SOL    HW111327   2.509   1.500   3.447
 3476SOL    HW211328   2.404   1.450   3.332
 3477SOL     OW11329   1.855   5.200   0.920
 3477SOL    HW111330   1.893   5.210   1.012
 3477SOL    HW211331   1.918   5.240   0.853
 3478SOL     OW11332   2.683   5.752   5.398
 3478SOL    HW111333   2.745   5.766   5.321
 3478SOL    HW211334   2.634   5.666   5.387
 3479SOL     OW11335   1.190   0.485   3.330
 3479SOL    HW111336   1.280   0.448   3.307
 3479SOL    HW211337   1.144   0.517   3.247
 3480SOL     OW11338   0.661   6.702   5.143
 3480SOL    HW111339   0.617   6.702   5.232
 3480SOL    HW211340   0.704   6.614   5.127
 3481SOL     OW11341   4.742   0.168   0.509
 3481SOL    HW111342   4.728   0.221   0.593
 3481SOL    HW211343   4.695   0.081   0.517
 3482SOL     OW11344   5.509   1.254   1.828
 3482SOL    HW111345   5.560   1.232   1.911
 3482SOL    HW211346   5.416   1.281   1.853
 3483SOL     OW11347   4.806   2.336   1.760
 3483SOL    HW111348   4.858   2.362   1.842
 3483SOL    HW211349   4.835   2.393   1.683
 3484SOL     OW11350   1.014   3.378   6.931
 3484SOL    HW111351   0.944   3.436   6.973
 3484SOL    HW211352   1.083   3.435   6.887
 3485SOL     OW11353   1.950   1.503   4.553
 3485SOL    HW111354   1.868   1.446   4.560
 3485SOL    HW211355   2.028   1.446   4.527
 3486SOL     OW11356   2.744   1.095   3.575
 3486SOL    HW111357   2.684   1.140   3.508
 3486SOL    HW211358   2.839   1.116   3.554
 3487SOL     OW11359   5.505   2.530   5.208
 3487SOL    HW111360   5.408   2.544   5.188
 3487SOL    HW211361   5.514   2.468   5.287
 3488SOL     OW11362   5.806   1.509   4.327
 3488SOL    HW111363   5.895   1.555   4.325
 3488SOL    HW211364   5.818   1.418   4.367
 3489SOL     OW11365   4.007   0.090   1.396
 3489SOL    HW111366   3.978   0.053   1.308
 3489SOL    HW211367   3.929   0.094   1.458
 3490SOL     OW11368   4.204   4.125   0.160
 3490SOL    HW111369   4.281   4.062   0.157
 3490SOL    HW211370   4.234   4.216   0.134
 3491SOL     OW11371   4.587   2.597   5.181
 3491SOL    HW111372   4.503   2.649   5.169
 3491SOL    HW211373   4.663   2.660   5.198
 3492SOL     OW11374   0.470   5.491   1.169
 3492SOL    HW111375   0.467   5.482   1.070
 3492SOL    HW211376   0.416   5.571   1.196
 3493SOL     OW11377   5.691   4.344   6.404
 3493SOL    HW111378   5.747   4.316   6.326
 3493SOL    HW211379   5.610   4.285   6.409
 3494SOL     OW11380   3.623   0.950   1.042
 3494SOL    HW111381   3.627   0.887   1.118
 3494SOL    HW211382   3.667   0.910   0.962
 3495SOL     OW11383   5.571   5.070   2.250
 3495SOL    HW111384   5.536   4.976   2.247
 3495SOL    HW211385   5.550   5.109   2.340
 3496SOL     OW11386   6.277   4.520   0.575
 3496SOL    HW111387   6.292   4.505   0.478
 3496SOL    HW211388   6.228   4.606   0.589
 3497SOL     OW11389   3.631   1.075   3.888
 3497SOL    HW111390   3.626   1.015   3.807
 3497SOL    HW211391   3.638   1.170   3.858
 3498SOL     OW11392   2.658   2.318   0.769
 3498SOL    HW111393   2.678   2.416   0.777
 3498SOL    HW211394   2.669   2.290   0.673
 3499SOL     OW11395   4.837   3.112   4.352
 3499SOL    HW111396   4.844   3.116   4.451
 3499SOL    HW211397   4.818   3.018   4.324
 3500SOL     OW11398   1.797   3.365   4.815
 3500SOL    HW111399   1.799   3.422   4.733
 3500SOL    HW211400   1.829   3.418   4.893
 3501SOL     OW11401   1.793   5.834   4.727
 3501SOL    HW111402   1.763   5.776   4.651
 3501SOL    HW211403   1.818   5.924   4.692
 3502SOL     OW11404   6.164   2.982   2.571
 3502SOL    HW111405   6.075   3.024   2.552
 3502SOL    HW211406   6.150   2.895   2.619
 3503SOL     OW11407   6.274   6.680   4.480
 3503SOL    HW111408   6.180   6.679   4.446
 3503SOL    HW211409   6.286   6.756   4.544
 3504SOL     OW11410   1.988   2.077   1.567
 3504SOL    HW111411   1.912   2.125   1.612
 3504SOL    HW211412   1.960   1.983   1.547
 3505SOL     OW11413   5.298   4.655   5.207
 3505SOL    HW111414   5.235   4.656   5.129
 3505SOL    HW211415   5.312   4.561   5.238
 3506SOL     OW11416   4.839   5.374   5.524
 3506SOL    HW111417   4.778   5.384   5.446
 3506SOL    HW211418   4.786   5.349   5.605
 3507SOL     OW11419   1.332   1.100   0.206
 3507SOL    HW111420   1.285   1.188   0.220
 3507SOL    HW211421   1.348   1.087   0.108
 3508SOL     OW11422   3.061   2.548   5.993
 3508SOL    HW111423   3.078   2.632   6.044
 3508SOL    HW211424   3.039   2.571   5.898
 3509SOL     OW11425   6.018   0.580   5.639
 3509SOL    HW111426   6.084   0.646   5.675
 3509SOL    HW211427   5.971   0.619   5.561
 3510SOL     OW11428   1.438   2.524   1.669
 3510SOL    HW111429   1.427   2.428   1.697
 3510SOL    HW211430   1.511   2.566   1.722
 3511SOL     OW11431   3.060   5.401   0.546
 3511SOL    HW111432   3.113   5.353   0.616
 3511SOL    HW211433   2.977   5.350   0.527
 3512SOL     OW11434   0.375   4.921   0.766
 3512SOL    HW111435   0.374   4.937   0.865
 3512SOL    HW211436   0.440   4.983   0.723
 3513SOL     OW11437   6.375   3.003   0.327
 3513SOL    HW111438   6.397   3.052   0.411
 3513SOL    HW211439   6.292   2.949   0.340
 3514SOL     OW11440   0.942   1.433   2.016
 3514SOL    HW111441   0.908   1.525   2.032
 3514SOL    HW211442   0.953   1.417   1.918
 3515SOL     OW11443   4.850   5.834   3.614
 3515SOL    HW111444   4.915   5.902   3.648
 3515SOL    HW211445   4.818   5.861   3.523
 3516SOL     OW11446   4.836   0.258   0.989
 3516SOL    HW111447   4.771   0.283   1.061
 3516SOL    HW211448   4.901   0.191   1.026
 3517SOL     OW11449   1.201   1.850   0.753
 3517SOL    HW111450   1.217   1.854   0.654
 3517SOL    HW211451   1.274   1.796   0.796
 3518SOL     OW11452   5.762   3.150   4.226
 3518SOL    HW111453   5.736   3.168   4.321
 3518SOL    HW211454   5.693   3.092   4.183
 3519SOL     OW11455   1.271   0.944   6.124
 3519SOL    HW111456   1.277   1.042   6.143
 3519SOL    HW211457   1.217   0.900   6.196
 3520SOL     OW11458   2.876   4.792   5.970
 3520SOL    HW111459   2.788   4.811   6.014
 3520SOL    HW211460   2.860   4.763   5.876
 3521SOL     OW11461   4.862   3.049   0.017
 3521SOL    HW111462   4.855   3.114   0.093
 3521SOL    HW211463   4.771   3.031   6.996
 3522SOL     OW11464   6.666   4.537   2.139
 3522SOL    HW111465   6.631   4.487   2.060
 3522SOL    HW211466   6.741   4.597   2.110
 3523SOL     OW11467   2.814   5.163   6.120
 3523SOL    HW111468   2.757   5.086   6.091
 3523SOL    HW211469   2.828   5.225   6.043
 3524SOL     OW11470   3.710   1.547   1.550
 3524SOL    HW111471   3.686   1.452   1.566
 3524SOL    HW211472   3.700   1.568   1.452
 3525SOL     OW11473   1.522   3.843   2.455
 3525SOL    HW111474   1.443   3.783   2.442
 3525SOL    HW211475   1.569   3.856   2.368
 3526SOL     OW11476   2.219   6.229   3.952
 3526SOL    HW111477   2.173   6.262   4.034
 3526SOL    HW211478   2.318   6.242   3.962
 3527SOL     OW11479   5.798   2.572   6.127
 3527SOL    HW111480   5.887   2.527   6.122
 3527SOL    HW211481   5.787   2.612   6.218
 3528SOL     OW11482   0.607   5.437   4.206
 3528SOL    HW111483   0.544   5.393   4.270
 3528SOL    HW211484   0.699   5.440   4.247
 3529SOL     OW11485   3.865   0.093   0.284
 3529SOL    HW111486   3.831   0.181   0.318
 3529SOL    HW211487   3.871   0.096   0.185
 3530SOL     OW11488   0.776   5.132   3.121
 3530SOL    HW111489   0.865   5.154   3.081
 3530SOL    HW211490   0.748   5.206   3.182
 3531SOL     OW11491   5.129   2.901   0.700
 3531SOL    HW111492   5.052   2.840   0.684
 3531SOL    HW211493   5.100   2.996   0.689
 3532SOL     OW11494   2.810   0.708   1.611
 3532SOL    HW111495   2.781   0.644   1.539
 3532SOL    HW211496   2.809   0.801   1.575
 3533SOL     OW11497   1.833   1.754   2.602
 3533SOL    HW111498   1.797   1.758   2.695
 3533SOL    HW211499   1.788   1.680   2.552
 3534SOL     OW11500   5.784   1.167   5.823
 3534SOL    HW111501   5.866   1.112   5.812
 3534SOL    HW211502   5.773   1.192   5.919
 3535SOL     OW11503   1.134   5.074   0.506
 3535SOL    HW111504   1.177   5.162   0.527
 3535SOL    HW211505   1.048   5.089   0.458
 3536SOL     OW11506   1.906   2.207   3.567
 3536SOL    HW111507   1.884   2.256   3.483
 3536SOL    HW211508   1.937   2.115   3.544
 3537SOL     OW11509   2.957   5.794   1.093
 3537SOL    HW111510   3.034   5.731   1.100
 3537SOL    HW211511   2.938   5.813   0.996
 3538SOL     OW11512   1.052   0.719   5.976
 3538SOL    HW111513   1.125   0.723   5.908
 3538SOL    HW211514   1.093   0.715   6.068
 3539SOL     OW11515   5.894   3.646   5.973
 3539SOL    HW111516   5.987   3.681   5.982
 3539SOL    HW211517   5.866   3.648   5.877
 3540SOL     OW11518   1.897   2.823   6.235
 3540SOL    HW111519   1.964   2.749   6.243
 3540SOL    HW211520   1.825   2.809   6.304
 3541SOL     OW11521   1.758   2.752   6.466
 3541SOL    HW111522   1.784   2.671   6.415
 3541SOL    HW211523   1.673   2.733   6.517
 3542SOL     OW11524   1.283   4.384   1.899
 3542SOL    HW111525   1.197   4.347   1.864
 3542SOL    HW211526   1.297   4.352   1.993
 3543SOL     OW11527   0.995   2.964   4.989
 3543SOL    HW111528   0.904   2.927   4.969
 3543SOL    HW211529   1.022   3.028   4.917
 3544SOL     OW11530   2.733   4.346   6.407
 3544SOL    HW111531   2.694   4.428   6.365
 3544SOL    HW211532   2.746   4.276   6.336
 3545SOL     OW11533   3.927   5.083   0.082
 3545SOL    HW111534   3.941   5.156   0.015
 3545SOL    HW211535   3.928   4.995   0.035
 3546SOL     OW11536   0.459   4.479   3.272
 3546SOL    HW111537   0.412   4.417   3.209
 3546SOL    HW211538   0.393   4.519   3.334
 3547SOL     OW11539   6.571   5.207   5.404
 3547SOL    HW111540   6.600   5.270   5.333
 3547SOL    HW211541   6.630   5.126   5.403
 3548SOL     OW11542   5.432   0.784   5.702
 3548SOL    HW111543   5.531   0.796   5.707
 3548SOL    HW211544   5.401   0.795   5.607
 3549SOL     OW11545   0.011   5.218   5.900
 3549SOL    HW111546   6.952   5.277   5.869
 3549SOL    HW211547   6.994   5.125   5.914
 3550SOL     OW11548   5.892   3.024   3.175
 3550SOL    HW111549   5.871   2.959   3.248
 3550SOL    HW211550   5.948   3.099   3.211
 3551SOL     OW11551   3.331   2.120   2.795
 3551SOL    HW111552   3.337   2.060   2.716
 3551SOL    HW211553   3.252   2.181   2.785
 3552SOL     OW11554   6.670   6.456   1.575
 3552SOL    HW111555   6.627   6.387   1.633
 3552SOL    HW211556   6.610   6.474   1.496
 3553SOL     OW11557   4.698   5.522   0.439
 3553SOL    HW111558   4.689   5.586   0.362
 3553SOL    HW211559   4.641   5.554   0.515
 3554SOL     OW11560   4.460   1.758   0.986
 3554SOL    HW111561   4.488   1.682   1.044
 3554SOL    HW211562   4.391   1.813   1.033
 3555SOL     OW11563   0.666   4.158   4.098
 3555SOL    HW111564   0.697   4.199   4.012
 3555SOL    HW211565   0.639   4.231   4.161
 3556SOL     OW11566   3.901   1.552   4.309
 3556SOL    HW111567   3.835   1.613   4.352
 3556SOL    HW211568   3.981   1.542   4.368
 3557SOL     OW11569   0.776   1.089   4.360
 3557SOL    HW111570   0.702   1.131   4.412
 3557SOL    HW211571   0.821   1.019   4.416
 3558SOL     OW11572   1.748   6.074   2.333
 3558SOL    HW111573   1.689   6.015   2.388
 3558SOL    HW211574   1.778   6.152   2.388
 3559SOL     OW11575   0.516   6.298   5.534
 3559SOL    HW111576   0.542   6.312   5.439
 3559SOL    HW211577   0.422   6.265   5.539
 3560SOL     OW11578   1.339   5.256   2.698
 3560SOL    HW111579   1.424   5.274   2.649
 3560SOL    HW211580   1.287   5.342   2.706
 3561SOL     OW11581   4.641   4.423   4.923
 3561SOL    HW111582   4.557   4.435   4.976
 3561SOL    HW211583   4.643   4.330   4.885
 3562SOL     OW11584   3.602   1.396   2.958
 3562SOL    HW111585   3.587   1.391   2.860
 3562SOL    HW211586   3.535   1.457   3.000
 3563SOL     OW11587   6.574   2.050   0.501
 3563SOL    HW111588   6.501   2.028   0.565
 3563SOL    HW211589   6.554   2.009   0.412
 3564SOL     OW11590   1.004   4.421   3.078
 3564SOL    HW111591   0.933   4.461   3.135
 3564SOL    HW211592   1.039   4.338   3.122
 3565SOL     OW11593   3.072   5.869   5.024
 3565SOL    HW111594   3.014   5.898   4.948
 3565SOL    HW211595   3.143   5.807   4.989
 3566SOL     OW11596   6.774   3.793   5.770
 3566SOL    HW111597   6.843   3.780   5.698
 3566SOL    HW211598   6.785   3.885   5.809
 3567SOL     OW11599   0.219   2.744   6.485
 3567SOL    HW111600   0.132   2.792   6.501
 3567SOL    HW211601   0.295   2.804   6.511
 3568SOL     OW11602   4.292   4.625   3.486
 3568SOL    HW111603   4.226   4.694   3.456
 3568SOL    HW211604   4.338   4.587   3.406
 3569SOL     OW11605   2.577   1.479   5.900
 3569SOL    HW111606   2.643   1.522   5.839
 3569SOL    HW211607   2.563   1.538   5.980
 3570SOL     OW11608   5.471   0.796   5.412
 3570SOL    HW111609   5.559   0.750   5.402
 3570SOL    HW211610   5.401   0.746   5.361
 3571SOL     OW11611   0.532   5.207   4.644
 3571SOL    HW111612   0.597   5.131   4.642
 3571SOL    HW211613   0.535   5.251   4.734
 3572SOL     OW11614   5.915   3.673   3.097
 3572SOL    HW111615   6.002   3.631   3.072
 3572SOL    HW211616   5.855   3.675   3.018
 3573SOL     OW11617   0.680   5.835   3.086
 3573SOL    HW111618   0.589   5.853   3.122
 3573SOL    HW211619   0.701   5.737   3.095
 3574SOL     OW11620   0.856   3.475   0.299
 3574SOL    HW111621   0.905   3.552   0.257
 3574SOL    HW211622   0.885   3.390   0.255
 3575SOL     OW11623   5.274   5.092   2.079
 3575SOL    HW111624   5.349   5.148   2.045
 3575SOL    HW211625   5.295   4.995   2.065
 3576SOL     OW11626   0.237   2.305   6.411
 3576SOL    HW111627   0.221   2.379   6.477
 3576SOL    HW211628   0.182   2.320   6.330
 3577SOL     OW11629   1.267   1.847   6.345
 3577SOL    HW111630   1.297   1.753   6.326
 3577SOL    HW211631   1.346   1.902   6.372
 3578SOL     OW11632   4.093   1.761   0.623
 3578SOL    HW111633   4.107   1.847   0.673
 3578SOL    HW211634   4.180   1.727   0.590
 3579SOL     OW11635   6.734   2.168   3.668
 3579SOL    HW111636   6.801   2.122   3.726
 3579SOL    HW211637   6.645   2.124   3.678
 3580SOL     OW11638   5.722   3.002   1.334
 3580SOL    HW111639   5.724   3.086   1.279
 3580SOL    HW211640   5.641   2.948   1.310
 3581SOL     OW11641   1.480   5.634   3.648
 3581SOL    HW111642   1.542   5.710   3.630
 3581SOL    HW211643   1.385   5.665   3.638
 3582SOL     OW11644   0.636   3.608   6.105
 3582SOL    HW111645   0.537   3.604   6.117
 3582SOL    HW211646   0.658   3.666   6.027
 3583SOL     OW11647   0.608   4.114   6.343
 3583SOL    HW111648   0.598   4.039   6.278
 3583SOL    HW211649   0.530   4.177   6.334
 3584SOL     OW11650   6.012   5.485   6.526
 3584SOL    HW111651   5.962   5.425   6.588
 3584SOL    HW211652   6.035   5.571   6.573
 3585SOL     OW11653   3.131   0.496   4.839
 3585SOL    HW111654   3.205   0.563   4.851
 3585SOL    HW211655   3.048   0.529   4.885
 3586SOL     OW11656   6.739   2.126   5.069
 3586SOL    HW111657   6.643   2.139   5.092
 3586SOL    HW211658   6.774   2.209   5.025
 3587SOL     OW11659   2.154   4.467   5.831
 3587SOL    HW111660   2.241   4.476   5.880
 3587SOL    HW211661   2.146   4.373   5.797
 3588SOL     OW11662   1.329   2.734   5.663
 3588SOL    HW111663   1.291   2.803   5.725
 3588SOL    HW211664   1.268   2.723   5.585
 3589SOL     OW11665   4.636   1.416   4.718
 3589SOL    HW111666   4.617   1.446   4.625
 3589SOL    HW211667   4.570   1.457   4.781
 3590SOL     OW11668   0.838   2.761   0.544
 3590SOL    HW111669   0.890   2.825   0.488
 3590SOL    HW211670   0.740   2.773   0.527
 3591SOL     OW11671   5.124   4.347   6.953
 3591SOL    HW111672   5.181   4.318   6.876
 3591SOL    HW211673   5.142   4.290   0.016
 3592SOL     OW11674   0.810   5.104   1.858
 3592SOL    HW111675   0.845   5.186   1.813
 3592SOL    HW211676   0.763   5.129   1.942
 3593SOL     OW11677   0.533   5.623   5.043
 3593SOL    HW111678   0.451   5.653   4.993
 3593SOL    HW211679   0.615   5.658   4.997
 3594SOL     OW11680   4.582   6.504   3.332
 3594SOL    HW111681   4.540   6.593   3.349
 3594SOL    HW211682   4.525   6.452   3.268
 3595SOL     OW11683   4.113   5.522   6.258
 3595SOL    HW111684   4.035   5.581   6.282
 3595SOL    HW211685   4.161   5.562   6.180
 3596SOL     OW11686   6.008   3.234   3.268
 3596SOL    HW111687   6.015   3.284   3.354
 3596SOL    HW211688   6.083   3.262   3.207
 3597SOL     OW11689   2.108   2.379   5.580
 3597SOL    HW111690   2.069   2.368   5.488
 3597SOL    HW211691   2.037   2.412   5.642
 3598SOL     OW11692   1.311   5.384   6.543
 3598SOL    HW111693   1.267   5.340   6.465
 3598SOL    HW211694   1.372   5.319   6.588
 3599SOL     OW11695   6.309   2.564   6.941
 3599SOL    HW111696   6.354   2.611   6.865
 3599SOL    HW211697   6.369   2.563   0.005
 3600SOL     OW11698   0.549   2.968   1.623
 3600SOL    HW111699   0.451   2.980   1.607
 3600SOL    HW211700   0.591   3.058   1.639
 3601SOL     OW11701   5.332   3.563   6.668
 3601SOL    HW111702   5.428   3.591   6.671
 3601SOL    HW211703   5.292   3.572   6.759
 3602SOL     OW11704   1.863   2.677   0.863
 3602SOL    HW111705   1.795   2.729   0.915
 3602SOL    HW211706   1.817   2.625   0.791
 3603SOL     OW11707   3.450   0.834   4.262
 3603SOL    HW111708   3.465   0.926   4.299
 3603SOL    HW211709   3.352   0.813   4.264
 3604SOL     OW11710   6.410   5.802   3.056
 3604SOL    HW111711   6.336   5.841   3.003
 3604SOL    HW211712   6.493   5.858   3.046
 3605SOL     OW11713   6.711   3.961   4.814
 3605SOL    HW111714   6.766   3.985   4.893
 3605SOL    HW211715   6.649   3.886   4.838
 3606SOL     OW11716   0.430   0.261   4.681
 3606SOL    HW111717   0.369   0.183   4.668
 3606SOL    HW211718   0.379   0.346   4.670
 3607SOL     OW11719   6.099   5.085   1.766
 3607SOL    HW111720   6.175   5.107   1.827
 3607SOL    HW211721   6.013   5.115   1.807
 3608SOL     OW11722   5.078   2.861   4.425
 3608SOL    HW111723   5.020   2.884   4.347
 3608SOL    HW211724   5.115   2.944   4.465
 3609SOL     OW11725   1.437   0.087   4.295
 3609SOL    HW111726   1.424   0.178   4.334
 3609SOL    HW211727   1.521   0.047   4.333
 3610SOL     OW11728   2.004   6.825   5.570
 3610SOL    HW111729   2.093   6.841   5.612
 3610SOL    HW211730   2.007   6.851   5.474
 3611SOL     OW11731   4.565   5.179   4.588
 3611SOL    HW111732   4.598   5.162   4.495
 3611SOL    HW211733   4.634   5.151   4.654
 3612SOL     OW11734   6.699   6.865   0.745
 3612SOL    HW111735   6.705   6.957   0.784
 3612SOL    HW211736   6.752   6.801   0.799
 3613SOL     OW11737   4.525   4.540   1.880
 3613SOL    HW111738   4.510   4.458   1.935
 3613SOL    HW211739   4.502   4.521   1.785
 3614SOL     OW11740   4.046   3.536   1.306
 3614SOL    HW111741   4.142   3.528   1.280
 3614SOL    HW211742   4.003   3.607   1.250
 3615SOL     OW11743   5.148   4.717   6.316
 3615SOL    HW111744   5.091   4.781   6.265
 3615SOL    HW211745   5.245   4.737   6.299
 3616SOL     OW11746   0.531   1.698   6.394
 3616SOL    HW111747   0.436   1.725   6.375
 3616SOL    HW211748   0.580   1.775   6.436
 3617SOL     OW11749   4.303   0.793   6.561
 3617SOL    HW111750   4.249   0.837   6.490
 3617SOL    HW211751   4.253   0.797   6.648
 3618SOL     OW11752   2.649   2.972   5.799
 3618SOL    HW111753   2.737   2.950   5.756
 3618SOL    HW211754   2.584   2.897   5.784
 3619SOL     OW11755   5.333   2.858   4.928
 3619SOL    HW111756   5.336   2.764   4.963
 3619SOL    HW211757   5.321   2.855   4.828
 3620SOL     OW11758   5.911   6.752   5.650
 3620SOL    HW111759   5.838   6.685   5.668
 3620SOL    HW211760   5.997   6.717   5.687
 3621SOL     OW11761   3.150   2.789   5.392
 3621SOL    HW111762   3.142   2.690   5.380
 3621SOL    HW211763   3.068   2.833   5.355
 3622SOL     OW11764   0.910   1.403   5.953
 3622SOL    HW111765   0.897   1.400   5.854
 3622SOL    HW211766   0.919   1.498   5.983
 3623SOL     OW11767   0.140   6.455   4.270
 3623SOL    HW111768   0.145   6.554   4.269
 3623SOL    HW211769   0.161   6.419   4.179
 3624SOL     OW11770   1.476   6.976   2.650
 3624SOL    HW111771   1.477   6.878   2.629
 3624SOL    HW211772   1.525   0.010   2.579
 3625SOL     OW11773   6.855   2.932   6.735
 3625SOL    HW111774   6.810   2.996   6.673
 3625SOL    HW211775   6.806   2.930   6.823
 3626SOL     OW11776   1.550   2.023   6.120
 3626SOL    HW111777   1.556   2.121   6.141
 3626SOL    HW211778   1.636   1.993   6.078
 3627SOL     OW11779   3.181   3.478   2.231
 3627SOL    HW111780   3.200   3.523   2.143
 3627SOL    HW211781   3.260   3.487   2.291
 3628SOL     OW11782   1.973   0.818   2.037
 3628SOL    HW111783   1.887   0.789   2.081
 3628SOL    HW211784   2.049   0.802   2.100
 3629SOL     OW11785   6.660   0.807   5.430
 3629SOL    HW111786   6.594   0.746   5.387
 3629SOL    HW211787   6.628   0.832   5.521
 3630SOL     OW11788   4.803   2.138   3.934
 3630SOL    HW111789   4.831   2.188   4.017
 3630SOL    HW211790   4.704   2.123   3.937
 3631SOL     OW11791   2.321   1.418   3.156
 3631SOL    HW111792   2.322   1.318   3.159
 3631SOL    HW211793   2.389   1.450   3.089
 3632SOL     OW11794   5.109   5.017   1.305
 3632SOL    HW111795   5.131   5.030   1.402
 3632SOL    HW211796   5.137   4.926   1.276
 3633SOL     OW11797   4.394   2.022   5.378
 3633SOL    HW111798   4.305   1.999   5.418
 3633SOL    HW211799   4.450   1.940   5.372
 3634SOL     OW11800   1.520   5.105   5.308
 3634SOL    HW111801   1.575   5.179   5.345
 3634SOL    HW211802   1.576   5.022   5.301
 3635SOL     OW11803   3.066   0.339   1.028
 3635SOL    HW111804   2.999   0.322   0.956
 3635SOL    HW211805   3.055   0.271   1.101
 3636SOL     OW11806   0.024   5.446   0.523
 3636SOL    HW111807   6.997   5.386   0.456
 3636SOL    HW211808   6.974   5.514   0.554
 3637SOL     OW11809   0.116   2.541   1.910
 3637SOL    HW111810   0.049   2.605   1.873
 3637SOL    HW211811   0.072   2.482   1.977
 3638SOL     OW11812   0.641   4.342   3.401
 3638SOL    HW111813   0.687   4.272   3.346
 3638SOL    HW211814   0.589   4.403   3.341
 3639SOL     OW11815   3.722   5.406   0.892
 3639SOL    HW111816   3.767   5.408   0.981
 3639SOL    HW211817   3.628   5.439   0.901
 3640SOL     OW11818   4.277   0.814   0.331
 3640SOL    HW111819   4.357   0.769   0.293
 3640SOL    HW211820   4.303   0.863   0.415
 3641SOL     OW11821   6.045   4.240   2.480
 3641SOL    HW111822   6.093   4.241   2.393
 3641SOL    HW211823   6.025   4.146   2.507
 3642SOL     OW11824   5.281   2.022   0.618
 3642SOL    HW111825   5.235   2.105   0.588
 3642SOL    HW211826   5.345   2.045   0.692
 3643SOL     OW11827   3.285   5.724   4.162
 3643SOL    HW111828   3.246   5.725   4.070
 3643SOL    HW211829   3.367   5.667   4.163
 3644SOL     OW11830   0.612   0.821   1.979
 3644SOL    HW111831   0.669   0.769   1.915
 3644SOL    HW211832   0.667   0.847   2.058
 3645SOL     OW11833   1.438   2.690   4.146
 3645SOL    HW111834   1.491   2.735   4.073
 3645SOL    HW211835   1.350   2.736   4.157
 3646SOL     OW11836   1.659   3.831   6.259
 3646SOL    HW111837   1.734   3.785   6.212
 3646SOL    HW211838   1.677   3.929   6.262
 3647SOL     OW11839   2.319   6.259   6.597
 3647SOL    HW111840   2.322   6.164   6.628
 3647SOL    HW211841   2.357   6.318   6.667
 3648SOL     OW11842   4.491   5.890   1.922
 3648SOL    HW111843   4.450   5.981   1.928
 3648SOL    HW211844   4.501   5.852   2.014
 3649SOL     OW11845   6.377   2.562   1.220
 3649SOL    HW111846   6.339   2.596   1.134
 3649SOL    HW211847   6.477   2.565   1.216
 3650SOL     OW11848   6.542   5.635   2.206
 3650SOL    HW111849   6.630   5.667   2.169
 3650SOL    HW211850   6.548   5.537   2.225
 3651SOL     OW11851   0.623   0.343   4.482
 3651SOL    HW111852   0.557   0.309   4.549
 3651SOL    HW211853   0.703   0.283   4.481
 3652SOL     OW11854   6.110   0.469   3.435
 3652SOL    HW111855   6.139   0.561   3.409
 3652SOL    HW211856   6.178   0.428   3.496
 3653SOL     OW11857   1.211   1.299   3.889
 3653SOL    HW111858   1.145   1.257   3.951
 3653SOL    HW211859   1.291   1.239   3.879
 3654SOL     OW11860   3.881   4.495   0.502
 3654SOL    HW111861   3.849   4.481   0.408
 3654SOL    HW211862   3.806   4.533   0.556
 3655SOL     OW11863   3.272   0.183   4.065
 3655SOL    HW111864   3.205   0.146   4.129
 3655SOL    HW211865   3.349   0.220   4.116
 3656SOL     OW11866   0.686   4.873   1.441
 3656SOL    HW111867   0.645   4.841   1.526
 3656SOL    HW211868   0.637   4.834   1.363
 3657SOL     OW11869   5.688   5.790   5.282
 3657SOL    HW111870   5.731   5.745   5.204
 3657SOL    HW211871   5.589   5.780   5.275
 3658SOL     OW11872   2.603   4.582   6.726
 3658SOL    HW111873   2.611   4.542   6.817
 3658SOL    HW211874   2.540   4.527   6.671
 3659SOL     OW11875   1.907   3.166   5.520
 3659SOL    HW111876   1.878   3.261   5.508
 3659SOL    HW211877   1.899   3.141   5.616
 3660SOL     OW11878   5.718   5.786   4.161
 3660SOL    HW111879   5.673   5.727   4.228
 3660SOL    HW211880   5.708   5.747   4.070
 3661SOL     OW11881   6.370   0.986   5.220
 3661SOL    HW111882   6.347   1.067   5.273
 3661SOL    HW211883   6.371   0.906   5.280
 3662SOL     OW11884   3.922   1.131   4.147
 3662SOL    HW111885   3.935   1.095   4.054
 3662SOL    HW211886   3.925   1.231   4.145
 3663SOL     OW11887   1.633   1.996   0.637
 3663SOL    HW111888   1.613   1.931   0.711
 3663SOL    HW211889   1.733   2.006   0.629
 3664SOL     OW11890   4.723   2.355   1.338
 3664SOL    HW111891   4.639   2.390   1.377
 3664SOL    HW211892   4.802   2.395   1.385
 3665SOL     OW11893   0.893   6.291   4.931
 3665SOL    HW111894   0.893   6.222   4.858
 3665SOL    HW211895   0.952   6.262   5.005
 3666SOL     OW11896   0.949   3.539   2.737
 3666SOL    HW111897   0.870   3.495   2.779
 3666SOL    HW211898   0.999   3.471   2.683
 3667SOL     OW11899   0.339   1.382   3.783
 3667SOL    HW111900   0.261   1.344   3.832
 3667SOL    HW211901   0.392   1.308   3.742
 3668SOL     OW11902   1.358   1.328   0.693
 3668SOL    HW111903   1.301   1.329   0.775
 3668SOL    HW211904   1.368   1.234   0.660
 3669SOL     OW11905   5.346   1.588   3.892
 3669SOL    HW111906   5.369   1.625   3.982
 3669SOL    HW211907   5.308   1.497   3.903
 3670SOL     OW11908   1.667   5.611   6.552
 3670SOL    HW111909   1.751   5.640   6.507
 3670SOL    HW211910   1.651   5.513   6.535
 3671SOL     OW11911   0.041   1.870   4.007
 3671SOL    HW111912   0.046   1.926   3.924
 3671SOL    HW211913   0.071   1.777   3.986
 3672SOL     OW11914   4.768   2.103   2.110
 3672SOL    HW111915   4.855   2.151   2.110
 3672SOL    HW211916   4.719   2.123   2.025
 3673SOL     OW11917   4.334   6.263   0.316
 3673SOL    HW111918   4.375   6.310   0.395
 3673SOL    HW211919   4.279   6.186   0.348
 3674SOL     OW11920   1.469   5.759   5.539
 3674SOL    HW111921   1.428   5.803   5.460
 3674SOL    HW211922   1.458   5.818   5.619
 3675SOL     OW11923   1.946   2.912   3.781
 3675SOL    HW111924   1.996   2.828   3.762
 3675SOL    HW211925   1.898   2.904   3.868
 3676SOL     OW11926   6.366   4.437   2.549
 3676SOL    HW111927   6.432   4.461   2.621
 3676SOL    HW211928   6.273   4.444   2.585
 3677SOL     OW11929   2.738   6.229   4.351
 3677SOL    HW111930   2.670   6.300   4.336
 3677SOL    HW211931   2.801   6.225   4.273
 3678SOL     OW11932   0.992   1.516   4.237
 3678SOL    HW111933   0.949   1.564   4.161
 3678SOL    HW211934   0.979   1.417   4.225
 3679SOL     OW11935   6.520   0.183   3.668
 3679SOL    HW111936   6.597   0.197   3.730
 3679SOL    HW211937   6.458   0.115   3.708
 3680SOL     OW11938   5.113   3.110   4.205
 3680SOL    HW111939   5.162   3.195   4.225
 3680SOL    HW211940   5.018   3.120   4.235
 3681SOL     OW11941   0.097   1.086   6.395
 3681SOL    HW111942   0.122   1.031   6.316
 3681SOL    HW211943   0.180   1.106   6.448
 3682SOL     OW11944   5.834   3.159   6.949
 3682SOL    HW111945   5.835   3.253   6.984
 3682SOL    HW211946   5.762   3.150   6.880
 3683SOL     OW11947   0.006   1.757   4.585
 3683SOL    HW111948   6.946   1.720   4.638
 3683SOL    HW211949   0.009   1.712   4.496
 3684SOL     OW11950   1.022   5.283   6.878
 3684SOL    HW111951   1.036   5.377   6.849
 3684SOL    HW211952   1.002   5.282   6.976
 3685SOL     OW11953   1.621   5.968   6.441
 3685SOL    HW111954   1.673   5.935   6.363
 3685SOL    HW211955   1.684   6.008   6.508
 3686SOL     OW11956   6.173   5.196   5.160
 3686SOL    HW111957   6.256   5.139   5.160
 3686SOL    HW211958   6.153   5.226   5.067
 3687SOL     OW11959   3.680   6.480   4.036
 3687SOL    HW111960   3.641   6.451   3.949
 3687SOL    HW211961   3.644   6.570   4.061
 3688SOL     OW11962   0.342   3.050   6.806
 3688SOL    HW111963   0.355   3.011   6.897
 3688SOL    HW211964   0.346   3.150   6.811
 3689SOL     OW11965   1.987   0.343   5.886
 3689SOL    HW111966   2.071   0.390   5.914
 3689SOL    HW211967   2.010   0.254   5.846
 3690SOL     OW11968   4.106   6.002   0.213
 3690SOL    HW111969   4.155   6.023   0.297
 3690SOL    HW211970   4.041   5.927   0.229
 3691SOL     OW11971   2.343   1.781   6.888
 3691SOL    HW111972   2.311   1.752   6.797
 3691SOL    HW211973   2.405   1.712   6.925
 3692SOL     OW11974   6.483   5.261   5.670
 3692SOL    HW111975   6.499   5.215   5.582
 3692SOL    HW211976   6.532   5.348   5.672
 3693SOL     OW11977   2.048   3.698   2.797
 3693SOL    HW111978   2.051   3.782   2.850
 3693SOL    HW211979   2.083   3.622   2.852
 3694SOL     OW11980   0.650   6.235   2.008
 3694SOL    HW111981   0.593   6.154   2.023
 3694SOL    HW211982   0.595   6.317   2.017
 3695SOL     OW11983   4.993   2.958   1.466
 3695SOL    HW111984   4.940   2.887   1.419
 3695SOL    HW211985   5.079   2.973   1.418
 3696SOL     OW11986   3.889   0.135   3.936
 3696SOL    HW111987   3.847   0.071   4.000
 3696SOL    HW211988   3.977   0.165   3.972
 3697SOL     OW11989   0.400   6.355   2.913
 3697SOL    HW111990   0.487   6.344   2.865
 3697SOL    HW211991   0.330   6.299   2.867
 3698SOL     OW11992   2.782   1.284   3.998
 3698SOL    HW111993   2.765   1.354   4.068
 3698SOL    HW211994   2.807   1.329   3.912
 3699SOL     OW11995   1.690   1.834   3.766
 3699SOL    HW111996   1.721   1.808   3.674
 3699SOL    HW211997   1.737   1.917   3.794
 3700SOL     OW11998   1.150   5.270   5.032
 3700SOL    HW111999   1.239   5.249   4.991
 3700SOL    HW212000   1.085   5.291   4.959
 3701SOL     OW12001   1.441   0.918   3.874
 3701SOL    HW112002   1.503   0.983   3.918
 3701SOL    HW212003   1.491   0.865   3.806
 3702SOL     OW12004   5.465   6.520   3.279
 3702SOL    HW112005   5.378   6.554   3.246
 3702SOL    HW212006   5.540   6.572   3.238
 3703SOL     OW12007   6.712   0.494   6.383
 3703SOL    HW112008   6.616   0.513   6.402
 3703SOL    HW212009   6.736   0.404   6.421
 3704SOL     OW12010   3.787   2.168   0.864
 3704SOL    HW112011   3.776   2.258   0.908
 3704SOL    HW212012   3.723   2.103   0.905
 3705SOL     OW12013   5.156   4.037   4.962
 3705SOL    HW112014   5.255   4.024   4.974
 3705SOL    HW212015   5.107   3.969   5.016
 3706SOL     OW12016   0.945   4.001   6.822
 3706SOL    HW112017   0.887   3.957   6.753
 3706SOL    HW212018   1.016   4.054   6.776
 3707SOL     OW12019   5.270   4.774   4.534
 3707SOL    HW112020   5.366   4.776   4.509
 3707SOL    HW212021   5.227   4.861   4.512
 3708SOL     OW12022   6.311   0.719   0.385
 3708SOL    HW112023   6.269   0.755   0.468
 3708SOL    HW212024   6.279   0.771   0.306
 3709SOL     OW12025   3.785   0.482   1.397
 3709SOL    HW112026   3.708   0.516   1.450
 3709SOL    HW212027   3.855   0.445   1.458
 3710SOL     OW12028   6.686   5.293   5.153
 3710SOL    HW112029   6.735   5.222   5.101
 3710SOL    HW212030   6.662   5.368   5.092
 3711SOL     OW12031   1.171   5.513   4.853
 3711SOL    HW112032   1.209   5.592   4.805
 3711SOL    HW212033   1.174   5.433   4.793
 3712SOL     OW12034   0.970   5.075   6.213
 3712SOL    HW112035   0.927   4.986   6.231
 3712SOL    HW212036   0.948   5.104   6.120
 3713SOL     OW12037   0.532   6.717   5.374
 3713SOL    HW112038   0.558   6.767   5.457
 3713SOL    HW212039   0.455   6.657   5.394
 3714SOL     OW12040   5.645   5.847   6.316
 3714SOL    HW112041   5.629   5.924   6.254
 3714SOL    HW212042   5.561   5.795   6.327
 3715SOL     OW12043   0.638   3.920   2.710
 3715SOL    HW112044   0.735   3.906   2.689
 3715SOL    HW212045   0.619   4.018   2.717
 3716SOL     OW12046   6.070   6.467   3.830
 3716SOL    HW112047   5.998   6.407   3.866
 3716SOL    HW212048   6.134   6.489   3.903
 3717SOL     OW12049   5.979   6.863   6.878
 3717SOL    HW112050   5.976   6.791   6.809
 3717SOL    HW212051   5.995   6.823   6.968
 3718SOL     OW12052   0.300   0.878   0.143
 3718SOL    HW112053   0.223   0.824   0.109
 3718SOL    HW212054   0.269   0.941   0.213
 3719SOL     OW12055   5.000   3.395   1.559
 3719SOL    HW112056   5.003   3.471   1.495
 3719SOL    HW212057   5.093   3.367   1.582
 3720SOL     OW12058   5.828   3.417   0.205
 3720SOL    HW112059   5.916   3.414   0.157
 3720SOL    HW212060   5.832   3.357   0.285
 3721SOL     OW12061   6.900   5.091   2.068
 3721SOL    HW112062   6.977   5.150   2.094
 3721SOL    HW212063   6.935   5.011   2.019
 3722SOL     OW12064   5.464   6.180   0.941
 3722SOL    HW112065   5.415   6.107   0.990
 3722SOL    HW212066   5.561   6.156   0.935
 3723SOL     OW12067   5.712   4.424   0.735
 3723SOL    HW112068   5.691   4.513   0.775
 3723SOL    HW212069   5.792   4.386   0.781
 3724SOL     OW12070   1.613   4.804   4.910
 3724SOL    HW112071   1.636   4.708   4.920
 3724SOL    HW212072   1.670   4.845   4.839
 3725SOL     OW12073   0.319   5.057   0.147
 3725SOL    HW112074   0.411   5.017   0.149
 3725SOL    HW212075   0.261   5.004   0.086
 3726SOL     OW12076   5.921   3.155   6.299
 3726SOL    HW112077   5.960   3.064   6.289
 3726SOL    HW212078   5.849   3.154   6.368
 3727SOL     OW12079   6.498   1.841   5.636
 3727SOL    HW112080   6.446   1.878   5.713
 3727SOL    HW212081   6.596   1.848   5.655
 3728SOL     OW12082   0.995   3.717   6.449
 3728SOL    HW112083   1.080   3.769   6.442
 3728SOL    HW212084   0.972   3.678   6.360
 3729SOL     OW12085   2.037   2.025   4.301
 3729SOL    HW112086   2.064   1.944   4.249
 3729SOL    HW212087   2.025   2.102   4.238
 3730SOL     OW12088   3.021   6.257   5.267
 3730SOL    HW112089   3.069   6.309   5.338
 3730SOL    HW212090   2.946   6.312   5.230
 3731SOL     OW12091   0.375   1.500   0.522
 3731SOL    HW112092   0.313   1.578   0.514
 3731SOL    HW212093   0.384   1.473   0.618
 3732SOL     OW12094   2.859   2.094   0.081
 3732SOL    HW112095   2.892   2.087   7.003
 3732SOL    HW212096   2.927   2.053   0.143
 3733SOL     OW12097   1.828   3.498   2.751
 3733SOL    HW112098   1.920   3.537   2.747
 3733SOL    HW212099   1.775   3.529   2.673
 3734SOL     OW12100   5.037   0.407   1.183
 3734SOL    HW112101   4.999   0.433   1.094
 3734SOL    HW212102   5.130   0.373   1.170
 3735SOL     OW12103   2.846   1.065   2.810
 3735SOL    HW112104   2.852   1.120   2.726
 3735SOL    HW212105   2.795   0.981   2.792
 3736SOL     OW12106   0.204   1.396   1.239
 3736SOL    HW112107   0.258   1.465   1.190
 3736SOL    HW212108   0.107   1.413   1.223
 3737SOL     OW12109   5.147   0.719   4.476
 3737SOL    HW112110   5.116   0.812   4.500
 3737SOL    HW212111   5.247   0.719   4.466
 3738SOL     OW12112   6.588   0.427   1.761
 3738SOL    HW112113   6.587   0.334   1.724
 3738SOL    HW212114   6.497   0.468   1.750
 3739SOL     OW12115   2.533   5.266   0.853
 3739SOL    HW112116   2.467   5.329   0.811
 3739SOL    HW212117   2.496   5.232   0.939
 3740SOL     OW12118   6.389   0.111   0.684
 3740SOL    HW112119   6.393   0.060   0.598
 3740SOL    HW212120   6.298   0.102   0.724
 3741SOL     OW12121   5.289   2.485   6.018
 3741SOL    HW112122   5.348   2.565   6.019
 3741SOL    HW212123   5.198   2.510   6.052
 3742SOL     OW12124   2.999   1.792   6.653
 3742SOL    HW112125   3.097   1.783   6.634
 3742SOL    HW212126   2.949   1.803   6.567
 3743SOL     OW12127   5.840   2.940   0.858
 3743SOL    HW112128   5.793   2.919   0.944
 3743SOL    HW212129   5.876   3.033   0.861
 3744SOL     OW12130   1.936   6.358   1.768
 3744SOL    HW112131   1.840   6.338   1.754
 3744SOL    HW212132   1.973   6.297   1.838
 3745SOL     OW12133   4.608   4.570   2.618
 3745SOL    HW112134   4.527   4.623   2.642
 3745SOL    HW212135   4.660   4.618   2.548
 3746SOL     OW12136   6.303   0.827   4.026
 3746SOL    HW112137   6.283   0.729   4.022
 3746SOL    HW212138   6.257   0.874   3.951
 3747SOL     OW12139   3.609   5.905   4.971
 3747SOL    HW112140   3.647   5.853   4.895
 3747SOL    HW212141   3.563   5.843   5.034
 3748SOL     OW12142   5.713   0.637   1.795
 3748SOL    HW112143   5.698   0.673   1.887
 3748SOL    HW212144   5.765   0.704   1.741
 3749SOL     OW12145   1.579   4.988   3.334
 3749SOL    HW112146   1.591   5.043   3.417
 3749SOL    HW212147   1.654   5.007   3.271
 3750SOL     OW12148   6.511   4.998   1.303
 3750SOL    HW112149   6.466   5.087   1.312
 3750SOL    HW212150   6.609   5.012   1.289
 3751SOL     OW12151   6.801   3.439   1.500
 3751SOL    HW112152   6.812   3.511   1.568
 3751SOL    HW212153   6.705   3.414   1.493
 3752SOL     OW12154   0.078   6.716   0.952
 3752SOL    HW112155   0.109   6.746   0.862
 3752SOL    HW212156   6.995   6.727   0.959
 3753SOL     OW12157   0.188   1.090   3.853
 3753SOL    HW112158   0.188   1.144   3.769
 3753SOL    HW212159   0.191   1.152   3.932
 3754SOL     OW12160   4.010   6.632   1.252
 3754SOL    HW112161   3.961   6.579   1.321
 3754SOL    HW212162   3.958   6.715   1.231
 3755SOL     OW12163   5.404   5.727   4.511
 3755SOL    HW112164   5.351   5.805   4.545
 3755SOL    HW212165   5.426   5.666   4.588
 3756SOL     OW12166   2.209   5.375   6.393
 3756SOL    HW112167   2.235   5.409   6.302
 3756SOL    HW212168   2.112   5.350   6.392
 3757SOL     OW12169   4.309   6.226   6.640
 3757SOL    HW112170   4.272   6.181   6.558
 3757SOL    HW212171   4.243   6.221   6.714
 3758SOL     OW12172   2.116   1.103   5.515
 3758SOL    HW112173   2.148   1.153   5.435
 3758SOL    HW212174   2.030   1.056   5.494
 3759SOL     OW12175   4.595   5.812   6.044
 3759SOL    HW112176   4.675   5.852   6.090
 3759SOL    HW212177   4.585   5.853   5.954
 3760SOL     OW12178   1.954   1.672   5.189
 3760SOL    HW112179   1.882   1.663   5.258
 3760SOL    HW212180   2.000   1.760   5.200
 3761SOL     OW12181   1.057   0.878   4.748
 3761SOL    HW112182   1.002   0.862   4.830
 3761SOL    HW212183   1.153   0.863   4.768
 3762SOL     OW12184   1.261   4.230   6.935
 3762SOL    HW112185   1.188   4.182   6.886
 3762SOL    HW212186   1.346   4.223   6.883
 3763SOL     OW12187   0.342   4.267   1.229
 3763SOL    HW112188   0.354   4.329   1.152
 3763SOL    HW212189   0.430   4.256   1.277
 3764SOL     OW12190   1.879   6.905   3.916
 3764SOL    HW112191   1.860   6.996   3.879
 3764SOL    HW212192   1.803   6.843   3.893
 3765SOL     OW12193   4.324   1.020   1.133
 3765SOL    HW112194   4.407   1.016   1.076
 3765SOL    HW212195   4.248   1.053   1.077
 3766SOL     OW12196   0.922   1.175   3.763
 3766SOL    HW112197   0.964   1.146   3.849
 3766SOL    HW212198   0.860   1.252   3.781
 3767SOL     OW12199   2.195   4.327   0.309
 3767SOL    HW112200   2.257   4.248   0.309
 3767SOL    HW212201   2.246   4.408   0.337
 3768SOL     OW12202   1.641   6.298   4.879
 3768SOL    HW112203   1.629   6.204   4.846
 3768SOL    HW212204   1.686   6.297   4.968
 3769SOL     OW12205   6.123   6.607   5.194
 3769SOL    HW112206   6.127   6.683   5.129
 3769SOL    HW212207   6.035   6.608   5.242
 3770SOL     OW12208   2.030   0.500   0.106
 3770SOL    HW112209   2.063   0.430   0.042
 3770SOL    HW212210   2.086   0.497   0.189
 3771SOL     OW12211   6.075   3.395   0.110
 3771SOL    HW112212   6.144   3.380   0.180
 3771SOL    HW212213   6.108   3.361   0.022
 3772SOL     OW12214   0.144   1.110   6.688
 3772SOL    HW112215   0.074   1.081   6.753
 3772SOL    HW212216   0.178   1.201   6.713
 3773SOL     OW12217   6.160   2.786   6.136
 3773SOL    HW112218   6.211   2.703   6.159
 3773SOL    HW212219   6.104   2.770   6.055
 3774SOL     OW12220   0.359   6.178   0.410
 3774SOL    HW112221   0.402   6.089   0.429
 3774SOL    HW212222   0.322   6.178   0.317
 3775SOL     OW12223   5.204   5.294   2.249
 3775SOL    HW112224   5.240   5.222   2.189
 3775SOL    HW212225   5.105   5.297   2.242
 3776SOL     OW12226   3.874   1.323   0.809
 3776SOL    HW112227   3.971   1.346   0.797
 3776SOL    HW212228   3.837   1.286   0.724
 3777SOL     OW12229   3.483   4.922   4.375
 3777SOL    HW112230   3.389   4.956   4.369
 3777SOL    HW212231   3.483   4.826   4.400
 3778SOL     OW12232   3.643   4.919   2.424
 3778SOL    HW112233   3.613   4.885   2.335
 3778SOL    HW212234   3.632   5.018   2.428
 3779SOL     OW12235   1.672   4.853   0.732
 3779SOL    HW112236   1.722   4.937   0.713
 3779SOL    HW212237   1.738   4.780   0.753
 3780SOL     OW12238   5.587   6.107   5.275
 3780SOL    HW112239   5.542   6.019   5.287
 3780SOL    HW212240   5.518   6.180   5.275
 3781SOL     OW12241   1.070   0.023   4.651
 3781SOL    HW112242   1.139   7.002   4.590
 3781SOL    HW212243   1.017   6.965   4.691
 3782SOL     OW12244   2.597   0.641   3.887
 3782SOL    HW112245   2.536   0.651   3.966
 3782SOL    HW212246   2.544   0.615   3.807
 3783SOL     OW12247   5.676   5.403   4.031
 3783SOL    HW112248   5.680   5.361   3.940
 3783SOL    HW212249   5.703   5.335   4.100
 3784SOL     OW12250   4.812   2.816   2.182
 3784SOL    HW112251   4.776   2.896   2.133
 3784SOL    HW212252   4.783   2.733   2.135
 3785SOL     OW12253   1.723   1.736   6.397
 3785SOL    HW112254   1.630   1.774   6.407
 3785SOL    HW212255   1.785   1.784   6.459
 3786SOL     OW12256   2.364   6.167   2.737
 3786SOL    HW112257   2.321   6.231   2.673
 3786SOL    HW212258   2.444   6.126   2.694
 3787SOL     OW12259   6.132   0.719   2.436
 3787SOL    HW112260   6.161   0.737   2.531
 3787SOL    HW212261   6.179   0.638   2.402
 3788SOL     OW12262   0.588   4.001   4.539
 3788SOL    HW112263   0.554   3.995   4.445
 3788SOL    HW212264   0.591   3.909   4.578
 3789SOL     OW12265   0.455   2.723   5.192
 3789SOL    HW112266   0.486   2.639   5.237
 3789SOL    HW212267   0.356   2.719   5.179
 3790SOL     OW12268   1.266   4.845   5.161
 3790SOL    HW112269   1.224   4.757   5.183
 3790SOL    HW212270   1.262   4.904   5.242
 3791SOL     OW12271   5.294   0.587   0.489
 3791SOL    HW112272   5.356   0.521   0.447
 3791SOL    HW212273   5.347   0.660   0.533
 3792SOL     OW12274   1.000   1.862   5.164
 3792SOL    HW112275   0.957   1.858   5.073
 3792SOL    HW212276   1.092   1.899   5.154
 3793SOL     OW12277   4.305   6.613   2.902
 3793SOL    HW112278   4.291   6.576   2.810
 3793SOL    HW212279   4.236   6.683   2.921
 3794SOL     OW12280   2.602   3.969   0.328
 3794SOL    HW112281   2.580   3.911   0.406
 3794SOL    HW212282   2.691   3.944   0.291
 3795SOL     OW12283   4.691   6.376   6.347
 3795SOL    HW112284   4.664   6.284   6.317
 3795SOL    HW212285   4.784   6.395   6.317
 3796SOL     OW12286   3.027   1.740   2.087
 3796SOL    HW112287   2.988   1.764   1.998
 3796SOL    HW212288   3.127   1.748   2.083
 3797SOL     OW12289   0.406   3.728   2.179
 3797SOL    HW112290   0.382   3.634   2.154
 3797SOL    HW212291   0.323   3.780   2.197
 3798SOL     OW12292   2.532   5.691   2.711
 3798SOL    HW112293   2.566   5.723   2.623
 3798SOL    HW212294   2.604   5.640   2.758
 3799SOL     OW12295   0.776   2.660   4.410
 3799SOL    HW112296   0.788   2.692   4.316
 3799SOL    HW212297   0.684   2.622   4.421
 3800SOL     OW12298   5.502   3.124   4.081
 3800SOL    HW112299   5.487   3.221   4.101
 3800SOL    HW212300   5.549   3.116   3.993
 3801SOL     OW12301   6.451   6.886   3.145
 3801SOL    HW112302   6.499   6.800   3.130
 3801SOL    HW212303   6.450   6.939   3.060
 3802SOL     OW12304   1.368   2.155   2.664
 3802SOL    HW112305   1.341   2.062   2.638
 3802SOL    HW212306   1.449   2.182   2.612
 3803SOL     OW12307   3.426   2.221   1.186
 3803SOL    HW112308   3.483   2.302   1.178
 3803SOL    HW212309   3.330   2.248   1.194
 3804SOL     OW12310   5.088   0.965   4.135
 3804SOL    HW112311   5.149   1.035   4.172
 3804SOL    HW212312   5.127   0.874   4.153
 3805SOL     OW12313   2.474   2.904   1.589
 3805SOL    HW112314   2.537   2.834   1.624
 3805SOL    HW212315   2.520   2.993   1.591
 3806SOL     OW12316   3.794   4.002   6.363
 3806SOL    HW112317   3.727   3.929   6.371
 3806SOL    HW212318   3.845   4.011   6.449
 3807SOL     OW12319   1.895   5.337   3.139
 3807SOL    HW112320   1.863   5.357   3.232
 3807SOL    HW212321   1.977   5.390   3.120
 3808SOL     OW12322   4.328   0.642   0.876
 3808SOL    HW112323   4.286   0.642   0.967
 3808SOL    HW212324   4.300   0.559   0.827
 3809SOL     OW12325   5.963   3.234   0.866
 3809SOL    HW112326   5.917   3.290   0.797
 3809SOL    HW212327   5.950   3.276   0.956
 3810SOL     OW12328   4.349   2.434   4.335
 3810SOL    HW112329   4.290   2.481   4.400
 3810SOL    HW212330   4.399   2.361   4.381
 3811SOL     OW12331   1.139   3.803   4.351
 3811SOL    HW112332   1.110   3.863   4.275
 3811SOL    HW212333   1.165   3.714   4.315
 3812SOL     OW12334   5.220   0.367   4.540
 3812SOL    HW112335   5.212   0.355   4.639
 3812SOL    HW212336   5.285   0.441   4.521
 3813SOL     OW12337   4.959   4.742   0.462
 3813SOL    HW112338   5.026   4.795   0.411
 3813SOL    HW212339   4.871   4.746   0.416
 3814SOL     OW12340   0.156   0.081   0.428
 3814SOL    HW112341   0.189   7.003   0.431
 3814SOL    HW212342   0.234   0.144   0.426
 3815SOL     OW12343   4.675   3.273   6.860
 3815SOL    HW112344   4.720   3.198   6.812
 3815SOL    HW212345   4.732   3.354   6.856
 3816SOL     OW12346   0.660   5.831   6.637
 3816SOL    HW112347   0.663   5.743   6.591
 3816SOL    HW212348   0.725   5.893   6.595
 3817SOL     OW12349   4.593   4.304   2.487
 3817SOL    HW112350   4.592   4.396   2.526
 3817SOL    HW212351   4.613   4.238   2.560
 3818SOL     OW12352   5.606   0.699   0.398
 3818SOL    HW112353   5.549   0.752   0.461
 3818SOL    HW212354   5.697   0.686   0.438
 3819SOL     OW12355   5.842   5.512   1.579
 3819SOL    HW112356   5.929   5.465   1.562
 3819SOL    HW212357   5.860   5.599   1.624
 3820SOL     OW12358   5.463   6.877   3.136
 3820SOL    HW112359   5.445   6.844   3.228
 3820SOL    HW212360   5.469   6.977   3.136
 3821SOL     OW12361   2.392   1.557   0.689
 3821SOL    HW112362   2.459   1.619   0.729
 3821SOL    HW212363   2.361   1.493   0.759
 3822SOL     OW12364   1.253   6.696   2.426
 3822SOL    HW112365   1.269   6.646   2.341
 3822SOL    HW212366   1.205   6.782   2.406
 3823SOL     OW12367   2.843   2.794   6.172
 3823SOL    HW112368   2.838   2.710   6.227
 3823SOL    HW212369   2.755   2.840   6.173
 3824SOL     OW12370   6.057   2.469   0.553
 3824SOL    HW112371   6.154   2.477   0.576
 3824SOL    HW212372   6.048   2.440   0.458
 3825SOL     OW12373   1.029   6.231   0.512
 3825SOL    HW112374   1.074   6.223   0.600
 3825SOL    HW212375   1.074   6.302   0.458
 3826SOL     OW12376   1.035   2.779   6.842
 3826SOL    HW112377   1.026   2.876   6.820
 3826SOL    HW212378   0.945   2.735   6.839
 3827SOL     OW12379   2.553   2.466   1.240
 3827SOL    HW112380   2.542   2.563   1.262
 3827SOL    HW212381   2.595   2.456   1.150
 3828SOL     OW12382   3.734   2.432   1.635
 3828SOL    HW112383   3.733   2.378   1.720
 3828SOL    HW212384   3.731   2.529   1.657
 3829SOL     OW12385   1.690   4.830   4.262
 3829SOL    HW112386   1.595   4.802   4.275
 3829SOL    HW212387   1.698   4.883   4.178
 3830SOL     OW12388   1.102   0.425   4.103
 3830SOL    HW112389   1.054   0.483   4.037
 3830SOL    HW212390   1.080   0.456   4.195
 3831SOL     OW12391   4.359   2.262   2.650
 3831SOL    HW112392   4.275   2.235   2.696
 3831SOL    HW212393   4.406   2.181   2.615
 3832SOL     OW12394   5.707   0.755   3.107
 3832SOL    HW112395   5.725   0.799   3.019
 3832SOL    HW212396   5.610   0.734   3.115
 3833SOL     OW12397   0.672   5.827   5.852
 3833SOL    HW112398   0.612   5.883   5.909
 3833SOL    HW212399   0.742   5.885   5.811
 3834SOL     OW12400   4.482   3.514   1.615
 3834SOL    HW112401   4.531   3.600   1.629
 3834SOL    HW212402   4.549   3.440   1.605
 3835SOL     OW12403   2.918   5.544   5.371
 3835SOL    HW112404   2.921   5.563   5.469
 3835SOL    HW212405   2.924   5.629   5.320
 3836SOL     OW12406   1.979   4.268   5.476
 3836SOL    HW112407   1.936   4.259   5.386
 3836SOL    HW212408   2.017   4.180   5.504
 3837SOL     OW12409   4.851   4.095   0.101
 3837SOL    HW112410   4.797   4.180   0.108
 3837SOL    HW212411   4.796   4.018   0.132
 3838SOL     OW12412   6.758   3.570   4.693
 3838SOL    HW112413   6.841   3.537   4.649
 3838SOL    HW212414   6.719   3.645   4.640
 3839SOL     OW12415   3.950   0.996   3.914
 3839SOL    HW112416   4.004   1.037   3.840
 3839SOL    HW212417   3.956   0.897   3.908
 3840SOL     OW12418   1.864   1.392   5.640
 3840SOL    HW112419   1.827   1.302   5.665
 3840SOL    HW212420   1.801   1.437   5.576
 3841SOL     OW12421   0.192   3.128   5.517
 3841SOL    HW112422   0.203   3.073   5.600
 3841SOL    HW212423   0.203   3.069   5.437
 3842SOL     OW12424   1.253   3.941   6.461
 3842SOL    HW112425   1.241   3.901   6.370
 3842SOL    HW212426   1.223   4.036   6.460
 3843SOL     OW12427   0.225   4.089   2.592
 3843SOL    HW112428   0.131   4.124   2.600
 3843SOL    HW212429   0.255   4.057   2.682
 3844SOL     OW12430   0.421   2.918   6.585
 3844SOL    HW112431   0.490   2.958   6.524
 3844SOL    HW212432   0.393   2.987   6.652
 3845SOL     OW12433   3.764   2.939   3.055
 3845SOL    HW112434   3.826   2.918   3.130
 3845SOL    HW212435   3.729   3.032   3.066
 3846SOL     OW12436   1.088   4.859   3.959
 3846SOL    HW112437   1.109   4.922   3.884
 3846SOL    HW212438   1.149   4.878   4.036
 3847SOL     OW12439   6.310   0.725   4.708
 3847SOL    HW112440   6.372   0.804   4.711
 3847SOL    HW212441   6.296   0.691   4.801
 3848SOL     OW12442   3.081   5.539   2.587
 3848SOL    HW112443   3.173   5.535   2.625
 3848SOL    HW212444   3.014   5.544   2.661
 3849SOL     OW12445   0.822   1.525   5.188
 3849SOL    HW112446   0.823   1.597   5.258
 3849SOL    HW212447   0.771   1.558   5.108
 3850SOL     OW12448   2.373   3.455   1.436
 3850SOL    HW112449   2.463   3.416   1.414
 3850SOL    HW212450   2.372   3.551   1.408
 3851SOL     OW12451   1.643   4.523   3.038
 3851SOL    HW112452   1.675   4.429   3.049
 3851SOL    HW212453   1.612   4.537   2.944
 3852SOL     OW12454   4.633   6.697   3.909
 3852SOL    HW112455   4.669   6.753   3.983
 3852SOL    HW212456   4.695   6.699   3.831
 3853SOL     OW12457   1.316   2.799   2.654
 3853SOL    HW112458   1.361   2.857   2.585
 3853SOL    HW212459   1.306   2.707   2.617
 3854SOL     OW12460   0.976   3.043   2.304
 3854SOL    HW112461   0.907   2.977   2.335
 3854SOL    HW212462   0.934   3.133   2.291
 3855SOL     OW12463   5.099   5.977   6.348
 3855SOL    HW112464   5.020   6.038   6.347
 3855SOL    HW212465   5.173   6.020   6.400
 3856SOL     OW12466   6.333   6.291   5.630
 3856SOL    HW112467   6.416   6.237   5.618
 3856SOL    HW212468   6.306   6.331   5.543
 3857SOL     OW12469   0.990   5.835   5.827
 3857SOL    HW112470   0.948   5.775   5.895
 3857SOL    HW212471   1.059   5.892   5.872
 3858SOL     OW12472   1.490   6.254   5.311
 3858SOL    HW112473   1.481   6.237   5.213
 3858SOL    HW212474   1.497   6.352   5.327
 3859SOL     OW12475   6.755   2.104   3.163
 3859SOL    HW112476   6.738   2.090   3.261
 3859SOL    HW212477   6.672   2.080   3.111
 3860SOL     OW12478   1.669   0.550   5.693
 3860SOL    HW112479   1.612   0.539   5.612
 3860SOL    HW212480   1.662   0.469   5.751
 3861SOL     OW12481   5.261   4.724   2.375
 3861SOL    HW112482   5.241   4.734   2.472
 3861SOL    HW212483   5.254   4.627   2.349
 3862SOL     OW12484   0.482   6.958   5.197
 3862SOL    HW112485   0.508   6.901   5.275
 3862SOL    HW212486   0.497   6.907   5.112
 3863SOL     OW12487   4.441   2.930   6.519
 3863SOL    HW112488   4.428   2.895   6.426
 3863SOL    HW212489   4.486   2.860   6.574
 3864SOL     OW12490   3.149   1.570   5.233
 3864SOL    HW112491   3.166   1.661   5.271
 3864SOL    HW212492   3.178   1.568   5.138
 3865SOL     OW12493   3.819   0.036   0.835
 3865SOL    HW112494   3.912   0.047   0.799
 3865SOL    HW212495   3.778   0.125   0.850
 3866SOL     OW12496   3.896   1.147   1.042
 3866SOL    HW112497   3.919   1.192   0.955
 3866SOL    HW212498   3.865   1.215   1.108
 3867SOL     OW12499   1.928   3.292   3.646
 3867SOL    HW112500   1.913   3.229   3.721
 3867SOL    HW212501   1.882   3.257   3.564
 3868SOL     OW12502   2.749   6.475   0.876
 3868SOL    HW112503   2.770   6.484   0.974
 3868SOL    HW212504   2.733   6.378   0.855
 3869SOL     OW12505   6.671   3.167   4.647
 3869SOL    HW112506   6.722   3.251   4.660
 3869SOL    HW212507   6.710   3.095   4.705
 3870SOL     OW12508   4.566   5.324   0.760
 3870SOL    HW112509   4.577   5.410   0.711
 3870SOL    HW212510   4.497   5.268   0.715
 3871SOL     OW12511   4.120   0.440   2.570
 3871SOL    HW112512   4.031   0.408   2.538
 3871SOL    HW212513   4.155   0.510   2.508
 3872SOL     OW12514   3.448   2.944   2.193
 3872SOL    HW112515   3.485   2.960   2.101
 3872SOL    HW212516   3.521   2.914   2.254
 3873SOL     OW12517   6.985   5.286   1.325
 3873SOL    HW112518   6.957   5.381   1.337
 3873SOL    HW212519   0.046   5.282   1.261
 3874SOL     OW12520   3.891   5.983   7.007
 3874SOL    HW112521   3.838   5.903   6.977
 3874SOL    HW212522   3.873   6.001   0.087
 3875SOL     OW12523   0.825   2.590   2.386
 3875SOL    HW112524   0.751   2.527   2.362
 3875SOL    HW212525   0.871   2.620   2.302
 3876SOL     OW12526   6.395   5.322   6.726
 3876SOL    HW112527   6.305   5.316   6.769
 3876SOL    HW212528   6.456   5.254   6.766
 3877SOL     OW12529   0.014   2.675   0.177
 3877SOL    HW112530   7.009   2.615   0.254
 3877SOL    HW212531   0.019   2.770   0.209
 3878SOL     OW12532   2.492   6.446   5.383
 3878SOL    HW112533   2.509   6.460   5.286
 3878SOL    HW212534   2.395   6.458   5.402
 3879SOL     OW12535   4.621   6.542   0.942
 3879SOL    HW112536   4.656   6.635   0.949
 3879SOL    HW212537   4.602   6.521   0.846
 3880SOL     OW12538   5.870   4.588   3.443
 3880SOL    HW112539   5.874   4.607   3.542
 3880SOL    HW212540   5.954   4.542   3.415
 3881SOL     OW12541   1.549   5.354   0.332
 3881SOL    HW112542   1.502   5.274   0.368
 3881SOL    HW212543   1.646   5.332   0.317
 3882SOL     OW12544   6.132   1.484   4.654
 3882SOL    HW112545   6.139   1.584   4.661
 3882SOL    HW212546   6.168   1.454   4.566
 3883SOL     OW12547   4.326   1.093   3.245
 3883SOL    HW112548   4.358   0.998   3.237
 3883SOL    HW212549   4.305   1.128   3.154
 3884SOL     OW12550   1.657   5.694   4.036
 3884SOL    HW112551   1.607   5.609   4.018
 3884SOL    HW212552   1.592   5.770   4.042
 3885SOL     OW12553   6.323   1.411   4.317
 3885SOL    HW112554   6.358   1.493   4.361
 3885SOL    HW212555   6.385   1.384   4.244
 3886SOL     OW12556   6.556   0.123   4.978
 3886SOL    HW112557   6.463   0.147   5.008
 3886SOL    HW212558   6.618   0.199   4.999
 3887SOL     OW12559   5.494   2.007   5.655
 3887SOL    HW112560   5.526   2.050   5.739
 3887SOL    HW212561   5.527   1.913   5.650
 3888SOL     OW12562   0.925   0.718   6.427
 3888SOL    HW112563   0.932   0.626   6.465
 3888SOL    HW212564   0.873   0.776   6.490
 3889SOL     OW12565   0.418   3.216   6.332
 3889SOL    HW112566   0.481   3.175   6.398
 3889SOL    HW212567   0.331   3.234   6.377
 3890SOL     OW12568   5.586   6.322   2.946
 3890SOL    HW112569   5.532   6.406   2.946
 3890SOL    HW212570   5.675   6.339   2.987
 3891SOL     OW12571   5.225   4.374   4.980
 3891SOL    HW112572   5.244   4.281   5.010
 3891SOL    HW212573   5.136   4.378   4.935
 3892SOL     OW12574   0.522   0.397   2.401
 3892SOL    HW112575   0.440   0.344   2.380
 3892SOL    HW212576   0.557   0.439   2.318
 3893SOL     OW12577   2.946   5.580   2.272
 3893SOL    HW112578   2.891   5.596   2.190
 3893SOL    HW212579   2.888   5.592   2.353
 3894SOL     OW12580   3.307   2.323   0.425
 3894SOL    HW112581   3.261   2.292   0.508
 3894SOL    HW212582   3.243   2.373   0.368
 3895SOL     OW12583   1.221   1.033   5.430
 3895SOL    HW112584   1.301   1.093   5.439
 3895SOL    HW212585   1.175   1.052   5.344
 3896SOL     OW12586   0.338   2.463   6.136
 3896SOL    HW112587   0.303   2.449   6.043
 3896SOL    HW212588   0.275   2.523   6.186
 3897SOL     OW12589   3.325   6.664   1.906
 3897SOL    HW112590   3.266   6.636   1.981
 3897SOL    HW212591   3.341   6.762   1.912
 3898SOL     OW12592   3.293   2.964   3.306
 3898SOL    HW112593   3.275   3.018   3.225
 3898SOL    HW212594   3.377   2.912   3.293
 3899SOL     OW12595   4.817   1.064   4.341
 3899SOL    HW112596   4.764   1.043   4.259
 3899SOL    HW212597   4.757   1.064   4.421
 3900SOL     OW12598   5.312   3.534   3.408
 3900SOL    HW112599   5.267   3.500   3.491
 3900SOL    HW212600   5.243   3.565   3.343
 3901SOL     OW12601   2.543   6.361   5.765
 3901SOL    HW112602   2.625   6.398   5.720
 3901SOL    HW212603   2.546   6.382   5.863
 3902SOL     OW12604   4.528   4.442   2.247
 3902SOL    HW112605   4.503   4.375   2.317
 3902SOL    HW212606   4.537   4.395   2.159
 3903SOL     OW12607   3.986   3.284   6.815
 3903SOL    HW112608   4.003   3.382   6.816
 3903SOL    HW212609   3.891   3.266   6.838
 3904SOL     OW12610   0.986   1.153   6.231
 3904SOL    HW112611   1.074   1.134   6.274
 3904SOL    HW212612   0.992   1.130   6.133
 3905SOL     OW12613   6.141   6.528   6.155
 3905SOL    HW112614   6.088   6.565   6.079
 3905SOL    HW212615   6.237   6.523   6.129
 3906SOL     OW12616   1.988   5.141   5.374
 3906SOL    HW112617   1.907   5.191   5.344
 3906SOL    HW212618   1.981   5.045   5.347
 3907SOL     OW12619   0.292   1.142   4.597
 3907SOL    HW112620   0.358   1.086   4.647
 3907SOL    HW212621   0.313   1.138   4.499
 3908SOL     OW12622   0.593   1.306   6.770
 3908SOL    HW112623   0.572   1.227   6.713
 3908SOL    HW212624   0.620   1.275   6.861
 3909SOL     OW12625   5.983   4.029   6.330
 3909SOL    HW112626   5.974   3.963   6.405
 3909SOL    HW212627   5.946   3.990   6.246
 3910SOL     OW12628   3.602   4.156   2.066
 3910SOL    HW112629   3.626   4.197   1.978
 3910SOL    HW212630   3.667   4.186   2.136
 3911SOL     OW12631   5.324   1.335   0.888
 3911SOL    HW112632   5.246   1.397   0.891
 3911SOL    HW212633   5.397   1.371   0.946
 3912SOL     OW12634   3.966   0.463   6.447
 3912SOL    HW112635   3.869   0.445   6.430
 3912SOL    HW212636   4.019   0.381   6.430
 3913SOL     OW12637   3.699   5.830   6.908
 3913SOL    HW112638   3.603   5.859   6.910
 3913SOL    HW212639   3.703   5.732   6.891
 3914SOL     OW12640   4.914   1.299   1.838
 3914SOL    HW112641   4.943   1.395   1.831
 3914SOL    HW212642   4.965   1.244   1.772
 3915SOL     OW12643   3.862   6.656   0.055
 3915SOL    HW112644   3.784   6.594   0.054
 3915SOL    HW212645   3.937   6.617   0.003
 3916SOL     OW12646   2.372   6.722   3.114
 3916SOL    HW112647   2.396   6.628   3.140
 3916SOL    HW212648   2.431   6.786   3.163
 3917SOL     OW12649   2.499   4.931   0.462
 3917SOL    HW112650   2.426   4.886   0.411
 3917SOL    HW212651   2.588   4.901   0.426
 3918SOL     OW12652   4.559   0.694   0.524
 3918SOL    HW112653   4.564   0.792   0.504
 3918SOL    HW212654   4.483   0.653   0.474
 3919SOL     OW12655   4.079   0.656   0.250
 3919SOL    HW112656   4.154   0.716   0.277
 3919SOL    HW212657   4.074   0.578   0.313
 3920SOL     OW12658   2.074   0.830   7.015
 3920SOL    HW112659   2.041   0.737   0.013
 3920SOL    HW212660   2.071   0.880   0.085
 3921SOL     OW12661   6.977   2.625   6.937
 3921SOL    HW112662   6.993   2.657   0.014
 3921SOL    HW212663   6.962   2.527   6.937
 3922SOL     OW12664   4.768   5.269   1.433
 3922SOL    HW112665   4.698   5.339   1.446
 3922SOL    HW212666   4.731   5.180   1.461
 3923SOL     OW12667   5.748   1.757   1.113
 3923SOL    HW112668   5.696   1.739   1.030
 3923SOL    HW212669   5.712   1.700   1.188
 3924SOL     OW12670   0.584   4.425   2.962
 3924SOL    HW112671   0.504   4.383   3.004
 3924SOL    HW212672   0.560   4.516   2.928
 3925SOL     OW12673   4.484   4.762   1.584
 3925SOL    HW112674   4.503   4.845   1.531
 3925SOL    HW212675   4.533   4.685   1.543
 3926SOL     OW12676   0.756   0.101   5.698
 3926SOL    HW112677   0.724   0.130   5.607
 3926SOL    HW212678   0.835   0.157   5.724
 3927SOL     OW12679   0.714   3.085   4.043
 3927SOL    HW112680   0.810   3.055   4.044
 3927SOL    HW212681   0.692   3.123   3.954
 3928SOL     OW12682   2.922   6.669   2.108
 3928SOL    HW112683   2.883   6.756   2.137
 3928SOL    HW212684   2.855   6.618   2.056
 3929SOL     OW12685   6.994   0.961   6.890
 3929SOL    HW112686   6.946   0.886   6.845
 3929SOL    HW212687   6.995   0.947   6.988
 3930SOL     OW12688   1.011   2.203   4.005
 3930SOL    HW112689   0.988   2.121   3.954
 3930SOL    HW212690   1.092   2.247   3.964
 3931SOL     OW12691   1.822   2.021   2.076
 3931SOL    HW112692   1.782   2.112   2.091
 3931SOL    HW212693   1.920   2.031   2.059
 3932SOL     OW12694   2.585   5.137   4.252
 3932SOL    HW112695   2.489   5.164   4.245
 3932SOL    HW212696   2.592   5.037   4.251
 3933SOL     OW12697   1.154   6.249   0.122
 3933SOL    HW112698   1.135   6.277   0.027
 3933SOL    HW212699   1.069   6.216   0.164
 3934SOL     OW12700   0.047   1.375   3.204
 3934SOL    HW112701   0.020   1.282   3.183
 3934SOL    HW212702   7.015   1.439   3.143
 3935SOL     OW12703   6.666   2.131   6.001
 3935SOL    HW112704   6.645   2.142   5.904
 3935SOL    HW212705   6.765   2.135   6.014
 3936SOL     OW12706   6.595   6.145   5.536
 3936SOL    HW112707   6.657   6.128   5.459
 3936SOL    HW212708   6.649   6.156   5.620
 3937SOL     OW12709   0.706   5.839   2.807
 3937SOL    HW112710   0.723   5.918   2.748
 3937SOL    HW212711   0.678   5.870   2.897
 3938SOL     OW12712   6.783   3.263   4.274
 3938SOL    HW112713   6.836   3.187   4.313
 3938SOL    HW212714   6.685   3.245   4.286
 3939SOL     OW12715   2.166   1.696   3.746
 3939SOL    HW112716   2.087   1.748   3.779
 3939SOL    HW212717   2.141   1.600   3.736
 3940SOL     OW12718   2.985   4.820   2.110
 3940SOL    HW112719   2.886   4.828   2.103
 3940SOL    HW212720   3.023   4.795   2.021
 3941SOL     OW12721   5.794   6.761   4.035
 3941SOL    HW112722   5.808   6.842   4.091
 3941SOL    HW212723   5.807   6.785   3.938
 3942SOL     OW12724   0.664   6.080   5.601
 3942SOL    HW112725   0.606   6.154   5.567
 3942SOL    HW212726   0.750   6.117   5.634
 3943SOL     OW12727   1.023   3.421   1.513
 3943SOL    HW112728   1.021   3.407   1.612
 3943SOL    HW212729   1.036   3.334   1.466
 3944SOL     OW12730   5.643   3.428   5.842
 3944SOL    HW112731   5.654   3.436   5.941
 3944SOL    HW212732   5.610   3.336   5.820
 3945SOL     OW12733   0.861   2.478   3.211
 3945SOL    HW112734   0.908   2.536   3.277
 3945SOL    HW212735   0.884   2.382   3.228
 3946SOL     OW12736   0.245   3.828   6.977
 3946SOL    HW112737   0.294   3.909   7.008
 3946SOL    HW212738   0.178   3.801   0.030
 3947SOL     OW12739   6.156   5.375   6.910
 3947SOL    HW112740   6.072   5.324   6.888
 3947SOL    HW212741   6.131   5.461   6.955
 3948SOL     OW12742   1.310   3.303   6.948
 3948SOL    HW112743   1.357   3.329   0.016
 3948SOL    HW212744   1.361   3.337   6.869
 3949SOL     OW12745   6.502   0.202   3.139
 3949SOL    HW112746   6.450   0.230   3.220
 3949SOL    HW212747   6.517   0.281   3.080
 3950SOL     OW12748   4.168   4.197   1.520
 3950SOL    HW112749   4.111   4.138   1.462
 3950SOL    HW212750   4.224   4.139   1.580
 3951SOL     OW12751   0.403   1.952   6.636
 3951SOL    HW112752   0.380   2.022   6.704
 3951SOL    HW212753   0.327   1.888   6.626
 3952SOL     OW12754   6.132   3.209   3.951
 3952SOL    HW112755   6.054   3.147   3.964
 3952SOL    HW212756   6.098   3.300   3.927
 3953SOL     OW12757   3.150   4.778   5.925
 3953SOL    HW112758   3.168   4.783   5.827
 3953SOL    HW212759   3.052   4.785   5.942
 3954SOL     OW12760   6.154   4.422   5.702
 3954SOL    HW112761   6.132   4.448   5.796
 3954SOL    HW212762   6.134   4.325   5.688
 3955SOL     OW12763   4.795   6.476   0.346
 3955SOL    HW112764   4.708   6.523   0.356
 3955SOL    HW212765   4.817   6.428   0.432
 3956SOL     OW12766   0.660   2.864   5.462
 3956SOL    HW112767   0.573   2.895   5.502
 3956SOL    HW212768   0.666   2.895   5.367
 3957SOL     OW12769   3.339   6.056   3.856
 3957SOL    HW112770   3.328   5.957   3.866
 3957SOL    HW212771   3.249   6.100   3.862
 3958SOL     OW12772   5.562   6.372   0.418
 3958SOL    HW112773   5.550   6.472   0.416
 3958SOL    HW212774   5.650   6.349   0.378
 3959SOL     OW12775   3.361   6.049   1.354
 3959SOL    HW112776   3.418   5.985   1.406
 3959SOL    HW212777   3.350   6.016   1.261
 3960SOL     OW12778   4.951   2.623   6.672
 3960SOL    HW112779   4.941   2.644   6.769
 3960SOL    HW212780   5.004   2.696   6.628
 3961SOL     OW12781   5.063   1.969   2.093
 3961SOL    HW112782   5.058   2.044   2.159
 3961SOL    HW212783   5.142   1.983   2.033
 3962SOL     OW12784   0.794   6.107   6.901
 3962SOL    HW112785   0.848   6.056   6.967
 3962SOL    HW212786   0.835   6.098   6.810
 3963SOL     OW12787   6.026   5.667   3.222
 3963SOL    HW112788   6.125   5.677   3.232
 3963SOL    HW212789   5.980   5.713   3.297
 3964SOL     OW12790   4.437   5.537   5.116
 3964SOL    HW112791   4.497   5.457   5.110
 3964SOL    HW212792   4.369   5.533   5.043
 3965SOL     OW12793   3.340   4.829   6.363
 3965SOL    HW112794   3.288   4.903   6.320
 3965SOL    HW212795   3.282   4.748   6.371
 3966SOL     OW12796   6.426   4.622   6.603
 3966SOL    HW112797   6.352   4.603   6.539
 3966SOL    HW212798   6.472   4.707   6.577
 3967SOL     OW12799   0.733   5.098   3.540
 3967SOL    HW112800   0.646   5.138   3.512
 3967SOL    HW212801   0.727   4.998   3.539
 3968SOL     OW12802   5.540   0.374   2.426
 3968SOL    HW112803   5.476   0.442   2.391
 3968SOL    HW212804   5.501   0.282   2.415
 3969SOL     OW12805   1.082   4.387   2.569
 3969SOL    HW112806   1.076   4.484   2.547
 3969SOL    HW212807   1.019   4.366   2.644
 3970SOL     OW12808   4.720   5.187   3.644
 3970SOL    HW112809   4.818   5.177   3.661
 3970SOL    HW212810   4.705   5.265   3.583
 3971SOL     OW12811   2.796   5.198   2.668
 3971SOL    HW112812   2.820   5.248   2.751
 3971SOL    HW212813   2.878   5.155   2.630
 3972SOL     OW12814   0.174   5.711   0.556
 3972SOL    HW112815   0.221   5.651   0.492
 3972SOL    HW212816   0.136   5.790   0.506
 3973SOL     OW12817   3.182   3.361   5.098
 3973SOL    HW112818   3.233   3.447   5.089
 3973SOL    HW212819   3.211   3.314   5.182
 3974SOL     OW12820   0.504   0.870   6.190
 3974SOL    HW112821   0.588   0.889   6.139
 3974SOL    HW212822   0.497   0.931   6.268
 3975SOL     OW12823   6.663   0.584   5.829
 3975SOL    HW112824   6.619   0.543   5.909
 3975SOL    HW212825   6.708   0.669   5.855
 3976SOL     OW12826   0.935   5.107   1.163
 3976SOL    HW112827   0.986   5.024   1.185
 3976SOL    HW212828   0.845   5.103   1.207
 3977SOL     OW12829   3.050   5.346   5.973
 3977SOL    HW112830   3.078   5.257   5.936
 3977SOL    HW212831   2.952   5.346   5.991
 3978SOL     OW12832   5.519   1.032   4.873
 3978SOL    HW112833   5.538   0.935   4.889
 3978SOL    HW212834   5.601   1.076   4.836
 3979SOL     OW12835   1.645   6.844   1.552
 3979SOL    HW112836   1.697   6.766   1.519
 3979SOL    HW212837   1.550   6.817   1.567
 3980SOL     OW12838   6.372   3.695   5.355
 3980SOL    HW112839   6.396   3.603   5.385
 3980SOL    HW212840   6.285   3.721   5.396
 3981SOL     OW12841   0.316   1.401   6.098
 3981SOL    HW112842   0.242   1.437   6.041
 3981SOL    HW212843   0.402   1.444   6.073
 3982SOL     OW12844   2.647   0.690   4.689
 3982SOL    HW112845   2.591   0.607   4.690
 3982SOL    HW212846   2.594   0.766   4.651
 3983SOL     OW12847   2.976   6.001   4.551
 3983SOL    HW112848   3.029   6.078   4.584
 3983SOL    HW212849   3.019   5.964   4.468
 3984SOL     OW12850   1.850   0.027   1.516
 3984SOL    HW112851   1.917   6.989   1.466
 3984SOL    HW212852   1.768   6.988   1.532
 3985SOL     OW12853   2.174   3.600   6.905
 3985SOL    HW112854   2.172   3.582   7.003
 3985SOL    HW212855   2.134   3.690   6.887
 3986SOL     OW12856   0.204   1.643   2.703
 3986SOL    HW112857   0.113   1.612   2.732
 3986SOL    HW212858   0.200   1.676   2.609
 3987SOL     OW12859   1.590   5.210   5.046
 3987SOL    HW112860   1.589   5.187   5.144
 3987SOL    HW212861   1.683   5.230   5.018
 3988SOL     OW12862   3.733   1.670   5.835
 3988SOL    HW112863   3.666   1.628   5.774
 3988SOL    HW212864   3.704   1.763   5.858
 3989SOL     OW12865   5.943   0.476   5.877
 3989SOL    HW112866   5.951   0.504   5.781
 3989SOL    HW212867   5.934   0.376   5.881
 3990SOL     OW12868   5.496   2.377   4.723
 3990SOL    HW112869   5.585   2.419   4.736
 3990SOL    HW212870   5.474   2.373   4.626
 3991SOL     OW12871   6.698   2.498   3.146
 3991SOL    HW112872   6.755   2.577   3.168
 3991SOL    HW212873   6.743   2.444   3.074
 3992SOL     OW12874   4.685   3.066   6.648
 3992SOL    HW112875   4.589   3.088   6.667
 3992SOL    HW212876   4.689   2.998   6.574
 3993SOL     OW12877   2.438   2.170   3.392
 3993SOL    HW112878   2.432   2.113   3.309
 3993SOL    HW212879   2.414   2.115   3.472
 3994SOL     OW12880   2.239   2.850   4.844
 3994SOL    HW112881   2.154   2.902   4.835
 3994SOL    HW212882   2.303   2.901   4.903
 3995SOL     OW12883   2.707   4.699   3.867
 3995SOL    HW112884   2.629   4.640   3.887
 3995SOL    HW212885   2.778   4.686   3.937
 3996SOL     OW12886   2.028   1.279   4.751
 3996SOL    HW112887   1.941   1.328   4.743
 3996SOL    HW212888   2.025   1.219   4.831
 3997SOL     OW12889   4.974   3.781   3.360
 3997SOL    HW112890   4.922   3.842   3.300
 3997SOL    HW212891   5.002   3.831   3.442
 3998SOL     OW12892   5.688   2.256   2.184
 3998SOL    HW112893   5.780   2.282   2.154
 3998SOL    HW212894   5.620   2.310   2.134
 3999SOL     OW12895   6.101   4.072   3.555
 3999SOL    HW112896   6.149   4.076   3.467
 3999SOL    HW212897   6.006   4.044   3.539
 4000SOL     OW12898   3.051   5.226   2.871
 4000SOL    HW112899   3.099   5.176   2.798
 4000SOL    HW212900   3.099   5.311   2.890
 4001SOL     OW12901   2.042   3.442   5.211
 4001SOL    HW112902   2.084   3.513   5.268
 4001SOL    HW212903   2.073   3.453   5.116
 4002SOL     OW12904   3.819   3.529   4.660
 4002SOL    HW112905   3.829   3.596   4.586
 4002SOL    HW212906   3.854   3.568   4.745
 4003SOL     OW12907   2.258   1.364   6.451
 4003SOL    HW112908   2.279   1.358   6.353
 4003SOL    HW212909   2.309   1.294   6.501
 4004SOL     OW12910   6.375   3.095   4.684
 4004SOL    HW112911   6.360   3.038   4.603
 4004SOL    HW212912   6.473   3.102   4.703
 4005SOL     OW12913   4.916   4.787   1.497
 4005SOL    HW112914   4.826   4.783   1.452
 4005SOL    HW212915   4.988   4.777   1.429
 4006SOL     OW12916   5.830   4.734   2.472
 4006SOL    HW112917   5.753   4.686   2.514
 4006SOL    HW212918   5.882   4.782   2.542
 4007SOL     OW12919   0.227   2.339   2.844
 4007SOL    HW112920   0.193   2.262   2.898
 4007SOL    HW212921   0.234   2.313   2.748
 4008SOL     OW12922   3.330   1.096   6.006
 4008SOL    HW112923   3.424   1.120   5.985
 4008SOL    HW212924   3.286   1.056   5.925
 4009SOL     OW12925   4.256   2.022   1.222
 4009SOL    HW112926   4.185   1.990   1.160
 4009SOL    HW212927   4.304   2.100   1.180
 4010SOL     OW12928   2.871   3.427   1.502
 4010SOL    HW112929   2.782   3.438   1.547
 4010SOL    HW212930   2.896   3.330   1.500
 4011SOL     OW12931   0.166   6.543   1.804
 4011SOL    HW112932   0.070   6.558   1.826
 4011SOL    HW212933   0.208   6.631   1.780
 4012SOL     OW12934   4.358   6.410   2.255
 4012SOL    HW112935   4.415   6.426   2.336
 4012SOL    HW212936   4.318   6.319   2.260
 4013SOL     OW12937   2.123   0.573   1.279
 4013SOL    HW112938   2.072   0.500   1.234
 4013SOL    HW212939   2.190   0.533   1.342
 4014SOL     OW12940   3.512   5.803   3.835
 4014SOL    HW112941   3.592   5.848   3.795
 4014SOL    HW212942   3.542   5.730   3.896
 4015SOL     OW12943   4.568   4.739   6.911
 4015SOL    HW112944   4.529   4.744   7.003
 4015SOL    HW212945   4.650   4.795   6.906
 4016SOL     OW12946   2.342   5.968   6.638
 4016SOL    HW112947   2.398   5.888   6.619
 4016SOL    HW212948   2.329   5.977   6.737
 4017SOL     OW12949   0.903   6.187   6.187
 4017SOL    HW112950   0.978   6.125   6.211
 4017SOL    HW212951   0.884   6.246   6.266
 4018SOL     OW12952   4.899   6.250   1.344
 4018SOL    HW112953   4.942   6.160   1.343
 4018SOL    HW212954   4.970   6.320   1.348
 4019SOL     OW12955   5.982   4.343   2.913
 4019SOL    HW112956   5.904   4.303   2.866
 4019SOL    HW212957   5.950   4.417   2.973
 4020SOL     OW12958   6.803   3.286   5.917
 4020SOL    HW112959   6.881   3.321   5.866
 4020SOL    HW212960   6.719   3.303   5.865
 4021SOL     OW12961   3.493   4.121   5.176
 4021SOL    HW112962   3.535   4.147   5.089
 4021SOL    HW212963   3.564   4.084   5.237
 4022SOL     OW12964   4.095   6.859   6.840
 4022SOL    HW112965   4.111   6.856   6.939
 4022SOL    HW212966   4.126   6.946   6.803
 4023SOL     OW12967   0.274   0.319   5.264
 4023SOL    HW112968   0.367   0.284   5.264
 4023SOL    HW212969   0.225   0.286   5.183
 4024SOL     OW12970   2.355   5.320   4.623
 4024SOL    HW112971   2.316   5.271   4.545
 4024SOL    HW212972   2.384   5.255   4.693
 4025SOL     OW12973   0.971   5.889   3.995
 4025SOL    HW112974   0.895   5.928   3.942
 4025SOL    HW212975   0.962   5.914   4.091
 4026SOL     OW12976   6.068   6.716   3.688
 4026SOL    HW112977   6.162   6.717   3.657
 4026SOL    HW212978   6.055   6.640   3.752
 4027SOL     OW12979   3.312   2.063   0.171
 4027SOL    HW112980   3.259   2.096   0.249
 4027SOL    HW212981   3.301   2.127   0.095
 4028SOL     OW12982   3.916   1.673   3.684
 4028SOL    HW112983   3.872   1.612   3.750
 4028SOL    HW212984   4.014   1.653   3.680
 4029SOL     OW12985   2.869   4.679   5.717
 4029SOL    HW112986   2.942   4.613   5.727
 4029SOL    HW212987   2.889   4.741   5.641
 4030SOL     OW12988   0.038   1.367   1.842
 4030SOL    HW112989   0.057   1.379   1.939
 4030SOL    HW212990   0.119   1.333   1.796
 4031SOL     OW12991   5.033   5.997   3.716
 4031SOL    HW112992   5.042   6.085   3.670
 4031SOL    HW212993   4.987   6.009   3.804
 4032SOL     OW12994   6.859   0.235   1.655
 4032SOL    HW112995   6.911   0.225   1.740
 4032SOL    HW212996   6.769   0.192   1.667
 4033SOL     OW12997   2.315   2.837   1.382
 4033SOL    HW112998   2.233   2.894   1.382
 4033SOL    HW212999   2.382   2.874   1.446
 4034SOL     OW13000   6.103   1.783   4.712
 4034SOL    HW113001   6.197   1.792   4.744
 4034SOL    HW213002   6.042   1.768   4.791
 4035SOL     OW13003   6.472   1.703   0.940
 4035SOL    HW113004   6.381   1.681   0.974
 4035SOL    HW213005   6.472   1.793   0.898
 4036SOL     OW13006   4.398   5.626   2.281
 4036SOL    HW113007   4.359   5.665   2.198
 4036SOL    HW213008   4.377   5.528   2.284
 4037SOL     OW13009   2.097   1.512   0.059
 4037SOL    HW113010   2.160   1.566   0.115
 4037SOL    HW213011   2.007   1.510   0.102
 4038SOL     OW13012   4.608   2.955   1.520
 4038SOL    HW113013   4.692   3.009   1.509
 4038SOL    HW213014   4.608   2.912   1.610
 4039SOL     OW13015   6.077   5.538   1.203
 4039SOL    HW113016   6.046   5.577   1.290
 4039SOL    HW213017   6.153   5.593   1.167
 4040SOL     OW13018   3.513   0.380   5.975
 4040SOL    HW113019   3.484   0.344   6.063
 4040SOL    HW213020   3.532   0.478   5.984
 4041SOL     OW13021   1.117   5.234   1.429
 4041SOL    HW113022   1.099   5.304   1.360
 4041SOL    HW213023   1.033   5.216   1.480
 4042SOL     OW13024   5.885   5.553   3.013
 4042SOL    HW113025   5.937   5.576   3.096
 4042SOL    HW213026   5.945   5.506   2.949
 4043SOL     OW13027   6.605   2.501   5.252
 4043SOL    HW113028   6.538   2.427   5.244
 4043SOL    HW213029   6.606   2.555   5.168
 4044SOL     OW13030   4.390   6.941   3.244
 4044SOL    HW113031   4.388   6.847   3.212
 4044SOL    HW213032   4.371   7.003   3.168
 4045SOL     OW13033   3.850   6.188   5.067
 4045SOL    HW113034   3.844   6.285   5.089
 4045SOL    HW213035   3.810   6.172   4.977
 4046SOL     OW13036   1.521   1.897   4.132
 4046SOL    HW113037   1.506   1.819   4.071
 4046SOL    HW213038   1.567   1.867   4.215
 4047SOL     OW13039   1.658   2.235   0.488
 4047SOL    HW113040   1.638   2.138   0.504
 4047SOL    HW213041   1.739   2.261   0.540
 4048SOL     OW13042   4.976   1.727   2.017
 4048SOL    HW113043   4.902   1.693   2.073
 4048SOL    HW213044   4.997   1.822   2.042
 4049SOL     OW13045   5.581   5.227   6.212
 4049SOL    HW113046   5.619   5.268   6.129
 4049SOL    HW213047   5.609   5.131   6.217
 4050SOL     OW13048   1.332   0.017   1.935
 4050SOL    HW113049   1.319   6.990   2.025
 4050SOL    HW213050   1.294   6.975   1.864
 4051SOL     OW13051   4.338   2.102   6.713
 4051SOL    HW113052   4.301   2.092   6.620
 4051SOL    HW213053   4.437   2.103   6.709
 4052SOL     OW13054   6.683   1.442   2.545
 4052SOL    HW113055   6.683   1.383   2.626
 4052SOL    HW213056   6.672   1.385   2.463
 4053SOL     OW13057   3.102   5.835   3.965
 4053SOL    HW113058   3.065   5.922   3.997
 4053SOL    HW213059   3.037   5.762   3.983
 4054SOL     OW13060   6.437   4.311   1.536
 4054SOL    HW113061   6.447   4.218   1.572
 4054SOL    HW213062   6.453   4.377   1.610
 4055SOL     OW13063   2.710   3.363   0.220
 4055SOL    HW113064   2.648   3.320   0.155
 4055SOL    HW213065   2.790   3.305   0.233
 4056SOL     OW13066   4.177   3.807   0.438
 4056SOL    HW113067   4.121   3.863   0.499
 4056SOL    HW213068   4.232   3.743   0.492
 4057SOL     OW13069   6.311   2.974   1.195
 4057SOL    HW113070   6.231   2.988   1.137
 4057SOL    HW213071   6.390   3.020   1.155
 4058SOL     OW13072   1.760   0.263   4.627
 4058SOL    HW113073   1.857   0.285   4.641
 4058SOL    HW213074   1.705   0.313   4.694
 4059SOL     OW13075   0.986   1.928   2.860
 4059SOL    HW113076   1.002   2.000   2.791
 4059SOL    HW213077   0.912   1.956   2.921
 4060SOL     OW13078   5.429   5.737   5.214
 4060SOL    HW113079   5.353   5.787   5.255
 4060SOL    HW213080   5.409   5.639   5.215
 4061SOL     OW13081   2.759   4.786   2.447
 4061SOL    HW113082   2.853   4.765   2.422
 4061SOL    HW213083   2.719   4.849   2.380
 4062SOL     OW13084   2.000   1.734   2.330
 4062SOL    HW113085   1.942   1.662   2.291
 4062SOL    HW213086   1.968   1.823   2.298
 4063SOL     OW13087   5.966   6.634   6.750
 4063SOL    HW113088   6.031   6.582   6.694
 4063SOL    HW213089   5.970   6.600   6.844
 4064SOL     OW13090   2.598   0.209   4.068
 4064SOL    HW113091   2.534   0.228   3.993
 4064SOL    HW213092   2.560   0.243   4.154
 4065SOL     OW13093   0.912   6.872   1.225
 4065SOL    HW113094   0.820   6.852   1.257
 4065SOL    HW213095   0.928   6.971   1.228
 4066SOL     OW13096   5.415   5.017   3.761
 4066SOL    HW113097   5.465   5.056   3.839
 4066SOL    HW213098   5.458   4.930   3.735
 4067SOL     OW13099   6.427   3.179   3.035
 4067SOL    HW113100   6.370   3.249   2.992
 4067SOL    HW213101   6.372   3.124   3.097
 4068SOL     OW13102   2.195   1.368   4.411
 4068SOL    HW113103   2.264   1.430   4.374
 4068SOL    HW213104   2.222   1.273   4.393
 4069SOL     OW13105   2.145   5.038   6.405
 4069SOL    HW113106   2.124   5.071   6.313
 4069SOL    HW213107   2.060   5.011   6.450
 4070SOL     OW13108   0.329   3.429   2.156
 4070SOL    HW113109   0.238   3.470   2.159
 4070SOL    HW213110   0.320   3.329   2.161
 4071SOL     OW13111   1.602   0.735   5.255
 4071SOL    HW113112   1.571   0.817   5.303
 4071SOL    HW213113   1.699   0.720   5.274
 4072SOL     OW13114   0.146   5.370   4.703
 4072SOL    HW113115   0.166   5.272   4.698
 4072SOL    HW213116   0.175   5.405   4.792
 4073SOL     OW13117   2.364   6.452   6.364
 4073SOL    HW113118   2.345   6.378   6.428
 4073SOL    HW213119   2.295   6.454   6.292
 4074SOL     OW13120   6.868   3.711   1.969
 4074SOL    HW113121   6.883   3.809   1.980
 4074SOL    HW213122   6.943   3.662   2.014
 4075SOL     OW13123   4.387   2.125   1.852
 4075SOL    HW113124   4.323   2.054   1.880
 4075SOL    HW213125   4.350   2.215   1.875
 4076SOL     OW13126   2.572   2.689   5.484
 4076SOL    HW113127   2.538   2.649   5.569
 4076SOL    HW213128   2.495   2.703   5.421
 4077SOL     OW13129   3.067   0.891   0.200
 4077SOL    HW113130   3.113   0.817   0.250
 4077SOL    HW213131   3.134   0.941   0.146
 4078SOL     OW13132   0.712   5.679   1.723
 4078SOL    HW113133   0.720   5.696   1.625
 4078SOL    HW213134   0.730   5.764   1.773
 4079SOL     OW13135   1.192   1.548   3.743
 4079SOL    HW113136   1.187   1.477   3.813
 4079SOL    HW213137   1.250   1.517   3.668
 4080SOL     OW13138   3.328   4.587   6.751
 4080SOL    HW113139   3.407   4.575   6.811
 4080SOL    HW213140   3.336   4.526   6.672
 4081SOL     OW13141   1.907   2.766   4.844
 4081SOL    HW113142   1.833   2.755   4.778
 4081SOL    HW213143   1.953   2.853   4.828
 4082SOL     OW13144   1.623   3.267   0.771
 4082SOL    HW113145   1.573   3.295   0.689
 4082SOL    HW213146   1.652   3.172   0.761
 4083SOL     OW13147   0.172   4.588   2.046
 4083SOL    HW113148   0.135   4.679   2.066
 4083SOL    HW213149   0.175   4.534   2.130
 4084SOL     OW13150   4.908   2.391   3.642
 4084SOL    HW113151   5.001   2.387   3.679
 4084SOL    HW213152   4.862   2.304   3.658
 4085SOL     OW13153   2.109   6.054   1.005
 4085SOL    HW113154   2.075   6.130   0.950
 4085SOL    HW213155   2.045   5.978   1.000
 4086SOL     OW13156   1.247   5.520   1.746
 4086SOL    HW113157   1.245   5.575   1.830
 4086SOL    HW213158   1.155   5.516   1.707
 4087SOL     OW13159   1.861   1.429   3.182
 4087SOL    HW113160   1.949   1.453   3.139
 4087SOL    HW213161   1.850   1.482   3.266
 4088SOL     OW13162   6.698   0.950   6.667
 4088SOL    HW113163   6.665   0.919   6.578
 4088SOL    HW213164   6.743   1.039   6.657
 4089SOL     OW13165   5.941   5.522   4.133
 4089SOL    HW113166   5.852   5.536   4.090
 4089SOL    HW213167   5.991   5.450   4.083
 4090SOL     OW13168   1.438   5.475   5.437
 4090SOL    HW113169   1.378   5.475   5.357
 4090SOL    HW213170   1.435   5.565   5.481
 4091SOL     OW13171   6.613   6.454   6.616
 4091SOL    HW113172   6.697   6.489   6.659
 4091SOL    HW213173   6.603   6.496   6.526
 4092SOL     OW13174   6.022   2.410   5.254
 4092SOL    HW113175   5.934   2.451   5.274
 4092SOL    HW213176   6.043   2.420   5.157
 4093SOL     OW13177   4.786   5.910   2.276
 4093SOL    HW113178   4.829   5.979   2.217
 4093SOL    HW213179   4.835   5.823   2.266
 4094SOL     OW13180   1.984   5.850   5.671
 4094SOL    HW113181   2.008   5.880   5.579
 4094SOL    HW213182   1.983   5.751   5.675
 4095SOL     OW13183   1.038   3.199   0.639
 4095SOL    HW113184   0.992   3.120   0.599
 4095SOL    HW213185   0.989   3.283   0.614
 4096SOL     OW13186   4.806   6.855   6.130
 4096SOL    HW113187   4.809   6.777   6.067
 4096SOL    HW213188   4.840   6.826   6.220
 4097SOL     OW13189   4.206   4.897   5.023
 4097SOL    HW113190   4.278   4.828   5.021
 4097SOL    HW213191   4.241   4.983   4.987
 4098SOL     OW13192   6.527   2.404   1.704
 4098SOL    HW113193   6.514   2.358   1.616
 4098SOL    HW213194   6.438   2.431   1.740
 4099SOL     OW13195   3.051   5.244   1.251
 4099SOL    HW113196   2.964   5.267   1.294
 4099SOL    HW213197   3.038   5.166   1.190
 4100SOL     OW13198   6.878   0.177   4.837
 4100SOL    HW113199   6.826   0.248   4.885
 4100SOL    HW213200   6.920   0.116   4.903
 4101SOL     OW13201   6.376   1.232   6.751
 4101SOL    HW113202   6.439   1.192   6.817
 4101SOL    HW213203   6.312   1.162   6.719
 4102SOL     OW13204   0.525   0.782   0.624
 4102SOL    HW113205   0.450   0.716   0.615
 4102SOL    HW213206   0.608   0.742   0.586
 4103SOL     OW13207   6.995   6.938   0.148
 4103SOL    HW113208   6.976   6.933   0.246
 4103SOL    HW213209   6.928   6.998   0.104
 4104SOL     OW13210   0.083   4.710   2.908
 4104SOL    HW113211   0.134   4.713   2.821
 4104SOL    HW213212   0.036   4.797   2.922
 4105SOL     OW13213   5.224   6.799   1.588
 4105SOL    HW113214   5.275   6.804   1.674
 4105SOL    HW213215   5.252   6.874   1.528
 4106SOL     OW13216   6.280   3.344   2.868
 4106SOL    HW113217   6.330   3.427   2.844
 4106SOL    HW213218   6.229   3.311   2.788
 4107SOL     OW13219   1.064   4.848   1.162
 4107SOL    HW113220   1.024   4.763   1.198
 4107SOL    HW213221   1.094   4.833   1.068
 4108SOL     OW13222   5.807   4.749   5.230
 4108SOL    HW113223   5.724   4.732   5.177
 4108SOL    HW213224   5.782   4.778   5.323
 4109SOL     OW13225   5.974   0.246   4.860
 4109SOL    HW113226   5.935   0.292   4.780
 4109SOL    HW213227   5.903   0.190   4.904
 4110SOL     OW13228   4.352   3.604   6.143
 4110SOL    HW113229   4.413   3.536   6.103
 4110SOL    HW213230   4.273   3.618   6.083
 4111SOL     OW13231   5.050   3.389   0.344
 4111SOL    HW113232   4.997   3.464   0.382
 4111SOL    HW213233   5.132   3.375   0.399
 4112SOL     OW13234   4.951   6.228   4.629
 4112SOL    HW113235   4.867   6.260   4.672
 4112SOL    HW213236   4.945   6.242   4.530
 4113SOL     OW13237   5.193   6.165   4.782
 4113SOL    HW113238   5.243   6.240   4.739
 4113SOL    HW213239   5.097   6.170   4.756
 4114SOL     OW13240   3.480   1.945   4.311
 4114SOL    HW113241   3.391   1.900   4.307
 4114SOL    HW213242   3.499   1.989   4.223
 4115SOL     OW13243   3.384   5.282   1.848
 4115SOL    HW113244   3.387   5.206   1.783
 4115SOL    HW213245   3.354   5.248   1.937
 4116SOL     OW13246   2.994   0.907   2.567
 4116SOL    HW113247   2.947   0.984   2.524
 4116SOL    HW213248   2.948   0.822   2.545
 4117SOL     OW13249   1.583   4.162   2.330
 4117SOL    HW113250   1.536   4.088   2.379
 4117SOL    HW213251   1.542   4.173   2.240
 4118SOL     OW13252   3.603   6.562   0.107
 4118SOL    HW113253   3.556   6.636   0.059
 4118SOL    HW213254   3.536   6.505   0.155
 4119SOL     OW13255   2.728   1.864   3.830
 4119SOL    HW113256   2.756   1.929   3.900
 4119SOL    HW213257   2.630   1.847   3.836
 4120SOL     OW13258   3.673   1.104   6.478
 4120SOL    HW113259   3.648   1.189   6.430
 4120SOL    HW213260   3.639   1.108   6.572
 4121SOL     OW13261   5.883   1.260   4.426
 4121SOL    HW113262   5.945   1.245   4.349
 4121SOL    HW213263   5.869   1.174   4.475
 4122SOL     OW13264   1.221   5.270   4.718
 4122SOL    HW113265   1.145   5.208   4.702
 4122SOL    HW213266   1.294   5.221   4.767
 4123SOL     OW13267   4.293   4.487   5.579
 4123SOL    HW113268   4.198   4.481   5.609
 4123SOL    HW213269   4.344   4.545   5.643
 4124SOL     OW13270   0.124   5.991   0.531
 4124SOL    HW113271   0.152   6.083   0.504
 4124SOL    HW213272   0.099   5.990   0.627
 4125SOL     OW13273   5.228   1.732   2.183
 4125SOL    HW113274   5.138   1.743   2.140
 4125SOL    HW213275   5.248   1.811   2.240
 4126SOL     OW13276   1.545   3.356   4.260
 4126SOL    HW113277   1.503   3.429   4.315
 4126SOL    HW213278   1.631   3.389   4.222
 4127SOL     OW13279   4.770   4.784   5.005
 4127SOL    HW113280   4.806   4.765   4.914
 4127SOL    HW213281   4.836   4.837   5.057
 4128SOL     OW13282   1.091   3.039   1.335
 4128SOL    HW113283   1.074   3.119   1.392
 4128SOL    HW213284   1.145   3.066   1.255
 4129SOL     OW13285   3.891   1.447   5.871
 4129SOL    HW113286   3.832   1.527   5.860
 4129SOL    HW213287   3.974   1.472   5.920
 4130SOL     OW13288   6.496   3.461   6.813
 4130SOL    HW113289   6.591   3.462   6.843
 4130SOL    HW213290   6.474   3.373   6.773
 4131SOL     OW13291   0.598   0.936   3.755
 4131SOL    HW113292   0.694   0.954   3.776
 4131SOL    HW213293   0.559   0.876   3.826
 4132SOL     OW13294   4.980   4.411   3.533
 4132SOL    HW113295   5.053   4.416   3.601
 4132SOL    HW213296   4.939   4.320   3.535
 4133SOL     OW13297   2.652   5.590   0.737
 4133SOL    HW113298   2.588   5.556   0.805
 4133SOL    HW213299   2.655   5.690   0.741
 4134SOL     OW13300   2.356   3.591   0.760
 4134SOL    HW113301   2.359   3.600   0.660
 4134SOL    HW213302   2.449   3.596   0.796
 4135SOL     OW13303   1.111   1.570   2.495
 4135SOL    HW113304   1.159   1.589   2.580
 4135SOL    HW213305   1.159   1.497   2.445
 4136SOL     OW13306   1.286   2.313   3.372
 4136SOL    HW113307   1.215   2.295   3.440
 4136SOL    HW213308   1.286   2.411   3.350
 4137SOL     OW13309   1.060   4.350   0.864
 4137SOL    HW113310   1.034   4.262   0.905
 4137SOL    HW213311   0.987   4.417   0.881
 4138SOL     OW13312   5.114   5.451   2.883
 4138SOL    HW113313   5.108   5.388   2.806
 4138SOL    HW213314   5.077   5.540   2.856
 4139SOL     OW13315   1.798   1.762   5.903
 4139SOL    HW113316   1.818   1.855   5.934
 4139SOL    HW213317   1.882   1.717   5.876
 4140SOL     OW13318   3.397   0.392   5.324
 4140SOL    HW113319   3.333   0.359   5.255
 4140SOL    HW213320   3.431   0.482   5.297
 4141SOL     OW13321   6.012   6.232   1.084
 4141SOL    HW113322   6.049   6.151   1.038
 4141SOL    HW213323   6.064   6.313   1.056
 4142SOL     OW13324   6.779   5.073   1.223
 4142SOL    HW113325   6.847   5.109   1.287
 4142SOL    HW213326   6.789   4.974   1.216
 4143SOL     OW13327   5.713   1.144   0.343
 4143SOL    HW113328   5.689   1.238   0.370
 4143SOL    HW213329   5.771   1.146   0.262
 4144SOL     OW13330   4.845   3.286   0.193
 4144SOL    HW113331   4.882   3.305   0.102
 4144SOL    HW213332   4.915   3.304   0.262
 4145SOL     OW13333   6.809   6.002   1.488
 4145SOL    HW113334   6.892   5.954   1.462
 4145SOL    HW213335   6.830   6.068   1.561
 4146SOL     OW13336   6.461   0.842   3.780
 4146SOL    HW113337   6.511   0.928   3.794
 4146SOL    HW213338   6.377   0.861   3.729
 4147SOL     OW13339   5.261   3.965   6.656
 4147SOL    HW113340   5.333   3.903   6.625
 4147SOL    HW213341   5.196   3.981   6.582
 4148SOL     OW13342   1.502   0.573   5.467
 4148SOL    HW113343   1.525   0.639   5.396
 4148SOL    HW213344   1.402   0.567   5.475
 4149SOL     OW13345   6.920   3.426   0.319
 4149SOL    HW113346   6.991   3.467   0.377
 4149SOL    HW213347   6.910   3.479   0.235
 4150SOL     OW13348   1.235   0.967   5.846
 4150SOL    HW113349   1.156   1.021   5.818
 4150SOL    HW213350   1.270   1.003   5.933
 4151SOL     OW13351   2.329   5.803   6.144
 4151SOL    HW113352   2.308   5.815   6.241
 4151SOL    HW213353   2.367   5.888   6.107
 4152SOL     OW13354   4.875   5.810   0.741
 4152SOL    HW113355   4.826   5.814   0.828
 4152SOL    HW213356   4.950   5.744   0.747
 4153SOL     OW13357   4.604   5.604   6.824
 4153SOL    HW113358   4.518   5.634   6.867
 4153SOL    HW213359   4.678   5.665   6.852
 4154SOL     OW13360   6.830   5.366   3.747
 4154SOL    HW113361   6.915   5.352   3.797
 4154SOL    HW213362   6.842   5.442   3.682
 4155SOL     OW13363   1.212   0.862   2.601
 4155SOL    HW113364   1.142   0.798   2.633
 4155SOL    HW213365   1.184   0.955   2.623
 4156SOL     OW13366   5.221   5.959   4.957
 4156SOL    HW113367   5.212   6.025   4.883
 4156SOL    HW213368   5.218   6.006   5.045
 4157SOL     OW13369   4.623   5.154   4.335
 4157SOL    HW113370   4.665   5.117   4.252
 4157SOL    HW213371   4.562   5.229   4.312
 4158SOL     OW13372   0.777   3.828   1.910
 4158SOL    HW113373   0.780   3.869   1.819
 4158SOL    HW213374   0.817   3.892   1.976
 4159SOL     OW13375   2.146   3.443   3.718
 4159SOL    HW113376   2.145   3.420   3.816
 4159SOL    HW213377   2.069   3.399   3.673
 4160SOL     OW13378   5.960   1.109   1.203
 4160SOL    HW113379   5.864   1.101   1.230
 4160SOL    HW213380   5.988   1.206   1.206
 4161SOL     OW13381   0.995   1.311   0.707
 4161SOL    HW113382   0.903   1.340   0.733
 4161SOL    HW213383   1.062   1.360   0.764
 4162SOL     OW13384   0.049   6.448   6.448
 4162SOL    HW113385   6.989   6.389   6.420
 4162SOL    HW213386   0.125   6.391   6.479
 4163SOL     OW13387   5.232   6.578   3.135
 4163SOL    HW113388   5.181   6.654   3.095
 4163SOL    HW213389   5.168   6.507   3.165
 4164SOL     OW13390   1.656   6.554   5.988
 4164SOL    HW113391   1.616   6.619   5.923
 4164SOL    HW213392   1.706   6.604   6.059
 4165SOL     OW13393   4.227   6.628   6.732
 4165SOL    HW113394   4.165   6.555   6.760
 4165SOL    HW213395   4.184   6.717   6.750
 4166SOL     OW13396   6.274   3.271   0.857
 4166SOL    HW113397   6.312   3.185   0.822
 4166SOL    HW213398   6.174   3.266   0.856
 4167SOL     OW13399   1.494   3.941   1.121
 4167SOL    HW113400   1.543   4.017   1.078
 4167SOL    HW213401   1.489   3.864   1.058
 4168SOL     OW13402   6.749   4.792   1.236
 4168SOL    HW113403   6.796   4.722   1.290
 4168SOL    HW213404   6.663   4.754   1.200
 4169SOL     OW13405   5.914   4.257   4.373
 4169SOL    HW113406   5.995   4.211   4.408
 4169SOL    HW213407   5.941   4.336   4.318
 4170SOL     OW13408   4.925   4.268   5.690
 4170SOL    HW113409   4.969   4.240   5.775
 4170SOL    HW213410   4.892   4.362   5.699
 4171SOL     OW13411   6.687   5.329   0.289
 4171SOL    HW113412   6.775   5.286   0.310
 4171SOL    HW213413   6.632   5.336   0.372
 4172SOL     OW13414   0.540   1.743   6.109
 4172SOL    HW113415   0.606   1.719   6.180
 4172SOL    HW213416   0.473   1.808   6.145
 4173SOL     OW13417   5.325   3.601   5.576
 4173SOL    HW113418   5.311   3.580   5.673
 4173SOL    HW213419   5.422   3.602   5.555
 4174SOL     OW13420   5.198   0.657   3.216
 4174SOL    HW113421   5.202   0.561   3.243
 4174SOL    HW213422   5.116   0.673   3.162
 4175SOL     OW13423   2.600   5.923   4.289
 4175SOL    HW113424   2.597   6.015   4.249
 4175SOL    HW213425   2.531   5.866   4.246
 4176SOL     OW13426   3.005   6.128   1.781
 4176SOL    HW113427   3.102   6.132   1.804
 4176SOL    HW213428   2.972   6.221   1.761
 4177SOL     OW13429   5.877   4.542   4.777
 4177SOL    HW113430   5.821   4.464   4.805
 4177SOL    HW213431   5.828   4.627   4.794
 4178SOL     OW13432   4.830   0.584   4.153
 4178SOL    HW113433   4.912   0.541   4.193
 4178SOL    HW213434   4.857   0.661   4.095
 4179SOL     OW13435   5.125   2.796   3.701
 4179SOL    HW113436   5.176   2.726   3.651
 4179SOL    HW213437   5.189   2.863   3.739
 4180SOL     OW13438   5.134   4.319   1.096
 4180SOL    HW113439   5.084   4.242   1.136
 4180SOL    HW213440   5.074   4.369   1.034
 4181SOL     OW13441   2.605   1.593   1.082
 4181SOL    HW113442   2.606   1.640   0.994
 4181SOL    HW213443   2.602   1.662   1.155
 4182SOL     OW13444   0.716   6.654   3.537
 4182SOL    HW113445   0.802   6.652   3.486
 4182SOL    HW213446   0.686   6.748   3.549
 4183SOL     OW13447   4.305   1.120   6.960
 4183SOL    HW113448   4.258   1.208   6.950
 4183SOL    HW213449   4.273   1.075   0.028
 4184SOL     OW13450   4.894   5.063   1.139
 4184SOL    HW113451   4.981   5.068   1.189
 4184SOL    HW213452   4.859   5.155   1.122
 4185SOL     OW13453   0.708   5.536   2.412
 4185SOL    HW113454   0.670   5.490   2.492
 4185SOL    HW213455   0.748   5.624   2.440
 4186SOL     OW13456   2.396   5.205   0.485
 4186SOL    HW113457   2.443   5.152   0.415
 4186SOL    HW213458   2.459   5.227   0.559
 4187SOL     OW13459   3.471   3.686   6.136
 4187SOL    HW113460   3.493   3.592   6.111
 4187SOL    HW213461   3.540   3.721   6.198
 4188SOL     OW13462   4.402   0.103   4.500
 4188SOL    HW113463   4.383   0.135   4.593
 4188SOL    HW213464   4.421   0.181   4.441
 4189SOL     OW13465   3.761   0.166   5.614
 4189SOL    HW113466   3.715   0.162   5.703
 4189SOL    HW213467   3.820   0.246   5.610
 4190SOL     OW13468   0.786   0.702   0.048
 4190SOL    HW113469   0.757   0.797   0.058
 4190SOL    HW213470   0.750   0.647   0.124
 4191SOL     OW13471   5.356   3.903   3.070
 4191SOL    HW113472   5.381   3.998   3.052
 4191SOL    HW213473   5.350   3.888   3.169
 4192SOL     OW13474   0.473   1.121   4.152
 4192SOL    HW113475   0.497   1.202   4.205
 4192SOL    HW213476   0.555   1.087   4.105
 4193SOL     OW13477   1.473   0.544   2.341
 4193SOL    HW113478   1.422   0.484   2.403
 4193SOL    HW213479   1.570   0.519   2.342
 4194SOL     OW13480   5.735   0.487   5.167
 4194SOL    HW113481   5.727   0.581   5.200
 4194SOL    HW213482   5.688   0.425   5.229
 4195SOL     OW13483   4.197   6.608   2.144
 4195SOL    HW113484   4.196   6.689   2.202
 4195SOL    HW213485   4.242   6.533   2.193
 4196SOL     OW13486   5.650   1.794   3.570
 4196SOL    HW113487   5.576   1.840   3.522
 4196SOL    HW213488   5.613   1.717   3.623
 4197SOL     OW13489   4.917   5.930   5.443
 4197SOL    HW113490   4.971   5.989   5.384
 4197SOL    HW213491   4.852   5.985   5.495
 4198SOL     OW13492   5.871   3.642   0.385
 4198SOL    HW113493   5.843   3.566   0.325
 4198SOL    HW213494   5.881   3.725   0.331
 4199SOL     OW13495   2.237   3.060   6.420
 4199SOL    HW113496   2.161   3.059   6.486
 4199SOL    HW213497   2.234   2.975   6.366
 4200SOL     OW13498   3.214   6.325   5.980
 4200SOL    HW113499   3.207   6.345   6.078
 4200SOL    HW213500   3.250   6.406   5.933
 4201SOL     OW13501   6.416   6.082   3.902
 4201SOL    HW113502   6.385   6.035   3.820
 4201SOL    HW213503   6.337   6.110   3.957
 4202SOL     OW13504   4.034   5.323   5.817
 4202SOL    HW113505   3.964   5.285   5.757
 4202SOL    HW213506   4.121   5.278   5.798
 4203SOL     OW13507   5.153   5.214   0.326
 4203SOL    HW113508   5.121   5.212   0.421
 4203SOL    HW213509   5.075   5.227   0.265
 4204SOL     OW13510   4.056   3.257   2.521
 4204SOL    HW113511   4.071   3.329   2.454
 4204SOL    HW213512   4.078   3.291   2.612
 4205SOL     OW13513   4.065   5.246   3.478
 4205SOL    HW113514   3.972   5.245   3.439
 4205SOL    HW213515   4.106   5.336   3.461
 4206SOL     OW13516   6.455   0.665   5.676
 4206SOL    HW113517   6.553   0.672   5.698
 4206SOL    HW213518   6.435   0.572   5.644
 4207SOL     OW13519   1.533   1.256   1.533
 4207SOL    HW113520   1.513   1.200   1.453
 4207SOL    HW213521   1.528   1.353   1.508
 4208SOL     OW13522   0.822   3.869   6.599
 4208SOL    HW113523   0.740   3.860   6.656
 4208SOL    HW213524   0.873   3.783   6.600
 4209SOL     OW13525   0.460   1.200   5.651
 4209SOL    HW113526   0.497   1.166   5.738
 4209SOL    HW213527   0.496   1.146   5.576
 4210SOL     OW13528   2.799   3.466   2.068
 4210SOL    HW113529   2.843   3.415   2.142
 4210SOL    HW213530   2.713   3.505   2.101
 4211SOL     OW13531   3.581   5.409   5.677
 4211SOL    HW113532   3.553   5.463   5.598
 4211SOL    HW213533   3.656   5.455   5.725
 4212SOL     OW13534   6.056   2.743   2.674
 4212SOL    HW113535   5.985   2.684   2.711
 4212SOL    HW213536   6.102   2.791   2.749
 4213SOL     OW13537   2.406   0.798   2.030
 4213SOL    HW113538   2.489   0.791   1.975
 4213SOL    HW213539   2.378   0.894   2.038
 4214SOL     OW13540   1.722   4.532   5.180
 4214SOL    HW113541   1.731   4.436   5.155
 4214SOL    HW213542   1.702   4.540   5.278
 4215SOL     OW13543   6.837   6.385   4.703
 4215SOL    HW113544   6.859   6.340   4.617
 4215SOL    HW213545   6.774   6.461   4.686
 4216SOL     OW13546   1.043   1.652   3.281
 4216SOL    HW113547   1.071   1.647   3.377
 4216SOL    HW213548   1.120   1.683   3.225
 4217SOL     OW13549   6.757   0.333   2.800
 4217SOL    HW113550   6.800   0.342   2.710
 4217SOL    HW213551   6.828   0.326   2.870
 4218SOL     OW13552   4.612   0.797   1.587
 4218SOL    HW113553   4.538   0.754   1.535
 4218SOL    HW213554   4.574   0.846   1.665
 4219SOL     OW13555   2.761   5.216   3.535
 4219SOL    HW113556   2.661   5.211   3.527
 4219SOL    HW213557   2.802   5.149   3.474
 4220SOL     OW13558   5.653   2.905   3.582
 4220SOL    HW113559   5.682   2.986   3.633
 4220SOL    HW213560   5.697   2.904   3.492
 4221SOL     OW13561   6.298   5.665   6.203
 4221SOL    HW113562   6.227   5.705   6.146
 4221SOL    HW213563   6.277   5.569   6.221
 4222SOL     OW13564   5.778   2.349   2.952
 4222SOL    HW113565   5.687   2.373   2.986
 4222SOL    HW213566   5.823   2.287   3.016
 4223SOL     OW13567   2.928   3.193   5.416
 4223SOL    HW113568   2.837   3.219   5.448
 4223SOL    HW213569   2.924   3.173   5.318
 4224SOL     OW13570   4.967   3.172   3.293
 4224SOL    HW113571   4.963   3.085   3.243
 4224SOL    HW213572   4.961   3.248   3.229
 4225SOL     OW13573   3.916   0.428   5.534
 4225SOL    HW113574   3.856   0.435   5.455
 4225SOL    HW213575   4.008   0.459   5.509
 4226SOL     OW13576   0.627   0.472   2.651
 4226SOL    HW113577   0.670   0.561   2.641
 4226SOL    HW213578   0.575   0.449   2.569
 4227SOL     OW13579   3.707   4.819   6.724
 4227SOL    HW113580   3.625   4.836   6.669
 4227SOL    HW213581   3.782   4.877   6.691
 4228SOL     OW13582   0.673   3.576   4.123
 4228SOL    HW113583   0.708   3.586   4.216
 4228SOL    HW213584   0.610   3.652   4.103
 4229SOL     OW13585   4.916   5.301   5.080
 4229SOL    HW113586   4.867   5.235   5.137
 4229SOL    HW213587   5.003   5.325   5.125
 4230SOL     OW13588   1.940   0.428   3.965
 4230SOL    HW113589   1.892   0.511   3.939
 4230SOL    HW213590   2.038   0.440   3.952
 4231SOL     OW13591   5.812   6.086   4.809
 4231SOL    HW113592   5.874   6.016   4.845
 4231SOL    HW213593   5.727   6.043   4.779
 4232SOL     OW13594   0.362   4.320   2.524
 4232SOL    HW113595   0.305   4.238   2.527
 4232SOL    HW213596   0.306   4.400   2.548
 4233SOL     OW13597   7.014   0.537   6.751
 4233SOL    HW113598   6.943   0.497   6.809
 4233SOL    HW213599   6.973   0.603   6.688
 4234SOL     OW13600   1.456   0.235   5.797
 4234SOL    HW113601   1.415   0.150   5.831
 4234SOL    HW213602   1.452   0.305   5.869
 4235SOL     OW13603   5.051   4.069   5.908
 4235SOL    HW113604   5.124   4.008   5.878
 4235SOL    HW213605   4.969   4.015   5.928
 4236SOL     OW13606   0.249   3.559   2.905
 4236SOL    HW113607   0.204   3.643   2.936
 4236SOL    HW213608   0.348   3.568   2.915
 4237SOL     OW13609   6.434   5.384   3.291
 4237SOL    HW113610   6.526   5.386   3.329
 4237SOL    HW213611   6.419   5.296   3.245
 4238SOL     OW13612   3.384   4.886   2.725
 4238SOL    HW113613   3.303   4.833   2.747
 4238SOL    HW213614   3.370   4.981   2.753
 4239SOL     OW13615   5.656   1.400   3.569
 4239SOL    HW113616   5.570   1.443   3.543
 4239SOL    HW213617   5.729   1.433   3.508
 4240SOL     OW13618   2.485   6.805   0.091
 4240SOL    HW113619   2.468   6.754   0.175
 4240SOL    HW213620   2.422   6.776   0.020
 4241SOL     OW13621   6.370   0.694   1.351
 4241SOL    HW113622   6.298   0.649   1.404
 4241SOL    HW213623   6.335   0.720   1.262
 4242SOL     OW13624   1.879   0.861   3.229
 4242SOL    HW113625   1.919   0.951   3.209
 4242SOL    HW213626   1.898   0.798   3.154
 4243SOL     OW13627   0.140   4.137   3.780
 4243SOL    HW113628   0.228   4.146   3.826
 4243SOL    HW213629   0.155   4.112   3.685
 4244SOL     OW13630   5.430   5.289   0.746
 4244SOL    HW113631   5.473   5.202   0.720
 4244SOL    HW213632   5.400   5.285   0.841
 4245SOL     OW13633   6.279   1.112   6.288
 4245SOL    HW113634   6.212   1.186   6.276
 4245SOL    HW213635   6.320   1.089   6.200
 4246SOL     OW13636   5.691   3.151   3.873
 4246SOL    HW113637   5.773   3.108   3.911
 4246SOL    HW213638   5.701   3.250   3.877
 4247SOL     OW13639   2.104   5.229   3.421
 4247SOL    HW113640   2.138   5.149   3.371
 4247SOL    HW213641   2.180   5.293   3.437
 4248SOL     OW13642   1.609   1.345   3.535
 4248SOL    HW113643   1.523   1.375   3.494
 4248SOL    HW213644   1.685   1.388   3.486
 4249SOL     OW13645   4.956   1.276   4.307
 4249SOL    HW113646   5.037   1.304   4.359
 4249SOL    HW213647   4.918   1.193   4.347
 4250SOL     OW13648   5.940   6.354   4.574
 4250SOL    HW113649   5.870   6.425   4.583
 4250SOL    HW213650   5.898   6.264   4.576
 4251SOL     OW13651   5.962   3.398   1.073
 4251SOL    HW113652   5.975   3.494   1.051
 4251SOL    HW213653   5.937   3.389   1.170
 4252SOL     OW13654   5.443   6.088   6.167
 4252SOL    HW113655   5.513   6.056   6.104
 4252SOL    HW213656   5.398   6.169   6.129
 4253SOL     OW13657   3.483   6.921   1.374
 4253SOL    HW113658   3.564   6.863   1.367
 4253SOL    HW213659   3.401   6.866   1.360
 4254SOL     OW13660   1.954   4.030   1.831
 4254SOL    HW113661   1.952   4.016   1.732
 4254SOL    HW213662   1.962   3.942   1.878
 4255SOL     OW13663   6.915   4.146   3.883
 4255SOL    HW113664   7.003   4.155   3.838
 4255SOL    HW213665   6.907   4.214   3.956
 4256SOL     OW13666   1.009   5.964   1.044
 4256SOL    HW113667   0.964   5.902   1.109
 4256SOL    HW213668   0.989   5.934   0.951
 4257SOL     OW13669   3.568   1.134   4.880
 4257SOL    HW113670   3.531   1.226   4.870
 4257SOL    HW213671   3.530   1.090   4.961
 4258SOL     OW13672   3.117   6.098   0.668
 4258SOL    HW113673   3.092   6.174   0.608
 4258SOL    HW213674   3.207   6.115   0.708
 4259SOL     OW13675   1.308   6.621   1.003
 4259SOL    HW113676   1.211   6.628   1.023
 4259SOL    HW213677   1.351   6.711   1.015
 4260SOL     OW13678   5.915   0.594   3.130
 4260SOL    HW113679   5.888   0.499   3.115
 4260SOL    HW213680   5.833   0.651   3.132
 4261SOL     OW13681   2.098   0.450   2.823
 4261SOL    HW113682   2.091   0.376   2.756
 4261SOL    HW213683   2.098   0.412   2.916
 4262SOL     OW13684   0.869   3.874   6.176
 4262SOL    HW113685   0.956   3.835   6.146
 4262SOL    HW213686   0.844   3.836   6.264
 4263SOL     OW13687   2.419   0.314   3.257
 4263SOL    HW113688   2.377   0.240   3.310
 4263SOL    HW213689   2.410   0.294   3.160
 4264SOL     OW13690   0.109   2.290   4.831
 4264SOL    HW113691   0.131   2.377   4.786
 4264SOL    HW213692   0.140   2.214   4.774
 4265SOL     OW13693   3.767   1.203   0.597
 4265SOL    HW113694   3.699   1.131   0.610
 4265SOL    HW213695   3.847   1.166   0.550
 4266SOL     OW13696   2.068   6.315   6.455
 4266SOL    HW113697   2.139   6.256   6.494
 4266SOL    HW213698   2.043   6.282   6.364
 4267SOL     OW13699   2.299   4.379   4.403
 4267SOL    HW113700   2.283   4.469   4.442
 4267SOL    HW213701   2.213   4.342   4.368
 4268SOL     OW13702   1.090   5.550   6.841
 4268SOL    HW113703   1.141   5.605   6.907
 4268SOL    HW213704   1.074   5.603   6.758
 4269SOL     OW13705   2.705   0.034   3.241
 4269SOL    HW113706   2.649   6.975   3.274
 4269SOL    HW213707   2.686   0.051   3.144
 4270SOL     OW13708   3.794   2.901   2.116
 4270SOL    HW113709   3.758   2.965   2.185
 4270SOL    HW213710   3.855   2.835   2.160
 4271SOL     OW13711   0.284   0.650   0.626
 4271SOL    HW113712   0.238   0.712   0.690
 4271SOL    HW213713   0.224   0.633   0.547
 4272SOL     OW13714   6.647   2.713   4.493
 4272SOL    HW113715   6.576   2.658   4.448
 4272SOL    HW213716   6.694   2.768   4.424
 4273SOL     OW13717   4.628   6.392   4.366
 4273SOL    HW113718   4.553   6.442   4.323
 4273SOL    HW213719   4.661   6.320   4.305
 4274SOL     OW13720   1.492   6.746   2.103
 4274SOL    HW113721   1.570   6.806   2.122
 4274SOL    HW213722   1.413   6.801   2.078
 4275SOL     OW13723   6.742   2.153   4.236
 4275SOL    HW113724   6.803   2.227   4.266
 4275SOL    HW213725   6.790   2.066   4.239
 4276SOL     OW13726   2.673   5.322   3.960
 4276SOL    HW113727   2.706   5.248   4.018
 4276SOL    HW213728   2.743   5.394   3.955
 4277SOL     OW13729   6.776   4.647   2.872
 4277SOL    HW113730   6.820   4.631   2.784
 4277SOL    HW213731   6.784   4.744   2.896
 4278SOL     OW13732   0.141   6.728   4.923
 4278SOL    HW113733   0.173   6.740   5.017
 4278SOL    HW213734   0.077   6.652   4.919
 4279SOL     OW13735   1.901   1.148   3.255
 4279SOL    HW113736   1.890   1.243   3.226
 4279SOL    HW213737   1.884   1.140   3.353
 4280SOL     OW13738   5.650   0.014   5.386
 4280SOL    HW113739   5.748   7.015   5.375
 4280SOL    HW213740   5.602   6.995   5.305
 4281SOL     OW13741   5.531   4.970   3.202
 4281SOL    HW113742   5.484   4.961   3.290
 4281SOL    HW213743   5.592   5.049   3.205
 4282SOL     OW13744   3.371   4.640   0.451
 4282SOL    HW113745   3.374   4.731   0.410
 4282SOL    HW213746   3.276   4.609   0.456
 4283SOL     OW13747   2.331   0.969   3.300
 4283SOL    HW113748   2.426   0.940   3.313
 4283SOL    HW213749   2.306   1.033   3.372
 4284SOL     OW13750   3.972   4.504   1.007
 4284SOL    HW113751   3.983   4.405   1.012
 4284SOL    HW213752   4.012   4.538   0.922
 4285SOL     OW13753   2.436   1.033   6.078
 4285SOL    HW113754   2.419   0.935   6.065
 4285SOL    HW213755   2.437   1.078   5.989
 4286SOL     OW13756   5.902   6.894   6.047
 4286SOL    HW113757   5.886   6.796   6.052
 4286SOL    HW213758   5.834   6.942   6.102
 4287SOL     OW13759   4.784   1.025   5.807
 4287SOL    HW113760   4.873   1.000   5.772
 4287SOL    HW213761   4.714   1.009   5.737
 4288SOL     OW13762   0.881   5.629   3.956
 4288SOL    HW113763   0.896   5.579   4.041
 4288SOL    HW213764   0.924   5.719   3.962
 4289SOL     OW13765   0.874   2.081   5.785
 4289SOL    HW113766   0.929   2.059   5.866
 4289SOL    HW213767   0.888   2.177   5.761
 4290SOL     OW13768   1.117   6.197   4.657
 4290SOL    HW113769   1.110   6.292   4.687
 4290SOL    HW213770   1.027   6.154   4.662
 4291SOL     OW13771   5.022   3.706   0.032
 4291SOL    HW113772   4.955   3.671   0.097
 4291SOL    HW213773   4.988   3.789   7.005
 4292SOL     OW13774   6.655   3.242   0.048
 4292SOL    HW113775   6.666   3.269   0.144
 4292SOL    HW213776   6.573   3.186   0.038
 4293SOL     OW13777   3.520   4.382   0.380
 4293SOL    HW113778   3.492   4.478   0.391
 4293SOL    HW213779   3.495   4.330   0.461
 4294SOL     OW13780   1.694   1.372   6.398
 4294SOL    HW113781   1.730   1.398   6.488
 4294SOL    HW213782   1.768   1.376   6.331
 4295SOL     OW13783   5.429   5.473   4.261
 4295SOL    HW113784   5.476   5.385   4.255
 4295SOL    HW213785   5.486   5.539   4.308
 4296SOL     OW13786   3.208   6.654   0.272
 4296SOL    HW113787   3.181   6.568   0.316
 4296SOL    HW213788   3.294   6.686   0.312
 4297SOL     OW13789   5.727   0.138   1.677
 4297SOL    HW113790   5.696   0.214   1.734
 4297SOL    HW213791   5.757   0.173   1.588
 4298SOL     OW13792   3.713   5.876   0.972
 4298SOL    HW113793   3.739   5.871   0.875
 4298SOL    HW213794   3.643   5.946   0.984
 4299SOL     OW13795   1.615   2.344   6.743
 4299SOL    HW113796   1.525   2.357   6.786
 4299SOL    HW213797   1.686   2.350   6.812
 4300SOL     OW13798   2.830   0.118   0.223
 4300SOL    HW113799   2.819   0.081   0.315
 4300SOL    HW213800   2.901   0.188   0.223
 4301SOL     OW13801   4.840   0.136   1.295
 4301SOL    HW113802   4.801   0.051   1.331
 4301SOL    HW213803   4.919   0.115   1.238
 4302SOL     OW13804   6.740   0.303   5.994
 4302SOL    HW113805   6.833   0.283   5.966
 4302SOL    HW213806   6.699   0.222   6.036
 4303SOL     OW13807   0.321   4.290   4.345
 4303SOL    HW113808   0.407   4.317   4.303
 4303SOL    HW213809   0.245   4.331   4.295
 4304SOL     OW13810   3.257   3.319   2.583
 4304SOL    HW113811   3.206   3.237   2.607
 4304SOL    HW213812   3.351   3.295   2.560
 4305SOL     OW13813   1.012   6.975   5.654
 4305SOL    HW113814   1.065   0.033   5.695
 4305SOL    HW213815   0.928   6.960   5.706
 4306SOL     OW13816   4.407   4.621   4.449
 4306SOL    HW113817   4.437   4.548   4.511
 4306SOL    HW213818   4.487   4.664   4.407
 4307SOL     OW13819   6.198   3.851   5.182
 4307SOL    HW113820   6.233   3.914   5.251
 4307SOL    HW213821   6.247   3.764   5.190
 4308SOL     OW13822   6.220   5.775   1.303
 4308SOL    HW113823   6.293   5.824   1.350
 4308SOL    HW213824   6.229   5.788   1.205
 4309SOL     OW13825   1.190   1.361   0.910
 4309SOL    HW113826   1.241   1.291   0.960
 4309SOL    HW213827   1.214   1.451   0.946
 4310SOL     OW13828   1.453   2.790   1.478
 4310SOL    HW113829   1.376   2.817   1.537
 4310SOL    HW213830   1.433   2.701   1.437
 4311SOL     OW13831   0.326   6.018   2.786
 4311SOL    HW113832   0.272   6.081   2.729
 4311SOL    HW213833   0.272   5.989   2.864
 4312SOL     OW13834   1.447   5.461   2.328
 4312SOL    HW113835   1.536   5.476   2.284
 4312SOL    HW213836   1.423   5.541   2.382
 4313SOL     OW13837   4.840   2.311   0.754
 4313SOL    HW113838   4.799   2.244   0.693
 4313SOL    HW213839   4.904   2.265   0.816
 4314SOL     OW13840   5.570   1.805   5.158
 4314SOL    HW113841   5.646   1.773   5.101
 4314SOL    HW213842   5.485   1.763   5.126
 4315SOL     OW13843   1.974   0.824   3.508
 4315SOL    HW113844   1.938   0.862   3.422
 4315SOL    HW213845   2.073   0.815   3.502
 4316SOL     OW13846   4.924   0.473   1.426
 4316SOL    HW113847   4.973   0.475   1.339
 4316SOL    HW213848   4.837   0.425   1.414
 4317SOL     OW13849   5.424   1.494   5.596
 4317SOL    HW113850   5.429   1.453   5.687
 4317SOL    HW213851   5.328   1.513   5.574
 4318SOL     OW13852   1.370   1.753   4.824
 4318SOL    HW113853   1.398   1.669   4.870
 4318SOL    HW213854   1.272   1.750   4.808
 4319SOL     OW13855   2.230   1.924   0.915
 4319SOL    HW113856   2.248   1.959   1.007
 4319SOL    HW213857   2.311   1.940   0.858
 4320SOL     OW13858   3.410   5.386   0.923
 4320SOL    HW113859   3.421   5.403   1.021
 4320SOL    HW213860   3.346   5.311   0.909
 4321SOL     OW13861   0.028   4.502   4.533
 4321SOL    HW113862   0.124   4.505   4.560
 4321SOL    HW213863   7.002   4.419   4.567
 4322SOL     OW13864   6.289   2.855   6.984
 4322SOL    HW113865   6.371   2.828   6.934
 4322SOL    HW213866   6.208   2.832   6.931
 4323SOL     OW13867   4.660   4.706   0.404
 4323SOL    HW113868   4.612   4.725   0.490
 4323SOL    HW213869   4.652   4.609   0.382
 4324SOL     OW13870   5.847   4.572   5.821
 4324SOL    HW113871   5.786   4.634   5.870
 4324SOL    HW213872   5.804   4.541   5.736
 4325SOL     OW13873   3.127   1.174   2.086
 4325SOL    HW113874   3.087   1.232   2.158
 4325SOL    HW213875   3.061   1.163   2.012
 4326SOL     OW13876   4.706   4.721   1.996
 4326SOL    HW113877   4.641   4.650   1.969
 4326SOL    HW213878   4.744   4.699   2.086
 4327SOL     OW13879   5.523   5.709   1.437
 4327SOL    HW113880   5.494   5.614   1.426
 4327SOL    HW213881   5.514   5.736   1.533
 4328SOL     OW13882   5.394   4.419   5.608
 4328SOL    HW113883   5.386   4.414   5.508
 4328SOL    HW213884   5.431   4.508   5.634
 4329SOL     OW13885   4.388   2.816   5.829
 4329SOL    HW113886   4.470   2.838   5.775
 4329SOL    HW213887   4.316   2.882   5.808
 4330SOL     OW13888   2.202   6.363   4.204
 4330SOL    HW113889   2.269   6.327   4.269
 4330SOL    HW213890   2.111   6.329   4.228
 4331SOL     OW13891   5.639   0.704   2.100
 4331SOL    HW113892   5.541   0.725   2.107
 4331SOL    HW213893   5.691   0.790   2.099
 4332SOL     OW13894   5.257   3.389   2.631
 4332SOL    HW113895   5.346   3.427   2.606
 4332SOL    HW213896   5.257   3.363   2.727
 4333SOL     OW13897   4.320   1.547   5.240
 4333SOL    HW113898   4.362   1.638   5.234
 4333SOL    HW213899   4.331   1.512   5.333
 4334SOL     OW13900   2.386   2.621   2.380
 4334SOL    HW113901   2.388   2.681   2.300
 4334SOL    HW213902   2.446   2.543   2.365
 4335SOL     OW13903   3.588   3.407   1.486
 4335SOL    HW113904   3.568   3.310   1.469
 4335SOL    HW213905   3.656   3.414   1.559
 4336SOL     OW13906   2.582   6.598   6.271
 4336SOL    HW113907   2.618   6.538   6.200
 4336SOL    HW213908   2.499   6.559   6.310
 4337SOL     OW13909   2.231   4.618   1.606
 4337SOL    HW113910   2.311   4.651   1.556
 4337SOL    HW213911   2.210   4.681   1.680
 4338SOL     OW13912   6.288   6.780   5.794
 4338SOL    HW113913   6.329   6.847   5.732
 4338SOL    HW213914   6.241   6.710   5.741
 4339SOL     OW13915   4.093   2.830   6.196
 4339SOL    HW113916   4.009   2.871   6.232
 4339SOL    HW213917   4.171   2.889   6.215
 4340SOL     OW13918   6.139   3.700   1.624
 4340SOL    HW113919   6.169   3.787   1.587
 4340SOL    HW213920   6.172   3.626   1.566
 4341SOL     OW13921   1.226   4.984   1.356
 4341SOL    HW113922   1.198   5.080   1.365
 4341SOL    HW213923   1.172   4.940   1.285
 4342SOL     OW13924   5.431   4.143   2.987
 4342SOL    HW113925   5.491   4.083   2.934
 4342SOL    HW213926   5.486   4.209   3.038
 4343SOL     OW13927   2.890   5.958   4.823
 4343SOL    HW113928   2.823   6.026   4.851
 4343SOL    HW213929   2.894   5.953   4.724
 4344SOL     OW13930   0.913   3.990   2.795
 4344SOL    HW113931   0.978   4.040   2.738
 4344SOL    HW213932   0.887   4.046   2.873
 4345SOL     OW13933   3.485   4.212   4.659
 4345SOL    HW113934   3.430   4.184   4.580
 4345SOL    HW213935   3.448   4.170   4.742
 4346SOL     OW13936   2.128   3.419   2.774
 4346SOL    HW113937   2.193   3.344   2.790
 4346SOL    HW213938   2.121   3.435   2.676
 4347SOL     OW13939   5.360   6.543   2.901
 4347SOL    HW113940   5.336   6.570   2.994
 4347SOL    HW213941   5.349   6.621   2.839
 4348SOL     OW13942   0.246   5.678   4.088
 4348SOL    HW113943   0.194   5.675   4.002
 4348SOL    HW213944   0.182   5.668   4.165
 4349SOL     OW13945   6.427   1.987   3.144
 4349SOL    HW113946   6.362   1.956   3.075
 4349SOL    HW213947   6.455   1.909   3.201
 4350SOL     OW13948   4.184   1.986   4.013
 4350SOL    HW113949   4.098   1.989   4.065
 4350SOL    HW213950   4.209   2.078   3.984
 4351SOL     OW13951   1.114   6.172   1.652
 4351SOL    HW113952   1.185   6.135   1.592
 4351SOL    HW213953   1.040   6.210   1.596
 4352SOL     OW13954   6.371   4.416   2.266
 4352SOL    HW113955   6.467   4.427   2.240
 4352SOL    HW213956   6.364   4.413   2.366
 4353SOL     OW13957   3.345   3.123   6.760
 4353SOL    HW113958   3.265   3.147   6.816
 4353SOL    HW213959   3.314   3.077   6.677
 4354SOL     OW13960   2.003   1.488   6.434
 4354SOL    HW113961   1.992   1.512   6.337
 4354SOL    HW213962   2.089   1.437   6.446
 4355SOL     OW13963   2.129   6.536   3.016
 4355SOL    HW113964   2.129   6.623   2.966
 4355SOL    HW213965   2.063   6.541   3.091
 4356SOL     OW13966   4.664   3.690   6.399
 4356SOL    HW113967   4.759   3.692   6.369
 4356SOL    HW213968   4.605   3.727   6.326
 4357SOL     OW13969   0.364   0.906   1.255
 4357SOL    HW113970   0.433   0.878   1.188
 4357SOL    HW213971   0.379   0.856   1.340
 4358SOL     OW13972   6.208   1.221   0.892
 4358SOL    HW113973   6.113   1.191   0.893
 4358SOL    HW213974   6.254   1.184   0.811
 4359SOL     OW13975   1.342   1.428   6.759
 4359SOL    HW113976   1.274   1.362   6.791
 4359SOL    HW213977   1.429   1.411   6.805
 4360SOL     OW13978   0.624   3.401   3.571
 4360SOL    HW113979   0.637   3.331   3.501
 4360SOL    HW213980   0.608   3.356   3.659
 4361SOL     OW13981   2.389   4.152   1.512
 4361SOL    HW113982   2.365   4.135   1.417
 4361SOL    HW213983   2.310   4.188   1.561
 4362SOL     OW13984   6.968   5.957   4.295
 4362SOL    HW113985   6.901   5.901   4.245
 4362SOL    HW213986   6.960   6.052   4.266
 4363SOL     OW13987   4.395   1.689   1.279
 4363SOL    HW113988   4.312   1.736   1.309
 4363SOL    HW213989   4.466   1.700   1.348
 4364SOL     OW13990   3.277   4.054   3.751
 4364SOL    HW113991   3.345   3.984   3.771
 4364SOL    HW213992   3.302   4.101   3.666
 4365SOL     OW13993   2.503   0.355   2.010
 4365SOL    HW113994   2.509   0.290   2.085
 4365SOL    HW213995   2.570   0.429   2.024
 4366SOL     OW13996   6.175   6.752   6.421
 4366SOL    HW113997   6.244   6.762   6.349
 4366SOL    HW213998   6.199   6.811   6.498
 4367SOL     OW13999   2.811   4.963   3.972
 4367SOL    HW114000   2.857   4.877   3.994
 4367SOL    HW214001   2.712   4.948   3.973
 4368SOL     OW14002   3.522   5.613   1.866
 4368SOL    HW114003   3.447   5.548   1.873
 4368SOL    HW214004   3.486   5.704   1.845
 4369SOL     OW14005   4.671   4.765   2.838
 4369SOL    HW114006   4.719   4.781   2.924
 4369SOL    HW214007   4.572   4.763   2.856
 4370SOL     OW14008   3.714   4.807   1.451
 4370SOL    HW114009   3.722   4.896   1.405
 4370SOL    HW214010   3.631   4.806   1.507
 4371SOL     OW14011   1.985   2.011   2.597
 4371SOL    HW114012   1.917   2.066   2.645
 4371SOL    HW214013   1.947   1.922   2.573
 4372SOL     OW14014   2.438   2.461   4.351
 4372SOL    HW114015   2.395   2.550   4.342
 4372SOL    HW214016   2.375   2.398   4.397
 4373SOL     OW14017   4.467   1.331   0.251
 4373SOL    HW114018   4.504   1.274   0.177
 4373SOL    HW214019   4.383   1.289   0.285
 4374SOL     OW14020   1.282   1.421   1.569
 4374SOL    HW114021   1.190   1.437   1.603
 4374SOL    HW214022   1.293   1.324   1.546
 4375SOL     OW14023   4.264   6.013   2.932
 4375SOL    HW114024   4.359   6.006   2.961
 4375SOL    HW214025   4.240   5.932   2.878
 4376SOL     OW14026   6.044   0.400   2.767
 4376SOL    HW114027   6.013   0.327   2.706
 4376SOL    HW214028   6.017   0.378   2.861
 4377SOL     OW14029   5.640   5.302   6.915
 4377SOL    HW114030   5.739   5.286   6.920
 4377SOL    HW214031   5.623   5.398   6.891
 4378SOL     OW14032   1.944   2.743   2.399
 4378SOL    HW114033   2.015   2.693   2.449
 4378SOL    HW214034   1.975   2.837   2.383
 4379SOL     OW14035   2.592   1.379   1.970
 4379SOL    HW114036   2.589   1.281   1.951
 4379SOL    HW214037   2.687   1.409   1.978
 4380SOL     OW14038   2.160   6.556   3.948
 4380SOL    HW114039   2.139   6.498   3.869
 4380SOL    HW214040   2.082   6.556   4.011
 4381SOL     OW14041   2.239   4.239   4.932
 4381SOL    HW114042   2.222   4.258   5.029
 4381SOL    HW214043   2.281   4.149   4.923
 4382SOL     OW14044   6.171   3.231   6.464
 4382SOL    HW114045   6.088   3.237   6.520
 4382SOL    HW214046   6.145   3.227   6.367
 4383SOL     OW14047   1.001   3.239   5.439
 4383SOL    HW114048   1.074   3.305   5.456
 4383SOL    HW214049   1.016   3.194   5.351
 4384SOL     OW14050   5.273   1.512   6.874
 4384SOL    HW114051   5.298   1.428   6.923
 4384SOL    HW214052   5.319   1.589   6.917
 4385SOL     OW14053   6.931   2.675   4.512
 4385SOL    HW114054   6.942   2.667   4.611
 4385SOL    HW214055   6.841   2.711   4.490
 4386SOL     OW14056   1.779   3.704   6.708
 4386SOL    HW114057   1.752   3.780   6.767
 4386SOL    HW214058   1.718   3.699   6.629
 4387SOL     OW14059   0.522   1.189   1.572
 4387SOL    HW114060   0.489   1.214   1.662
 4387SOL    HW214061   0.446   1.195   1.506
 4388SOL     OW14062   4.956   1.082   6.448
 4388SOL    HW114063   5.052   1.100   6.427
 4388SOL    HW214064   4.901   1.163   6.427
 4389SOL     OW14065   5.878   2.088   0.565
 4389SOL    HW114066   5.787   2.096   0.526
 4389SOL    HW214067   5.943   2.141   0.510
 4390SOL     OW14068   3.980   1.836   1.726
 4390SOL    HW114069   4.065   1.783   1.728
 4390SOL    HW214070   3.905   1.782   1.763
 4391SOL     OW14071   1.510   5.999   6.104
 4391SOL    HW114072   1.545   6.071   6.164
 4391SOL    HW214073   1.412   6.011   6.091
 4392SOL     OW14074   6.778   3.524   5.413
 4392SOL    HW114075   6.756   3.496   5.319
 4392SOL    HW214076   6.850   3.465   5.449
 4393SOL     OW14077   5.451   0.018   2.702
 4393SOL    HW114078   5.536   6.994   2.667
 4393SOL    HW214079   5.412   0.079   2.633
 4394SOL     OW14080   5.811   5.726   2.775
 4394SOL    HW114081   5.877   5.727   2.699
 4394SOL    HW214082   5.833   5.650   2.837
 4395SOL     OW14083   3.871   0.787   1.997
 4395SOL    HW114084   3.930   0.829   1.928
 4395SOL    HW214085   3.807   0.724   1.952
 4396SOL     OW14086   2.532   2.342   4.103
 4396SOL    HW114087   2.530   2.409   4.177
 4396SOL    HW214088   2.480   2.260   4.131
 4397SOL     OW14089   0.381   1.357   4.939
 4397SOL    HW114090   0.306   1.293   4.954
 4397SOL    HW214091   0.468   1.308   4.941
 4398SOL     OW14092   0.883   4.206   4.823
 4398SOL    HW114093   0.919   4.217   4.730
 4398SOL    HW214094   0.815   4.133   4.824
 4399SOL     OW14095   1.645   0.828   1.811
 4399SOL    HW114096   1.581   0.774   1.866
 4399SOL    HW214097   1.595   0.894   1.756
 4400SOL     OW14098   2.409   0.154   5.157
 4400SOL    HW114099   2.359   0.215   5.096
 4400SOL    HW214100   2.448   0.079   5.105
 4401SOL     OW14101   4.735   0.166   6.811
 4401SOL    HW114102   4.746   0.067   6.809
 4401SOL    HW214103   4.804   0.209   6.753
 4402SOL     OW14104   2.252   6.516   1.708
 4402SOL    HW114105   2.160   6.521   1.749
 4402SOL    HW214106   2.247   6.541   1.612
 4403SOL     OW14107   0.527   6.809   4.042
 4403SOL    HW114108   0.559   6.725   3.998
 4403SOL    HW214109   0.491   6.871   3.973
 4404SOL     OW14110   0.372   4.274   6.056
 4404SOL    HW114111   0.392   4.360   6.103
 4404SOL    HW214112   0.455   4.239   6.013
 4405SOL     OW14113   3.083   4.638   1.001
 4405SOL    HW114114   3.137   4.553   1.004
 4405SOL    HW214115   3.083   4.681   1.091
 4406SOL     OW14116   6.449   4.256   1.010
 4406SOL    HW114117   6.495   4.253   0.921
 4406SOL    HW214118   6.516   4.249   1.083
 4407SOL     OW14119   0.813   4.138   0.645
 4407SOL    HW114120   0.731   4.132   0.588
 4407SOL    HW214121   0.892   4.159   0.588
 4408SOL     OW14122   3.940   1.133   1.554
 4408SOL    HW114123   4.036   1.118   1.529
 4408SOL    HW214124   3.914   1.226   1.528
 4409SOL     OW14125   4.563   6.679   1.747
 4409SOL    HW114126   4.494   6.690   1.820
 4409SOL    HW214127   4.652   6.707   1.782
 4410SOL     OW14128   1.510   5.704   0.309
 4410SOL    HW114129   1.586   5.710   0.244
 4410SOL    HW214130   1.456   5.622   0.288
 4411SOL     OW14131   3.333   2.920   3.628
 4411SOL    HW114132   3.233   2.926   3.621
 4411SOL    HW214133   3.364   2.841   3.575
 4412SOL     OW14134   3.560   0.473   4.882
 4412SOL    HW114135   3.537   0.520   4.797
 4412SOL    HW214136   3.489   0.406   4.903
 4413SOL     OW14137   5.098   5.719   4.917
 4413SOL    HW114138   5.120   5.816   4.916
 4413SOL    HW214139   5.112   5.680   4.826
 4414SOL     OW14140   3.882   5.091   1.742
 4414SOL    HW114141   3.831   5.006   1.753
 4414SOL    HW214142   3.897   5.109   1.645
 4415SOL     OW14143   3.945   3.695   6.408
 4415SOL    HW114144   4.044   3.688   6.419
 4415SOL    HW214145   3.924   3.743   6.323
 4416SOL     OW14146   2.429   0.103   4.347
 4416SOL    HW114147   2.376   0.113   4.262
 4416SOL    HW214148   2.389   0.162   4.418
 4417SOL     OW14149   5.935   4.533   3.087
 4417SOL    HW114150   5.845   4.527   3.130
 4417SOL    HW214151   6.006   4.514   3.155
 4418SOL     OW14152   5.431   0.704   3.089
 4418SOL    HW114153   5.348   0.693   3.144
 4418SOL    HW214154   5.406   0.715   2.993
 4419SOL     OW14155   5.415   5.932   0.447
 4419SOL    HW114156   5.396   5.996   0.373
 4419SOL    HW214157   5.348   5.945   0.520
 4420SOL     OW14158   5.342   1.300   1.446
 4420SOL    HW114159   5.380   1.387   1.475
 4420SOL    HW214160   5.388   1.225   1.494
 4421SOL     OW14161   2.043   1.479   4.015
 4421SOL    HW114162   2.116   1.506   4.078
 4421SOL    HW214163   1.974   1.551   4.012
 4422SOL     OW14164   2.992   4.378   5.859
 4422SOL    HW114165   2.998   4.290   5.907
 4422SOL    HW214166   2.897   4.398   5.839
 4423SOL     OW14167   1.084   2.668   5.521
 4423SOL    HW114168   1.001   2.722   5.534
 4423SOL    HW214169   1.076   2.614   5.437
 4424SOL     OW14170   5.207   6.934   4.040
 4424SOL    HW114171   5.196   6.945   3.941
 4424SOL    HW214172   5.124   6.965   4.086
 4425SOL     OW14173   3.680   5.720   6.520
 4425SOL    HW114174   3.631   5.806   6.533
 4425SOL    HW214175   3.620   5.644   6.545
 4426SOL     OW14176   0.527   2.054   4.890
 4426SOL    HW114177   0.508   1.956   4.885
 4426SOL    HW214178   0.613   2.068   4.940
 4427SOL     OW14179   6.827   6.186   2.726
 4427SOL    HW114180   6.747   6.125   2.726
 4427SOL    HW214181   6.806   6.268   2.673
 4428SOL     OW14182   3.231   5.581   2.164
 4428SOL    HW114183   3.303   5.617   2.223
 4428SOL    HW214184   3.149   5.561   2.218
 4429SOL     OW14185   2.989   0.101   3.192
 4429SOL    HW114186   3.026   0.168   3.256
 4429SOL    HW214187   2.901   0.067   3.226
 4430SOL     OW14188   4.965   3.400   4.916
 4430SOL    HW114189   5.056   3.399   4.957
 4430SOL    HW214190   4.909   3.470   4.960
 4431SOL     OW14191   1.845   0.592   1.795
 4431SOL    HW114192   1.768   0.528   1.801
 4431SOL    HW214193   1.809   0.685   1.789
 4432SOL     OW14194   3.171   4.045   4.190
 4432SOL    HW114195   3.121   4.041   4.104
 4432SOL    HW214196   3.222   3.960   4.204
 4433SOL     OW14197   5.993   0.573   4.558
 4433SOL    HW114198   5.955   0.483   4.580
 4433SOL    HW214199   5.921   0.630   4.517
 4434SOL     OW14200   3.463   1.883   3.564
 4434SOL    HW114201   3.545   1.917   3.610
 4434SOL    HW214202   3.448   1.788   3.590
 4435SOL     OW14203   4.135   3.914   0.998
 4435SOL    HW114204   4.202   3.910   0.923
 4435SOL    HW214205   4.075   3.993   0.984
 4436SOL     OW14206   3.657   1.634   1.269
 4436SOL    HW114207   3.660   1.728   1.304
 4436SOL    HW214208   3.566   1.615   1.232
 4437SOL     OW14209   5.430   1.674   4.156
 4437SOL    HW114210   5.467   1.581   4.152
 4437SOL    HW214211   5.366   1.681   4.232
 4438SOL     OW14212   4.890   0.784   0.408
 4438SOL    HW114213   4.838   0.742   0.334
 4438SOL    HW214214   4.988   0.777   0.388
 4439SOL     OW14215   0.568   5.906   1.390
 4439SOL    HW114216   0.617   5.981   1.346
 4439SOL    HW214217   0.633   5.847   1.437
 4440SOL     OW14218   2.184   5.040   0.489
 4440SOL    HW114219   2.239   5.117   0.456
 4440SOL    HW214220   2.134   5.000   0.412
 4441SOL     OW14221   6.920   1.619   2.673
 4441SOL    HW114222   6.835   1.570   2.658
 4441SOL    HW214223   6.903   1.701   2.729
 4442SOL     OW14224   2.514   6.012   5.357
 4442SOL    HW114225   2.576   6.081   5.394
 4442SOL    HW214226   2.564   5.925   5.346
 4443SOL     OW14227   6.647   3.098   1.476
 4443SOL    HW114228   6.637   3.178   1.536
 4443SOL    HW214229   6.731   3.108   1.423
 4444SOL     OW14230   3.962   5.334   6.106
 4444SOL    HW114231   3.985   5.354   6.011
 4444SOL    HW214232   4.031   5.373   6.166
 4445SOL     OW14233   6.303   0.277   0.971
 4445SOL    HW114234   6.291   0.179   0.955
 4445SOL    HW214235   6.217   0.324   0.950
 4446SOL     OW14236   6.041   1.285   2.024
 4446SOL    HW114237   6.072   1.215   1.960
 4446SOL    HW214238   5.978   1.347   1.977
 4447SOL     OW14239   5.863   3.894   6.124
 4447SOL    HW114240   5.904   3.805   6.108
 4447SOL    HW214241   5.773   3.882   6.166
 4448SOL     OW14242   2.976   3.797   1.387
 4448SOL    HW114243   2.982   3.876   1.326
 4448SOL    HW214244   2.948   3.828   1.478
 4449SOL     OW14245   4.920   0.728   5.919
 4449SOL    HW114246   4.882   0.723   5.827
 4449SOL    HW214247   4.870   0.795   5.973
 4450SOL     OW14248   3.908   3.493   4.171
 4450SOL    HW114249   3.818   3.481   4.213
 4450SOL    HW214250   3.948   3.579   4.203
 4451SOL     OW14251   6.049   4.042   4.178
 4451SOL    HW114252   6.132   3.988   4.194
 4451SOL    HW214253   5.989   3.992   4.115
 4452SOL     OW14254   5.712   6.527   3.959
 4452SOL    HW114255   5.744   6.613   3.997
 4452SOL    HW214256   5.694   6.538   3.861
 4453SOL     OW14257   0.355   2.996   1.244
 4453SOL    HW114258   0.453   3.010   1.256
 4453SOL    HW214259   0.315   3.077   1.200
 4454SOL     OW14260   6.792   2.164   6.930
 4454SOL    HW114261   6.767   2.167   6.834
 4454SOL    HW214262   6.891   2.149   6.938
 4455SOL     OW14263   3.919   6.272   6.558
 4455SOL    HW114264   3.976   6.194   6.535
 4455SOL    HW214265   3.826   6.256   6.525
 4456SOL     OW14266   2.933   5.221   2.275
 4456SOL    HW114267   2.842   5.251   2.303
 4456SOL    HW214268   2.928   5.180   2.184
 4457SOL     OW14269   4.112   2.655   0.697
 4457SOL    HW114270   4.079   2.614   0.782
 4457SOL    HW214271   4.052   2.628   0.622
 4458SOL     OW14272   1.127   3.807   6.710
 4458SOL    HW114273   1.195   3.874   6.679
 4458SOL    HW214274   1.078   3.844   6.789
 4459SOL     OW14275   4.663   0.806   3.616
 4459SOL    HW114276   4.613   0.827   3.701
 4459SOL    HW214277   4.677   0.708   3.610
 4460SOL     OW14278   2.911   2.901   5.300
 4460SOL    HW114279   2.826   2.919   5.350
 4460SOL    HW214280   2.915   2.962   5.220
 4461SOL     OW14281   1.260   0.570   2.163
 4461SOL    HW114282   1.173   0.553   2.209
 4461SOL    HW214283   1.335   0.559   2.229
 4462SOL     OW14284   6.680   3.937   1.741
 4462SOL    HW114285   6.722   3.865   1.796
 4462SOL    HW214286   6.749   4.004   1.715
 4463SOL     OW14287   4.661   2.834   6.944
 4463SOL    HW114288   4.630   2.883   6.862
 4463SOL    HW214289   4.590   2.839   7.014
 4464SOL     OW14290   7.016   4.904   0.257
 4464SOL    HW114291   6.972   4.930   0.171
 4464SOL    HW214292   6.949   4.910   0.332
 4465SOL     OW14293   2.365   5.457   2.316
 4465SOL    HW114294   2.295   5.415   2.374
 4465SOL    HW214295   2.387   5.548   2.352
 4466SOL     OW14296   2.059   1.140   3.008
 4466SOL    HW114297   2.045   1.128   3.107
 4466SOL    HW214298   2.009   1.069   2.959
 4467SOL     OW14299   1.860   0.181   3.297
 4467SOL    HW114300   1.888   0.088   3.320
 4467SOL    HW214301   1.760   0.189   3.306
 4468SOL     OW14302   1.837   3.258   1.093
 4468SOL    HW114303   1.741   3.277   1.072
 4468SOL    HW214304   1.869   3.319   1.164
 4469SOL     OW14305   4.209   0.306   1.276
 4469SOL    HW114306   4.140   0.240   1.306
 4469SOL    HW214307   4.283   0.258   1.228
 4470SOL     OW14308   5.805   3.063   1.858
 4470SOL    HW114309   5.804   3.129   1.933
 4470SOL    HW214310   5.714   3.024   1.846
 4471SOL     OW14311   6.914   1.955   6.598
 4471SOL    HW114312   6.883   1.867   6.563
 4471SOL    HW214313   6.836   2.016   6.612
 4472SOL     OW14314   1.674   3.049   3.768
 4472SOL    HW114315   1.755   3.097   3.802
 4472SOL    HW214316   1.702   2.969   3.715
 4473SOL     OW14317   6.769   2.712   3.911
 4473SOL    HW114318   6.828   2.659   3.849
 4473SOL    HW214319   6.813   2.800   3.931
 4474SOL     OW14320   3.764   0.432   2.023
 4474SOL    HW114321   3.685   0.488   2.000
 4474SOL    HW214322   3.810   0.470   2.103
 4475SOL     OW14323   1.883   3.679   2.274
 4475SOL    HW114324   1.940   3.609   2.230
 4475SOL    HW214325   1.922   3.703   2.362
 4476SOL     OW14326   4.515   6.787   4.300
 4476SOL    HW114327   4.436   6.837   4.265
 4476SOL    HW214328   4.499   6.688   4.291
 4477SOL     OW14329   1.307   0.635   5.807
 4477SOL    HW114330   1.363   0.601   5.732
 4477SOL    HW214331   1.298   0.564   5.877
 4478SOL     OW14332   3.324   6.526   2.788
 4478SOL    HW114333   3.271   6.500   2.869
 4478SOL    HW214334   3.371   6.613   2.806
 4479SOL     OW14335   1.180   0.772   1.465
 4479SOL    HW114336   1.188   0.762   1.366
 4479SOL    HW214337   1.256   0.826   1.500
 4480SOL     OW14338   2.462   3.365   5.968
 4480SOL    HW114339   2.406   3.292   6.007
 4480SOL    HW214340   2.403   3.439   5.936
 4481SOL     OW14341   2.813   6.458   5.707
 4481SOL    HW114342   2.794   6.555   5.695
 4481SOL    HW214343   2.911   6.442   5.692
 4482SOL     OW14344   0.823   4.087   4.412
 4482SOL    HW114345   0.738   4.096   4.464
 4482SOL    HW214346   0.823   4.001   4.362
 4483SOL     OW14347   4.894   3.637   2.202
 4483SOL    HW114348   4.916   3.582   2.121
 4483SOL    HW214349   4.808   3.684   2.188
 4484SOL     OW14350   3.187   3.092   5.499
 4484SOL    HW114351   3.102   3.144   5.487
 4484SOL    HW214352   3.170   2.995   5.481
 4485SOL     OW14353   4.838   1.751   4.990
 4485SOL    HW114354   4.878   1.823   5.046
 4485SOL    HW214355   4.790   1.686   5.050
 4486SOL     OW14356   4.974   4.350   4.684
 4486SOL    HW114357   5.034   4.270   4.684
 4486SOL    HW214358   4.965   4.385   4.777
 4487SOL     OW14359   2.505   2.842   6.311
 4487SOL    HW114360   2.481   2.816   6.217
 4487SOL    HW214361   2.534   2.938   6.312
 4488SOL     OW14362   6.427   3.459   6.001
 4488SOL    HW114363   6.331   3.474   5.975
 4488SOL    HW214364   6.474   3.409   5.928
 4489SOL     OW14365   6.119   5.424   4.681
 4489SOL    HW114366   6.022   5.440   4.699
 4489SOL    HW214367   6.171   5.437   4.766
 4490SOL     OW14368   6.282   2.737   3.050
 4490SOL    HW114369   6.313   2.646   3.020
 4490SOL    HW214370   6.213   2.727   3.121
 4491SOL     OW14371   0.170   2.527   4.675
 4491SOL    HW114372   0.194   2.500   4.581
 4491SOL    HW214373   0.077   2.563   4.676
 4492SOL     OW14374   5.355   4.430   1.707
 4492SOL    HW114375   5.403   4.411   1.792
 4492SOL    HW214376   5.259   4.402   1.716
 4493SOL     OW14377   4.880   6.454   5.218
 4493SOL    HW114378   4.923   6.524   5.160
 4493SOL    HW214379   4.904   6.470   5.314
 4494SOL     OW14380   6.618   1.451   5.755
 4494SOL    HW114381   6.712   1.467   5.725
 4494SOL    HW214382   6.618   1.397   5.839
 4495SOL     OW14383   4.228   6.471   4.440
 4495SOL    HW114384   4.228   6.421   4.526
 4495SOL    HW214385   4.139   6.459   4.394
 4496SOL     OW14386   5.318   5.278   1.027
 4496SOL    HW114387   5.316   5.201   1.091
 4496SOL    HW214388   5.226   5.313   1.014
 4497SOL     OW14389   4.769   0.798   6.703
 4497SOL    HW114390   4.791   0.858   6.781
 4497SOL    HW214391   4.687   0.832   6.657
 4498SOL     OW14392   6.569   3.344   6.328
 4498SOL    HW114393   6.570   3.433   6.374
 4498SOL    HW214394   6.649   3.336   6.269
 4499SOL     OW14395   6.699   3.475   4.107
 4499SOL    HW114396   6.731   3.437   4.020
 4499SOL    HW214397   6.694   3.401   4.175
 4500SOL     OW14398   2.933   3.440   3.534
 4500SOL    HW114399   2.906   3.448   3.630
 4500SOL    HW214400   3.028   3.471   3.524
 4501SOL     OW14401   0.145   2.653   5.326
 4501SOL    HW114402   0.099   2.700   5.402
 4501SOL    HW214403   0.146   2.712   5.246
 4502SOL     OW14404   1.069   2.106   6.681
 4502SOL    HW114405   1.022   2.129   6.766
 4502SOL    HW214406   1.055   2.180   6.615
 4503SOL     OW14407   3.212   6.981   2.364
 4503SOL    HW114408   3.251   6.935   2.444
 4503SOL    HW214409   3.265   0.047   2.342
 4504SOL     OW14410   6.644   1.820   4.655
 4504SOL    HW114411   6.607   1.818   4.747
 4504SOL    HW214412   6.715   1.750   4.646
 4505SOL     OW14413   6.141   5.860   2.757
 4505SOL    HW114414   6.169   5.885   2.849
 4505SOL    HW214415   6.093   5.772   2.760
 4506SOL     OW14416   4.358   2.353   3.671
 4506SOL    HW114417   4.419   2.432   3.673
 4506SOL    HW214418   4.312   2.347   3.582
 4507SOL     OW14419   5.842   5.114   2.257
 4507SOL    HW114420   5.874   5.196   2.305
 4507SOL    HW214421   5.747   5.097   2.283
 4508SOL     OW14422   1.014   4.782   6.141
 4508SOL    HW114423   0.989   4.808   6.048
 4508SOL    HW214424   1.057   4.691   6.140
 4509SOL     OW14425   5.128   2.667   2.446
 4509SOL    HW114426   5.065   2.723   2.501
 4509SOL    HW214427   5.075   2.616   2.377
 4510SOL     OW14428   4.792   0.796   4.617
 4510SOL    HW114429   4.806   0.726   4.687
 4510SOL    HW214430   4.842   0.770   4.534
 4511SOL     OW14431   6.739   3.246   6.524
 4511SOL    HW114432   6.690   3.307   6.461
 4511SOL    HW214433   6.790   3.178   6.471
 4512SOL     OW14434   2.502   0.092   5.691
 4512SOL    HW114435   2.497   0.160   5.765
 4512SOL    HW214436   2.418   0.095   5.637
 4513SOL     OW14437   5.603   6.315   0.705
 4513SOL    HW114438   5.628   6.305   0.609
 4513SOL    HW214439   5.549   6.236   0.734
 4514SOL     OW14440   4.522   1.342   5.760
 4514SOL    HW114441   4.507   1.269   5.827
 4514SOL    HW214442   4.473   1.424   5.789
 4515SOL     OW14443   0.424   2.891   5.918
 4515SOL    HW114444   0.499   2.947   5.883
 4515SOL    HW214445   0.386   2.934   6.000
 4516SOL     OW14446   1.426   0.265   0.017
 4516SOL    HW114447   1.424   0.326   6.954
 4516SOL    HW214448   1.489   0.302   0.085
 4517SOL     OW14449   2.922   0.974   6.536
 4517SOL    HW114450   2.889   1.067   6.543
 4517SOL    HW214451   3.020   0.975   6.515
 4518SOL     OW14452   6.623   1.067   3.322
 4518SOL    HW114453   6.681   1.120   3.384
 4518SOL    HW214454   6.674   0.987   3.290
 4519SOL     OW14455   5.635   0.433   2.052
 4519SOL    HW114456   5.626   0.528   2.083
 4519SOL    HW214457   5.558   0.379   2.087
 4520SOL     OW14458   4.866   6.036   3.920
 4520SOL    HW114459   4.920   6.082   3.990
 4520SOL    HW214460   4.823   6.104   3.861
 4521SOL     OW14461   5.924   2.093   3.538
 4521SOL    HW114462   5.910   2.010   3.484
 4521SOL    HW214463   5.948   2.067   3.632
 4522SOL     OW14464   5.971   7.002   3.236
 4522SOL    HW114465   5.912   0.030   3.304
 4522SOL    HW214466   6.042   0.050   3.207
 4523SOL     OW14467   1.709   4.475   0.198
 4523SOL    HW114468   1.696   4.574   0.200
 4523SOL    HW214469   1.802   4.454   0.169
 4524SOL     OW14470   5.418   2.799   3.834
 4524SOL    HW114471   5.480   2.791   3.913
 4524SOL    HW214472   5.419   2.715   3.781
 4525SOL     OW14473   5.306   1.008   3.196
 4525SOL    HW114474   5.386   0.949   3.193
 4525SOL    HW214475   5.223   0.954   3.181
 4526SOL     OW14476   5.811   0.284   1.454
 4526SOL    HW114477   5.897   0.238   1.434
 4526SOL    HW214478   5.788   0.344   1.378
 4527SOL     OW14479   3.840   1.335   3.456
 4527SOL    HW114480   3.934   1.370   3.463
 4527SOL    HW214481   3.837   1.243   3.497
 4528SOL     OW14482   4.476   6.846   0.322
 4528SOL    HW114483   4.530   6.781   0.269
 4528SOL    HW214484   4.531   6.928   0.340
 4529SOL     OW14485   3.796   1.394   5.133
 4529SOL    HW114486   3.816   1.363   5.040
 4529SOL    HW214487   3.720   1.459   5.131
 4530SOL     OW14488   0.989   3.511   6.194
 4530SOL    HW114489   1.078   3.493   6.152
 4530SOL    HW214490   0.917   3.496   6.126
 4531SOL     OW14491   0.449   3.684   3.943
 4531SOL    HW114492   0.403   3.731   4.019
 4531SOL    HW214493   0.418   3.589   3.939
 4532SOL     OW14494   6.021   2.365   3.478
 4532SOL    HW114495   6.105   2.340   3.429
 4532SOL    HW214496   5.986   2.284   3.526
 4533SOL     OW14497   1.529   0.643   2.009
 4533SOL    HW114498   1.539   0.555   1.963
 4533SOL    HW214499   1.442   0.646   2.058
 4534SOL     OW14500   4.927   4.404   4.937
 4534SOL    HW114501   4.838   4.442   4.910
 4534SOL    HW214502   4.916   4.349   5.019
 4535SOL     OW14503   4.985   1.412   2.218
 4535SOL    HW114504   5.079   1.418   2.249
 4535SOL    HW214505   4.979   1.345   2.143
 4536SOL     OW14506   3.785   1.534   3.922
 4536SOL    HW114507   3.752   1.599   3.990
 4536SOL    HW214508   3.840   1.463   3.967
 4537SOL     OW14509   3.704   3.389   5.689
 4537SOL    HW114510   3.619   3.357   5.733
 4537SOL    HW214511   3.741   3.466   5.740
 4538SOL     OW14512   2.446   0.632   4.187
 4538SOL    HW114513   2.534   0.637   4.233
 4538SOL    HW214514   2.389   0.562   4.230
 4539SOL     OW14515   2.254   0.958   4.419
 4539SOL    HW114516   2.168   0.959   4.368
 4539SOL    HW214517   2.240   1.003   4.507
 4540SOL     OW14518   3.039   3.475   4.718
 4540SOL    HW114519   3.096   3.393   4.720
 4540SOL    HW214520   3.069   3.534   4.643
 4541SOL     OW14521   6.127   1.746   0.853
 4541SOL    HW114522   6.069   1.818   0.890
 4541SOL    HW214523   6.180   1.704   0.926
 4542SOL     OW14524   6.313   0.931   3.100
 4542SOL    HW114525   6.234   0.990   3.084
 4542SOL    HW214526   6.396   0.975   3.064
 4543SOL     OW14527   4.871   1.851   1.688
 4543SOL    HW114528   4.845   1.767   1.640
 4543SOL    HW214529   4.831   1.851   1.779
 4544SOL     OW14530   3.212   6.161   6.356
 4544SOL    HW114531   3.141   6.232   6.360
 4544SOL    HW214532   3.193   6.101   6.278
 4545SOL     OW14533   5.293   3.705   5.063
 4545SOL    HW114534   5.349   3.787   5.064
 4545SOL    HW214535   5.285   3.668   5.155
 4546SOL     OW14536   2.049   1.722   6.597
 4546SOL    HW114537   2.048   1.666   6.515
 4546SOL    HW214538   2.030   1.665   6.677
 4547SOL     OW14539   6.125   2.748   3.303
 4547SOL    HW114540   6.096   2.835   3.344
 4547SOL    HW214541   6.057   2.678   3.325
 4548SOL     OW14542   1.488   4.156   4.836
 4548SOL    HW114543   1.438   4.242   4.830
 4548SOL    HW214544   1.528   4.134   4.747
 4549SOL     OW14545   6.105   4.392   2.229
 4549SOL    HW114546   6.205   4.381   2.230
 4549SOL    HW214547   6.081   4.479   2.273
 4550SOL     OW14548   1.734   5.774   3.294
 4550SOL    HW114549   1.717   5.872   3.286
 4550SOL    HW214550   1.817   5.750   3.245
 4551SOL     OW14551   6.033   1.549   6.005
 4551SOL    HW114552   6.114   1.517   5.957
 4551SOL    HW214553   5.951   1.518   5.956
 4552SOL     OW14554   6.212   2.759   1.347
 4552SOL    HW114555   6.230   2.835   1.285
 4552SOL    HW214556   6.241   2.673   1.304
 4553SOL     OW14557   3.889   4.382   6.388
 4553SOL    HW114558   3.964   4.316   6.401
 4553SOL    HW214559   3.927   4.473   6.376
 4554SOL     OW14560   4.649   0.298   1.199
 4554SOL    HW114561   4.730   0.260   1.244
 4554SOL    HW214562   4.600   0.357   1.263
 4555SOL     OW14563   3.327   1.373   5.857
 4555SOL    HW114564   3.278   1.356   5.771
 4555SOL    HW214565   3.393   1.299   5.872
 4556SOL     OW14566   4.520   2.568   4.131
 4556SOL    HW114567   4.613   2.538   4.111
 4556SOL    HW214568   4.494   2.539   4.223
 4557SOL     OW14569   4.677   6.834   4.781
 4557SOL    HW114570   4.658   6.737   4.796
 4557SOL    HW214571   4.723   6.846   4.693
 4558SOL     OW14572   0.471   3.463   5.480
 4558SOL    HW114573   0.514   3.553   5.478
 4558SOL    HW214574   0.524   3.402   5.539
 4559SOL     OW14575   1.080   3.977   1.595
 4559SOL    HW114576   1.160   4.004   1.649
 4559SOL    HW214577   1.110   3.918   1.519
 4560SOL     OW14578   5.500   5.142   2.854
 4560SOL    HW114579   5.434   5.190   2.913
 4560SOL    HW214580   5.546   5.207   2.795
 4561SOL     OW14581   2.372   0.592   1.420
 4561SOL    HW114582   2.401   0.597   1.324
 4561SOL    HW214583   2.410   0.669   1.471
 4562SOL     OW14584   3.425   6.158   5.053
 4562SOL    HW114585   3.468   6.216   5.122
 4562SOL    HW214586   3.484   6.080   5.033
 4563SOL     OW14587   0.942   4.135   1.001
 4563SOL    HW114588   0.865   4.180   1.046
 4563SOL    HW214589   0.908   4.060   0.945
 4564SOL     OW14590   7.005   0.081   0.967
 4564SOL    HW114591   0.006   0.044   0.876
 4564SOL    HW214592   0.055   0.154   0.986
 4565SOL     OW14593   6.934   0.989   5.575
 4565SOL    HW114594   6.953   1.085   5.597
 4565SOL    HW214595   0.004   0.940   5.562
 4566SOL     OW14596   6.715   1.636   0.364
 4566SOL    HW114597   6.644   1.616   0.297
 4566SOL    HW214598   6.700   1.582   0.446
 4567SOL     OW14599   6.907   0.652   0.178
 4567SOL    HW114600   6.869   0.745   0.179
 4567SOL    HW214601   6.975   0.645   0.105
 4568SOL     OW14602   1.442   4.303   5.332
 4568SOL    HW114603   1.497   4.267   5.408
 4568SOL    HW214604   1.503   4.329   5.257
 4569SOL     OW14605   1.621   0.864   3.158
 4569SOL    HW114606   1.704   0.879   3.212
 4569SOL    HW214607   1.640   0.883   3.062
 4570SOL     OW14608   1.088   6.446   3.109
 4570SOL    HW114609   1.130   6.393   3.183
 4570SOL    HW214610   1.160   6.496   3.059
 4571SOL     OW14611   3.710   3.104   5.999
 4571SOL    HW114612   3.756   3.192   6.011
 4571SOL    HW214613   3.739   3.063   5.912
 4572SOL     OW14614   1.406   6.541   0.043
 4572SOL    HW114615   1.391   6.461   0.101
 4572SOL    HW214616   1.317   6.576   0.012
 4573SOL     OW14617   6.606   6.336   0.379
 4573SOL    HW114618   6.607   6.251   0.431
 4573SOL    HW214619   6.548   6.403   0.426
 4574SOL     OW14620   6.722   3.737   1.360
 4574SOL    HW114621   6.653   3.763   1.292
 4574SOL    HW214622   6.764   3.650   1.332
 4575SOL     OW14623   5.911   2.154   6.123
 4575SOL    HW114624   5.879   2.062   6.103
 4575SOL    HW214625   5.931   2.202   6.036
 4576SOL     OW14626   2.096   5.634   6.760
 4576SOL    HW114627   2.037   5.713   6.776
 4576SOL    HW214628   2.159   5.655   6.685
 4577SOL     OW14629   1.251   2.053   4.225
 4577SOL    HW114630   1.193   2.004   4.160
 4577SOL    HW214631   1.347   2.030   4.209
 4578SOL     OW14632   0.740   3.552   4.377
 4578SOL    HW114633   0.673   3.505   4.434
 4578SOL    HW214634   0.801   3.485   4.336
 4579SOL     OW14635   4.854   2.299   3.306
 4579SOL    HW114636   4.826   2.294   3.210
 4579SOL    HW214637   4.782   2.345   3.358
 4580SOL     OW14638   4.767   4.903   6.859
 4580SOL    HW114639   4.830   4.835   6.822
 4580SOL    HW214640   4.820   4.980   6.895
 4581SOL     OW14641   2.952   5.020   3.117
 4581SOL    HW114642   3.018   5.066   3.057
 4581SOL    HW214643   2.992   5.008   3.208
 4582SOL     OW14644   5.569   6.297   4.610
 4582SOL    HW114645   5.622   6.233   4.555
 4582SOL    HW214646   5.592   6.284   4.707
 4583SOL     OW14647   2.934   1.945   5.643
 4583SOL    HW114648   2.874   1.870   5.615
 4583SOL    HW214649   2.910   2.028   5.594
 4584SOL     OW14650   0.323   5.322   5.822
 4584SOL    HW114651   0.360   5.372   5.900
 4584SOL    HW214652   0.245   5.372   5.784
 4585SOL     OW14653   2.608   6.568   3.416
 4585SOL    HW114654   2.634   6.490   3.473
 4585SOL    HW214655   2.552   6.536   3.339
 4586SOL     OW14656   3.681   4.893   0.240
 4586SOL    HW114657   3.729   4.916   0.325
 4586SOL    HW214658   3.742   4.909   0.162
 4587SOL     OW14659   4.082   4.000   1.717
 4587SOL    HW114660   4.004   4.058   1.696
 4587SOL    HW214661   4.093   3.993   1.816
 4588SOL     OW14662   4.054   3.991   5.490
 4588SOL    HW114663   4.101   3.952   5.569
 4588SOL    HW214664   4.092   4.082   5.470
 4589SOL     OW14665   5.480   0.888   2.666
 4589SOL    HW114666   5.452   0.981   2.690
 4589SOL    HW214667   5.510   0.886   2.570
 4590SOL     OW14668   4.631   5.639   0.172
 4590SOL    HW114669   4.590   5.724   0.138
 4590SOL    HW214670   4.579   5.561   0.137
 4591SOL     OW14671   0.866   6.367   4.383
 4591SOL    HW114672   0.879   6.464   4.363
 4591SOL    HW214673   0.774   6.352   4.418
 4592SOL     OW14674   3.310   1.590   1.914
 4592SOL    HW114675   3.341   1.601   1.820
 4592SOL    HW214676   3.318   1.678   1.961
 4593SOL     OW14677   4.265   5.574   3.667
 4593SOL    HW114678   4.197   5.598   3.597
 4593SOL    HW214679   4.340   5.640   3.663
 4594SOL     OW14680   3.021   0.294   1.908
 4594SOL    HW114681   3.058   0.362   1.971
 4594SOL    HW214682   2.988   0.215   1.959
 4595SOL     OW14683   3.660   2.333   6.082
 4595SOL    HW114684   3.754   2.348   6.052
 4595SOL    HW214685   3.597   2.366   6.011
 4596SOL     OW14686   5.840   6.430   3.055
 4596SOL    HW114687   5.936   6.451   3.035
 4596SOL    HW214688   5.803   6.498   3.118
 4597SOL     OW14689   4.548   4.250   6.644
 4597SOL    HW114690   4.566   4.344   6.672
 4597SOL    HW214691   4.607   4.226   6.567
 4598SOL     OW14692   2.191   5.475   0.214
 4598SOL    HW114693   2.220   5.538   0.142
 4598SOL    HW214694   2.271   5.431   0.254
 4599SOL     OW14695   1.409   5.133   0.437
 4599SOL    HW114696   1.445   5.083   0.358
 4599SOL    HW214697   1.334   5.081   0.478
 4600SOL     OW14698   0.888   4.589   5.423
 4600SOL    HW114699   0.979   4.555   5.400
 4600SOL    HW214700   0.819   4.523   5.392
 4601SOL     OW14701   1.309   6.807   5.659
 4601SOL    HW114702   1.382   6.875   5.650
 4601SOL    HW214703   1.221   6.849   5.639
 4602SOL     OW14704   0.998   5.496   1.646
 4602SOL    HW114705   0.986   5.414   1.590
 4602SOL    HW214706   0.927   5.499   1.716
 4603SOL     OW14707   3.116   6.235   1.003
 4603SOL    HW114708   3.023   6.198   1.000
 4603SOL    HW214709   3.113   6.331   1.029
 4604SOL     OW14710   4.730   0.336   1.678
 4604SOL    HW114711   4.654   0.301   1.623
 4604SOL    HW214712   4.810   0.278   1.663
 4605SOL     OW14713   3.253   1.002   3.556
 4605SOL    HW114714   3.349   0.994   3.583
 4605SOL    HW214715   3.247   1.055   3.471
 4606SOL     OW14716   0.838   0.235   1.639
 4606SOL    HW114717   0.881   0.159   1.592
 4606SOL    HW214718   0.892   0.318   1.624
 4607SOL     OW14719   2.407   2.372   0.835
 4607SOL    HW114720   2.372   2.397   0.925
 4607SOL    HW214721   2.498   2.332   0.844
 4608SOL     OW14722   1.287   5.887   3.824
 4608SOL    HW114723   1.230   5.918   3.747
 4608SOL    HW214724   1.305   5.964   3.885
 4609SOL     OW14725   4.673   4.773   5.948
 4609SOL    HW114726   4.720   4.852   5.987
 4609SOL    HW214727   4.734   4.694   5.948
 4610SOL     OW14728   5.115   2.553   0.816
 4610SOL    HW114729   5.089   2.526   0.724
 4610SOL    HW214730   5.213   2.575   0.818
 4611SOL     OW14731   0.172   6.168   5.911
 4611SOL    HW114732   0.091   6.226   5.917
 4611SOL    HW214733   0.157   6.083   5.962
 4612SOL     OW14734   0.837   5.554   0.216
 4612SOL    HW114735   0.777   5.475   0.231
 4612SOL    HW214736   0.932   5.522   0.211
 4613SOL     OW14737   2.321   5.739   2.370
 4613SOL    HW114738   2.229   5.701   2.361
 4613SOL    HW214739   2.328   5.790   2.456
 4614SOL     OW14740   7.016   3.687   4.509
 4614SOL    HW114741   6.927   3.728   4.532
 4614SOL    HW214742   0.009   3.600   4.557
 4615SOL     OW14743   2.010   0.941   0.252
 4615SOL    HW114744   1.963   0.888   0.323
 4615SOL    HW214745   2.085   0.992   0.292
 4616SOL     OW14746   6.223   0.765   5.744
 4616SOL    HW114747   6.302   0.707   5.724
 4616SOL    HW214748   6.232   0.852   5.696
 4617SOL     OW14749   0.713   2.789   1.980
 4617SOL    HW114750   0.644   2.791   2.053
 4617SOL    HW214751   0.790   2.847   2.005
 4618SOL     OW14752   2.055   2.726   5.264
 4618SOL    HW114753   2.087   2.814   5.232
 4618SOL    HW214754   2.001   2.738   5.348
 4619SOL     OW14755   3.133   6.007   3.037
 4619SOL    HW114756   3.063   6.056   2.984
 4619SOL    HW214757   3.224   6.037   3.008
 4620SOL     OW14758   3.123   4.788   0.229
 4620SOL    HW114759   3.084   4.871   0.190
 4620SOL    HW214760   3.214   4.808   0.267
 4621SOL     OW14761   4.887   1.316   2.532
 4621SOL    HW114762   4.871   1.219   2.512
 4621SOL    HW214763   4.896   1.366   2.447
 4622SOL     OW14764   2.454   4.203   0.274
 4622SOL    HW114765   2.504   4.121   0.302
 4622SOL    HW214766   2.518   4.280   0.265
 4623SOL     OW14767   6.311   6.230   0.841
 4623SOL    HW114768   6.361   6.233   0.927
 4623SOL    HW214769   6.310   6.321   0.800
 4624SOL     OW14770   5.558   0.137   3.173
 4624SOL    HW114771   5.595   0.229   3.160
 4624SOL    HW214772   5.527   0.125   3.267
 4625SOL     OW14773   1.428   4.144   0.324
 4625SOL    HW114774   1.503   4.199   0.360
 4625SOL    HW214775   1.456   4.102   0.237
 4626SOL     OW14776   5.720   5.712   2.250
 4626SOL    HW114777   5.701   5.742   2.343
 4626SOL    HW214778   5.705   5.613   2.242
 4627SOL     OW14779   3.043   5.296   4.023
 4627SOL    HW114780   3.030   5.259   3.931
 4627SOL    HW214781   2.962   5.275   4.078
 4628SOL     OW14782   5.768   3.972   4.347
 4628SOL    HW114783   5.725   4.021   4.423
 4628SOL    HW214784   5.830   4.034   4.299
 4629SOL     OW14785   2.345   5.284   5.762
 4629SOL    HW114786   2.262   5.236   5.734
 4629SOL    HW214787   2.410   5.286   5.686
 4630SOL     OW14788   3.919   5.526   2.282
 4630SOL    HW114789   3.867   5.586   2.343
 4630SOL    HW214790   4.012   5.517   2.316
 4631SOL     OW14791   2.229   6.640   3.373
 4631SOL    HW114792   2.293   6.589   3.316
 4631SOL    HW214793   2.135   6.618   3.347
 4632SOL     OW14794   3.783   5.116   2.657
 4632SOL    HW114795   3.735   5.038   2.698
 4632SOL    HW214796   3.721   5.164   2.595
 4633SOL     OW14797   5.333   1.236   3.819
 4633SOL    HW114798   5.428   1.222   3.791
 4633SOL    HW214799   5.331   1.266   3.915
 4634SOL     OW14800   2.628   4.871   6.119
 4634SOL    HW114801   2.540   4.916   6.105
 4634SOL    HW214802   2.652   4.875   6.215
 4635SOL     OW14803   5.514   4.019   1.381
 4635SOL    HW114804   5.611   3.998   1.373
 4635SOL    HW214805   5.477   3.972   1.462
 4636SOL     OW14806   2.065   4.620   0.253
 4636SOL    HW114807   2.087   4.581   0.342
 4636SOL    HW214808   2.021   4.550   0.196
 4637SOL     OW14809   0.863   0.204   6.944
 4637SOL    HW114810   0.924   0.283   6.934
 4637SOL    HW214811   0.768   0.235   6.946
 4638SOL     OW14812   4.892   3.108   0.462
 4638SOL    HW114813   4.968   3.052   0.430
 4638SOL    HW214814   4.806   3.063   0.440
 4639SOL     OW14815   2.534   4.351   5.198
 4639SOL    HW114816   2.536   4.442   5.241
 4639SOL    HW214817   2.442   4.333   5.164
 4640SOL     OW14818   4.957   4.843   3.361
 4640SOL    HW114819   4.949   4.912   3.290
 4640SOL    HW214820   4.904   4.871   3.441
 4641SOL     OW14821   2.536   6.502   5.129
 4641SOL    HW114822   2.492   6.449   5.058
 4641SOL    HW214823   2.539   6.599   5.103
 4642SOL     OW14824   0.051   5.611   4.264
 4642SOL    HW114825   6.993   5.596   4.199
 4642SOL    HW214826   0.015   5.661   4.344
 4643SOL     OW14827   5.944   2.817   1.291
 4643SOL    HW114828   5.902   2.906   1.307
 4643SOL    HW214829   6.020   2.804   1.354
 4644SOL     OW14830   0.516   4.485   5.007
 4644SOL    HW114831   0.603   4.532   5.021
 4644SOL    HW214832   0.442   4.540   5.047
 4645SOL     OW14833   0.973   1.580   4.562
 4645SOL    HW114834   0.975   1.628   4.474
 4645SOL    HW214835   0.901   1.510   4.559
 4646SOL     OW14836   2.363   5.576   3.821
 4646SOL    HW114837   2.380   5.486   3.862
 4646SOL    HW214838   2.448   5.628   3.817
 4647SOL     OW14839   1.484   1.206   3.929
 4647SOL    HW114840   1.571   1.162   3.910
 4647SOL    HW214841   1.467   1.205   4.028
 4648SOL     OW14842   4.491   0.960   2.144
 4648SOL    HW114843   4.401   1.003   2.157
 4648SOL    HW214844   4.561   1.031   2.143
 4649SOL     OW14845   5.522   0.507   6.315
 4649SOL    HW114846   5.432   0.535   6.347
 4649SOL    HW214847   5.590   0.574   6.344
 4650SOL     OW14848   5.026   5.694   3.758
 4650SOL    HW114849   5.005   5.605   3.799
 4650SOL    HW214850   4.945   5.730   3.712
 4651SOL     OW14851   6.903   1.344   0.908
 4651SOL    HW114852   6.984   1.287   0.921
 4651SOL    HW214853   6.888   1.359   0.810
 4652SOL     OW14854   0.237   0.156   4.258
 4652SOL    HW114855   0.250   0.208   4.174
 4652SOL    HW214856   0.325   0.118   4.288
 4653SOL     OW14857   6.093   5.003   7.014
 4653SOL    HW114858   5.999   4.970   7.012
 4653SOL    HW214859   6.152   4.941   6.963
 4654SOL     OW14860   0.384   6.566   0.464
 4654SOL    HW114861   0.337   6.536   0.381
 4654SOL    HW214862   0.479   6.590   0.441
 4655SOL     OW14863   6.607   5.081   1.760
 4655SOL    HW114864   6.562   5.002   1.720
 4655SOL    HW214865   6.545   5.160   1.756
 4656SOL     OW14866   1.217   0.424   3.750
 4656SOL    HW114867   1.238   0.383   3.839
 4656SOL    HW214868   1.177   0.354   3.690
 4657SOL     OW14869   5.463   6.234   1.450
 4657SOL    HW114870   5.417   6.317   1.481
 4657SOL    HW214871   5.400   6.156   1.458
 4658SOL     OW14872   4.217   1.602   2.793
 4658SOL    HW114873   4.164   1.555   2.721
 4658SOL    HW214874   4.159   1.616   2.873
 4659SOL     OW14875   3.097   4.370   5.315
 4659SOL    HW114876   3.031   4.417   5.256
 4659SOL    HW214877   3.055   4.286   5.352
 4660SOL     OW14878   1.109   3.647   5.395
 4660SOL    HW114879   1.122   3.738   5.357
 4660SOL    HW214880   1.043   3.596   5.339
 4661SOL     OW14881   3.348   3.854   5.953
 4661SOL    HW114882   3.340   3.948   5.986
 4661SOL    HW214883   3.403   3.801   6.017
 4662SOL     OW14884   3.841   6.899   4.927
 4662SOL    HW114885   3.842   6.905   4.827
 4662SOL    HW214886   3.901   6.826   4.957
 4663SOL     OW14887   0.544   1.424   2.973
 4663SOL    HW114888   0.458   1.404   3.021
 4663SOL    HW214889   0.614   1.360   3.004
 4664SOL     OW14890   1.641   1.303   0.443
 4664SOL    HW114891   1.660   1.266   0.352
 4664SOL    HW214892   1.673   1.398   0.448
 4665SOL     OW14893   3.437   6.766   0.366
 4665SOL    HW114894   3.506   6.702   0.400
 4665SOL    HW214895   3.482   6.842   0.320
 4666SOL     OW14896   1.537   2.197   1.164
 4666SOL    HW114897   1.587   2.129   1.109
 4666SOL    HW214898   1.587   2.284   1.162
 4667SOL     OW14899   6.295   4.111   1.943
 4667SOL    HW114900   6.278   4.016   1.914
 4667SOL    HW214901   6.264   4.173   1.871
 4668SOL     OW14902   5.267   1.954   3.232
 4668SOL    HW114903   5.256   1.981   3.328
 4668SOL    HW214904   5.231   1.861   3.220
 4669SOL     OW14905   4.353   6.520   6.521
 4669SOL    HW114906   4.323   6.430   6.551
 4669SOL    HW214907   4.310   6.590   6.578
 4670SOL     OW14908   3.160   2.153   5.331
 4670SOL    HW114909   3.148   2.245   5.293
 4670SOL    HW214910   3.218   2.099   5.271
 4671SOL     OW14911   6.594   2.463   2.400
 4671SOL    HW114912   6.654   2.484   2.477
 4671SOL    HW214913   6.576   2.364   2.397
 4672SOL     OW14914   2.539   4.091   6.206
 4672SOL    HW114915   2.638   4.099   6.200
 4672SOL    HW214916   2.496   4.172   6.167
 4673SOL     OW14917   5.045   6.671   1.385
 4673SOL    HW114918   4.952   6.699   1.408
 4673SOL    HW214919   5.104   6.685   1.465
 4674SOL     OW14920   5.031   7.004   6.431
 4674SOL    HW114921   4.967   0.065   6.440
 4674SOL    HW214922   4.987   6.931   6.379
 4675SOL     OW14923   0.247   1.378   6.344
 4675SOL    HW114924   0.147   1.371   6.338
 4675SOL    HW214925   0.285   1.380   6.251
 4676SOL     OW14926   6.848   6.241   3.938
 4676SOL    HW114927   6.762   6.273   3.977
 4676SOL    HW214928   6.852   6.266   3.841
 4677SOL     OW14929   2.926   1.143   0.040
 4677SOL    HW114930   2.869   1.106   0.113
 4677SOL    HW214931   2.958   1.068   6.998
 4678SOL     OW14932   1.836   4.755   3.179
 4678SOL    HW114933   1.770   4.696   3.133
 4678SOL    HW214934   1.883   4.703   3.251
 4679SOL     OW14935   3.519   0.583   1.166
 4679SOL    HW114936   3.468   0.500   1.144
 4679SOL    HW214937   3.591   0.597   1.097
 4680SOL     OW14938   3.282   1.727   6.633
 4680SOL    HW114939   3.339   1.760   6.708
 4680SOL    HW214940   3.324   1.751   6.546
 4681SOL     OW14941   5.853   4.904   0.049
 4681SOL    HW114942   5.821   4.851   0.127
 4681SOL    HW214943   5.800   4.878   6.984
 4682SOL     OW14944   4.762   4.545   5.171
 4682SOL    HW114945   4.769   4.457   5.125
 4682SOL    HW214946   4.735   4.615   5.105
 4683SOL     OW14947   5.245   5.100   2.450
 4683SOL    HW114948   5.316   5.124   2.516
 4683SOL    HW214949   5.234   5.175   2.385
 4684SOL     OW14950   5.755   0.721   5.276
 4684SOL    HW114951   5.750   0.820   5.281
 4684SOL    HW214952   5.803   0.686   5.357
 4685SOL     OW14953   1.783   5.199   5.657
 4685SOL    HW114954   1.857   5.213   5.723
 4685SOL    HW214955   1.768   5.101   5.644
 4686SOL     OW14956   4.784   5.322   6.551
 4686SOL    HW114957   4.752   5.238   6.596
 4686SOL    HW214958   4.880   5.311   6.525
 4687SOL     OW14959   4.990   3.457   4.407
 4687SOL    HW114960   4.935   3.475   4.489
 4687SOL    HW214961   4.939   3.397   4.345
 4688SOL     OW14962   5.950   4.234   5.289
 4688SOL    HW114963   6.004   4.225   5.373
 4688SOL    HW214964   5.954   4.329   5.258
 4689SOL     OW14965   4.832   0.898   6.951
 4689SOL    HW114966   4.800   0.982   6.908
 4689SOL    HW214967   4.873   0.919   0.024
 4690SOL     OW14968   0.687   0.324   0.154
 4690SOL    HW114969   0.665   0.412   0.197
 4690SOL    HW214970   0.709   0.257   0.225
 4691SOL     OW14971   3.226   4.423   0.978
 4691SOL    HW114972   3.141   4.412   0.927
 4691SOL    HW214973   3.297   4.365   0.938
 4692SOL     OW14974   5.705   5.438   2.233
 4692SOL    HW114975   5.606   5.429   2.243
 4692SOL    HW214976   5.733   5.398   2.145
 4693SOL     OW14977   1.248   1.801   3.162
 4693SOL    HW114978   1.303   1.884   3.148
 4693SOL    HW214979   1.298   1.738   3.221
 4694SOL     OW14980   2.380   1.101   7.007
 4694SOL    HW114981   2.292   1.150   7.003
 4694SOL    HW214982   2.411   1.098   0.086
 4695SOL     OW14983   1.361   4.489   2.205
 4695SOL    HW114984   1.346   4.556   2.132
 4695SOL    HW214985   1.413   4.533   2.279
 4696SOL     OW14986   0.398   3.846   0.384
 4696SOL    HW114987   0.491   3.856   0.349
 4696SOL    HW214988   0.390   3.760   0.435
 4697SOL     OW14989   1.667   3.914   1.535
 4697SOL    HW114990   1.723   3.922   1.452
 4697SOL    HW214991   1.663   4.003   1.580
 4698SOL     OW14992   4.530   5.845   2.687
 4698SOL    HW114993   4.555   5.820   2.593
 4698SOL    HW214994   4.466   5.922   2.685
 4699SOL     OW14995   0.916   6.615   2.416
 4699SOL    HW114996   0.993   6.557   2.389
 4699SOL    HW214997   0.849   6.617   2.342
 4700SOL     OW14998   6.844   0.865   2.804
 4700SOL    HW114999   6.897   0.781   2.790
 4700SOL    HW215000   6.834   0.912   2.716
 4701SOL     OW15001   2.871   2.265   0.545
 4701SOL    HW115002   2.922   2.205   0.607
 4701SOL    HW215003   2.925   2.282   0.463
 4702SOL     OW15004   5.118   4.906   0.260
 4702SOL    HW115005   5.116   4.898   0.161
 4702SOL    HW215006   5.209   4.936   0.290
 4703SOL     OW15007   0.194   1.192   2.310
 4703SOL    HW115008   0.123   1.137   2.353
 4703SOL    HW215009   0.187   1.185   2.211
 4704SOL     OW15010   6.446   6.568   6.409
 4704SOL    HW115011   6.438   6.624   6.326
 4704SOL    HW215012   6.356   6.531   6.432
 4705SOL     OW15013   3.974   2.765   1.040
 4705SOL    HW115014   3.985   2.671   1.009
 4705SOL    HW215015   3.906   2.768   1.114
 4706SOL     OW15016   2.563   0.279   0.588
 4706SOL    HW115017   2.645   0.329   0.559
 4706SOL    HW215018   2.490   0.345   0.608
 4707SOL     OW15019   1.224   0.250   0.285
 4707SOL    HW115020   1.145   0.309   0.270
 4707SOL    HW215021   1.226   0.178   0.216
 4708SOL     OW15022   1.270   2.553   6.164
 4708SOL    HW115023   1.306   2.567   6.256
 4708SOL    HW215024   1.246   2.457   6.152
 4709SOL     OW15025   4.301   5.670   5.322
 4709SOL    HW115026   4.353   5.639   5.243
 4709SOL    HW215027   4.207   5.636   5.316
 4710SOL     OW15028   4.650   0.425   5.784
 4710SOL    HW115029   4.616   0.496   5.845
 4710SOL    HW215030   4.612   0.438   5.692
 4711SOL     OW15031   6.045   1.166   1.516
 4711SOL    HW115032   6.008   1.073   1.515
 4711SOL    HW215033   6.134   1.167   1.471
 4712SOL     OW15034   2.885   5.190   6.367
 4712SOL    HW115035   2.852   5.183   6.273
 4712SOL    HW215036   2.810   5.173   6.431
 4713SOL     OW15037   3.644   4.593   0.985
 4713SOL    HW115038   3.737   4.608   1.019
 4713SOL    HW215039   3.617   4.498   1.001
 4714SOL     OW15040   0.820   1.704   6.239
 4714SOL    HW115041   0.860   1.722   6.149
 4714SOL    HW215042   0.844   1.779   6.301
 4715SOL     OW15043   5.726   3.618   2.116
 4715SOL    HW115044   5.807   3.606   2.059
 4715SOL    HW215045   5.714   3.537   2.174
 4716SOL     OW15046   4.505   6.682   6.069
 4716SOL    HW115047   4.553   6.616   6.010
 4716SOL    HW215048   4.502   6.647   6.162
 4717SOL     OW15049   0.503   6.108   3.939
 4717SOL    HW115050   0.547   6.021   3.963
 4717SOL    HW215051   0.411   6.090   3.905
 4718SOL     OW15052   6.198   2.152   1.192
 4718SOL    HW115053   6.181   2.185   1.099
 4718SOL    HW215054   6.259   2.216   1.239
 4719SOL     OW15055   4.621   3.248   1.704
 4719SOL    HW115056   4.618   3.167   1.762
 4719SOL    HW215057   4.658   3.224   1.615
 4720SOL     OW15058   2.029   5.127   6.173
 4720SOL    HW115059   2.066   5.162   6.087
 4720SOL    HW215060   1.933   5.154   6.181
 4721SOL     OW15061   6.591   1.751   2.483
 4721SOL    HW115062   6.682   1.775   2.516
 4721SOL    HW215063   6.589   1.654   2.459
 4722SOL     OW15064   1.097   6.250   6.667
 4722SOL    HW115065   1.088   6.287   6.574
 4722SOL    HW215066   1.167   6.179   6.668
 4723SOL     OW15067   2.850   3.192   5.933
 4723SOL    HW115068   2.832   3.101   5.971
 4723SOL    HW215069   2.801   3.261   5.987
 4724SOL     OW15070   6.119   6.963   3.578
 4724SOL    HW115071   6.065   6.884   3.609
 4724SOL    HW215072   6.162   6.941   3.491
 4725SOL     OW15073   6.883   4.948   1.003
 4725SOL    HW115074   6.844   5.031   1.043
 4725SOL    HW215075   6.819   4.872   1.013
 4726SOL     OW15076   1.268   3.502   6.117
 4726SOL    HW115077   1.302   3.498   6.211
 4726SOL    HW215078   1.345   3.503   6.053
 4727SOL     OW15079   1.003   6.342   1.445
 4727SOL    HW115080   0.933   6.409   1.420
 4727SOL    HW215081   1.077   6.345   1.377
 4728SOL     OW15082   5.603   1.504   1.607
 4728SOL    HW115083   5.668   1.466   1.542
 4728SOL    HW215084   5.585   1.438   1.680
 4729SOL     OW15085   4.384   1.481   0.598
 4729SOL    HW115086   4.361   1.532   0.681
 4729SOL    HW215087   4.381   1.542   0.519
 4730SOL     OW15088   3.264   6.092   5.294
 4730SOL    HW115089   3.314   6.080   5.208
 4730SOL    HW215090   3.174   6.130   5.275
 4731SOL     OW15091   2.916   0.416   0.218
 4731SOL    HW115092   2.844   0.476   0.181
 4731SOL    HW215093   3.005   0.446   0.183
 4732SOL     OW15094   1.589   4.296   5.114
 4732SOL    HW115095   1.520   4.301   5.042
 4732SOL    HW215096   1.645   4.214   5.100
 4733SOL     OW15097   1.619   4.268   3.589
 4733SOL    HW115098   1.634   4.313   3.677
 4733SOL    HW215099   1.645   4.172   3.597
 4734SOL     OW15100   4.650   3.501   0.139
 4734SOL    HW115101   4.694   3.419   0.102
 4734SOL    HW215102   4.557   3.479   0.168
 4735SOL     OW15103   0.217   5.130   4.923
 4735SOL    HW115104   0.195   5.224   4.950
 4735SOL    HW215105   0.227   5.074   5.005
 4736SOL     OW15106   6.076   1.770   5.562
 4736SOL    HW115107   6.087   1.810   5.653
 4736SOL    HW215108   6.145   1.699   5.548
 4737SOL     OW15109   3.033   4.384   1.691
 4737SOL    HW115110   2.984   4.426   1.768
 4737SOL    HW215111   2.968   4.338   1.631
 4738SOL     OW15112   1.977   6.250   3.009
 4738SOL    HW115113   1.968   6.154   3.037
 4738SOL    HW215114   2.073   6.275   3.006
 4739SOL     OW15115   5.045   1.521   2.678
 4739SOL    HW115116   4.987   1.469   2.616
 4739SOL    HW215117   5.001   1.609   2.698
 4740SOL     OW15118   0.209   2.031   0.794
 4740SOL    HW115119   0.257   1.944   0.795
 4740SOL    HW215120   0.253   2.094   0.858
 4741SOL     OW15121   5.519   4.013   0.598
 4741SOL    HW115122   5.598   4.070   0.574
 4741SOL    HW215123   5.550   3.923   0.628
 4742SOL     OW15124   3.380   6.712   6.776
 4742SOL    HW115125   3.378   6.762   6.863
 4742SOL    HW215126   3.312   6.751   6.714
 4743SOL     OW15127   1.778   3.532   5.053
 4743SOL    HW115128   1.721   3.455   5.084
 4743SOL    HW215129   1.875   3.509   5.065
 4744SOL     OW15130   2.557   3.870   6.375
 4744SOL    HW115131   2.468   3.824   6.369
 4744SOL    HW215132   2.556   3.952   6.319
 4745SOL     OW15133   3.407   5.348   6.097
 4745SOL    HW115134   3.376   5.267   6.047
 4745SOL    HW215135   3.372   5.345   6.191
 4746SOL     OW15136   5.467   6.354   2.245
 4746SOL    HW115137   5.466   6.270   2.299
 4746SOL    HW215138   5.462   6.433   2.307
 4747SOL     OW15139   1.741   4.057   5.935
 4747SOL    HW115140   1.755   4.153   5.911
 4747SOL    HW215141   1.752   4.046   6.034
 4748SOL     OW15142   1.002   4.849   0.745
 4748SOL    HW115143   1.046   4.794   0.674
 4748SOL    HW215144   1.054   4.933   0.759
 4749SOL     OW15145   3.149   6.511   5.414
 4749SOL    HW115146   3.081   6.583   5.424
 4749SOL    HW215147   3.144   6.448   5.491
 4750SOL     OW15148   0.385   3.828   3.662
 4750SOL    HW115149   0.288   3.851   3.659
 4750SOL    HW215150   0.396   3.731   3.680
 4751SOL     OW15151   3.144   2.298   1.227
 4751SOL    HW115152   3.072   2.360   1.194
 4751SOL    HW215153   3.138   2.291   1.327
 4752SOL     OW15154   3.844   0.675   6.754
 4752SOL    HW115155   3.922   0.614   6.767
 4752SOL    HW215156   3.760   0.628   6.781
 4753SOL     OW15157   5.257   0.217   3.528
 4753SOL    HW115158   5.307   0.158   3.592
 4753SOL    HW215159   5.159   0.202   3.538
 4754SOL     OW15160   5.860   6.831   4.618
 4754SOL    HW115161   5.817   6.859   4.704
 4754SOL    HW215162   5.853   6.905   4.552
 4755SOL     OW15163   2.275   0.490   0.885
 4755SOL    HW115164   2.314   0.582   0.892
 4755SOL    HW215165   2.315   0.432   0.956
 4756SOL     OW15166   6.470   3.570   1.291
 4756SOL    HW115167   6.436   3.501   1.227
 4756SOL    HW215168   6.533   3.528   1.356
 4757SOL     OW15169   2.425   2.003   0.761
 4757SOL    HW115170   2.509   2.009   0.815
 4757SOL    HW215171   2.449   1.980   0.666
 4758SOL     OW15172   2.525   6.823   4.572
 4758SOL    HW115173   2.487   6.735   4.602
 4758SOL    HW215174   2.543   6.819   4.474
 4759SOL     OW15175   5.451   4.889   4.817
 4759SOL    HW115176   5.362   4.896   4.862
 4759SOL    HW215177   5.459   4.799   4.772
 4760SOL     OW15178   3.096   2.134   0.346
 4760SOL    HW115179   3.131   2.082   0.424
 4760SOL    HW215180   2.996   2.138   0.350
 4761SOL     OW15181   0.767   6.386   0.204
 4761SOL    HW115182   0.841   6.321   0.221
 4761SOL    HW215183   0.694   6.341   0.152
 4762SOL     OW15184   1.611   5.619   2.670
 4762SOL    HW115185   1.585   5.561   2.747
 4762SOL    HW215186   1.538   5.618   2.601
 4763SOL     OW15187   6.373   6.528   3.418
 4763SOL    HW115188   6.383   6.463   3.494
 4763SOL    HW215189   6.308   6.491   3.352
 4764SOL     OW15190   4.970   3.773   4.887
 4764SOL    HW115191   4.926   3.861   4.873
 4764SOL    HW215192   4.914   3.716   4.947
 4765SOL     OW15193   4.223   1.033   4.032
 4765SOL    HW115194   4.159   0.986   3.970
 4765SOL    HW215195   4.172   1.070   4.110
 4766SOL     OW15196   5.129   5.012   4.493
 4766SOL    HW115197   5.129   5.005   4.393
 4766SOL    HW215198   5.079   5.093   4.521
 4767SOL     OW15199   3.543   5.177   5.826
 4767SOL    HW115200   3.514   5.256   5.773
 4767SOL    HW215201   3.476   5.157   5.897
 4768SOL     OW15202   4.254   1.199   5.204
 4768SOL    HW115203   4.318   1.133   5.166
 4768SOL    HW215204   4.247   1.278   5.144
 4769SOL     OW15205   5.066   4.240   0.193
 4769SOL    HW115206   4.988   4.189   0.158
 4769SOL    HW215207   5.145   4.179   0.200
 4770SOL     OW15208   1.105   0.699   4.407
 4770SOL    HW115209   1.178   0.723   4.342
 4770SOL    HW215210   1.088   0.600   4.402
 4771SOL     OW15211   3.411   5.214   5.515
 4771SOL    HW115212   3.457   5.258   5.438
 4771SOL    HW215213   3.473   5.210   5.593
 4772SOL     OW15214   3.300   4.550   1.239
 4772SOL    HW115215   3.284   4.522   1.144
 4772SOL    HW215216   3.318   4.648   1.242
 4773SOL     OW15217   0.198   5.405   4.431
 4773SOL    HW115218   0.164   5.399   4.525
 4773SOL    HW215219   0.154   5.481   4.384
 4774SOL     OW15220   1.099   2.674   1.882
 4774SOL    HW115221   1.194   2.690   1.908
 4774SOL    HW215222   1.093   2.594   1.822
 4775SOL     OW15223   5.208   6.458   2.387
 4775SOL    HW115224   5.200   6.447   2.288
 4775SOL    HW215225   5.196   6.370   2.432
 4776SOL     OW15226   1.484   6.565   5.307
 4776SOL    HW115227   1.428   6.568   5.389
 4776SOL    HW215228   1.462   6.643   5.249
 4777SOL     OW15229   2.480   4.805   1.010
 4777SOL    HW115230   2.391   4.759   1.015
 4777SOL    HW215231   2.552   4.741   1.038
 4778SOL     OW15232   6.789   2.754   3.262
 4778SOL    HW115233   6.745   2.823   3.320
 4778SOL    HW215234   6.792   2.786   3.167
 4779SOL     OW15235   6.290   6.558   2.870
 4779SOL    HW115236   6.373   6.589   2.915
 4779SOL    HW215237   6.261   6.627   2.803
 4780SOL     OW15238   5.797   0.789   0.105
 4780SOL    HW115239   5.833   0.705   0.146
 4780SOL    HW215240   5.700   0.798   0.127
 4781SOL     OW15241   2.351   5.862   2.123
 4781SOL    HW115242   2.320   5.814   2.205
 4781SOL    HW215243   2.273   5.875   2.061
 4782SOL     OW15244   4.323   5.661   6.892
 4782SOL    HW115245   4.292   5.739   6.947
 4782SOL    HW215246   4.278   5.578   6.925
 4783SOL     OW15247   4.554   4.483   0.285
 4783SOL    HW115248   4.517   4.404   0.333
 4783SOL    HW215249   4.557   4.465   0.187
 4784SOL     OW15250   6.069   4.309   6.797
 4784SOL    HW115251   6.128   4.229   6.809
 4784SOL    HW215252   5.975   4.280   6.785
 4785SOL     OW15253   0.322   6.421   2.260
 4785SOL    HW115254   0.408   6.459   2.294
 4785SOL    HW215255   0.249   6.489   2.270
 4786SOL     OW15256   2.633   1.784   0.315
 4786SOL    HW115257   2.564   1.819   0.252
 4786SOL    HW215258   2.664   1.694   0.283
 4787SOL     OW15259   4.378   1.973   2.542
 4787SOL    HW115260   4.383   1.908   2.467
 4787SOL    HW215261   4.438   1.943   2.617
 4788SOL     OW15262   0.646   5.523   5.524
 4788SOL    HW115263   0.618   5.494   5.432
 4788SOL    HW215264   0.713   5.596   5.517
 4789SOL     OW15265   5.293   1.851   1.160
 4789SOL    HW115266   5.371   1.814   1.210
 4789SOL    HW215267   5.244   1.777   1.114
 4790SOL     OW15268   6.500   2.268   5.336
 4790SOL    HW115269   6.559   2.203   5.383
 4790SOL    HW215270   6.430   2.218   5.286
 4791SOL     OW15271   6.252   2.461   1.767
 4791SOL    HW115272   6.195   2.516   1.706
 4791SOL    HW215273   6.236   2.489   1.862
 4792SOL     OW15274   1.977   4.105   3.074
 4792SOL    HW115275   1.939   4.015   3.097
 4792SOL    HW215276   1.903   4.172   3.066
 4793SOL     OW15277   1.830   2.738   5.626
 4793SOL    HW115278   1.863   2.792   5.549
 4793SOL    HW215279   1.746   2.780   5.662
 4794SOL     OW15280   4.465   0.366   3.355
 4794SOL    HW115281   4.417   0.424   3.420
 4794SOL    HW215282   4.439   0.392   3.262
 4795SOL     OW15283   5.826   2.772   4.252
 4795SOL    HW115284   5.805   2.675   4.265
 4795SOL    HW215285   5.760   2.827   4.305
 4796SOL     OW15286   4.990   1.532   5.417
 4796SOL    HW115287   4.903   1.522   5.370
 4796SOL    HW215288   5.057   1.469   5.376
 4797SOL     OW15289   1.172   6.304   5.689
 4797SOL    HW115290   1.168   6.316   5.788
 4797SOL    HW215291   1.267   6.312   5.658
 4798SOL     OW15292   6.931   3.401   4.517
 4798SOL    HW115293   6.862   3.390   4.445
 4798SOL    HW215294   6.991   3.322   4.517
 4799SOL     OW15295   5.291   2.341   6.946
 4799SOL    HW115296   5.326   2.335   0.023
 4799SOL    HW215297   5.230   2.264   6.928
 4800SOL     OW15298   3.442   3.281   5.827
 4800SOL    HW115299   3.426   3.183   5.825
 4800SOL    HW215300   3.379   3.327   5.764
 4801SOL     OW15301   2.699   2.291   6.637
 4801SOL    HW115302   2.699   2.388   6.661
 4801SOL    HW215303   2.633   2.275   6.563
 4802SOL     OW15304   1.037   6.429   2.267
 4802SOL    HW115305   1.060   6.392   2.177
 4802SOL    HW215306   1.097   6.389   2.336
 4803SOL     OW15307   0.889   5.270   0.932
 4803SOL    HW115308   0.959   5.212   0.973
 4803SOL    HW215309   0.920   5.365   0.934
 4804SOL     OW15310   5.135   6.184   0.084
 4804SOL    HW115311   5.206   6.214   0.147
 4804SOL    HW215312   5.051   6.236   0.101
 4805SOL     OW15313   5.397   1.310   2.486
 4805SOL    HW115314   5.394   1.256   2.570
 4805SOL    HW215315   5.450   1.393   2.502
 4806SOL     OW15316   1.274   4.465   2.978
 4806SOL    HW115317   1.315   4.420   2.899
 4806SOL    HW215318   1.179   4.437   2.987
 4807SOL     OW15319   0.860   4.993   0.388
 4807SOL    HW115320   0.768   5.031   0.391
 4807SOL    HW215321   0.876   4.951   0.299
 4808SOL     OW15322   5.574   4.232   6.812
 4808SOL    HW115323   5.605   4.294   6.739
 4808SOL    HW215324   5.475   4.222   6.807
 4809SOL     OW15325   3.433   4.341   0.089
 4809SOL    HW115326   3.505   4.305   0.030
 4809SOL    HW215327   3.471   4.361   0.180
 4810SOL     OW15328   1.040   4.875   2.672
 4810SOL    HW115329   1.078   4.845   2.759
 4810SOL    HW215330   1.076   4.966   2.649
 4811SOL     OW15331   2.673   3.810   1.652
 4811SOL    HW115332   2.763   3.853   1.644
 4811SOL    HW215333   2.682   3.711   1.640
 4812SOL     OW15334   6.441   5.517   3.986
 4812SOL    HW115335   6.382   5.492   4.063
 4812SOL    HW215336   6.477   5.434   3.944
 4813SOL     OW15337   5.269   2.442   1.611
 4813SOL    HW115338   5.248   2.487   1.524
 4813SOL    HW215339   5.244   2.503   1.687
 4814SOL     OW15340   6.543   3.983   0.855
 4814SOL    HW115341   6.508   3.928   0.931
 4814SOL    HW215342   6.491   3.964   0.773
 4815SOL     OW15343   5.432   4.742   2.888
 4815SOL    HW115344   5.518   4.777   2.926
 4815SOL    HW215345   5.378   4.818   2.853
 4816SOL     OW15346   1.838   4.614   0.851
 4816SOL    HW115347   1.785   4.539   0.812
 4816SOL    HW215348   1.808   4.630   0.946
 4817SOL     OW15349   0.126   2.039   6.425
 4817SOL    HW115350   0.170   2.129   6.421
 4817SOL    HW215351   0.061   2.037   6.501
 4818SOL     OW15352   1.436   6.352   3.915
 4818SOL    HW115353   1.434   6.337   3.816
 4818SOL    HW215354   1.530   6.370   3.944
 4819SOL     OW15355   1.444   1.675   0.343
 4819SOL    HW115356   1.382   1.652   0.418
 4819SOL    HW215357   1.391   1.699   0.262
 4820SOL     OW15358   5.885   2.614   2.242
 4820SOL    HW115359   5.918   2.659   2.158
 4820SOL    HW215360   5.964   2.583   2.295
 4821SOL     OW15361   1.246   6.313   2.702
 4821SOL    HW115362   1.338   6.278   2.718
 4821SOL    HW215363   1.245   6.413   2.709
 4822SOL     OW15364   2.588   2.175   4.991
 4822SOL    HW115365   2.500   2.222   4.990
 4822SOL    HW215366   2.587   2.101   4.923
 4823SOL     OW15367   1.435   1.099   4.638
 4823SOL    HW115368   1.386   1.022   4.597
 4823SOL    HW215369   1.473   1.156   4.565
 4824SOL     OW15370   4.827   2.215   4.859
 4824SOL    HW115371   4.758   2.265   4.808
 4824SOL    HW215372   4.832   2.250   4.953
 4825SOL     OW15373   1.862   3.100   5.094
 4825SOL    HW115374   1.829   3.100   4.999
 4825SOL    HW215375   1.949   3.052   5.099
 4826SOL     OW15376   5.542   1.666   0.145
 4826SOL    HW115377   5.460   1.691   0.093
 4826SOL    HW215378   5.526   1.683   0.243
 4827SOL     OW15379   6.395   1.625   0.583
 4827SOL    HW115380   6.486   1.602   0.619
 4827SOL    HW215381   6.325   1.584   0.641
 4828SOL     OW15382   4.881   2.679   0.942
 4828SOL    HW115383   4.852   2.625   1.021
 4828SOL    HW215384   4.959   2.634   0.898
 4829SOL     OW15385   4.255   6.382   5.993
 4829SOL    HW115386   4.217   6.316   5.928
 4829SOL    HW215387   4.264   6.340   6.083
 4830SOL     OW15388   4.433   6.534   4.234
 4830SOL    HW115389   4.344   6.508   4.272
 4830SOL    HW215390   4.423   6.558   4.138
 4831SOL     OW15391   1.119   4.091   6.189
 4831SOL    HW115392   1.094   4.051   6.101
 4831SOL    HW215393   1.040   4.087   6.251
 4832SOL     OW15394   4.024   3.796   3.800
 4832SOL    HW115395   4.025   3.896   3.796
 4832SOL    HW215396   3.977   3.766   3.883
 4833SOL     OW15397   5.027   1.843   2.942
 4833SOL    HW115398   5.094   1.823   3.014
 4833SOL    HW215399   4.935   1.835   2.980
 4834SOL     OW15400   3.165   6.514   1.066
 4834SOL    HW115401   3.164   6.572   0.984
 4834SOL    HW215402   3.105   6.553   1.135
 4835SOL     OW15403   5.946   1.993   6.785
 4835SOL    HW115404   5.872   1.957   6.842
 4835SOL    HW215405   5.923   1.980   6.689
 4836SOL     OW15406   4.982   2.228   4.636
 4836SOL    HW115407   4.949   2.216   4.729
 4836SOL    HW215408   4.938   2.161   4.576
 4837SOL     OW15409   6.903   3.775   3.184
 4837SOL    HW115410   6.864   3.864   3.209
 4837SOL    HW215411   6.833   3.704   3.193
 4838SOL     OW15412   1.097   5.454   0.220
 4838SOL    HW115413   1.194   5.474   0.205
 4838SOL    HW215414   1.081   5.356   0.212
 4839SOL     OW15415   1.629   3.162   0.213
 4839SOL    HW115416   1.711   3.110   0.190
 4839SOL    HW215417   1.559   3.100   0.250
 4840SOL     OW15418   6.712   4.701   6.893
 4840SOL    HW115419   6.668   4.681   6.805
 4840SOL    HW215420   6.778   4.776   6.880
 4841SOL     OW15421   2.171   5.070   2.317
 4841SOL    HW115422   2.075   5.098   2.321
 4841SOL    HW215423   2.224   5.127   2.380
 4842SOL     OW15424   3.699   5.333   2.226
 4842SOL    HW115425   3.663   5.351   2.134
 4842SOL    HW215426   3.784   5.384   2.239
 4843SOL     OW15427   6.187   3.215   1.522
 4843SOL    HW115428   6.260   3.223   1.589
 4843SOL    HW215429   6.206   3.139   1.460
 4844SOL     OW15430   0.710   3.025   6.745
 4844SOL    HW115431   0.669   3.097   6.800
 4844SOL    HW215432   0.649   3.003   6.669
 4845SOL     OW15433   5.005   5.420   6.243
 4845SOL    HW115434   4.911   5.389   6.231
 4845SOL    HW215435   5.036   5.398   6.336
 4846SOL     OW15436   6.463   2.518   3.690
 4846SOL    HW115437   6.554   2.550   3.665
 4846SOL    HW215438   6.417   2.589   3.744
 4847SOL     OW15439   2.266   0.215   6.529
 4847SOL    HW115440   2.227   0.302   6.558
 4847SOL    HW215441   2.196   0.144   6.532
 4848SOL     OW15442   1.751   1.060   4.698
 4848SOL    HW115443   1.656   1.028   4.692
 4848SOL    HW215444   1.812   0.991   4.660
 4849SOL     OW15445   0.866   6.096   6.627
 4849SOL    HW115446   0.867   6.029   6.554
 4849SOL    HW215447   0.952   6.147   6.627
 4850SOL     OW15448   4.060   0.860   1.803
 4850SOL    HW115449   4.067   0.841   1.705
 4850SOL    HW215450   4.130   0.926   1.830
 4851SOL     OW15451   3.621   6.803   5.809
 4851SOL    HW115452   3.658   6.759   5.891
 4851SOL    HW215453   3.527   6.772   5.794
 4852SOL     OW15454   1.903   5.778   5.204
 4852SOL    HW115455   1.822   5.719   5.203
 4852SOL    HW215456   1.954   5.766   5.119
 4853SOL     OW15457   2.865   1.388   3.749
 4853SOL    HW115458   2.869   1.482   3.715
 4853SOL    HW215459   2.895   1.325   3.677
 4854SOL     OW15460   4.516   6.450   2.026
 4854SOL    HW115461   4.448   6.437   2.097
 4854SOL    HW215462   4.474   6.440   1.936
 4855SOL     OW15463   5.626   2.730   3.994
 4855SOL    HW115464   5.724   2.748   4.002
 4855SOL    HW215465   5.612   2.635   3.963
 4856SOL     OW15466   1.802   3.208   2.742
 4856SOL    HW115467   1.849   3.295   2.756
 4856SOL    HW215468   1.739   3.191   2.818
 4857SOL     OW15469   3.060   2.215   3.878
 4857SOL    HW115470   3.008   2.297   3.901
 4857SOL    HW215471   3.059   2.202   3.779
 4858SOL     OW15472   0.292   0.268   4.976
 4858SOL    HW115473   0.364   0.290   4.910
 4858SOL    HW215474   0.206   0.311   4.946
 4859SOL     OW15475   0.641   5.567   3.125
 4859SOL    HW115476   0.661   5.514   3.208
 4859SOL    HW215477   0.544   5.557   3.102
 4860SOL     OW15478   4.494   5.003   0.592
 4860SOL    HW115479   4.482   4.904   0.605
 4860SOL    HW215480   4.491   5.024   0.494
 4861SOL     OW15481   6.067   5.111   6.752
 4861SOL    HW115482   5.999   5.040   6.773
 4861SOL    HW215483   6.122   5.082   6.674
 4862SOL     OW15484   1.697   4.557   4.899
 4862SOL    HW115485   1.736   4.521   4.814
 4862SOL    HW215486   1.761   4.542   4.974
 4863SOL     OW15487   4.967   3.867   2.037
 4863SOL    HW115488   4.933   3.801   2.104
 4863SOL    HW215489   5.020   3.818   1.967
 4864SOL     OW15490   3.657   1.833   2.287
 4864SOL    HW115491   3.591   1.900   2.322
 4864SOL    HW215492   3.651   1.830   2.187
 4865SOL     OW15493   2.138   6.319   4.508
 4865SOL    HW115494   2.164   6.302   4.603
 4865SOL    HW215495   2.195   6.262   4.448
 4866SOL     OW15496   6.356   4.211   1.297
 4866SOL    HW115497   6.338   4.288   1.236
 4866SOL    HW215498   6.389   4.245   1.385
 4867SOL     OW15499   4.924   5.691   2.200
 4867SOL    HW115500   4.893   5.608   2.153
 4867SOL    HW215501   5.023   5.699   2.191
 4868SOL     OW15502   0.238   5.109   1.953
 4868SOL    HW115503   0.180   5.077   1.877
 4868SOL    HW215504   0.330   5.127   1.919
 4869SOL     OW15505   0.210   2.096   1.899
 4869SOL    HW115506   0.113   2.117   1.896
 4869SOL    HW215507   0.261   2.168   1.851
 4870SOL     OW15508   6.901   5.870   1.914
 4870SOL    HW115509   6.931   5.840   1.824
 4870SOL    HW215510   6.965   5.938   1.950
 4871SOL     OW15511   0.676   1.710   4.997
 4871SOL    HW115512   0.588   1.735   4.957
 4871SOL    HW215513   0.703   1.619   4.965
 4872SOL     OW15514   0.226   5.932   4.243
 4872SOL    HW115515   0.238   5.846   4.194
 4872SOL    HW215516   0.134   5.934   4.284
 4873SOL     OW15517   6.719   5.077   4.152
 4873SOL    HW115518   6.675   4.995   4.189
 4873SOL    HW215519   6.779   5.052   4.076
 4874SOL     OW15520   5.729   3.395   3.379
 4874SOL    HW115521   5.823   3.384   3.411
 4874SOL    HW215522   5.718   3.344   3.293
 4875SOL     OW15523   5.430   3.507   1.559
 4875SOL    HW115524   5.435   3.421   1.509
 4875SOL    HW215525   5.412   3.488   1.656
 4876SOL     OW15526   5.590   1.038   4.151
 4876SOL    HW115527   5.638   1.094   4.084
 4876SOL    HW215528   5.509   1.087   4.183
 4877SOL     OW15529   0.259   1.797   0.265
 4877SOL    HW115530   0.224   1.712   0.227
 4877SOL    HW215531   0.182   1.856   0.290
 4878SOL     OW15532   6.017   0.996   3.117
 4878SOL    HW115533   6.043   1.079   3.166
 4878SOL    HW215534   5.919   0.982   3.124
 4879SOL     OW15535   4.835   5.550   3.489
 4879SOL    HW115536   4.738   5.542   3.464
 4879SOL    HW215537   4.847   5.523   3.585
 4880SOL     OW15538   5.985   3.252   6.662
 4880SOL    HW115539   5.920   3.316   6.701
 4880SOL    HW215540   6.058   3.234   6.728
 4881SOL     OW15541   1.917   6.731   6.841
 4881SOL    HW115542   1.894   6.676   6.921
 4881SOL    HW215543   1.996   6.691   6.795
 4882SOL     OW15544   5.605   1.442   4.127
 4882SOL    HW115545   5.675   1.487   4.183
 4882SOL    HW215546   5.642   1.356   4.091
 4883SOL     OW15547   4.979   4.965   2.437
 4883SOL    HW115548   5.035   5.040   2.473
 4883SOL    HW215549   4.927   4.924   2.512
 4884SOL     OW15550   4.039   0.375   0.796
 4884SOL    HW115551   4.040   0.402   0.892
 4884SOL    HW215552   4.034   0.275   0.790
 4885SOL     OW15553   2.626   5.846   2.014
 4885SOL    HW115554   2.543   5.870   2.064
 4885SOL    HW215555   2.601   5.809   1.924
 4886SOL     OW15556   6.712   5.796   6.826
 4886SOL    HW115557   6.620   5.807   6.788
 4886SOL    HW215558   6.706   5.794   6.926
 4887SOL     OW15559   6.884   0.419   3.312
 4887SOL    HW115560   6.975   0.398   3.278
 4887SOL    HW215561   6.882   0.410   3.411
 4888SOL     OW15562   2.076   6.709   4.255
 4888SOL    HW115563   2.040   6.647   4.185
 4888SOL    HW215564   2.043   6.680   4.345
 4889SOL     OW15565   6.230   0.734   6.568
 4889SOL    HW115566   6.168   0.658   6.591
 4889SOL    HW215567   6.179   0.804   6.519
 4890SOL     OW15568   0.381   1.718   5.700
 4890SOL    HW115569   0.286   1.747   5.682
 4890SOL    HW215570   0.441   1.798   5.698
 4891SOL     OW15571   1.742   5.821   0.434
 4891SOL    HW115572   1.816   5.754   0.425
 4891SOL    HW215573   1.654   5.775   0.429
 4892SOL     OW15574   2.355   6.256   1.661
 4892SOL    HW115575   2.443   6.225   1.699
 4892SOL    HW215576   2.340   6.351   1.688
 4893SOL     OW15577   0.016   4.237   1.069
 4893SOL    HW115578   6.941   4.271   1.092
 4893SOL    HW215579   0.013   4.188   0.982
 4894SOL     OW15580   2.370   1.963   2.229
 4894SOL    HW115581   2.366   2.055   2.267
 4894SOL    HW215582   2.393   1.898   2.302
 4895SOL     OW15583   0.672   5.109   2.781
 4895SOL    HW115584   0.731   5.181   2.744
 4895SOL    HW215585   0.728   5.033   2.812
 4896SOL     OW15586   2.371   5.099   1.872
 4896SOL    HW115587   2.438   5.173   1.883
 4896SOL    HW215588   2.359   5.052   1.959
 4897SOL     OW15589   2.345   4.919   5.626
 4897SOL    HW115590   2.373   4.888   5.717
 4897SOL    HW215591   2.420   4.967   5.582
 4898SOL     OW15592   4.419   0.959   4.417
 4898SOL    HW115593   4.343   0.952   4.353
 4898SOL    HW215594   4.435   1.056   4.439
 4899SOL     OW15595   6.304   4.914   3.243
 4899SOL    HW115596   6.316   4.840   3.177
 4899SOL    HW215597   6.206   4.931   3.255
 4900SOL     OW15598   1.831   5.408   5.040
 4900SOL    HW115599   1.928   5.427   5.055
 4900SOL    HW215600   1.807   5.427   4.945
 4901SOL     OW15601   2.950   6.697   5.468
 4901SOL    HW115602   2.862   6.676   5.426
 4901SOL    HW215603   2.983   6.785   5.434
 4902SOL     OW15604   2.486   2.530   4.786
 4902SOL    HW115605   2.584   2.511   4.773
 4902SOL    HW215606   2.432   2.453   4.753
 4903SOL     OW15607   2.900   6.161   6.350
 4903SOL    HW115608   2.935   6.067   6.351
 4903SOL    HW215609   2.916   6.202   6.261
 4904SOL     OW15610   1.324   0.295   3.980
 4904SOL    HW115611   1.249   0.335   4.033
 4904SOL    HW215612   1.330   0.197   4.001
 4905SOL     OW15613   4.175   0.998   2.141
 4905SOL    HW115614   4.152   1.092   2.168
 4905SOL    HW215615   4.116   0.934   2.188
 4906SOL     OW15616   4.396   1.656   6.648
 4906SOL    HW115617   4.298   1.665   6.668
 4906SOL    HW215618   4.420   1.714   6.571
 4907SOL     OW15619   5.047   5.998   1.001
 4907SOL    HW115620   4.951   6.013   0.977
 4907SOL    HW215621   5.053   5.977   1.099
 4908SOL     OW15622   4.858   5.129   6.193
 4908SOL    HW115623   4.863   5.080   6.280
 4908SOL    HW215624   4.823   5.221   6.209
 4909SOL     OW15625   6.812   0.263   5.217
 4909SOL    HW115626   6.772   0.325   5.149
 4909SOL    HW215627   6.750   0.187   5.234
 4910SOL     OW15628   5.249   6.498   4.341
 4910SOL    HW115629   5.216   6.590   4.365
 4910SOL    HW215630   5.342   6.486   4.376
 4911SOL     OW15631   6.971   2.845   5.447
 4911SOL    HW115632   6.940   2.940   5.446
 4911SOL    HW215633   6.893   2.784   5.463
 4912SOL     OW15634   5.353   2.764   1.514
 4912SOL    HW115635   5.384   2.670   1.526
 4912SOL    HW215636   5.309   2.796   1.598
 4913SOL     OW15637   3.740   3.249   3.754
 4913SOL    HW115638   3.693   3.182   3.697
 4913SOL    HW215639   3.681   3.329   3.767
 4914SOL     OW15640   3.237   6.950   4.945
 4914SOL    HW115641   3.318   6.993   4.986
 4914SOL    HW215642   3.200   6.881   5.008
 4915SOL     OW15643   4.500   0.714   4.340
 4915SOL    HW115644   4.507   0.647   4.413
 4915SOL    HW215645   4.506   0.806   4.378
 4916SOL     OW15646   1.987   1.837   3.867
 4916SOL    HW115647   1.934   1.922   3.859
 4916SOL    HW215648   1.929   1.766   3.907
 4917SOL     OW15649   1.533   4.741   0.504
 4917SOL    HW115650   1.490   4.653   0.520
 4917SOL    HW215651   1.571   4.776   0.590
 4918SOL     OW15652   2.851   6.563   2.373
 4918SOL    HW115653   2.918   6.573   2.446
 4918SOL    HW215654   2.891   6.594   2.286
 4919SOL     OW15655   1.828   1.522   0.107
 4919SOL    HW115656   1.789   1.453   0.168
 4919SOL    HW215657   1.766   1.600   0.102
 4920SOL     OW15658   4.738   0.515   6.169
 4920SOL    HW115659   4.826   0.469   6.157
 4920SOL    HW215660   4.686   0.511   6.084
 4921SOL     OW15661   2.028   4.123   0.675
 4921SOL    HW115662   2.014   4.182   0.596
 4921SOL    HW215663   1.999   4.171   0.758
 4922SOL     OW15664   2.057   2.898   4.425
 4922SOL    HW115665   2.143   2.917   4.472
 4922SOL    HW215666   2.006   2.984   4.413
 4923SOL     OW15667   3.236   1.348   0.532
 4923SOL    HW115668   3.265   1.348   0.628
 4923SOL    HW215669   3.136   1.352   0.527
 4924SOL     OW15670   1.949   2.487   6.077
 4924SOL    HW115671   1.955   2.391   6.102
 4924SOL    HW215672   2.017   2.540   6.129
 4925SOL     OW15673   5.892   6.693   1.777
 4925SOL    HW115674   5.825   6.620   1.763
 4925SOL    HW215675   5.850   6.781   1.755
 4926SOL     OW15676   5.400   2.564   0.764
 4926SOL    HW115677   5.379   2.468   0.785
 4926SOL    HW215678   5.495   2.583   0.790
 4927SOL     OW15679   4.045   3.884   4.667
 4927SOL    HW115680   4.007   3.972   4.697
 4927SOL    HW215681   4.072   3.830   4.746
 4928SOL     OW15682   0.071   0.764   6.317
 4928SOL    HW115683   0.018   0.749   6.233
 4928SOL    HW215684   0.136   0.839   6.302
 4929SOL     OW15685   1.499   4.453   4.663
 4929SOL    HW115686   1.448   4.434   4.747
 4929SOL    HW215687   1.597   4.451   4.682
 4930SOL     OW15688   5.056   0.874   1.704
 4930SOL    HW115689   4.982   0.850   1.767
 4930SOL    HW215690   5.044   0.825   1.618
 4931SOL     OW15691   6.795   0.050   1.402
 4931SOL    HW115692   6.758   0.133   1.360
 4931SOL    HW215693   6.868   0.014   1.344
 4932SOL     OW15694   2.356   2.751   1.908
 4932SOL    HW115695   2.382   2.659   1.882
 4932SOL    HW215696   2.263   2.770   1.876
 4933SOL     OW15697   2.593   6.750   3.745
 4933SOL    HW115698   2.503   6.757   3.703
 4933SOL    HW215699   2.625   6.842   3.770
 4934SOL     OW15700   1.408   4.688   3.039
 4934SOL    HW115701   1.334   4.625   3.016
 4934SOL    HW215702   1.495   4.638   3.035
 4935SOL     OW15703   1.215   1.380   6.519
 4935SOL    HW115704   1.278   1.408   6.592
 4935SOL    HW215705   1.132   1.342   6.561
 4936SOL     OW15706   2.154   5.206   1.705
 4936SOL    HW115707   2.101   5.167   1.780
 4936SOL    HW215708   2.250   5.212   1.731
 4937SOL     OW15709   6.822   3.371   6.188
 4937SOL    HW115710   6.828   3.343   6.093
 4937SOL    HW215711   6.770   3.456   6.195
 4938SOL     OW15712   2.420   5.843   6.910
 4938SOL    HW115713   2.517   5.845   6.935
 4938SOL    HW215714   2.368   5.901   6.972
 4939SOL     OW15715   0.567   1.733   4.014
 4939SOL    HW115716   0.665   1.728   3.994
 4939SOL    HW215717   0.543   1.825   4.043
 4940SOL     OW15718   0.692   1.281   5.274
 4940SOL    HW115719   0.746   1.345   5.220
 4940SOL    HW215720   0.686   1.194   5.226
 4941SOL     OW15721   4.613   2.426   5.418
 4941SOL    HW115722   4.609   2.499   5.350
 4941SOL    HW215723   4.692   2.439   5.478
 4942SOL     OW15724   5.448   2.814   5.281
 4942SOL    HW115725   5.434   2.715   5.277
 4942SOL    HW215726   5.523   2.839   5.220
 4943SOL     OW15727   5.241   4.312   6.053
 4943SOL    HW115728   5.250   4.293   5.955
 4943SOL    HW215729   5.235   4.225   6.103
 4944SOL     OW15730   2.746   4.114   1.628
 4944SOL    HW115731   2.691   4.196   1.647
 4944SOL    HW215732   2.687   4.034   1.627
 4945SOL     OW15733   1.280   6.819   4.587
 4945SOL    HW115734   1.203   6.758   4.600
 4945SOL    HW215735   1.309   6.817   4.492
 4946SOL     OW15736   0.908   5.613   6.507
 4946SOL    HW115737   0.834   5.579   6.565
 4946SOL    HW215738   0.945   5.537   6.452
 4947SOL     OW15739   2.135   0.179   0.993
 4947SOL    HW115740   2.154   0.254   0.929
 4947SOL    HW215741   2.062   0.207   1.055
 4948SOL     OW15742   2.414   2.237   2.703
 4948SOL    HW115743   2.333   2.282   2.740
 4948SOL    HW215744   2.478   2.306   2.669
 4949SOL     OW15745   6.505   4.479   5.317
 4949SOL    HW115746   6.548   4.553   5.368
 4949SOL    HW215747   6.416   4.457   5.358
 4950SOL     OW15748   1.954   4.286   4.936
 4950SOL    HW115749   2.048   4.266   4.910
 4950SOL    HW215750   1.893   4.264   4.859
 4951SOL     OW15751   6.046   1.414   4.058
 4951SOL    HW115752   6.110   1.393   3.984
 4951SOL    HW215753   6.036   1.335   4.117
 4952SOL     OW15754   6.872   6.950   6.182
 4952SOL    HW115755   6.909   0.023   6.208
 4952SOL    HW215756   6.920   6.878   6.232
 4953SOL     OW15757   1.719   6.828   3.458
 4953SOL    HW115758   1.650   6.899   3.475
 4953SOL    HW215759   1.688   6.771   3.381
 4954SOL     OW15760   2.690   3.240   6.836
 4954SOL    HW115761   2.673   3.143   6.820
 4954SOL    HW215762   2.751   3.276   6.765
 4955SOL     OW15763   3.373   6.849   0.007
 4955SOL    HW115764   3.317   6.931   0.002
 4955SOL    HW215765   3.316   6.771   0.032
 4956SOL     OW15766   2.760   6.998   5.737
 4956SOL    HW115767   2.745   6.980   5.834
 4956SOL    HW215768   2.673   0.002   5.692
 4957SOL     OW15769   5.967   2.270   2.123
 4957SOL    HW115770   6.010   2.346   2.172
 4957SOL    HW215771   5.968   2.288   2.025
 4958SOL     OW15772   0.870   5.086   5.818
 4958SOL    HW115773   0.823   5.114   5.734
 4958SOL    HW215774   0.815   5.112   5.897
 4959SOL     OW15775   6.261   2.126   0.589
 4959SOL    HW115776   6.275   2.031   0.617
 4959SOL    HW215777   6.264   2.186   0.669
 4960SOL     OW15778   4.083   4.749   3.356
 4960SOL    HW115779   4.032   4.698   3.425
 4960SOL    HW215780   4.019   4.797   3.296
 4961SOL     OW15781   3.842   0.792   5.577
 4961SOL    HW115782   3.864   0.761   5.670
 4961SOL    HW215783   3.925   0.787   5.520
 4962SOL     OW15784   6.089   3.029   0.492
 4962SOL    HW115785   6.072   3.128   0.495
 4962SOL    HW215786   6.135   3.001   0.576
 4963SOL     OW15787   0.602   6.439   0.869
 4963SOL    HW115788   0.534   6.467   0.801
 4963SOL    HW215789   0.685   6.494   0.858
 4964SOL     OW15790   2.487   6.902   4.959
 4964SOL    HW115791   2.567   6.961   4.973
 4964SOL    HW215792   2.469   6.850   5.042
 4965SOL     OW15793   0.716   0.242   2.166
 4965SOL    HW115794   0.663   0.162   2.192
 4965SOL    HW215795   0.658   0.324   2.172
 4966SOL     OW15796   3.004   6.509   5.015
 4966SOL    HW115797   2.956   6.465   5.091
 4966SOL    HW215798   2.983   6.607   5.014
 4967SOL     OW15799   3.912   4.831   5.235
 4967SOL    HW115800   3.953   4.747   5.269
 4967SOL    HW215801   3.962   4.910   5.271
 4968SOL     OW15802   0.410   1.039   3.273
 4968SOL    HW115803   0.450   1.128   3.256
 4968SOL    HW215804   0.312   1.050   3.294
 4969SOL     OW15805   1.739   5.376   2.918
 4969SOL    HW115806   1.788   5.373   3.005
 4969SOL    HW215807   1.657   5.319   2.924
 4970SOL     OW15808   2.425   2.067   1.534
 4970SOL    HW115809   2.408   2.160   1.500
 4970SOL    HW215810   2.521   2.058   1.558
 4971SOL     OW15811   5.499   5.583   3.205
 4971SOL    HW115812   5.537   5.585   3.112
 4971SOL    HW215813   5.501   5.489   3.240
 4972SOL     OW15814   0.570   3.501   1.331
 4972SOL    HW115815   0.554   3.477   1.427
 4972SOL    HW215816   0.653   3.456   1.299
 4973SOL     OW15817   1.184   6.786   2.087
 4973SOL    HW115818   1.132   6.844   2.150
 4973SOL    HW215819   1.122   6.745   2.021
 4974SOL     OW15820   0.149   4.506   1.092
 4974SOL    HW115821   0.066   4.557   1.069
 4974SOL    HW215822   0.127   4.408   1.098
 4975SOL     OW15823   5.888   4.134   5.995
 4975SOL    HW115824   5.869   4.042   6.028
 4975SOL    HW215825   5.833   4.153   5.914
 4976SOL     OW15826   2.158   1.845   4.077
 4976SOL    HW115827   2.100   1.835   3.996
 4976SOL    HW215828   2.235   1.782   4.070
 4977SOL     OW15829   4.311   4.364   0.070
 4977SOL    HW115830   4.286   4.378   6.991
 4977SOL    HW215831   4.410   4.376   0.080
 4978SOL     OW15832   6.164   4.460   5.055
 4978SOL    HW115833   6.160   4.489   4.959
 4978SOL    HW215834   6.259   4.464   5.087
 4979SOL     OW15835   6.607   6.734   5.762
 4979SOL    HW115836   6.537   6.710   5.830
 4979SOL    HW215837   6.578   6.815   5.712
 4980SOL     OW15838   5.262   5.648   3.091
 4980SOL    HW115839   5.281   5.629   2.995
 4980SOL    HW215840   5.348   5.646   3.143
 4981SOL     OW15841   4.082   5.309   1.034
 4981SOL    HW115842   4.014   5.366   1.079
 4981SOL    HW215843   4.069   5.312   0.935
 4982SOL     OW15844   2.885   1.366   5.721
 4982SOL    HW115845   2.840   1.452   5.744
 4982SOL    HW215846   2.842   1.292   5.772
 4983SOL     OW15847   6.186   3.500   5.871
 4983SOL    HW115848   6.204   3.593   5.840
 4983SOL    HW215849   6.087   3.484   5.875
 4984SOL     OW15850   5.713   4.524   3.240
 4984SOL    HW115851   5.673   4.607   3.200
 4984SOL    HW215852   5.753   4.547   3.329
 4985SOL     OW15853   5.377   0.122   2.967
 4985SOL    HW115854   5.419   0.131   2.877
 4985SOL    HW215855   5.448   0.115   3.037
 4986SOL     OW15856   0.157   4.734   1.273
 4986SOL    HW115857   0.134   4.813   1.216
 4986SOL    HW215858   0.174   4.655   1.215
 4987SOL     OW15859   0.559   6.928   2.555
 4987SOL    HW115860   0.648   6.929   2.509
 4987SOL    HW215861   0.551   7.008   2.613
 4988SOL     OW15862   5.168   0.705   2.451
 4988SOL    HW115863   5.090   0.691   2.390
 4988SOL    HW215864   5.161   0.645   2.530
 4989SOL     OW15865   5.543   6.583   1.898
 4989SOL    HW115866   5.491   6.501   1.922
 4989SOL    HW215867   5.557   6.638   1.980
 4990SOL     OW15868   2.653   2.164   5.853
 4990SOL    HW115869   2.723   2.231   5.877
 4990SOL    HW215870   2.604   2.194   5.771
 4991SOL     OW15871   6.212   5.594   3.530
 4991SOL    HW115872   6.267   5.639   3.460
 4991SOL    HW215873   6.194   5.499   3.502
 4992SOL     OW15874   4.856   0.819   1.860
 4992SOL    HW115875   4.802   0.740   1.832
 4992SOL    HW215876   4.796   0.898   1.873
 4993SOL     OW15877   3.392   5.513   4.759
 4993SOL    HW115878   3.353   5.460   4.684
 4993SOL    HW215879   3.489   5.489   4.770
 4994SOL     OW15880   2.055   0.364   4.223
 4994SOL    HW115881   2.019   0.436   4.163
 4994SOL    HW215882   1.980   0.328   4.279
 4995SOL     OW15883   0.499   1.998   5.458
 4995SOL    HW115884   0.593   2.027   5.479
 4995SOL    HW215885   0.502   1.921   5.394
 4996SOL     OW15886   0.457   0.714   2.937
 4996SOL    HW115887   0.525   0.644   2.960
 4996SOL    HW215888   0.366   0.681   2.960
 4997SOL     OW15889   4.764   2.466   2.413
 4997SOL    HW115890   4.774   2.370   2.441
 4997SOL    HW215891   4.667   2.485   2.395
 4998SOL     OW15892   2.057   3.651   4.721
 4998SOL    HW115893   2.005   3.615   4.644
 4998SOL    HW215894   2.130   3.711   4.688
 4999SOL     OW15895   6.713   3.868   6.582
 4999SOL    HW115896   6.665   3.877   6.669
 4999SOL    HW215897   6.807   3.838   6.599
 5000SOL     OW15898   4.145   6.652   3.391
 5000SOL    HW115899   4.059   6.701   3.401
 5000SOL    HW215900   4.196   6.656   3.477
 5001SOL     OW15901   0.468   4.085   2.163
 5001SOL    HW115902   0.413   4.078   2.246
 5001SOL    HW215903   0.438   4.016   2.097
 5002SOL     OW15904   0.509   3.247   1.819
 5002SOL    HW115905   0.546   3.333   1.855
 5002SOL    HW215906   0.409   3.247   1.829
 5003SOL     OW15907   2.766   5.575   2.476
 5003SOL    HW115908   2.786   5.584   2.574
 5003SOL    HW215909   2.771   5.479   2.450
 5004SOL     OW15910   2.598   4.993   5.487
 5004SOL    HW115911   2.586   5.092   5.474
 5004SOL    HW215912   2.592   4.947   5.399
 5005SOL     OW15913   3.251   2.998   1.001
 5005SOL    HW115914   3.322   3.005   1.071
 5005SOL    HW215915   3.168   3.042   1.034
 5006SOL     OW15916   4.808   0.576   0.954
 5006SOL    HW115917   4.806   0.476   0.957
 5006SOL    HW215918   4.774   0.607   0.865
 5007SOL     OW15919   0.804   6.540   0.625
 5007SOL    HW115920   0.804   6.443   0.603
 5007SOL    HW215921   0.710   6.573   0.632
 5008SOL     OW15922   5.670   6.258   1.700
 5008SOL    HW115923   5.762   6.284   1.731
 5008SOL    HW215924   5.671   6.164   1.668
 5009SOL     OW15925   0.438   1.438   0.790
 5009SOL    HW115926   0.430   1.407   0.885
 5009SOL    HW215927   0.482   1.527   0.788
 5010SOL     OW15928   4.000   3.034   2.381
 5010SOL    HW115929   4.076   2.970   2.394
 5010SOL    HW215930   4.017   3.117   2.433
 5011SOL     OW15931   1.426   4.043   2.108
 5011SOL    HW115932   1.350   4.108   2.104
 5011SOL    HW215933   1.392   3.953   2.138
 5012SOL     OW15934   5.625   4.417   5.988
 5012SOL    HW115935   5.725   4.407   5.991
 5012SOL    HW215936   5.583   4.328   5.970
 5013SOL     OW15937   5.096   1.291   0.329
 5013SOL    HW115938   5.118   1.195   0.349
 5013SOL    HW215939   5.021   1.294   0.262
 5014SOL     OW15940   6.514   4.453   0.795
 5014SOL    HW115941   6.422   4.416   0.785
 5014SOL    HW215942   6.509   4.538   0.848
 5015SOL     OW15943   4.646   1.762   4.470
 5015SOL    HW115944   4.657   1.675   4.422
 5015SOL    HW215945   4.690   1.756   4.560
 5016SOL     OW15946   1.541   2.771   6.897
 5016SOL    HW115947   1.536   2.866   6.930
 5016SOL    HW215948   1.637   2.743   6.891
 5017SOL     OW15949   2.289   2.749   1.124
 5017SOL    HW115950   2.289   2.785   1.218
 5017SOL    HW215951   2.353   2.801   1.068
 5018SOL     OW15952   1.254   3.756   2.452
 5018SOL    HW115953   1.210   3.694   2.387
 5018SOL    HW215954   1.184   3.810   2.499
 5019SOL     OW15955   0.951   4.836   5.890
 5019SOL    HW115956   0.935   4.933   5.873
 5019SOL    HW215957   0.950   4.787   5.803
 5020SOL     OW15958   5.221   0.229   6.764
 5020SOL    HW115959   5.152   0.253   6.832
 5020SOL    HW215960   5.303   0.285   6.778
 5021SOL     OW15961   0.811   1.277   0.269
 5021SOL    HW115962   0.874   1.252   0.343
 5021SOL    HW215963   0.739   1.336   0.305
 5022SOL     OW15964   1.253   1.362   0.319
 5022SOL    HW115965   1.286   1.312   0.399
 5022SOL    HW215966   1.329   1.375   0.255
 5023SOL     OW15967   6.878   3.280   1.308
 5023SOL    HW115968   6.861   3.300   1.212
 5023SOL    HW215969   6.850   3.358   1.364
 5024SOL     OW15970   6.525   5.575   1.875
 5024SOL    HW115971   6.590   5.577   1.799
 5024SOL    HW215972   6.564   5.626   1.952
 5025SOL     OW15973   3.688   1.805   1.987
 5025SOL    HW115974   3.692   1.725   1.928
 5025SOL    HW215975   3.623   1.871   1.950
 5026SOL     OW15976   6.170   6.135   5.404
 5026SOL    HW115977   6.263   6.132   5.368
 5026SOL    HW215978   6.166   6.087   5.491
 5027SOL     OW15979   0.074   6.293   1.721
 5027SOL    HW115980   0.118   6.254   1.640
 5027SOL    HW215981   0.104   6.387   1.734
 5028SOL     OW15982   0.256   2.217   2.256
 5028SOL    HW115983   0.156   2.225   2.251
 5028SOL    HW215984   0.282   2.178   2.344
 5029SOL     OW15985   6.700   1.956   2.285
 5029SOL    HW115986   6.719   1.990   2.193
 5029SOL    HW215987   6.693   1.856   2.282
 5030SOL     OW15988   0.212   6.819   0.458
 5030SOL    HW115989   0.260   6.765   0.528
 5030SOL    HW215990   0.267   6.822   0.375
 5031SOL     OW15991   6.095   0.311   5.640
 5031SOL    HW115992   6.070   0.407   5.646
 5031SOL    HW215993   6.189   0.299   5.674
 5032SOL     OW15994   2.171   1.930   0.534
 5032SOL    HW115995   2.181   1.858   0.602
 5032SOL    HW215996   2.181   2.019   0.578
 5033SOL     OW15997   2.101   0.105   5.735
 5033SOL    HW115998   2.116   0.014   5.773
 5033SOL    HW215999   2.177   0.129   5.675
 5034SOL     OW16000   5.736   0.385   3.323
 5034SOL    HW116001   5.671   0.434   3.266
 5034SOL    HW216002   5.714   0.400   3.420
 5035SOL     OW16003   1.020   3.676   0.146
 5035SOL    HW116004   1.026   3.764   0.099
 5035SOL    HW216005   1.091   3.670   0.215
 5036SOL     OW16006   0.738   4.760   6.595
 5036SOL    HW116007   0.764   4.693   6.664
 5036SOL    HW216008   0.801   4.754   6.517
 5037SOL     OW16009   5.287   4.472   2.248
 5037SOL    HW116010   5.328   4.428   2.328
 5037SOL    HW216011   5.340   4.450   2.167
 5038SOL     OW16012   3.647   3.769   6.378
 5038SOL    HW116013   3.628   3.709   6.455
 5038SOL    HW216014   3.704   3.721   6.312
 5039SOL     OW16015   3.036   4.482   5.614
 5039SOL    HW116016   3.034   4.446   5.707
 5039SOL    HW216017   3.125   4.464   5.573
 5040SOL     OW16018   1.744   5.944   5.594
 5040SOL    HW116019   1.713   5.905   5.508
 5040SOL    HW216020   1.823   5.893   5.628
 5041SOL     OW16021   2.508   1.607   2.759
 5041SOL    HW116022   2.457   1.563   2.685
 5041SOL    HW216023   2.462   1.693   2.785
 5042SOL     OW16024   6.610   2.921   0.186
 5042SOL    HW116025   6.693   2.958   0.229
 5042SOL    HW216026   6.529   2.961   0.230
 5043SOL     OW16027   3.133   6.938   6.168
 5043SOL    HW116028   3.185   6.853   6.161
 5043SOL    HW216029   3.045   6.920   6.212
 5044SOL     OW16030   0.405   6.636   0.031
 5044SOL    HW116031   0.349   6.567   7.001
 5044SOL    HW216032   0.382   6.637   0.129
 5045SOL     OW16033   5.122   0.528   6.654
 5045SOL    HW116034   5.177   0.450   6.624
 5045SOL    HW216035   5.128   0.535   6.754
 5046SOL     OW16036   3.262   4.100   2.734
 5046SOL    HW116037   3.175   4.143   2.758
 5046SOL    HW216038   3.277   4.105   2.635
 5047SOL     OW16039   0.709   4.177   2.076
 5047SOL    HW116040   0.688   4.203   1.981
 5047SOL    HW216041   0.629   4.133   2.117
 5048SOL     OW16042   0.735   1.443   2.232
 5048SOL    HW116043   0.685   1.356   2.238
 5048SOL    HW216044   0.814   1.431   2.171
 5049SOL     OW16045   5.609   2.336   5.974
 5049SOL    HW116046   5.678   2.311   5.906
 5049SOL    HW216047   5.649   2.400   6.040
 5050SOL     OW16048   1.510   1.552   1.517
 5050SOL    HW116049   1.415   1.523   1.528
 5050SOL    HW216050   1.527   1.631   1.575
 5051SOL     OW16051   4.891   4.871   0.952
 5051SOL    HW116052   4.908   4.932   1.030
 5051SOL    HW216053   4.836   4.919   0.884
 5052SOL     OW16054   2.539   1.005   6.635
 5052SOL    HW116055   2.579   1.093   6.660
 5052SOL    HW216056   2.449   0.995   6.678
 5053SOL     OW16057   2.503   4.461   3.375
 5053SOL    HW116058   2.596   4.470   3.340
 5053SOL    HW216059   2.440   4.444   3.298
 5054SOL     OW16060   3.518   5.045   5.153
 5054SOL    HW116061   3.468   5.017   5.072
 5054SOL    HW216062   3.553   4.964   5.201
 5055SOL     OW16063   1.941   2.047   5.861
 5055SOL    HW116064   2.026   2.018   5.818
 5055SOL    HW216065   1.889   2.104   5.797
 5056SOL     OW16066   6.562   4.070   6.477
 5056SOL    HW116067   6.519   4.065   6.568
 5056SOL    HW216068   6.631   3.998   6.469
 5057SOL     OW16069   0.460   6.256   4.180
 5057SOL    HW116070   0.392   6.316   4.138
 5057SOL    HW216071   0.505   6.201   4.109
 5058SOL     OW16072   2.658   3.276   5.487
 5058SOL    HW116073   2.578   3.226   5.452
 5058SOL    HW216074   2.656   3.275   5.587
 5059SOL     OW16075   5.604   1.173   3.717
 5059SOL    HW116076   5.580   1.103   3.650
 5059SOL    HW216077   5.614   1.261   3.672
 5060SOL     OW16078   0.699   1.744   5.530
 5060SOL    HW116079   0.706   1.661   5.585
 5060SOL    HW216080   0.667   1.820   5.587
 5061SOL     OW16081   4.025   2.696   1.709
 5061SOL    HW116082   4.099   2.730   1.651
 5061SOL    HW216083   4.035   2.597   1.722
 5062SOL     OW16084   4.894   1.075   3.132
 5062SOL    HW116085   4.935   1.012   3.066
 5062SOL    HW216086   4.889   1.166   3.092
 5063SOL     OW16087   0.718   6.646   2.197
 5063SOL    HW116088   0.634   6.595   2.216
 5063SOL    HW216089   0.757   6.617   2.110
 5064SOL     OW16090   5.098   4.378   1.699
 5064SOL    HW116091   5.071   4.281   1.699
 5064SOL    HW216092   5.020   4.434   1.726
 5065SOL     OW16093   1.941   1.008   3.719
 5065SOL    HW116094   1.941   0.941   3.644
 5065SOL    HW216095   2.031   1.010   3.762
 5066SOL     OW16096   4.414   4.907   2.000
 5066SOL    HW116097   4.477   4.953   1.937
 5066SOL    HW216098   4.335   4.872   1.950
 5067SOL     OW16099   4.791   0.834   1.389
 5067SOL    HW116100   4.740   0.818   1.474
 5067SOL    HW216101   4.774   0.927   1.356
 5068SOL     OW16102   2.713   4.873   0.248
 5068SOL    HW116103   2.793   4.919   0.209
 5068SOL    HW216104   2.677   4.808   0.181
 5069SOL     OW16105   2.318   3.567   5.822
 5069SOL    HW116106   2.262   3.566   5.739
 5069SOL    HW216107   2.411   3.597   5.799
 5070SOL     OW16108   4.394   4.987   3.669
 5070SOL    HW116109   4.300   4.971   3.641
 5070SOL    HW216110   4.448   5.016   3.590
 5071SOL     OW16111   3.939   2.176   3.157
 5071SOL    HW116112   3.986   2.183   3.244
 5071SOL    HW216113   3.843   2.151   3.172
 5072SOL     OW16114   0.919   0.331   1.307
 5072SOL    HW116115   0.934   0.417   1.259
 5072SOL    HW216116   1.005   0.300   1.347
 5073SOL     OW16117   0.147   5.699   1.741
 5073SOL    HW116118   0.063   5.725   1.693
 5073SOL    HW216119   0.139   5.605   1.773
 5074SOL     OW16120   3.438   2.706   1.257
 5074SOL    HW116121   3.483   2.772   1.197
 5074SOL    HW216122   3.507   2.657   1.311
 5075SOL     OW16123   1.001   1.981   6.257
 5075SOL    HW116124   0.971   2.012   6.347
 5075SOL    HW216125   1.096   1.949   6.263
 5076SOL     OW16126   4.420   1.225   0.567
 5076SOL    HW116127   4.501   1.185   0.610
 5076SOL    HW216128   4.430   1.324   0.564
 5077SOL     OW16129   2.075   4.509   5.334
 5077SOL    HW116130   2.015   4.439   5.296
 5077SOL    HW216131   2.127   4.471   5.411
 5078SOL     OW16132   0.736   1.079   4.098
 5078SOL    HW116133   0.757   1.081   4.196
 5078SOL    HW216134   0.765   0.991   4.060
 5079SOL     OW16135   1.895   3.102   5.774
 5079SOL    HW116136   1.993   3.106   5.794
 5079SOL    HW216137   1.852   3.032   5.831
 5080SOL     OW16138   6.180   6.896   6.033
 5080SOL    HW116139   6.220   6.881   5.943
 5080SOL    HW216140   6.080   6.901   6.025
 5081SOL     OW16141   3.005   3.179   4.443
 5081SOL    HW116142   3.056   3.106   4.488
 5081SOL    HW216143   2.963   3.237   4.512
 5082SOL     OW16144   4.849   5.769   0.316
 5082SOL    HW116145   4.786   5.714   0.261
 5082SOL    HW216146   4.817   5.863   0.320
 5083SOL     OW16147   2.360   6.264   2.223
 5083SOL    HW116148   2.272   6.272   2.176
 5083SOL    HW216149   2.385   6.353   2.261
 5084SOL     OW16150   0.555   4.789   4.488
 5084SOL    HW116151   0.496   4.723   4.535
 5084SOL    HW216152   0.501   4.843   4.424
 5085SOL     OW16153   5.243   3.123   6.340
 5085SOL    HW116154   5.254   3.071   6.425
 5085SOL    HW216155   5.148   3.152   6.330
 5086SOL     OW16156   1.226   5.641   3.450
 5086SOL    HW116157   1.160   5.633   3.525
 5086SOL    HW216158   1.181   5.681   3.371
 5087SOL     OW16159   1.883   5.066   2.388
 5087SOL    HW116160   1.904   4.995   2.455
 5087SOL    HW216161   1.795   5.046   2.345
 5088SOL     OW16162   6.224   1.220   4.684
 5088SOL    HW116163   6.284   1.203   4.762
 5088SOL    HW216164   6.159   1.293   4.707
 5089SOL     OW16165   4.905   3.875   4.143
 5089SOL    HW116166   4.844   3.867   4.064
 5089SOL    HW216167   4.891   3.964   4.186
 5090SOL     OW16168   2.012   4.183   2.623
 5090SOL    HW116169   2.003   4.083   2.625
 5090SOL    HW216170   1.960   4.219   2.545
 5091SOL     OW16171   0.882   0.248   2.392
 5091SOL    HW116172   0.788   0.283   2.387
 5091SOL    HW216173   0.901   0.193   2.311
 5092SOL     OW16174   3.262   3.417   1.514
 5092SOL    HW116175   3.355   3.436   1.544
 5092SOL    HW216176   3.246   3.458   1.424
 5093SOL     OW16177   2.804   0.956   1.505
 5093SOL    HW116178   2.847   0.951   1.415
 5093SOL    HW216179   2.769   1.048   1.520
 5094SOL     OW16180   2.556   5.613   5.835
 5094SOL    HW116181   2.472   5.591   5.786
 5094SOL    HW216182   2.617   5.665   5.775
 5095SOL     OW16183   6.055   2.170   4.832
 5095SOL    HW116184   6.152   2.175   4.809
 5095SOL    HW216185   6.042   2.104   4.907
 5096SOL     OW16186   4.039   4.273   0.445
 5096SOL    HW116187   4.102   4.290   0.369
 5096SOL    HW216188   3.973   4.348   0.451
 5097SOL     OW16189   1.252   0.713   6.714
 5097SOL    HW116190   1.308   0.630   6.707
 5097SOL    HW216191   1.246   0.757   6.625
 5098SOL     OW16192   2.033   0.514   1.598
 5098SOL    HW116193   1.968   0.542   1.669
 5098SOL    HW216194   2.038   0.586   1.528
 5099SOL     OW16195   0.518   6.472   6.707
 5099SOL    HW116196   0.549   6.556   6.751
 5099SOL    HW216197   0.462   6.495   6.627
 5100SOL     OW16198   3.587   5.263   5.298
 5100SOL    HW116199   3.543   5.189   5.248
 5100SOL    HW216200   3.657   5.226   5.359
 5101SOL     OW16201   4.940   6.367   0.138
 5101SOL    HW116202   4.871   6.394   0.204
 5101SOL    HW216203   4.978   6.448   0.093
 5102SOL     OW16204   5.171   0.258   4.112
 5102SOL    HW116205   5.168   0.171   4.160
 5102SOL    HW216206   5.234   0.252   4.035
 5103SOL     OW16207   0.117   1.635   3.940
 5103SOL    HW116208   0.190   1.612   4.003
 5103SOL    HW216209   0.080   1.551   3.899
 5104SOL     OW16210   1.554   6.494   2.757
 5104SOL    HW116211   1.525   6.398   2.751
 5104SOL    HW216212   1.507   6.548   2.688
 5105SOL     OW16213   3.627   2.932   0.481
 5105SOL    HW116214   3.692   2.882   0.539
 5105SOL    HW216215   3.660   2.933   0.387
 5106SOL     OW16216   3.492   1.019   0.353
 5106SOL    HW116217   3.495   1.118   0.358
 5106SOL    HW216218   3.579   0.981   0.385
 5107SOL     OW16219   3.228   1.049   0.056
 5107SOL    HW116220   3.209   1.071   6.976
 5107SOL    HW216221   3.316   1.003   0.064
 5108SOL     OW16222   2.992   3.673   4.281
 5108SOL    HW116223   2.995   3.768   4.313
 5108SOL    HW216224   3.055   3.618   4.334
 5109SOL     OW16225   1.222   1.098   0.478
 5109SOL    HW116226   1.271   1.039   0.414
 5109SOL    HW216227   1.247   1.073   0.572
 5110SOL     OW16228   0.294   0.582   6.301
 5110SOL    HW116229   0.199   0.602   6.323
 5110SOL    HW216230   0.336   0.662   6.257
 5111SOL     OW16231   2.712   1.299   5.276
 5111SOL    HW116232   2.747   1.243   5.201
 5111SOL    HW216233   2.776   1.296   5.352
 5112SOL     OW16234   0.927   0.168   2.846
 5112SOL    HW116235   0.948   0.137   2.939
 5112SOL    HW216236   0.837   0.212   2.845
 5113SOL     OW16237   2.272   6.620   0.947
 5113SOL    HW116238   2.366   6.648   0.928
 5113SOL    HW216239   2.211   6.699   0.943
 5114SOL     OW16240   2.946   1.456   0.032
 5114SOL    HW116241   3.039   1.420   0.025
 5114SOL    HW216242   2.929   1.520   6.973
 5115SOL     OW16243   1.934   5.262   4.493
 5115SOL    HW116244   1.925   5.358   4.467
 5115SOL    HW216245   1.860   5.236   4.554
 5116SOL     OW16246   6.416   6.832   6.894
 5116SOL    HW116247   6.489   6.846   6.960
 5116SOL    HW216248   6.332   6.807   6.942
 5117SOL     OW16249   2.680   4.817   4.838
 5117SOL    HW116250   2.762   4.782   4.884
 5117SOL    HW216251   2.606   4.828   4.905
 5118SOL     OW16252   4.730   0.624   0.206
 5118SOL    HW116253   4.793   0.630   0.129
 5118SOL    HW216254   4.748   0.540   0.257
 5119SOL     OW16255   5.258   0.731   1.347
 5119SOL    HW116256   5.326   0.676   1.395
 5119SOL    HW216257   5.172   0.730   1.398
 5120SOL     OW16258   3.966   1.400   4.093
 5120SOL    HW116259   4.036   1.445   4.037
 5120SOL    HW216260   3.945   1.457   4.172
 5121SOL     OW16261   2.729   1.791   0.026
 5121SOL    HW116262   2.662   1.716   0.024
 5121SOL    HW216263   2.681   1.878   0.032
 5122SOL     OW16264   2.965   6.684   2.614
 5122SOL    HW116265   2.932   6.623   2.686
 5122SOL    HW216266   2.967   6.778   2.647
 5123SOL     OW16267   4.711   1.562   5.173
 5123SOL    HW116268   4.683   1.553   5.268
 5123SOL    HW216269   4.783   1.495   5.153
 5124SOL     OW16270   3.292   4.905   4.679
 5124SOL    HW116271   3.325   4.854   4.758
 5124SOL    HW216272   3.364   4.966   4.646
 5125SOL     OW16273   6.744   3.357   3.876
 5125SOL    HW116274   6.654   3.398   3.863
 5125SOL    HW216275   6.734   3.260   3.895
 5126SOL     OW16276   6.526   5.513   5.698
 5126SOL    HW116277   6.507   5.527   5.601
 5126SOL    HW216278   6.541   5.602   5.742
 5127SOL     OW16279   0.617   3.634   0.237
 5127SOL    HW116280   0.690   3.567   0.251
 5127SOL    HW216281   0.531   3.586   0.221
 5128SOL     OW16282   6.771   0.509   6.858
 5128SOL    HW116283   6.788   0.415   6.828
 5128SOL    HW216284   6.717   0.557   6.789
 5129SOL     OW16285   4.977   0.328   2.664
 5129SOL    HW116286   4.986   0.230   2.679
 5129SOL    HW216287   4.898   0.362   2.715
 5130SOL     OW16288   1.666   5.198   4.229
 5130SOL    HW116289   1.620   5.183   4.317
 5130SOL    HW216290   1.629   5.280   4.185
 5131SOL     OW16291   2.818   5.174   4.145
 5131SOL    HW116292   2.833   5.088   4.095
 5131SOL    HW216293   2.752   5.159   4.219
 5132SOL     OW16294   3.345   2.181   6.126
 5132SOL    HW116295   3.274   2.235   6.173
 5132SOL    HW216296   3.423   2.240   6.105
 5133SOL     OW16297   1.886   4.995   6.484
 5133SOL    HW116298   1.853   4.966   6.394
 5133SOL    HW216299   1.810   4.995   6.549
 5134SOL     OW16300   6.784   1.088   1.930
 5134SOL    HW116301   6.792   1.180   1.892
 5134SOL    HW216302   6.697   1.078   1.977
 5135SOL     OW16303   5.140   3.688   4.491
 5135SOL    HW116304   5.104   3.606   4.445
 5135SOL    HW216305   5.139   3.674   4.590
 5136SOL     OW16306   5.635   0.513   6.688
 5136SOL    HW116307   5.684   0.519   6.774
 5136SOL    HW216308   5.585   0.598   6.671
 5137SOL     OW16309   4.909   3.373   5.489
 5137SOL    HW116310   4.863   3.439   5.548
 5137SOL    HW216311   4.843   3.335   5.424
 5138SOL     OW16312   4.141   3.482   4.412
 5138SOL    HW116313   4.142   3.554   4.343
 5138SOL    HW216314   4.154   3.523   4.503
 5139SOL     OW16315   1.056   0.149   4.157
 5139SOL    HW116316   1.077   0.246   4.159
 5139SOL    HW216317   1.076   0.108   4.246
 5140SOL     OW16318   3.943   1.811   5.684
 5140SOL    HW116319   3.874   1.766   5.741
 5140SOL    HW216320   3.934   1.910   5.691
 5141SOL     OW16321   6.188   4.022   0.779
 5141SOL    HW116322   6.246   4.091   0.736
 5141SOL    HW216323   6.167   4.050   0.872
 5142SOL     OW16324   5.340   6.042   3.808
 5142SOL    HW116325   5.319   5.954   3.850
 5142SOL    HW216326   5.288   6.052   3.723
 5143SOL     OW16327   0.452   4.938   4.157
 5143SOL    HW116328   0.362   4.925   4.199
 5143SOL    HW216329   0.462   4.874   4.081
 5144SOL     OW16330   0.941   4.893   5.305
 5144SOL    HW116331   0.956   4.933   5.396
 5144SOL    HW216332   0.924   4.795   5.315
 5145SOL     OW16333   3.458   5.901   6.325
 5145SOL    HW116334   3.472   6.000   6.329
 5145SOL    HW216335   3.445   5.865   6.417
 5146SOL     OW16336   3.308   3.512   5.367
 5146SOL    HW116337   3.405   3.536   5.373
 5146SOL    HW216338   3.299   3.415   5.344
 5147SOL     OW16339   6.795   5.658   3.898
 5147SOL    HW116340   6.799   5.691   3.992
 5147SOL    HW216341   6.856   5.714   3.841
 5148SOL     OW16342   0.234   0.899   2.152
 5148SOL    HW116343   0.212   0.968   2.083
 5148SOL    HW216344   0.297   0.832   2.113
 5149SOL     OW16345   6.441   5.237   4.355
 5149SOL    HW116346   6.539   5.215   4.355
 5149SOL    HW216347   6.414   5.266   4.447
 5150SOL     OW16348   2.355   5.339   3.562
 5150SOL    HW116349   2.322   5.388   3.643
 5150SOL    HW216350   2.421   5.397   3.513
 5151SOL     OW16351   0.108   3.651   2.082
 5151SOL    HW116352   0.122   3.726   2.148
 5151SOL    HW216353   0.086   3.567   2.132
 5152SOL     OW16354   1.515   5.145   0.029
 5152SOL    HW116355   1.464   5.103   6.970
 5152SOL    HW216356   1.518   5.082   0.107
 5153SOL     OW16357   0.532   2.229   0.843
 5153SOL    HW116358   0.545   2.130   0.832
 5153SOL    HW216359   0.592   2.278   0.780
 5154SOL     OW16360   0.812   2.743   5.876
 5154SOL    HW116361   0.862   2.763   5.961
 5154SOL    HW216362   0.847   2.802   5.803
 5155SOL     OW16363   3.961   6.581   1.981
 5155SOL    HW116364   4.037   6.587   2.047
 5155SOL    HW216365   3.906   6.664   1.987
 5156SOL     OW16366   5.424   4.831   5.682
 5156SOL    HW116367   5.468   4.752   5.723
 5156SOL    HW216368   5.397   4.810   5.588
 5157SOL     OW16369   3.126   2.009   2.951
 5157SOL    HW116370   3.209   2.012   2.896
 5157SOL    HW216371   3.143   2.049   3.041
 5158SOL     OW16372   4.124   1.832   1.059
 5158SOL    HW116373   4.100   1.925   1.030
 5158SOL    HW216374   4.130   1.773   0.979
 5159SOL     OW16375   5.511   3.119   5.816
 5159SOL    HW116376   5.508   3.061   5.734
 5159SOL    HW216377   5.603   3.113   5.856
 5160SOL     OW16378   0.079   4.801   3.228
 5160SOL    HW116379   0.114   4.793   3.135
 5160SOL    HW216380   6.998   4.776   3.230
 5161SOL     OW16381   1.837   3.416   6.728
 5161SOL    HW116382   1.818   3.514   6.740
 5161SOL    HW216383   1.906   3.387   6.795
 5162SOL     OW16384   0.810   5.624   2.901
 5162SOL    HW116385   0.766   5.710   2.875
 5162SOL    HW216386   0.768   5.589   2.985
 5163SOL     OW16387   2.958   6.904   0.957
 5163SOL    HW116388   2.918   6.975   0.900
 5163SOL    HW216389   3.042   6.937   0.999
 5164SOL     OW16390   3.798   2.697   0.172
 5164SOL    HW116391   3.731   2.760   0.132
 5164SOL    HW216392   3.752   2.634   0.234
 5165SOL     OW16393   0.783   3.927   5.903
 5165SOL    HW116394   0.819   3.945   5.994
 5165SOL    HW216395   0.729   3.843   5.904
 5166SOL     OW16396   1.834   5.369   2.654
 5166SOL    HW116397   1.860   5.277   2.623
 5166SOL    HW216398   1.819   5.368   2.753
 5167SOL     OW16399   6.166   4.753   5.507
 5167SOL    HW116400   6.228   4.706   5.569
 5167SOL    HW216401   6.183   4.723   5.413
 5168SOL     OW16402   5.292   3.672   2.052
 5168SOL    HW116403   5.273   3.653   2.149
 5168SOL    HW216404   5.369   3.735   2.046
 5169SOL     OW16405   3.666   2.109   3.703
 5169SOL    HW116406   3.759   2.095   3.667
 5169SOL    HW216407   3.672   2.142   3.797
 5170SOL     OW16408   1.467   3.613   4.892
 5170SOL    HW116409   1.435   3.678   4.824
 5170SOL    HW216410   1.499   3.661   4.973
 5171SOL     OW16411   0.151   4.108   5.986
 5171SOL    HW116412   0.181   4.020   5.948
 5171SOL    HW216413   0.224   4.175   5.975
 5172SOL     OW16414   1.837   3.318   2.352
 5172SOL    HW116415   1.856   3.352   2.260
 5172SOL    HW216416   1.796   3.227   2.345
 5173SOL     OW16417   4.474   5.149   5.003
 5173SOL    HW116418   4.428   5.161   4.915
 5173SOL    HW216419   4.522   5.234   5.027
 5174SOL     OW16420   2.382   4.798   3.433
 5174SOL    HW116421   2.461   4.814   3.493
 5174SOL    HW216422   2.336   4.885   3.415
 5175SOL     OW16423   3.040   3.720   6.758
 5175SOL    HW116424   2.977   3.662   6.810
 5175SOL    HW216425   3.002   3.738   6.667
 5176SOL     OW16426   5.173   3.772   0.331
 5176SOL    HW116427   5.235   3.796   0.406
 5176SOL    HW216428   5.135   3.681   0.347
 5177SOL     OW16429   5.729   6.800   0.566
 5177SOL    HW116430   5.668   6.730   0.531
 5177SOL    HW216431   5.824   6.768   0.561
 5178SOL     OW16432   1.368   3.553   2.645
 5178SOL    HW116433   1.298   3.610   2.602
 5178SOL    HW216434   1.324   3.479   2.696
 5179SOL     OW16435   4.718   4.465   4.199
 5179SOL    HW116436   4.685   4.382   4.154
 5179SOL    HW216437   4.642   4.528   4.212
 5180SOL     OW16438   3.030   1.304   1.147
 5180SOL    HW116439   2.933   1.293   1.168
 5180SOL    HW216440   3.053   1.249   1.067
 5181SOL     OW16441   5.221   1.289   2.294
 5181SOL    HW116442   5.278   1.293   2.376
 5181SOL    HW216443   5.254   1.355   2.227
 5182SOL     OW16444   4.093   4.693   2.162
 5182SOL    HW116445   4.054   4.622   2.221
 5182SOL    HW216446   4.156   4.651   2.096
 5183SOL     OW16447   3.407   1.875   2.695
 5183SOL    HW116448   3.346   1.797   2.680
 5183SOL    HW216449   3.452   1.899   2.609
 5184SOL     OW16450   0.661   2.497   3.780
 5184SOL    HW116451   0.726   2.530   3.711
 5184SOL    HW216452   0.639   2.571   3.844
 5185SOL     OW16453   5.048   0.939   2.968
 5185SOL    HW116454   5.044   0.842   2.944
 5185SOL    HW216455   5.012   0.993   2.891
 5186SOL     OW16456   5.876   1.545   0.143
 5186SOL    HW116457   5.976   1.549   0.137
 5186SOL    HW216458   5.848   1.456   0.177
 5187SOL     OW16459   1.323   6.027   4.717
 5187SOL    HW116460   1.294   5.935   4.744
 5187SOL    HW216461   1.243   6.085   4.705
 5188SOL     OW16462   6.689   5.496   1.617
 5188SOL    HW116463   6.673   5.559   1.541
 5188SOL    HW216464   6.687   5.402   1.583
 5189SOL     OW16465   4.449   5.433   1.087
 5189SOL    HW116466   4.509   5.502   1.047
 5189SOL    HW216467   4.403   5.471   1.167
 5190SOL     OW16468   0.552   3.397   4.492
 5190SOL    HW116469   0.535   3.303   4.461
 5190SOL    HW216470   0.546   3.400   4.592
 5191SOL     OW16471   3.874   6.715   2.438
 5191SOL    HW116472   3.942   6.655   2.480
 5191SOL    HW216473   3.913   6.806   2.425
 5192SOL     OW16474   1.726   5.446   1.258
 5192SOL    HW116475   1.698   5.356   1.224
 5192SOL    HW216476   1.745   5.440   1.356
 5193SOL     OW16477   5.524   5.651   5.590
 5193SOL    HW116478   5.472   5.579   5.543
 5193SOL    HW216479   5.465   5.731   5.603
 5194SOL     OW16480   4.317   2.170   0.039
 5194SOL    HW116481   4.413   2.181   0.015
 5194SOL    HW216482   4.291   2.240   0.106
 5195SOL     OW16483   0.016   0.298   4.339
 5195SOL    HW116484   0.104   0.268   4.304
 5195SOL    HW216485   7.004   0.238   4.414
 5196SOL     OW16486   4.666   6.948   1.850
 5196SOL    HW116487   4.754   6.971   1.889
 5196SOL    HW216488   4.610   6.900   1.918
 5197SOL     OW16489   2.035   3.975   6.156
 5197SOL    HW116490   2.121   3.999   6.113
 5197SOL    HW216491   2.039   3.881   6.191
 5198SOL     OW16492   4.610   6.217   3.432
 5198SOL    HW116493   4.704   6.182   3.429
 5198SOL    HW216494   4.601   6.293   3.368
 5199SOL     OW16495   0.895   6.124   0.223
 5199SOL    HW116496   0.803   6.131   0.184
 5199SOL    HW216497   0.894   6.063   0.302
 5200SOL     OW16498   0.130   3.705   5.473
 5200SOL    HW116499   0.161   3.731   5.382
 5200SOL    HW216500   0.198   3.646   5.516
 5201SOL     OW16501   0.509   6.931   2.934
 5201SOL    HW116502   0.451   6.870   2.989
 5201SOL    HW216503   0.578   6.877   2.886
 5202SOL     OW16504   5.161   2.688   6.325
 5202SOL    HW116505   5.143   2.734   6.411
 5202SOL    HW216506   5.096   2.719   6.255
 5203SOL     OW16507   2.000   2.409   6.647
 5203SOL    HW116508   2.000   2.507   6.667
 5203SOL    HW216509   1.948   2.360   6.718
 5204SOL     OW16510   3.358   5.334   6.355
 5204SOL    HW116511   3.409   5.250   6.371
 5204SOL    HW216512   3.401   5.409   6.406
 5205SOL     OW16513   0.421   6.507   1.082
 5205SOL    HW116514   0.328   6.498   1.047
 5205SOL    HW216515   0.485   6.471   1.013
 5206SOL     OW16516   0.621   4.173   5.862
 5206SOL    HW116517   0.630   4.075   5.879
 5206SOL    HW216518   0.699   4.205   5.808
 5207SOL     OW16519   1.234   5.688   4.009
 5207SOL    HW116520   1.282   5.742   3.940
 5207SOL    HW216521   1.177   5.749   4.064
 5208SOL     OW16522   3.556   1.931   6.226
 5208SOL    HW116523   3.560   1.855   6.162
 5208SOL    HW216524   3.535   2.016   6.177
 5209SOL     OW16525   5.519   5.766   3.415
 5209SOL    HW116526   5.440   5.772   3.476
 5209SOL    HW216527   5.501   5.700   3.343
 5210SOL     OW16528   5.036   2.901   5.531
 5210SOL    HW116529   5.017   2.995   5.501
 5210SOL    HW216530   4.972   2.875   5.603
 5211SOL     OW16531   3.242   3.273   4.730
 5211SOL    HW116532   3.221   3.191   4.784
 5211SOL    HW216533   3.314   3.325   4.776
 5212SOL     OW16534   6.511   2.440   0.955
 5212SOL    HW116535   6.543   2.486   0.872
 5212SOL    HW216536   6.541   2.491   1.036
 5213SOL     OW16537   4.288   3.971   6.823
 5213SOL    HW116538   4.204   3.917   6.836
 5213SOL    HW216539   4.275   4.037   6.749
 5214SOL     OW16540   4.743   1.795   5.564
 5214SOL    HW116541   4.708   1.877   5.610
 5214SOL    HW216542   4.686   1.776   5.483
 5215SOL     OW16543   6.280   5.109   3.540
 5215SOL    HW116544   6.272   5.105   3.640
 5215SOL    HW216545   6.360   5.056   3.511
 5216SOL     OW16546   4.467   5.076   1.492
 5216SOL    HW116547   4.533   5.095   1.564
 5216SOL    HW216548   4.394   5.145   1.495
 5217SOL     OW16549   3.628   5.540   4.490
 5217SOL    HW116550   3.714   5.588   4.503
 5217SOL    HW216551   3.552   5.605   4.493
 5218SOL     OW16552   0.994   0.936   4.251
 5218SOL    HW116553   0.933   0.874   4.202
 5218SOL    HW216554   1.061   0.883   4.303
 5219SOL     OW16555   3.910   0.719   5.818
 5219SOL    HW116556   4.006   0.694   5.802
 5219SOL    HW216557   3.874   0.667   5.895
 5220SOL     OW16558   1.708   5.872   2.531
 5220SOL    HW116559   1.798   5.895   2.569
 5220SOL    HW216560   1.672   5.791   2.578
 5221SOL     OW16561   5.540   2.463   3.974
 5221SOL    HW116562   5.472   2.418   3.916
 5221SOL    HW216563   5.632   2.437   3.943
 5222SOL     OW16564   3.448   5.935   3.354
 5222SOL    HW116565   3.350   5.918   3.355
 5222SOL    HW216566   3.495   5.860   3.308
 5223SOL     OW16567   6.298   2.248   0.833
 5223SOL    HW116568   6.361   2.314   0.874
 5223SOL    HW216569   6.220   2.235   0.894
 5224SOL     OW16570   0.080   2.604   4.060
 5224SOL    HW116571   0.018   2.683   4.065
 5224SOL    HW216572   0.119   2.599   3.968
 5225SOL     OW16573   0.311   0.150   3.496
 5225SOL    HW116574   0.268   0.239   3.482
 5225SOL    HW216575   0.262   0.101   3.569
 5226SOL     OW16576   0.385   6.265   4.663
 5226SOL    HW116577   0.366   6.223   4.574
 5226SOL    HW216578   0.398   6.192   4.731
 5227SOL     OW16579   1.161   3.459   3.983
 5227SOL    HW116580   1.104   3.384   4.018
 5227SOL    HW216581   1.194   3.436   3.891
 5228SOL     OW16582   6.243   2.294   1.532
 5228SOL    HW116583   6.268   2.329   1.622
 5228SOL    HW216584   6.243   2.194   1.533
 5229SOL     OW16585   1.761   5.665   0.045
 5229SOL    HW116586   1.713   5.641   6.977
 5229SOL    HW216587   1.828   5.595   0.066
 5230SOL     OW16588   0.851   6.443   0.982
 5230SOL    HW116589   0.758   6.412   1.003
 5230SOL    HW216590   0.909   6.365   0.962
 5231SOL     OW16591   4.129   3.442   5.574
 5231SOL    HW116592   4.123   3.344   5.592
 5231SOL    HW216593   4.184   3.458   5.492
 5232SOL     OW16594   3.638   2.251   5.587
 5232SOL    HW116595   3.664   2.347   5.599
 5232SOL    HW216596   3.542   2.247   5.559
 5233SOL     OW16597   5.088   0.794   2.036
 5233SOL    HW116598   5.126   0.886   2.028
 5233SOL    HW216599   5.001   0.789   1.988
 5234SOL     OW16600   2.500   0.826   0.279
 5234SOL    HW116601   2.599   0.818   0.266
 5234SOL    HW216602   2.456   0.741   0.250
 5235SOL     OW16603   1.913   2.996   1.105
 5235SOL    HW116604   1.993   2.967   1.053
 5235SOL    HW216605   1.896   3.093   1.088
 5236SOL     OW16606   5.900   4.006   2.609
 5236SOL    HW116607   5.973   3.941   2.628
 5236SOL    HW216608   5.832   3.964   2.550
 5237SOL     OW16609   2.173   1.033   5.221
 5237SOL    HW116610   2.078   1.063   5.216
 5237SOL    HW216611   2.180   0.952   5.279
 5238SOL     OW16612   1.116   3.904   0.407
 5238SOL    HW116613   1.193   3.877   0.466
 5238SOL    HW216614   1.082   3.993   0.436
 5239SOL     OW16615   3.713   2.976   4.120
 5239SOL    HW116616   3.793   2.932   4.162
 5239SOL    HW216617   3.742   3.060   4.075
 5240SOL     OW16618   3.411   1.818   6.417
 5240SOL    HW116619   3.328   1.819   6.361
 5240SOL    HW216620   3.488   1.851   6.363
 5241SOL     OW16621   0.791   5.283   5.613
 5241SOL    HW116622   0.735   5.365   5.601
 5241SOL    HW216623   0.873   5.290   5.555
 5242SOL     OW16624   6.892   5.855   6.251
 5242SOL    HW116625   6.801   5.813   6.260
 5242SOL    HW216626   6.947   5.832   6.331
 5243SOL     OW16627   1.326   5.311   1.607
 5243SOL    HW116628   1.253   5.277   1.547
 5243SOL    HW216629   1.288   5.376   1.672
 5244SOL     OW16630   3.395   4.440   6.526
 5244SOL    HW116631   3.486   4.482   6.517
 5244SOL    HW216632   3.401   4.343   6.506
 5245SOL     OW16633   4.819   4.445   0.587
 5245SOL    HW116634   4.878   4.525   0.575
 5245SOL    HW216635   4.818   4.418   0.683
 5246SOL     OW16636   5.764   4.221   2.774
 5246SOL    HW116637   5.831   4.176   2.715
 5246SOL    HW216638   5.676   4.226   2.726
 5247SOL     OW16639   0.809   0.171   0.355
 5247SOL    HW116640   0.858   0.210   0.434
 5247SOL    HW216641   0.873   0.120   0.298
 5248SOL     OW16642   5.415   0.764   4.372
 5248SOL    HW116643   5.490   0.763   4.306
 5248SOL    HW216644   5.431   0.836   4.439
 5249SOL     OW16645   6.902   4.455   5.348
 5249SOL    HW116646   6.990   4.435   5.305
 5249SOL    HW216647   6.884   4.388   5.420
 5250SOL     OW16648   1.147   0.795   5.564
 5250SOL    HW116649   1.161   0.884   5.521
 5250SOL    HW216650   1.180   0.798   5.658
 5251SOL     OW16651   0.567   3.125   0.379
 5251SOL    HW116652   0.497   3.192   0.402
 5251SOL    HW216653   0.575   3.059   0.453
 5252SOL     OW16654   2.113   5.694   0.754
 5252SOL    HW116655   2.054   5.758   0.705
 5252SOL    HW216656   2.058   5.623   0.797
 5253SOL     OW16657   5.431   3.742   4.530
 5253SOL    HW116658   5.352   3.726   4.471
 5253SOL    HW216659   5.402   3.787   4.614
 5254SOL     OW16660   4.454   1.673   2.887
 5254SOL    HW116661   4.509   1.597   2.923
 5254SOL    HW216662   4.370   1.637   2.848
 5255SOL     OW16663   4.584   0.618   5.949
 5255SOL    HW116664   4.487   0.619   5.971
 5255SOL    HW216665   4.627   0.703   5.982
 5256SOL     OW16666   4.326   0.699   3.278
 5256SOL    HW116667   4.410   0.728   3.324
 5256SOL    HW216668   4.253   0.686   3.346
 5257SOL     OW16669   4.874   6.303   2.441
 5257SOL    HW116670   4.858   6.345   2.352
 5257SOL    HW216671   4.847   6.367   2.513
 5258SOL     OW16672   5.513   3.828   1.636
 5258SOL    HW116673   5.517   3.876   1.724
 5258SOL    HW216674   5.418   3.800   1.618
 5259SOL     OW16675   4.737   6.018   0.622
 5259SOL    HW116676   4.794   5.946   0.660
 5259SOL    HW216677   4.641   5.988   0.623
 5260SOL     OW16678   5.567   3.695   0.995
 5260SOL    HW116679   5.643   3.695   1.060
 5260SOL    HW216680   5.503   3.621   1.019
 5261SOL     OW16681   1.345   3.490   6.707
 5261SOL    HW116682   1.432   3.454   6.673
 5261SOL    HW216683   1.361   3.580   6.749
 5262SOL     OW16684   2.624   0.497   3.248
 5262SOL    HW116685   2.553   0.432   3.276
 5262SOL    HW216686   2.585   0.566   3.188
 5263SOL     OW16687   1.561   0.945   5.431
 5263SOL    HW116688   1.511   0.965   5.515
 5263SOL    HW216689   1.543   1.018   5.364
 5264SOL     OW16690   5.857   1.094   2.372
 5264SOL    HW116691   5.838   1.009   2.422
 5264SOL    HW216692   5.771   1.132   2.338
 5265SOL     OW16693   5.598   4.042   3.390
 5265SOL    HW116694   5.598   3.942   3.384
 5265SOL    HW216695   5.514   4.072   3.436
 5266SOL     OW16696   2.942   6.384   1.811
 5266SOL    HW116697   3.026   6.436   1.797
 5266SOL    HW216698   2.874   6.442   1.856
 5267SOL     OW16699   4.871   4.145   5.445
 5267SOL    HW116700   4.806   4.070   5.460
 5267SOL    HW216701   4.904   4.178   5.534
 5268SOL     OW16702   6.411   0.574   6.401
 5268SOL    HW116703   6.355   0.634   6.458
 5268SOL    HW216704   6.389   0.589   6.304
 5269SOL     OW16705   2.063   6.957   4.099
 5269SOL    HW116706   2.084   6.859   4.094
 5269SOL    HW216707   1.976   6.975   4.052
 5270SOL     OW16708   5.135   1.747   1.651
 5270SOL    HW116709   5.059   1.812   1.656
 5270SOL    HW216710   5.214   1.785   1.700
 5271SOL     OW16711   5.866   5.671   5.127
 5271SOL    HW116712   5.838   5.590   5.179
 5271SOL    HW216713   5.944   5.714   5.171
 5272SOL     OW16714   2.195   6.021   1.930
 5272SOL    HW116715   2.103   5.993   1.902
 5272SOL    HW216716   2.190   6.108   1.980
 5273SOL     OW16717   6.729   3.013   3.384
 5273SOL    HW116718   6.784   3.043   3.306
 5273SOL    HW216719   6.692   3.093   3.432
 5274SOL     OW16720   6.716   6.128   2.066
 5274SOL    HW116721   6.785   6.085   2.008
 5274SOL    HW216722   6.682   6.061   2.132
 5275SOL     OW16723   3.825   2.082   6.713
 5275SOL    HW116724   3.726   2.072   6.698
 5275SOL    HW216725   3.868   1.992   6.708
 5276SOL     OW16726   1.256   0.724   0.741
 5276SOL    HW116727   1.163   0.737   0.709
 5276SOL    HW216728   1.293   0.810   0.775
 5277SOL     OW16729   1.798   2.148   3.036
 5277SOL    HW116730   1.737   2.074   3.065
 5277SOL    HW216731   1.778   2.231   3.089
 5278SOL     OW16732   4.669   0.114   4.063
 5278SOL    HW116733   4.582   0.147   4.099
 5278SOL    HW216734   4.730   0.191   4.044
 5279SOL     OW16735   1.455   5.207   6.660
 5279SOL    HW116736   1.526   5.254   6.712
 5279SOL    HW216737   1.408   5.141   6.718
 5280SOL     OW16738   3.420   6.558   5.285
 5280SOL    HW116739   3.333   6.536   5.329
 5280SOL    HW216740   3.465   6.474   5.254
 5281SOL     OW16741   0.779   1.639   3.050
 5281SOL    HW116742   0.845   1.620   2.978
 5281SOL    HW216743   0.749   1.552   3.091
 5282SOL     OW16744   2.126   1.853   3.064
 5282SOL    HW116745   2.173   1.851   2.975
 5282SOL    HW216746   2.182   1.904   3.130
 5283SOL     OW16747   3.865   6.884   1.873
 5283SOL    HW116748   3.950   6.925   1.907
 5283SOL    HW216749   3.804   6.866   1.950
 5284SOL     OW16750   5.549   3.737   2.962
 5284SOL    HW116751   5.578   3.648   2.997
 5284SOL    HW216752   5.496   3.785   3.032
 5285SOL     OW16753   2.080   4.250   4.270
 5285SOL    HW116754   2.114   4.242   4.177
 5285SOL    HW216755   2.073   4.159   4.311
 5286SOL     OW16756   0.553   3.755   0.878
 5286SOL    HW116757   0.475   3.744   0.816
 5286SOL    HW216758   0.528   3.725   0.970
 5287SOL     OW16759   1.544   5.721   1.591
 5287SOL    HW116760   1.615   5.717   1.661
 5287SOL    HW216761   1.568   5.792   1.524
 5288SOL     OW16762   3.862   0.370   2.457
 5288SOL    HW116763   3.790   0.353   2.524
 5288SOL    HW216764   3.839   0.450   2.402
 5289SOL     OW16765   1.542   5.529   6.133
 5289SOL    HW116766   1.501   5.615   6.164
 5289SOL    HW216767   1.471   5.466   6.104
 5290SOL     OW16768   1.637   4.797   5.395
 5290SOL    HW116769   1.658   4.819   5.299
 5290SOL    HW216770   1.673   4.707   5.417
 5291SOL     OW16771   2.919   4.865   5.500
 5291SOL    HW116772   2.962   4.944   5.455
 5291SOL    HW216773   2.909   4.790   5.435
 5292SOL     OW16774   6.598   4.582   0.293
 5292SOL    HW116775   6.688   4.616   0.265
 5292SOL    HW216776   6.551   4.546   0.213
 5293SOL     OW16777   1.191   0.847   3.976
 5293SOL    HW116778   1.278   0.868   3.932
 5293SOL    HW216779   1.141   0.779   3.923
 5294SOL     OW16780   5.751   2.901   5.049
 5294SOL    HW116781   5.766   2.849   4.965
 5294SOL    HW216782   5.669   2.958   5.039
 5295SOL     OW16783   4.292   0.898   2.559
 5295SOL    HW116784   4.296   0.883   2.658
 5295SOL    HW216785   4.377   0.943   2.529
 5296SOL     OW16786   1.936   5.608   0.441
 5296SOL    HW116787   1.906   5.516   0.416
 5296SOL    HW216788   2.016   5.602   0.502
 5297SOL     OW16789   2.825   1.868   0.724
 5297SOL    HW116790   2.764   1.938   0.686
 5297SOL    HW216791   2.848   1.893   0.818
 5298SOL     OW16792   1.375   6.249   6.295
 5298SOL    HW116793   1.339   6.181   6.359
 5298SOL    HW216794   1.473   6.233   6.280
 5299SOL     OW16795   2.786   2.253   1.007
 5299SOL    HW116796   2.840   2.331   1.038
 5299SOL    HW216797   2.757   2.268   0.913
 5300SOL     OW16798   0.752   5.894   1.910
 5300SOL    HW116799   0.670   5.918   1.961
 5300SOL    HW216800   0.791   5.975   1.866
 5301SOL     OW16801   3.837   2.170   6.428
 5301SOL    HW116802   3.851   2.075   6.400
 5301SOL    HW216803   3.836   2.176   6.528
 5302SOL     OW16804   5.728   5.160   3.568
 5302SOL    HW116805   5.660   5.208   3.623
 5302SOL    HW216806   5.801   5.126   3.628
 5303SOL     OW16807   6.728   5.736   2.959
 5303SOL    HW116808   6.759   5.658   2.906
 5303SOL    HW216809   6.803   5.767   3.019
 5304SOL     OW16810   5.516   1.598   6.669
 5304SOL    HW116811   5.455   1.524   6.699
 5304SOL    HW216812   5.575   1.626   6.745
 5305SOL     OW16813   1.410   4.986   3.820
 5305SOL    HW116814   1.482   4.931   3.863
 5305SOL    HW216815   1.412   5.078   3.859
 5306SOL     OW16816   0.691   4.834   5.202
 5306SOL    HW116817   0.620   4.858   5.135
 5306SOL    HW216818   0.774   4.888   5.183
 5307SOL     OW16819   4.063   0.093   0.723
 5307SOL    HW116820   4.147   0.044   0.748
 5307SOL    HW216821   4.064   0.112   0.625
 5308SOL     OW16822   1.087   6.286   3.641
 5308SOL    HW116823   0.998   6.330   3.651
 5308SOL    HW216824   1.139   6.294   3.727
 5309SOL     OW16825   3.869   4.779   1.741
 5309SOL    HW116826   3.770   4.765   1.729
 5309SOL    HW216827   3.887   4.807   1.835
 5310SOL     OW16828   6.104   3.608   1.898
 5310SOL    HW116829   6.151   3.624   1.811
 5310SOL    HW216830   6.081   3.511   1.906
 5311SOL     OW16831   0.233   6.505   0.252
 5311SOL    HW116832   0.153   6.560   0.229
 5311SOL    HW216833   0.213   6.409   0.234
 5312SOL     OW16834   0.697   4.818   1.879
 5312SOL    HW116835   0.665   4.801   1.972
 5312SOL    HW216836   0.634   4.880   1.832
 5313SOL     OW16837   1.518   4.820   6.526
 5313SOL    HW116838   1.573   4.743   6.495
 5313SOL    HW216839   1.509   4.886   6.451
 5314SOL     OW16840   3.582   6.205   6.926
 5314SOL    HW116841   3.526   6.286   6.910
 5314SOL    HW216842   3.589   6.188   0.008
 5315SOL     OW16843   4.825   3.534   1.728
 5315SOL    HW116844   4.898   3.491   1.674
 5315SOL    HW216845   4.842   3.517   1.825
 5316SOL     OW16846   0.330   4.619   5.174
 5316SOL    HW116847   0.297   4.696   5.229
 5316SOL    HW216848   0.342   4.539   5.233
 5317SOL     OW16849   6.976   0.006   5.032
 5317SOL    HW116850   0.045   0.001   5.084
 5317SOL    HW216851   6.901   6.984   5.087
 5318SOL     OW16852   6.906   2.247   6.033
 5318SOL    HW116853   6.934   2.239   6.129
 5318SOL    HW216854   6.900   2.344   6.009
 5319SOL     OW16855   4.760   6.911   6.841
 5319SOL    HW116856   4.665   6.892   6.866
 5319SOL    HW216857   4.819   6.893   6.919
 5320SOL     OW16858   5.984   4.665   0.253
 5320SOL    HW116859   6.054   4.602   0.219
 5320SOL    HW216860   5.895   4.641   0.214
 5321SOL     OW16861   1.086   4.204   3.280
 5321SOL    HW116862   1.175   4.171   3.249
 5321SOL    HW216863   1.084   4.203   3.380
 5322SOL     OW16864   4.196   5.994   6.254
 5322SOL    HW116865   4.206   6.092   6.270
 5322SOL    HW216866   4.262   5.944   6.310
 5323SOL     OW16867   3.465   2.909   6.883
 5323SOL    HW116868   3.538   2.923   6.950
 5323SOL    HW216869   3.433   2.998   6.850
 5324SOL     OW16870   3.988   2.539   1.276
 5324SOL    HW116871   3.923   2.615   1.275
 5324SOL    HW216872   3.975   2.486   1.360
 5325SOL     OW16873   4.563   0.666   4.085
 5325SOL    HW116874   4.526   0.694   4.174
 5325SOL    HW216875   4.659   0.640   4.095
 5326SOL     OW16876   0.071   5.328   3.867
 5326SOL    HW116877   0.153   5.271   3.871
 5326SOL    HW216878   0.098   5.424   3.863
 5327SOL     OW16879   5.433   4.171   5.216
 5327SOL    HW116880   5.374   4.125   5.282
 5327SOL    HW216881   5.525   4.132   5.221
 5328SOL     OW16882   3.724   3.140   5.585
 5328SOL    HW116883   3.774   3.082   5.649
 5328SOL    HW216884   3.712   3.231   5.624
 5329SOL     OW16885   6.873   4.311   0.404
 5329SOL    HW116886   6.798   4.354   0.455
 5329SOL    HW216887   6.934   4.382   0.369
 5330SOL     OW16888   3.752   4.011   5.913
 5330SOL    HW116889   3.735   4.060   5.827
 5330SOL    HW216890   3.817   3.938   5.897
 5331SOL     OW16891   5.451   1.125   1.218
 5331SOL    HW116892   5.417   1.189   1.287
 5331SOL    HW216893   5.375   1.071   1.182
 5332SOL     OW16894   0.813   3.680   0.884
 5332SOL    HW116895   0.840   3.775   0.899
 5332SOL    HW216896   0.728   3.677   0.831
 5333SOL     OW16897   0.906   0.520   3.498
 5333SOL    HW116898   1.005   0.531   3.501
 5333SOL    HW216899   0.863   0.602   3.535
 5334SOL     OW16900   3.807   6.894   4.633
 5334SOL    HW116901   3.846   6.812   4.591
 5334SOL    HW216902   3.724   6.920   4.583
 5335SOL     OW16903   6.510   5.444   2.570
 5335SOL    HW116904   6.495   5.376   2.498
 5335SOL    HW216905   6.434   5.508   2.572
 5336SOL     OW16906   1.865   1.852   3.169
 5336SOL    HW116907   1.791   1.795   3.132
 5336SOL    HW216908   1.941   1.854   3.104
 5337SOL     OW16909   5.400   4.829   2.148
 5337SOL    HW116910   5.390   4.754   2.084
 5337SOL    HW216911   5.360   4.804   2.236
 5338SOL     OW16912   6.067   0.686   5.949
 5338SOL    HW116913   6.018   0.602   5.928
 5338SOL    HW216914   6.126   0.710   5.872
 5339SOL     OW16915   6.176   2.142   3.234
 5339SOL    HW116916   6.241   2.176   3.302
 5339SOL    HW216917   6.189   2.191   3.147
 5340SOL     OW16918   5.635   3.651   1.434
 5340SOL    HW116919   5.575   3.695   1.501
 5340SOL    HW216920   5.701   3.594   1.482
 5341SOL     OW16921   3.315   5.109   5.980
 5341SOL    HW116922   3.273   5.073   6.063
 5341SOL    HW216923   3.258   5.086   5.901
 5342SOL     OW16924   4.361   6.838   4.591
 5342SOL    HW116925   4.360   6.916   4.529
 5342SOL    HW216926   4.456   6.816   4.615
 5343SOL     OW16927   3.890   3.618   4.906
 5343SOL    HW116928   3.911   3.551   4.976
 5343SOL    HW216929   3.824   3.684   4.941
 5344SOL     OW16930   1.700   1.867   0.889
 5344SOL    HW116931   1.638   1.790   0.874
 5344SOL    HW216932   1.785   1.834   0.930
 5345SOL     OW16933   4.215   6.080   0.459
 5345SOL    HW116934   4.196   6.114   0.551
 5345SOL    HW216935   4.245   5.985   0.464
 5346SOL     OW16936   3.381   5.191   3.761
 5346SOL    HW116937   3.337   5.151   3.841
 5346SOL    HW216938   3.480   5.192   3.774
 5347SOL     OW16939   6.695   2.916   2.145
 5347SOL    HW116940   6.626   2.864   2.096
 5347SOL    HW216941   6.654   2.999   2.184
 5348SOL     OW16942   6.837   1.762   0.756
 5348SOL    HW116943   6.841   1.804   0.665
 5348SOL    HW216944   6.930   1.741   0.787
 5349SOL     OW16945   2.374   2.716   0.258
 5349SOL    HW116946   2.387   2.788   0.190
 5349SOL    HW216947   2.367   2.627   0.212
 5350SOL     OW16948   1.429   6.961   4.807
 5350SOL    HW116949   1.370   6.893   4.763
 5350SOL    HW216950   1.505   6.983   4.746
 5351SOL     OW16951   6.653   5.248   2.025
 5351SOL    HW116952   6.701   5.302   1.956
 5351SOL    HW216953   6.707   5.168   2.049
 5352SOL     OW16954   1.769   5.002   3.102
 5352SOL    HW116955   1.778   4.905   3.125
 5352SOL    HW216956   1.850   5.032   3.051
 5353SOL     OW16957   3.914   5.360   4.392
 5353SOL    HW116958   3.926   5.391   4.298
 5353SOL    HW216959   3.845   5.287   4.396
 5354SOL     OW16960   2.120   4.639   0.783
 5354SOL    HW116961   2.036   4.603   0.822
 5354SOL    HW216962   2.105   4.733   0.753
 5355SOL     OW16963   6.147   4.558   4.802
 5355SOL    HW116964   6.047   4.561   4.796
 5355SOL    HW216965   6.183   4.494   4.734
 5356SOL     OW16966   6.566   3.623   2.430
 5356SOL    HW116967   6.643   3.601   2.370
 5356SOL    HW216968   6.601   3.668   2.513
 5357SOL     OW16969   2.677   5.846   6.974
 5357SOL    HW116970   2.700   5.901   0.038
 5357SOL    HW216971   2.680   5.749   6.998
 5358SOL     OW16972   4.684   1.499   0.273
 5358SOL    HW116973   4.613   1.428   0.272
 5358SOL    HW216974   4.672   1.555   0.355
 5359SOL     OW16975   2.380   1.067   6.349
 5359SOL    HW116976   2.460   1.096   6.402
 5359SOL    HW216977   2.398   1.077   6.252
 5360SOL     OW16978   3.495   6.157   3.199
 5360SOL    HW116979   3.591   6.184   3.212
 5360SOL    HW216980   3.476   6.077   3.255
 5361SOL     OW16981   2.357   0.644   4.839
 5361SOL    HW116982   2.406   0.579   4.783
 5361SOL    HW216983   2.411   0.728   4.848
 5362SOL     OW16984   6.179   6.318   2.246
 5362SOL    HW116985   6.192   6.240   2.184
 5362SOL    HW216986   6.111   6.294   2.315
 5363SOL     OW16987   6.136   6.573   5.659
 5363SOL    HW116988   6.119   6.502   5.727
 5363SOL    HW216989   6.192   6.537   5.585
 5364SOL     OW16990   6.626   0.167   1.982
 5364SOL    HW116991   6.563   0.244   1.988
 5364SOL    HW216992   6.610   0.104   2.058
 5365SOL     OW16993   3.785   3.074   1.318
 5365SOL    HW116994   3.859   3.127   1.359
 5365SOL    HW216995   3.708   3.069   1.383
 5366SOL     OW16996   6.143   6.017   0.957
 5366SOL    HW116997   6.184   6.096   0.913
 5366SOL    HW216998   6.104   5.956   0.888
 5367SOL     OW16999   0.344   0.008   1.251
 5367SOL    HW117000   0.320   6.935   1.213
 5367SOL    HW217001   0.265   0.069   1.245
 5368SOL     OW17002   5.962   6.974   2.169
 5368SOL    HW117003   5.867   6.953   2.188
 5368SOL    HW217004   5.969   0.043   2.117
 5369SOL     OW17005   2.586   6.538   0.618
 5369SOL    HW117006   2.592   6.528   0.717
 5369SOL    HW217007   2.523   6.612   0.595
 5370SOL     OW17008   4.881   2.760   0.612
 5370SOL    HW117009   4.822   2.744   0.533
 5370SOL    HW217010   4.838   2.826   0.673
 5371SOL     OW17011   0.469   3.923   5.673
 5371SOL    HW117012   0.392   3.987   5.679
 5371SOL    HW217013   0.552   3.972   5.647
 5372SOL     OW17014   1.253   5.656   2.951
 5372SOL    HW117015   1.319   5.677   3.025
 5372SOL    HW217016   1.161   5.656   2.989
 5373SOL     OW17017   4.172   6.686   5.303
 5373SOL    HW117018   4.097   6.677   5.369
 5373SOL    HW217019   4.134   6.696   5.211
 5374SOL     OW17020   2.219   3.873   0.449
 5374SOL    HW117021   2.248   3.954   0.399
 5374SOL    HW217022   2.169   3.812   0.388
 5375SOL     OW17023   0.619   6.401   4.570
 5375SOL    HW117024   0.596   6.497   4.557
 5375SOL    HW217025   0.538   6.352   4.603
 5376SOL     OW17026   0.961   2.186   1.186
 5376SOL    HW117027   1.056   2.205   1.164
 5376SOL    HW217028   0.957   2.113   1.255
 5377SOL     OW17029   0.037   7.003   2.563
 5377SOL    HW117030   0.131   0.019   2.577
 5377SOL    HW217031   7.010   6.983   2.651
 5378SOL     OW17032   6.872   0.228   2.556
 5378SOL    HW117033   6.944   0.160   2.566
 5378SOL    HW217034   6.830   0.219   2.465
 5379SOL     OW17035   0.654   4.010   4.854
 5379SOL    HW117036   0.556   4.001   4.836
 5379SOL    HW217037   0.670   4.006   4.952
 5380SOL     OW17038   2.860   0.047   2.705
 5380SOL    HW117039   2.768   0.058   2.669
 5380SOL    HW217040   2.927   0.068   2.633
 5381SOL     OW17041   6.290   5.164   1.940
 5381SOL    HW117042   6.330   5.104   2.010
 5381SOL    HW217043   6.356   5.235   1.916
 5382SOL     OW17044   2.860   1.330   2.038
 5382SOL    HW117045   2.933   1.347   1.973
 5382SOL    HW217046   2.892   1.348   2.131
 5383SOL     OW17047   2.198   2.355   4.798
 5383SOL    HW117048   2.109   2.324   4.764
 5383SOL    HW217049   2.195   2.454   4.813
 5384SOL     OW17050   5.522   0.238   4.930
 5384SOL    HW117051   5.527   0.139   4.922
 5384SOL    HW217052   5.429   0.264   4.955
 5385SOL     OW17053   3.785   3.778   4.531
 5385SOL    HW117054   3.832   3.844   4.589
 5385SOL    HW217055   3.821   3.785   4.438
 5386SOL     OW17056   4.475   1.074   3.932
 5386SOL    HW117057   4.493   1.166   3.967
 5386SOL    HW217058   4.378   1.051   3.945
 5387SOL     OW17059   1.980   6.503   3.514
 5387SOL    HW117060   1.891   6.457   3.512
 5387SOL    HW217061   2.043   6.451   3.571
 5388SOL     OW17062   0.676   0.876   2.975
 5388SOL    HW117063   0.591   0.826   2.955
 5388SOL    HW217064   0.689   0.948   2.907
 5389SOL     OW17065   3.468   1.714   3.324
 5389SOL    HW117066   3.547   1.652   3.321
 5389SOL    HW217067   3.486   1.788   3.389
 5390SOL     OW17068   5.030   3.958   3.546
 5390SOL    HW117069   5.109   3.972   3.605
 5390SOL    HW217070   4.960   4.027   3.567
 5391SOL     OW17071   2.663   1.352   0.951
 5391SOL    HW117072   2.573   1.311   0.965
 5391SOL    HW217073   2.663   1.444   0.990
 5392SOL     OW17074   6.192   3.475   1.471
 5392SOL    HW117075   6.177   3.382   1.504
 5392SOL    HW217076   6.149   3.486   1.381
 5393SOL     OW17077   5.432   0.478   5.491
 5393SOL    HW117078   5.444   0.380   5.474
 5393SOL    HW217079   5.522   0.521   5.497
 5394SOL     OW17080   0.333   5.760   1.174
 5394SOL    HW117081   0.369   5.810   1.252
 5394SOL    HW217082   0.364   5.804   1.089
 5395SOL     OW17083   5.092   1.070   1.241
 5395SOL    HW117084   4.994   1.053   1.250
 5395SOL    HW217085   5.140   1.024   1.316
 5396SOL     OW17086   5.760   4.702   1.520
 5396SOL    HW117087   5.710   4.674   1.602
 5396SOL    HW217088   5.743   4.638   1.446
 5397SOL     OW17089   6.908   2.764   1.395
 5397SOL    HW117090   7.005   2.784   1.384
 5397SOL    HW217091   6.896   2.689   1.460
 5398SOL     OW17092   2.730   2.370   3.769
 5398SOL    HW117093   2.744   2.408   3.861
 5398SOL    HW217094   2.816   2.373   3.718
 5399SOL     OW17095   2.527   6.347   0.404
 5399SOL    HW117096   2.557   6.261   0.445
 5399SOL    HW217097   2.522   6.418   0.475
 5400SOL     OW17098   3.196   3.348   6.896
 5400SOL    HW117099   3.173   3.264   6.946
 5400SOL    HW217100   3.112   3.397   6.875
 5401SOL     OW17101   6.673   4.585   2.395
 5401SOL    HW117102   6.674   4.576   2.295
 5401SOL    HW217103   6.598   4.645   2.422
 5402SOL     OW17104   2.172   6.057   1.559
 5402SOL    HW117105   2.192   6.052   1.461
 5402SOL    HW217106   2.230   6.126   1.602
 5403SOL     OW17107   5.600   3.041   5.506
 5403SOL    HW117108   5.658   2.961   5.495
 5403SOL    HW217109   5.506   3.013   5.523
 5404SOL     OW17110   0.659   0.383   3.170
 5404SOL    HW117111   0.620   0.291   3.175
 5404SOL    HW217112   0.717   0.399   3.250
 5405SOL     OW17113   5.437   5.749   6.733
 5405SOL    HW117114   5.398   5.721   6.646
 5405SOL    HW217115   5.367   5.741   6.805
 5406SOL     OW17116   1.861   0.269   5.557
 5406SOL    HW117117   1.875   0.359   5.596
 5406SOL    HW217118   1.922   0.203   5.600
 5407SOL     OW17119   3.539   1.738   0.868
 5407SOL    HW117120   3.509   1.679   0.943
 5407SOL    HW217121   3.617   1.696   0.821
 5408SOL     OW17122   3.832   0.501   5.997
 5408SOL    HW117123   3.877   0.442   5.930
 5408SOL    HW217124   3.842   0.462   6.088
 5409SOL     OW17125   6.770   1.705   3.253
 5409SOL    HW117126   6.859   1.748   3.239
 5409SOL    HW217127   6.728   1.686   3.164
 5410SOL     OW17128   0.894   2.395   6.310
 5410SOL    HW117129   0.902   2.460   6.235
 5410SOL    HW217130   0.920   2.304   6.278
 5411SOL     OW17131   6.001   5.297   6.100
 5411SOL    HW117132   6.055   5.335   6.025
 5411SOL    HW217133   5.906   5.288   6.071
 5412SOL     OW17134   3.653   1.647   6.613
 5412SOL    HW117135   3.599   1.704   6.675
 5412SOL    HW217136   3.594   1.577   6.573
 5413SOL     OW17137   0.096   0.551   0.859
 5413SOL    HW117138   0.070   0.488   0.786
 5413SOL    HW217139   0.087   0.645   0.827
 5414SOL     OW17140   6.347   4.061   4.776
 5414SOL    HW117141   6.254   4.024   4.779
 5414SOL    HW217142   6.381   4.057   4.683
 5415SOL     OW17143   1.400   6.025   2.006
 5415SOL    HW117144   1.406   5.956   2.077
 5415SOL    HW217145   1.313   6.017   1.958
 5416SOL     OW17146   3.155   5.109   5.484
 5416SOL    HW117147   3.237   5.159   5.510
 5416SOL    HW217148   3.120   5.143   5.397
 5417SOL     OW17149   4.285   6.353   4.678
 5417SOL    HW117150   4.311   6.430   4.736
 5417SOL    HW217151   4.269   6.272   4.734
 5418SOL     OW17152   5.115   0.484   4.252
 5418SOL    HW117153   5.146   0.481   4.347
 5418SOL    HW217154   5.113   0.391   4.215
 5419SOL     OW17155   3.373   5.409   0.234
 5419SOL    HW117156   3.467   5.383   0.255
 5419SOL    HW217157   3.323   5.329   0.200
 5420SOL     OW17158   2.005   2.794   1.859
 5420SOL    HW117159   1.911   2.778   1.828
 5420SOL    HW217160   2.060   2.825   1.781
 5421SOL     OW17161   2.850   5.297   3.041
 5421SOL    HW117162   2.944   5.294   3.007
 5421SOL    HW217163   2.817   5.204   3.058
 5422SOL     OW17164   0.973   5.666   4.595
 5422SOL    HW117165   0.931   5.578   4.618
 5422SOL    HW217166   1.054   5.650   4.539
 5423SOL     OW17167   6.105   4.402   0.169
 5423SOL    HW117168   6.092   4.408   0.070
 5423SOL    HW217169   6.023   4.363   0.211
 5424SOL     OW17170   5.694   3.701   4.414
 5424SOL    HW117171   5.732   3.793   4.398
 5424SOL    HW217172   5.604   3.709   4.456
 5425SOL     OW17173   5.194   2.222   4.410
 5425SOL    HW117174   5.112   2.176   4.444
 5425SOL    HW217175   5.269   2.210   4.475
 5426SOL     OW17176   6.297   5.389   3.741
 5426SOL    HW117177   6.284   5.443   3.658
 5426SOL    HW217178   6.349   5.442   3.808
 5427SOL     OW17179   5.349   4.056   0.818
 5427SOL    HW117180   5.336   4.155   0.829
 5427SOL    HW217181   5.422   4.040   0.751
 5428SOL     OW17182   6.141   6.908   2.373
 5428SOL    HW117183   6.117   6.926   2.277
 5428SOL    HW217184   6.195   6.824   2.378
 5429SOL     OW17185   1.819   1.006   5.509
 5429SOL    HW117186   1.840   1.003   5.606
 5429SOL    HW217187   1.720   0.999   5.496
 5430SOL     OW17188   2.138   2.694   6.145
 5430SOL    HW117189   2.121   2.705   6.047
 5430SOL    HW217190   2.197   2.615   6.160
 5431SOL     OW17191   3.520   4.018   6.219
 5431SOL    HW117192   3.551   4.112   6.234
 5431SOL    HW217193   3.598   3.962   6.192
 5432SOL     OW17194   3.524   5.496   6.571
 5432SOL    HW117195   3.580   5.447   6.504
 5432SOL    HW217196   3.518   5.442   6.655
 5433SOL     OW17197   0.181   0.773   2.990
 5433SOL    HW117198   0.201   0.753   3.086
 5433SOL    HW217199   0.121   0.702   2.953
 5434SOL     OW17200   4.190   0.981   4.591
 5434SOL    HW117201   4.279   1.019   4.613
 5434SOL    HW217202   4.198   0.882   4.579
 5435SOL     OW17203   5.944   1.883   1.480
 5435SOL    HW117204   5.863   1.908   1.532
 5435SOL    HW217205   5.981   1.797   1.515
 5436SOL     OW17206   5.647   4.269   4.469
 5436SOL    HW117207   5.738   4.269   4.427
 5436SOL    HW217208   5.637   4.189   4.528
 5437SOL     OW17209   2.923   5.597   5.640
 5437SOL    HW117210   2.989   5.613   5.714
 5437SOL    HW217211   2.904   5.499   5.632
 5438SOL     OW17212   6.358   3.611   2.072
 5438SOL    HW117213   6.340   3.696   2.120
 5438SOL    HW217214   6.282   3.548   2.086
 5439SOL     OW17215   6.856   2.740   0.484
 5439SOL    HW117216   6.804   2.657   0.463
 5439SOL    HW217217   6.793   2.818   0.493
 5440SOL     OW17218   6.745   6.926   3.876
 5440SOL    HW117219   6.751   6.849   3.814
 5440SOL    HW217220   6.669   6.913   3.939
 5441SOL     OW17221   4.792   2.825   3.535
 5441SOL    HW117222   4.767   2.901   3.594
 5441SOL    HW217223   4.762   2.739   3.576
 5442SOL     OW17224   3.021   6.707   3.077
 5442SOL    HW117225   2.970   6.704   2.991
 5442SOL    HW217226   2.976   6.649   3.145
 5443SOL     OW17227   3.491   5.557   3.986
 5443SOL    HW117228   3.401   5.537   3.948
 5443SOL    HW217229   3.525   5.478   4.037
 5444SOL     OW17230   0.218   0.405   3.482
 5444SOL    HW117231   0.313   0.434   3.486
 5444SOL    HW217232   0.158   0.484   3.499
 5445SOL     OW17233   6.238   3.992   3.918
 5445SOL    HW117234   6.222   4.064   3.851
 5445SOL    HW217235   6.319   4.015   3.972
 5446SOL     OW17236   5.606   5.416   4.924
 5446SOL    HW117237   5.652   5.392   5.010
 5446SOL    HW217238   5.524   5.359   4.914
 5447SOL     OW17239   1.351   1.567   0.596
 5447SOL    HW117240   1.253   1.579   0.580
 5447SOL    HW217241   1.369   1.471   0.618
 5448SOL     OW17242   5.960   4.572   4.524
 5448SOL    HW117243   6.037   4.524   4.482
 5448SOL    HW217244   5.949   4.541   4.618
 5449SOL     OW17245   1.881   1.692   0.624
 5449SOL    HW117246   1.977   1.719   0.633
 5449SOL    HW217247   1.850   1.648   0.709
 5450SOL     OW17248   3.029   0.663   0.682
 5450SOL    HW117249   2.975   0.580   0.698
 5450SOL    HW217250   3.103   0.643   0.618
 5451SOL     OW17251   2.361   6.511   3.735
 5451SOL    HW117252   2.298   6.542   3.805
 5451SOL    HW217253   2.380   6.586   3.671
 5452SOL     OW17254   2.575   3.882   6.826
 5452SOL    HW117255   2.536   3.790   6.826
 5452SOL    HW217256   2.631   3.895   6.744
 5453SOL     OW17257   5.355   4.174   1.968
 5453SOL    HW117258   5.259   4.160   1.990
 5453SOL    HW217259   5.379   4.270   1.985
 5454SOL     OW17260   5.047   5.665   6.495
 5454SOL    HW117261   4.993   5.747   6.479
 5454SOL    HW217262   4.988   5.593   6.531
 5455SOL     OW17263   0.173   2.252   2.581
 5455SOL    HW117264   0.090   2.196   2.583
 5455SOL    HW217265   0.246   2.200   2.536
 5456SOL     OW17266   2.895   6.950   0.025
 5456SOL    HW117267   2.811   6.931   6.991
 5456SOL    HW217268   2.875   7.010   0.103
 5457SOL     OW17269   6.362   1.990   1.746
 5457SOL    HW117270   6.363   2.028   1.654
 5457SOL    HW217271   6.297   2.040   1.803
 5458SOL     OW17272   0.565   5.105   0.654
 5458SOL    HW117273   0.663   5.105   0.671
 5458SOL    HW217274   0.527   5.195   0.678
 5459SOL     OW17275   3.635   3.591   6.639
 5459SOL    HW117276   3.690   3.530   6.583
 5459SOL    HW217277   3.567   3.538   6.690
 5460SOL     OW17278   3.341   6.169   2.965
 5460SOL    HW117279   3.359   6.215   2.879
 5460SOL    HW217280   3.412   6.193   3.032
 5461SOL     OW17281   0.378   0.835   5.305
 5461SOL    HW117282   0.335   0.754   5.263
 5461SOL    HW217283   0.460   0.807   5.354
 5462SOL     OW17284   5.552   6.579   6.859
 5462SOL    HW117285   5.583   6.503   6.802
 5462SOL    HW217286   5.627   6.611   6.916
 5463SOL     OW17287   0.105   1.357   6.872
 5463SOL    HW117288   0.149   1.306   6.946
 5463SOL    HW217289   0.170   1.370   6.797
 5464SOL     OW17290   6.323   0.359   4.400
 5464SOL    HW117291   6.414   0.337   4.364
 5464SOL    HW217292   6.310   0.458   4.401
 5465SOL     OW17293   4.886   0.671   4.403
 5465SOL    HW117294   4.980   0.706   4.398
 5465SOL    HW217295   4.845   0.673   4.313
 5466SOL     OW17296   5.210   2.931   5.181
 5466SOL    HW117297   5.216   2.917   5.083
 5466SOL    HW217298   5.271   2.867   5.228
 5467SOL     OW17299   5.523   3.756   3.705
 5467SOL    HW117300   5.594   3.691   3.679
 5467SOL    HW217301   5.478   3.792   3.623
 5468SOL     OW17302   6.354   2.368   4.033
 5468SOL    HW117303   6.335   2.318   4.117
 5468SOL    HW217304   6.301   2.328   3.958
 5469SOL     OW17305   2.890   6.751   5.939
 5469SOL    HW117306   2.975   6.752   5.886
 5469SOL    HW217307   2.900   6.810   6.019
 5470SOL     OW17308   3.637   5.512   3.651
 5470SOL    HW117309   3.613   5.426   3.696
 5470SOL    HW217310   3.718   5.551   3.694
 5471SOL     OW17311   5.969   0.304   3.262
 5471SOL    HW117312   5.877   0.334   3.289
 5471SOL    HW217313   6.037   0.367   3.300
 5472SOL     OW17314   3.184   3.566   6.240
 5472SOL    HW117315   3.266   3.609   6.202
 5472SOL    HW217316   3.149   3.497   6.176
 5473SOL     OW17317   1.490   3.215   1.788
 5473SOL    HW117318   1.480   3.170   1.877
 5473SOL    HW217319   1.587   3.225   1.766
 5474SOL     OW17320   1.224   4.286   4.323
 5474SOL    HW117321   1.249   4.219   4.392
 5474SOL    HW217322   1.162   4.244   4.256
 5475SOL     OW17323   2.068   2.351   1.044
 5475SOL    HW117324   2.018   2.385   1.123
 5475SOL    HW217325   2.165   2.372   1.054
 5476SOL     OW17326   1.926   4.687   5.043
 5476SOL    HW117327   1.864   4.618   5.081
 5476SOL    HW217328   1.952   4.751   5.116
 5477SOL     OW17329   2.312   4.166   2.565
 5477SOL    HW117330   2.281   4.196   2.655
 5477SOL    HW217331   2.251   4.094   2.531
 5478SOL     OW17332   3.078   6.259   4.629
 5478SOL    HW117333   2.992   6.281   4.676
 5478SOL    HW217334   3.151   6.251   4.697
 5479SOL     OW17335   5.440   1.389   5.870
 5479SOL    HW117336   5.503   1.402   5.947
 5479SOL    HW217337   5.468   1.310   5.817
 5480SOL     OW17338   5.912   5.967   4.030
 5480SOL    HW117339   5.897   5.899   4.102
 5480SOL    HW217340   5.842   5.957   3.960
 5481SOL     OW17341   4.510   1.200   4.479
 5481SOL    HW117342   4.571   1.140   4.531
 5481SOL    HW217343   4.548   1.292   4.477
 5482SOL     OW17344   3.732   4.476   1.480
 5482SOL    HW117345   3.771   4.567   1.497
 5482SOL    HW217346   3.742   4.419   1.561
 5483SOL     OW17347   6.994   2.450   5.572
 5483SOL    HW117348   0.040   2.463   5.495
 5483SOL    HW217349   6.909   2.409   5.540
 5484SOL     OW17350   3.900   1.085   3.580
 5484SOL    HW117351   3.917   1.063   3.484
 5484SOL    HW217352   3.988   1.090   3.629
 5485SOL     OW17353   4.054   0.017   4.443
 5485SOL    HW117354   4.072   6.956   4.503
 5485SOL    HW217355   3.965   0.006   4.399
 5486SOL     OW17356   1.698   5.933   5.322
 5486SOL    HW117357   1.605   5.906   5.297
 5486SOL    HW217358   1.764   5.871   5.279
 5487SOL     OW17359   5.642   3.340   6.845
 5487SOL    HW117360   5.654   3.309   6.751
 5487SOL    HW217361   5.553   3.309   6.879
 5488SOL     OW17362   6.042   0.398   0.870
 5488SOL    HW117363   5.980   0.477   0.873
 5488SOL    HW217364   5.997   0.319   0.912
 5489SOL     OW17365   0.780   3.914   1.663
 5489SOL    HW117366   0.737   3.863   1.589
 5489SOL    HW217367   0.879   3.904   1.656
 5490SOL     OW17368   3.181   0.006   1.104
 5490SOL    HW117369   3.177   6.980   1.194
 5490SOL    HW217370   3.276   0.034   1.085
 5491SOL     OW17371   1.799   4.040   1.011
 5491SOL    HW117372   1.814   3.942   1.027
 5491SOL    HW217373   1.887   4.087   1.009
 5492SOL     OW17374   0.077   3.132   6.172
 5492SOL    HW117375   0.146   3.075   6.215
 5492SOL    HW217376   0.099   3.228   6.187
 5493SOL     OW17377   2.933   3.803   4.038
 5493SOL    HW117378   2.931   3.766   3.945
 5493SOL    HW217379   2.931   3.727   4.104
 5494SOL     OW17380   6.592   2.711   6.327
 5494SOL    HW117381   6.681   2.725   6.284
 5494SOL    HW217382   6.603   2.716   6.427
 5495SOL     OW17383   3.627   1.462   0.652
 5495SOL    HW117384   3.653   1.367   0.639
 5495SOL    HW217385   3.531   1.468   0.680
 5496SOL     OW17386   3.482   0.876   3.659
 5496SOL    HW117387   3.569   0.828   3.655
 5496SOL    HW217388   3.426   0.836   3.732
 5497SOL     OW17389   0.382   1.930   4.424
 5497SOL    HW117390   0.317   1.944   4.350
 5497SOL    HW217391   0.346   1.862   4.488
 5498SOL     OW17392   6.319   5.852   1.046
 5498SOL    HW117393   6.399   5.907   1.073
 5498SOL    HW217394   6.251   5.912   1.004
 5499SOL     OW17395   0.603   0.567   4.942
 5499SOL    HW117396   0.512   0.605   4.928
 5499SOL    HW217397   0.646   0.547   4.854
 5500SOL     OW17398   1.149   0.448   0.579
 5500SOL    HW117399   1.122   0.495   0.495
 5500SOL    HW217400   1.225   0.498   0.622
 5501SOL     OW17401   3.200   0.565   0.489
 5501SOL    HW117402   3.221   0.616   0.406
 5501SOL    HW217403   3.285   0.534   0.532
 5502SOL     OW17404   5.501   3.485   0.381
 5502SOL    HW117405   5.526   3.495   0.285
 5502SOL    HW217406   5.429   3.416   0.389
 5503SOL     OW17407   0.863   4.668   2.268
 5503SOL    HW117408   0.863   4.569   2.255
 5503SOL    HW217409   0.856   4.689   2.365
 5504SOL     OW17410   4.059   0.805   5.164
 5504SOL    HW117411   4.100   0.787   5.074
 5504SOL    HW217412   4.047   0.904   5.175
 5505SOL     OW17413   2.196   5.173   4.460
 5505SOL    HW117414   2.189   5.126   4.373
 5505SOL    HW217415   2.110   5.220   4.480
 5506SOL     OW17416   1.147   2.205   0.340
 5506SOL    HW117417   1.240   2.220   0.305
 5506SOL    HW217418   1.149   2.138   0.414
 5507SOL     OW17419   3.550   1.054   4.398
 5507SOL    HW117420   3.577   1.104   4.316
 5507SOL    HW217421   3.519   1.118   4.468
 5508SOL     OW17422   1.247   1.213   6.303
 5508SOL    HW117423   1.326   1.162   6.336
 5508SOL    HW217424   1.223   1.284   6.369
 5509SOL     OW17425   0.184   6.414   6.917
 5509SOL    HW117426   0.256   6.349   6.890
 5509SOL    HW217427   0.144   6.455   6.835
 5510SOL     OW17428   4.846   5.485   6.981
 5510SOL    HW117429   4.898   5.540   6.915
 5510SOL    HW217430   4.752   5.517   6.983
 5511SOL     OW17431   1.847   1.356   3.749
 5511SOL    HW117432   1.870   1.318   3.838
 5511SOL    HW217433   1.750   1.381   3.748
 5512SOL     OW17434   5.669   2.000   1.247
 5512SOL    HW117435   5.742   2.032   1.307
 5512SOL    HW217436   5.694   1.911   1.209
 5513SOL     OW17437   4.605   4.336   6.087
 5513SOL    HW117438   4.639   4.425   6.119
 5513SOL    HW217439   4.513   4.348   6.051
 5514SOL     OW17440   4.169   6.866   4.036
 5514SOL    HW117441   4.208   6.782   3.996
 5514SOL    HW217442   4.071   6.854   4.047
 5515SOL     OW17443   1.094   6.027   2.385
 5515SOL    HW117444   1.105   6.126   2.397
 5515SOL    HW217445   1.037   6.010   2.304
 5516SOL     OW17446   1.792   4.084   6.201
 5516SOL    HW117447   1.795   4.152   6.274
 5516SOL    HW217448   1.886   4.056   6.178
 5517SOL     OW17449   2.214   2.927   1.759
 5517SOL    HW117450   2.193   3.020   1.789
 5517SOL    HW217451   2.305   2.926   1.715
 5518SOL     OW17452   5.873   6.866   6.585
 5518SOL    HW117453   5.917   6.782   6.615
 5518SOL    HW217454   5.831   6.911   6.663
 5519SOL     OW17455   5.703   3.567   3.593
 5519SOL    HW117456   5.798   3.578   3.620
 5519SOL    HW217457   5.698   3.537   3.498
 5520SOL     OW17458   6.391   6.973   2.595
 5520SOL    HW117459   6.315   6.994   2.656
 5520SOL    HW217460   6.384   6.878   2.565
 5521SOL     OW17461   5.832   5.879   1.904
 5521SOL    HW117462   5.814   5.781   1.894
 5521SOL    HW217463   5.747   5.930   1.887
 5522SOL     OW17464   6.680   5.144   0.071
 5522SOL    HW117465   6.614   5.092   0.125
 5522SOL    HW217466   6.696   5.232   0.115
 5523SOL     OW17467   3.585   0.889   2.151
 5523SOL    HW117468   3.508   0.953   2.150
 5523SOL    HW217469   3.661   0.929   2.203
 5524SOL     OW17470   5.407   0.054   4.491
 5524SOL    HW117471   5.333   0.093   4.436
 5524SOL    HW217472   5.494   0.094   4.462
 5525SOL     OW17473   0.322   1.639   1.062
 5525SOL    HW117474   0.342   1.609   0.969
 5525SOL    HW217475   0.306   1.738   1.062
 5526SOL     OW17476   4.697   5.550   3.758
 5526SOL    HW117477   4.694   5.632   3.815
 5526SOL    HW217478   4.606   5.509   3.756
 5527SOL     OW17479   4.895   3.783   3.871
 5527SOL    HW117480   4.957   3.755   3.797
 5527SOL    HW217481   4.897   3.714   3.943
 5528SOL     OW17482   1.365   1.010   6.969
 5528SOL    HW117483   1.275   0.967   6.964
 5528SOL    HW217484   1.429   0.963   6.908
 5529SOL     OW17485   2.975   6.834   3.393
 5529SOL    HW117486   2.901   6.787   3.344
 5529SOL    HW217487   3.024   6.894   3.331
 5530SOL     OW17488   5.739   2.268   1.685
 5530SOL    HW117489   5.769   2.298   1.594
 5530SOL    HW217490   5.732   2.168   1.686
 5531SOL     OW17491   3.246   3.593   1.981
 5531SOL    HW117492   3.152   3.626   1.970
 5531SOL    HW217493   3.306   3.644   1.920
 5532SOL     OW17494   1.287   3.216   0.700
 5532SOL    HW117495   1.192   3.196   0.675
 5532SOL    HW217496   1.344   3.135   0.683
 5533SOL     OW17497   3.442   1.792   3.053
 5533SOL    HW117498   3.422   1.886   3.026
 5533SOL    HW217499   3.435   1.783   3.152
 5534SOL     OW17500   6.997   1.326   6.303
 5534SOL    HW117501   6.902   1.351   6.284
 5534SOL    HW217502   7.001   1.237   6.348
 5535SOL     OW17503   0.047   2.935   2.976
 5535SOL    HW117504   0.112   2.869   3.014
 5535SOL    HW217505   7.012   2.892   2.901
 5536SOL     OW17506   3.008   0.861   4.478
 5536SOL    HW117507   2.992   0.762   4.473
 5536SOL    HW217508   2.999   0.901   4.386
 5537SOL     OW17509   2.639   0.869   2.770
 5537SOL    HW117510   2.562   0.932   2.762
 5537SOL    HW217511   2.630   0.797   2.701
 5538SOL     OW17512   2.471   6.020   6.081
 5538SOL    HW117513   2.546   6.017   6.146
 5538SOL    HW217514   2.506   6.035   5.989
 5539SOL     OW17515   1.175   3.539   1.281
 5539SOL    HW117516   1.224   3.455   1.308
 5539SOL    HW217517   1.143   3.586   1.363
 5540SOL     OW17518   4.701   4.516   3.388
 5540SOL    HW117519   4.622   4.465   3.422
 5540SOL    HW217520   4.690   4.534   3.290
 5541SOL     OW17521   5.765   0.544   6.103
 5541SOL    HW117522   5.820   0.468   6.068
 5541SOL    HW217523   5.750   0.611   6.030
 5542SOL     OW17524   5.462   3.642   6.307
 5542SOL    HW117525   5.542   3.611   6.358
 5542SOL    HW217526   5.399   3.565   6.295
 5543SOL     OW17527   3.942   4.808   5.605
 5543SOL    HW117528   3.851   4.767   5.613
 5543SOL    HW217529   3.932   4.906   5.589
 5544SOL     OW17530   4.744   5.930   6.289
 5544SOL    HW117531   4.820   5.995   6.296
 5544SOL    HW217532   4.779   5.837   6.297
 5545SOL     OW17533   4.081   1.299   2.144
 5545SOL    HW117534   4.160   1.299   2.082
 5545SOL    HW217535   4.029   1.384   2.132
 5546SOL     OW17536   0.857   5.017   4.498
 5546SOL    HW117537   0.891   4.940   4.445
 5546SOL    HW217538   0.766   5.042   4.466
 5547SOL     OW17539   2.538   6.845   5.220
 5547SOL    HW117540   2.477   6.870   5.296
 5547SOL    HW217541   2.632   6.867   5.244
 5548SOL     OW17542   6.045   2.705   4.949
 5548SOL    HW117543   5.963   2.743   4.906
 5548SOL    HW217544   6.088   2.774   5.007
 5549SOL     OW17545   4.469   4.275   6.338
 5549SOL    HW117546   4.484   4.178   6.360
 5549SOL    HW217547   4.546   4.310   6.285
 5550SOL     OW17548   2.583   5.262   1.911
 5550SOL    HW117549   2.560   5.316   1.992
 5550SOL    HW217550   2.681   5.242   1.911
 5551SOL     OW17551   2.223   0.815   2.911
 5551SOL    HW117552   2.135   0.848   2.875
 5551SOL    HW217553   2.208   0.769   2.998
 5552SOL     OW17554   6.342   0.952   0.001
 5552SOL    HW117555   6.326   0.853   7.013
 5552SOL    HW217556   6.429   0.974   6.973
 5553SOL     OW17557   4.586   6.556   0.091
 5553SOL    HW117558   4.510   6.574   0.029
 5553SOL    HW217559   4.611   6.459   0.086
 5554SOL     OW17560   3.794   1.029   5.385
 5554SOL    HW117561   3.875   1.050   5.330
 5554SOL    HW217562   3.821   0.972   5.462
 5555SOL     OW17563   0.973   4.205   4.198
 5555SOL    HW117564   0.903   4.184   4.266
 5555SOL    HW217565   0.959   4.297   4.163
 5556SOL     OW17566   6.945   2.555   3.757
 5556SOL    HW117567   0.022   2.590   3.748
 5556SOL    HW217568   6.919   2.509   3.672
 5557SOL     OW17569   3.660   5.930   3.029
 5557SOL    HW117570   3.622   5.990   3.099
 5557SOL    HW217571   3.757   5.948   3.018
 5558SOL     OW17572   4.932   3.732   6.572
 5558SOL    HW117573   5.019   3.697   6.537
 5558SOL    HW217574   4.929   3.831   6.563
 5559SOL     OW17575   2.740   6.861   2.118
 5559SOL    HW117576   2.668   6.812   2.069
 5559SOL    HW217577   2.700   6.912   2.194
 5560SOL     OW17578   0.388   6.696   3.702
 5560SOL    HW117579   0.370   6.788   3.666
 5560SOL    HW217580   0.335   6.630   3.650
 5561SOL     OW17581   2.103   2.761   4.154
 5561SOL    HW117582   2.184   2.817   4.136
 5561SOL    HW217583   2.082   2.763   4.252
 5562SOL     OW17584   2.947   2.298   6.766
 5562SOL    HW117585   2.875   2.283   6.699
 5562SOL    HW217586   2.989   2.210   6.790
 5563SOL     OW17587   4.506   6.363   2.787
 5563SOL    HW117588   4.502   6.294   2.715
 5563SOL    HW217589   4.424   6.357   2.844
 5564SOL     OW17590   4.173   1.647   1.806
 5564SOL    HW117591   4.255   1.592   1.794
 5564SOL    HW217592   4.100   1.591   1.846
 5565SOL     OW17593   5.544   1.838   6.494
 5565SOL    HW117594   5.544   1.759   6.556
 5565SOL    HW217595   5.451   1.875   6.487
 5566SOL     OW17596   1.753   5.087   0.469
 5566SOL    HW117597   1.828   5.152   0.453
 5566SOL    HW217598   1.712   5.105   0.558
 5567SOL     OW17599   0.604   4.513   2.129
 5567SOL    HW117600   0.601   4.534   2.031
 5567SOL    HW217601   0.690   4.467   2.150
 5568SOL     OW17602   4.535   2.565   3.008
 5568SOL    HW117603   4.573   2.650   3.045
 5568SOL    HW217604   4.457   2.586   2.950
 5569SOL     OW17605   3.049   0.962   1.759
 5569SOL    HW117606   3.104   1.044   1.747
 5569SOL    HW217607   2.981   0.957   1.686
 5570SOL     OW17608   5.483   4.996   5.203
 5570SOL    HW117609   5.569   5.007   5.252
 5570SOL    HW217610   5.473   4.901   5.174
 5571SOL     OW17611   0.703   6.900   0.131
 5571SOL    HW117612   0.621   6.869   0.179
 5571SOL    HW217613   0.685   6.901   0.033
 5572SOL     OW17614   2.087   2.801   5.897
 5572SOL    HW117615   1.988   2.810   5.913
 5572SOL    HW217616   2.123   2.889   5.867
 5573SOL     OW17617   1.886   3.054   0.125
 5573SOL    HW117618   1.963   2.996   0.152
 5573SOL    HW217619   1.920   3.144   0.099
 5574SOL     OW17620   6.269   1.511   3.862
 5574SOL    HW117621   6.298   1.602   3.890
 5574SOL    HW217622   6.225   1.516   3.772
 5575SOL     OW17623   0.839   1.315   1.739
 5575SOL    HW117624   0.756   1.353   1.780
 5575SOL    HW217625   0.825   1.218   1.719
 5576SOL     OW17626   0.301   6.323   1.946
 5576SOL    HW117627   0.277   6.400   1.887
 5576SOL    HW217628   0.370   6.352   2.013
 5577SOL     OW17629   2.686   2.568   6.307
 5577SOL    HW117630   2.622   2.599   6.377
 5577SOL    HW217631   2.641   2.501   6.248
 5578SOL     OW17632   4.368   3.693   0.608
 5578SOL    HW117633   4.332   3.611   0.652
 5578SOL    HW217634   4.464   3.677   0.583
 5579SOL     OW17635   6.211   4.052   6.761
 5579SOL    HW117636   6.161   4.048   6.848
 5579SOL    HW217637   6.179   3.980   6.700
 5580SOL     OW17638   4.918   1.771   6.182
 5580SOL    HW117639   4.907   1.700   6.113
 5580SOL    HW217640   4.852   1.845   6.165
 5581SOL     OW17641   2.312   7.015   1.053
 5581SOL    HW117642   2.255   0.076   1.026
 5581SOL    HW217643   2.403   0.009   1.013
 5582SOL     OW17644   3.548   3.111   3.606
 5582SOL    HW117645   3.527   3.036   3.669
 5582SOL    HW217646   3.605   3.076   3.531
 5583SOL     OW17647   3.707   6.557   2.795
 5583SOL    HW117648   3.780   6.624   2.810
 5583SOL    HW217649   3.623   6.604   2.770
 5584SOL     OW17650   5.591   4.021   4.599
 5584SOL    HW117651   5.610   4.052   4.692
 5584SOL    HW217652   5.519   3.952   4.601
 5585SOL     OW17653   4.753   0.359   3.834
 5585SOL    HW117654   4.692   0.330   3.760
 5585SOL    HW217655   4.847   0.358   3.801
 5586SOL     OW17656   1.064   2.220   6.928
 5586SOL    HW117657   1.152   2.177   6.949
 5586SOL    HW217658   1.080   2.308   6.883
 5587SOL     OW17659   4.733   6.569   2.112
 5587SOL    HW117660   4.734   6.563   2.211
 5587SOL    HW217661   4.646   6.535   2.076
 5588SOL     OW17662   1.142   6.627   3.812
 5588SOL    HW117663   1.154   6.530   3.832
 5588SOL    HW217664   1.199   6.653   3.733
 5589SOL     OW17665   5.194   3.039   6.619
 5589SOL    HW117666   5.283   3.046   6.665
 5589SOL    HW217667   5.124   3.082   6.676
 5590SOL     OW17668   6.957   5.349   2.851
 5590SOL    HW117669   6.915   5.259   2.838
 5590SOL    HW217670   6.889   5.420   2.837
 5591SOL     OW17671   5.737   1.426   6.464
 5591SOL    HW117672   5.770   1.412   6.557
 5591SOL    HW217673   5.637   1.434   6.465
 5592SOL     OW17674   2.222   4.757   2.968
 5592SOL    HW117675   2.229   4.658   2.959
 5592SOL    HW217676   2.125   4.782   2.976
 5593SOL     OW17677   6.903   2.487   5.829
 5593SOL    HW117678   6.810   2.462   5.801
 5593SOL    HW217679   6.965   2.480   5.751
 5594SOL     OW17680   2.616   1.273   6.510
 5594SOL    HW117681   2.649   1.278   6.416
 5594SOL    HW217682   2.665   1.340   6.566
 5595SOL     OW17683   6.072   0.909   5.210
 5595SOL    HW117684   6.168   0.931   5.190
 5595SOL    HW217685   6.023   0.895   5.124
 5596SOL     OW17686   5.233   0.325   2.510
 5596SOL    HW117687   5.142   0.302   2.545
 5596SOL    HW217688   5.251   0.422   2.524
 5597SOL     OW17689   5.273   2.242   5.146
 5597SOL    HW117690   5.304   2.244   5.241
 5597SOL    HW217691   5.351   2.255   5.085
 5598SOL     OW17692   4.985   2.330   4.071
 5598SOL    HW117693   5.057   2.286   4.018
 5598SOL    HW217694   5.025   2.372   4.153
 5599SOL     OW17695   6.298   3.700   2.332
 5599SOL    HW117696   6.234   3.680   2.406
 5599SOL    HW217697   6.392   3.680   2.363
 5600SOL     OW17698   1.882   0.064   2.704
 5600SOL    HW117699   1.879   0.063   2.604
 5600SOL    HW217700   1.855   6.991   2.739
 5601SOL     OW17701   4.249   2.055   5.732
 5601SOL    HW117702   4.346   2.077   5.719
 5601SOL    HW217703   4.207   2.036   5.644
 5602SOL     OW17704   6.923   0.595   3.071
 5602SOL    HW117705   6.825   0.603   3.055
 5602SOL    HW217706   6.939   0.536   3.151
 5603SOL     OW17707   4.881   2.208   5.198
 5603SOL    HW117708   4.784   2.227   5.188
 5603SOL    HW217709   4.934   2.279   5.151
 5604SOL     OW17710   0.924   2.132   4.440
 5604SOL    HW117711   0.931   2.177   4.529
 5604SOL    HW217712   1.011   2.141   4.391
 5605SOL     OW17713   1.201   6.900   5.288
 5605SOL    HW117714   1.259   6.872   5.211
 5605SOL    HW217715   1.188   6.823   5.349
 5606SOL     OW17716   4.276   0.967   0.556
 5606SOL    HW117717   4.253   0.929   0.646
 5606SOL    HW217718   4.357   1.026   0.565
 5607SOL     OW17719   5.595   2.139   3.754
 5607SOL    HW117720   5.575   2.135   3.852
 5607SOL    HW217721   5.618   2.048   3.721
 5608SOL     OW17722   5.699   1.552   3.173
 5608SOL    HW117723   5.641   1.624   3.133
 5608SOL    HW217724   5.682   1.466   3.125
 5609SOL     OW17725   4.776   5.990   0.055
 5609SOL    HW117726   4.788   6.083   0.020
 5609SOL    HW217727   4.769   5.994   0.155
 5610SOL     OW17728   5.754   3.737   1.206
 5610SOL    HW117729   5.816   3.807   1.240
 5610SOL    HW217730   5.693   3.708   1.280
 5611SOL     OW17731   0.623   4.809   2.171
 5611SOL    HW117732   0.712   4.770   2.195
 5611SOL    HW217733   0.551   4.750   2.207
 5612SOL     OW17734   3.366   2.744   0.735
 5612SOL    HW117735   3.352   2.735   0.834
 5612SOL    HW217736   3.279   2.732   0.688
 5613SOL     OW17737   0.075   4.793   5.473
 5613SOL    HW117738   0.010   4.770   5.401
 5613SOL    HW217739   0.042   4.873   5.523
 5614SOL     OW17740   6.095   2.468   4.372
 5614SOL    HW117741   6.131   2.398   4.434
 5614SOL    HW217742   6.113   2.559   4.411
 5615SOL     OW17743   0.243   1.023   2.897
 5615SOL    HW117744   0.227   0.925   2.913
 5615SOL    HW217745   0.288   1.063   2.977
 5616SOL     OW17746   2.240   2.598   4.935
 5616SOL    HW117747   2.331   2.575   4.899
 5616SOL    HW217748   2.221   2.694   4.918
 5617SOL     OW17749   1.876   3.902   4.893
 5617SOL    HW117750   1.812   3.844   4.842
 5617SOL    HW217751   1.967   3.895   4.853
 5618SOL     OW17752   6.799   4.884   3.247
 5618SOL    HW117753   6.827   4.973   3.283
 5618SOL    HW217754   6.802   4.816   3.320
 5619SOL     OW17755   3.605   3.435   3.299
 5619SOL    HW117756   3.684   3.399   3.250
 5619SOL    HW217757   3.628   3.445   3.396
 5620SOL     OW17758   5.033   4.143   6.470
 5620SOL    HW117759   5.014   4.221   6.410
 5620SOL    HW217760   5.033   4.059   6.416
 5621SOL     OW17761   1.169   3.077   6.144
 5621SOL    HW117762   1.094   3.135   6.175
 5621SOL    HW217763   1.232   3.131   6.087
 5622SOL     OW17764   5.065   6.811   5.175
 5622SOL    HW117765   4.981   6.775   5.134
 5622SOL    HW217766   5.041   6.879   5.245
 5623SOL     OW17767   4.972   6.155   5.288
 5623SOL    HW117768   4.910   6.146   5.210
 5623SOL    HW217769   4.962   6.245   5.329
 5624SOL     OW17770   1.037   5.175   3.994
 5624SOL    HW117771   1.110   5.215   3.940
 5624SOL    HW217772   0.951   5.179   3.943
 5625SOL     OW17773   0.448   4.655   5.489
 5625SOL    HW117774   0.440   4.561   5.457
 5625SOL    HW217775   0.543   4.685   5.483
 5626SOL     OW17776   2.696   5.265   4.466
 5626SOL    HW117777   2.664   5.207   4.541
 5626SOL    HW217778   2.644   5.246   4.383
 5627SOL     OW17779   6.897   5.626   5.984
 5627SOL    HW117780   6.868   5.555   5.919
 5627SOL    HW217781   6.837   5.625   6.063
 5628SOL     OW17782   2.752   2.815   1.425
 5628SOL    HW117783   2.712   2.783   1.511
 5628SOL    HW217784   2.845   2.847   1.442
 5629SOL     OW17785   4.346   2.687   1.727
 5629SOL    HW117786   4.438   2.713   1.758
 5629SOL    HW217787   4.329   2.726   1.637
 5630SOL     OW17788   1.817   3.811   5.817
 5630SOL    HW117789   1.906   3.810   5.770
 5630SOL    HW217790   1.785   3.905   5.825
 5631SOL     OW17791   5.156   1.654   1.396
 5631SOL    HW117792   5.246   1.690   1.371
 5631SOL    HW217793   5.137   1.678   1.491
 5632SOL     OW17794   5.265   1.743   5.319
 5632SOL    HW117795   5.248   1.842   5.312
 5632SOL    HW217796   5.229   1.710   5.407
 5633SOL     OW17797   6.880   5.127   4.804
 5633SOL    HW117798   6.877   5.222   4.774
 5633SOL    HW217799   6.809   5.075   4.756
 5634SOL     OW17800   1.981   4.714   3.664
 5634SOL    HW117801   1.911   4.643   3.653
 5634SOL    HW217802   1.970   4.782   3.591
 5635SOL     OW17803   2.665   6.103   6.822
 5635SOL    HW117804   2.690   6.065   6.733
 5635SOL    HW217805   2.623   6.032   6.878
 5636SOL     OW17806   6.027   1.031   5.460
 5636SOL    HW117807   6.056   0.971   5.385
 5636SOL    HW217808   5.930   1.051   5.452
 5637SOL     OW17809   4.907   6.833   3.814
 5637SOL    HW117810   4.958   6.756   3.852
 5637SOL    HW217811   4.968   6.911   3.802
 5638SOL     OW17812   6.169   5.378   0.935
 5638SOL    HW117813   6.155   5.396   0.838
 5638SOL    HW217814   6.219   5.455   0.976
 5639SOL     OW17815   1.659   0.618   1.449
 5639SOL    HW117816   1.727   0.569   1.504
 5639SOL    HW217817   1.685   0.714   1.442
 5640SOL     OW17818   2.738   0.002   2.350
 5640SOL    HW117819   2.690   6.957   2.413
 5640SOL    HW217820   2.833   0.012   2.379
 5641SOL     OW17821   0.145   4.547   6.242
 5641SOL    HW117822   0.110   4.464   6.199
 5641SOL    HW217823   0.239   4.562   6.213
 5642SOL     OW17824   1.012   4.974   5.574
 5642SOL    HW117825   1.005   5.051   5.638
 5642SOL    HW217826   1.109   4.954   5.557
 5643SOL     OW17827   3.690   0.896   4.772
 5643SOL    HW117828   3.658   0.967   4.835
 5643SOL    HW217829   3.771   0.928   4.724
 5644SOL     OW17830   4.024   0.345   3.684
 5644SOL    HW117831   4.080   0.350   3.601
 5644SOL    HW217832   3.994   0.250   3.698
 5645SOL     OW17833   6.632   4.316   3.012
 5645SOL    HW117834   6.547   4.270   2.983
 5645SOL    HW217835   6.657   4.284   3.103
 5646SOL     OW17836   2.411   5.720   3.266
 5646SOL    HW117837   2.427   5.819   3.263
 5646SOL    HW217838   2.430   5.680   3.176
 5647SOL     OW17839   6.295   6.398   0.141
 5647SOL    HW117840   6.357   6.431   0.070
 5647SOL    HW217841   6.344   6.391   0.228
 5648SOL     OW17842   1.635   1.353   2.649
 5648SOL    HW117843   1.546   1.316   2.621
 5648SOL    HW217844   1.704   1.327   2.581
 5649SOL     OW17845   0.322   6.856   5.771
 5649SOL    HW117846   0.250   6.919   5.744
 5649SOL    HW217847   0.395   6.858   5.703
 5650SOL     OW17848   0.651   5.852   0.925
 5650SOL    HW117849   0.700   5.933   0.959
 5650SOL    HW217850   0.704   5.810   0.852
 5651SOL     OW17851   0.792   1.050   1.741
 5651SOL    HW117852   0.874   0.992   1.744
 5651SOL    HW217853   0.716   0.997   1.704
 5652SOL     OW17854   5.904   6.598   2.227
 5652SOL    HW117855   5.837   6.543   2.176
 5652SOL    HW217856   5.968   6.639   2.163
 5653SOL     OW17857   0.213   6.193   6.467
 5653SOL    HW117858   0.305   6.182   6.430
 5653SOL    HW217859   0.147   6.151   6.404
 5654SOL     OW17860   6.512   6.868   5.360
 5654SOL    HW117861   6.532   6.854   5.457
 5654SOL    HW217862   6.575   6.936   5.323
 5655SOL     OW17863   1.030   3.400   4.503
 5655SOL    HW117864   1.107   3.348   4.466
 5655SOL    HW217865   0.945   3.350   4.487
 5656SOL     OW17866   1.467   3.387   0.126
 5656SOL    HW117867   1.522   3.445   0.065
 5656SOL    HW217868   1.524   3.314   0.162
 5657SOL     OW17869   5.607   0.603   0.986
 5657SOL    HW117870   5.514   0.634   1.007
 5657SOL    HW217871   5.622   0.513   1.028
 5658SOL     OW17872   3.390   5.638   5.778
 5658SOL    HW117873   3.458   5.570   5.755
 5658SOL    HW217874   3.390   5.711   5.709
 5659SOL     OW17875   3.821   4.092   3.571
 5659SOL    HW117876   3.827   3.992   3.559
 5659SOL    HW217877   3.729   4.122   3.547
 5660SOL     OW17878   5.784   0.351   5.615
 5660SOL    HW117879   5.722   0.333   5.692
 5660SOL    HW217880   5.877   0.324   5.640
 5661SOL     OW17881   0.227   4.074   5.657
 5661SOL    HW117882   0.158   4.011   5.622
 5661SOL    HW217883   0.183   4.141   5.718
 5662SOL     OW17884   3.042   5.523   3.245
 5662SOL    HW117885   3.023   5.461   3.169
 5662SOL    HW217886   2.958   5.572   3.269
 5663SOL     OW17887   2.039   3.674   6.569
 5663SOL    HW117888   1.949   3.684   6.611
 5663SOL    HW217889   2.053   3.578   6.542
 5664SOL     OW17890   7.001   4.137   4.375
 5664SOL    HW117891   6.923   4.111   4.319
 5664SOL    HW217892   6.970   4.190   4.454
 5665SOL     OW17893   1.336   2.155   6.934
 5665SOL    HW117894   1.333   2.079   6.870
 5665SOL    HW217895   1.399   2.134   7.009
 5666SOL     OW17896   5.707   6.036   0.795
 5666SOL    HW117897   5.740   5.943   0.808
 5666SOL    HW217898   5.743   6.073   0.709
 5667SOL     OW17899   1.020   4.369   3.763
 5667SOL    HW117900   0.964   4.423   3.826
 5667SOL    HW217901   1.040   4.280   3.805
 5668SOL     OW17902   5.112   1.925   4.974
 5668SOL    HW117903   5.107   2.021   4.947
 5668SOL    HW217904   5.089   1.916   5.070
 5669SOL     OW17905   0.773   2.760   6.783
 5669SOL    HW117906   0.756   2.857   6.797
 5669SOL    HW217907   0.686   2.712   6.767
 5670SOL     OW17908   0.181   2.736   3.534
 5670SOL    HW117909   0.275   2.715   3.508
 5670SOL    HW217910   0.127   2.756   3.452
 5671SOL     OW17911   0.709   6.575   6.254
 5671SOL    HW117912   0.685   6.663   6.214
 5671SOL    HW217913   0.654   6.503   6.212
 5672SOL     OW17914   4.259   4.548   6.534
 5672SOL    HW117915   4.187   4.596   6.483
 5672SOL    HW217916   4.282   4.463   6.487
 5673SOL     OW17917   1.101   6.048   1.935
 5673SOL    HW117918   1.041   6.100   1.995
 5673SOL    HW217919   1.058   6.036   1.846
 5674SOL     OW17920   6.666   4.549   3.916
 5674SOL    HW117921   6.682   4.647   3.906
 5674SOL    HW217922   6.573   4.527   3.885
 5675SOL     OW17923   4.548   2.464   5.845
 5675SOL    HW117924   4.603   2.385   5.869
 5675SOL    HW217925   4.452   2.446   5.867
 5676SOL     OW17926   2.282   2.007   2.616
 5676SOL    HW117927   2.343   2.077   2.654
 5676SOL    HW217928   2.187   2.032   2.637
 5677SOL     OW17929   0.673   2.443   2.867
 5677SOL    HW117930   0.708   2.350   2.852
 5677SOL    HW217931   0.674   2.493   2.781
 5678SOL     OW17932   3.020   6.293   2.605
 5678SOL    HW117933   2.960   6.294   2.525
 5678SOL    HW217934   2.991   6.364   2.669
 5679SOL     OW17935   1.219   0.727   3.454
 5679SOL    HW117936   1.216   0.639   3.406
 5679SOL    HW217937   1.293   0.783   3.415
 5680SOL     OW17938   1.292   5.662   0.772
 5680SOL    HW117939   1.306   5.691   0.867
 5680SOL    HW217940   1.232   5.582   0.770
 5681SOL     OW17941   0.350   3.437   0.113
 5681SOL    HW117942   0.265   3.440   0.060
 5681SOL    HW217943   0.359   3.347   0.156
 5682SOL     OW17944   2.292   4.707   5.431
 5682SOL    HW117945   2.301   4.612   5.462
 5682SOL    HW217946   2.283   4.767   5.510
 5683SOL     OW17947   3.342   1.470   0.158
 5683SOL    HW117948   3.274   1.401   0.184
 5683SOL    HW217949   3.299   1.559   0.151
 5684SOL     OW17950   3.519   3.038   4.666
 5684SOL    HW117951   3.590   3.078   4.608
 5684SOL    HW217952   3.464   2.974   4.612
 5685SOL     OW17953   1.809   3.392   2.103
 5685SOL    HW117954   1.810   3.305   2.053
 5685SOL    HW217955   1.813   3.467   2.037
 5686SOL     OW17956   2.478   6.911   6.516
 5686SOL    HW117957   2.448   6.987   6.459
 5686SOL    HW217958   2.453   6.825   6.472
 5687SOL     OW17959   0.652   4.032   5.482
 5687SOL    HW117960   0.699   4.083   5.554
 5687SOL    HW217961   0.716   4.008   5.409
 5688SOL     OW17962   6.985   2.130   0.157
 5688SOL    HW117963   6.934   2.171   0.233
 5688SOL    HW217964   6.953   2.036   0.143
 5689SOL     OW17965   4.361   0.532   0.444
 5689SOL    HW117966   4.407   0.473   0.377
 5689SOL    HW217967   4.263   0.511   0.446
 5690SOL     OW17968   2.048   5.972   0.608
 5690SOL    HW117969   2.050   6.039   0.683
 5690SOL    HW217970   2.083   6.015   0.525
 5691SOL     OW17971   2.660   6.064   1.688
 5691SOL    HW117972   2.689   6.154   1.721
 5691SOL    HW217973   2.571   6.041   1.727
 5692SOL     OW17974   0.093   3.407   6.216
 5692SOL    HW117975   7.013   3.417   6.242
 5692SOL    HW217976   0.133   3.497   6.200
 5693SOL     OW17977   6.108   2.477   2.479
 5693SOL    HW117978   6.176   2.537   2.521
 5693SOL    HW217979   6.144   2.442   2.392
 5694SOL     OW17980   1.259   2.070   3.814
 5694SOL    HW117981   1.239   2.012   3.735
 5694SOL    HW217982   1.353   2.057   3.843
 5695SOL     OW17983   1.281   2.553   3.084
 5695SOL    HW117984   1.186   2.560   3.114
 5695SOL    HW217985   1.312   2.642   3.050
 5696SOL     OW17986   1.602   0.591   3.152
 5696SOL    HW117987   1.595   0.688   3.174
 5696SOL    HW217988   1.674   0.549   3.208
 5697SOL     OW17989   6.366   2.303   1.305
 5697SOL    HW117990   6.382   2.391   1.260
 5697SOL    HW217991   6.319   2.318   1.392
 5698SOL     OW17992   0.648   3.319   2.630
 5698SOL    HW117993   0.637   3.331   2.532
 5698SOL    HW217994   0.738   3.279   2.649
 5699SOL     OW17995   6.272   1.908   2.921
 5699SOL    HW117996   6.306   1.905   2.827
 5699SOL    HW217997   6.175   1.929   2.921
 5700SOL     OW17998   6.391   6.447   4.324
 5700SOL    HW117999   6.328   6.385   4.371
 5700SOL    HW218000   6.385   6.538   4.365
 5701SOL     OW18001   1.202   6.356   3.382
 5701SOL    HW118002   1.172   6.337   3.475
 5701SOL    HW218003   1.239   6.273   3.340
 5702SOL     OW18004   1.532   6.930   5.604
 5702SOL    HW118005   1.554   6.861   5.536
 5702SOL    HW218006   1.576   0.000   5.580
 5703SOL     OW18007   5.445   4.630   1.293
 5703SOL    HW118008   5.359   4.582   1.277
 5703SOL    HW218009   5.445   4.716   1.243
 5704SOL     OW18010   4.255   5.757   2.092
 5704SOL    HW118011   4.240   5.852   2.064
 5704SOL    HW218012   4.191   5.698   2.044
 5705SOL     OW18013   5.082   1.122   0.864
 5705SOL    HW118014   4.999   1.160   0.823
 5705SOL    HW218015   5.162   1.172   0.831
 5706SOL     OW18016   0.438   2.655   0.434
 5706SOL    HW118017   0.422   2.580   0.498
 5706SOL    HW218018   0.484   2.620   0.353
 5707SOL     OW18019   7.009   0.322   0.024
 5707SOL    HW118020   0.075   0.286   0.069
 5707SOL    HW218021   0.002   0.421   0.014
 5708SOL     OW18022   5.093   6.466   1.230
 5708SOL    HW118023   5.058   6.538   1.290
 5708SOL    HW218024   5.193   6.465   1.234
 5709SOL     OW18025   1.615   0.261   3.425
 5709SOL    HW118026   1.586   0.181   3.477
 5709SOL    HW218027   1.535   0.303   3.382
 5710SOL     OW18028   2.500   3.131   6.446
 5710SOL    HW118029   2.489   3.218   6.495
 5710SOL    HW218030   2.410   3.088   6.435
 5711SOL     OW18031   4.564   0.721   2.987
 5711SOL    HW118032   4.483   0.682   3.030
 5711SOL    HW218033   4.561   0.821   2.995
 5712SOL     OW18034   0.628   5.567   5.829
 5712SOL    HW118035   0.648   5.664   5.815
 5712SOL    HW218036   0.626   5.520   5.741
 5713SOL     OW18037   1.766   2.155   1.721
 5713SOL    HW118038   1.774   2.128   1.817
 5713SOL    HW218039   1.763   2.255   1.715
 5714SOL     OW18040   0.503   6.161   6.367
 5714SOL    HW118041   0.555   6.079   6.342
 5714SOL    HW218042   0.555   6.214   6.434
 5715SOL     OW18043   1.292   6.594   3.307
 5715SOL    HW118044   1.235   6.520   3.343
 5715SOL    HW218045   1.304   6.582   3.209
 5716SOL     OW18046   1.204   4.680   6.997
 5716SOL    HW118047   1.293   4.641   6.974
 5716SOL    HW218048   1.144   4.674   6.917
 5717SOL     OW18049   2.014   6.245   0.817
 5717SOL    HW118050   2.073   6.326   0.826
 5717SOL    HW218051   1.943   6.264   0.749
 5718SOL     OW18052   1.795   3.683   6.051
 5718SOL    HW118053   1.888   3.670   6.086
 5718SOL    HW218054   1.798   3.740   5.969
 5719SOL     OW18055   2.257   1.470   6.152
 5719SOL    HW118056   2.204   1.456   6.068
 5719SOL    HW218057   2.224   1.552   6.198
 5720SOL     OW18058   1.154   5.036   4.413
 5720SOL    HW118059   1.074   5.091   4.437
 5720SOL    HW218060   1.229   5.097   4.385
 5721SOL     OW18061   0.493   3.483   0.666
 5721SOL    HW118062   0.554   3.415   0.707
 5721SOL    HW218063   0.544   3.567   0.647
 5722SOL     OW18064   6.346   1.822   4.831
 5722SOL    HW118065   6.429   1.767   4.840
 5722SOL    HW218066   6.293   1.816   4.915
 5723SOL     OW18067   4.411   3.465   6.763
 5723SOL    HW118068   4.467   3.505   6.835
 5723SOL    HW218069   4.456   3.478   6.675
 5724SOL     OW18070   4.100   2.708   5.387
 5724SOL    HW118071   4.073   2.679   5.479
 5724SOL    HW218072   4.093   2.631   5.324
 5725SOL     OW18073   6.547   5.936   4.096
 5725SOL    HW118074   6.479   5.866   4.116
 5725SOL    HW218075   6.524   5.981   4.009
 5726SOL     OW18076   6.763   4.067   4.241
 5726SOL    HW118077   6.771   3.996   4.171
 5726SOL    HW218078   6.693   4.040   4.307
 5727SOL     OW18079   0.723   2.818   3.903
 5727SOL    HW118080   0.782   2.851   3.830
 5727SOL    HW218081   0.639   2.873   3.907
 5728SOL     OW18082   4.598   1.621   6.823
 5728SOL    HW118083   4.561   1.572   6.902
 5728SOL    HW218084   4.525   1.636   6.756
 5729SOL     OW18085   1.011   1.508   0.261
 5729SOL    HW118086   0.998   1.484   0.165
 5729SOL    HW218087   1.081   1.448   0.301
 5730SOL     OW18088   4.372   5.321   5.649
 5730SOL    HW118089   4.446   5.280   5.597
 5730SOL    HW218090   4.328   5.251   5.705
 5731SOL     OW18091   2.354   6.658   4.160
 5731SOL    HW118092   2.333   6.603   4.080
 5731SOL    HW218093   2.268   6.689   4.202
 5732SOL     OW18094   6.689   4.936   5.496
 5732SOL    HW118095   6.706   4.973   5.587
 5732SOL    HW218096   6.762   4.872   5.472
 5733SOL     OW18097   3.500   0.354   5.671
 5733SOL    HW118098   3.527   0.450   5.673
 5733SOL    HW218099   3.528   0.310   5.756
 5734SOL     OW18100   1.696   6.078   5.941
 5734SOL    HW118101   1.641   6.028   6.009
 5734SOL    HW218102   1.672   6.175   5.943
 5735SOL     OW18103   3.961   1.454   2.646
 5735SOL    HW118104   4.014   1.442   2.562
 5735SOL    HW218105   3.963   1.369   2.699
 5736SOL     OW18106   6.306   4.488   1.216
 5736SOL    HW118107   6.247   4.486   1.296
 5736SOL    HW218108   6.266   4.547   1.146
 5737SOL     OW18109   5.198   5.751   6.874
 5737SOL    HW118110   5.101   5.729   6.875
 5737SOL    HW218111   5.232   5.757   6.968
 5738SOL     OW18112   3.081   2.226   6.503
 5738SOL    HW118113   3.026   2.164   6.560
 5738SOL    HW218114   3.020   2.286   6.450
 5739SOL     OW18115   1.140   6.585   5.443
 5739SOL    HW118116   1.225   6.565   5.491
 5739SOL    HW218117   1.064   6.584   5.507
 5740SOL     OW18118   3.798   3.919   1.172
 5740SOL    HW118119   3.825   3.825   1.152
 5740SOL    HW218120   3.865   3.962   1.232
 5741SOL     OW18121   6.575   3.708   4.869
 5741SOL    HW118122   6.637   3.650   4.816
 5741SOL    HW218123   6.482   3.670   4.863
 5742SOL     OW18124   4.536   6.509   2.493
 5742SOL    HW118125   4.548   6.414   2.523
 5742SOL    HW218126   4.624   6.545   2.463
 5743SOL     OW18127   2.560   5.955   5.838
 5743SOL    HW118128   2.623   5.893   5.791
 5743SOL    HW218129   2.503   5.902   5.902
 5744SOL     OW18130   4.858   1.294   1.099
 5744SOL    HW118131   4.855   1.377   1.154
 5744SOL    HW218132   4.940   1.241   1.122
 5745SOL     OW18133   2.106   1.428   3.381
 5745SOL    HW118134   2.176   1.476   3.327
 5745SOL    HW218135   2.139   1.414   3.474
 5746SOL     OW18136   5.126   0.245   1.923
 5746SOL    HW118137   5.143   0.278   2.016
 5746SOL    HW218138   5.213   0.235   1.875
 5747SOL     OW18139   1.567   5.399   1.840
 5747SOL    HW118140   1.485   5.355   1.878
 5747SOL    HW218141   1.542   5.448   1.757
 5748SOL     OW18142   1.178   0.563   0.947
 5748SOL    HW118143   1.193   0.594   0.853
 5748SOL    HW218144   1.122   0.480   0.945
 5749SOL     OW18145   1.196   6.437   5.007
 5749SOL    HW118146   1.144   6.363   5.050
 5749SOL    HW218147   1.185   6.431   4.907
 5750SOL     OW18148   6.556   6.479   4.829
 5750SOL    HW118149   6.619   6.554   4.811
 5750SOL    HW218150   6.607   6.394   4.841
 5751SOL     OW18151   2.280   2.979   4.586
 5751SOL    HW118152   2.371   2.945   4.561
 5751SOL    HW218153   2.250   2.936   4.671
 5752SOL     OW18154   5.615   0.527   0.183
 5752SOL    HW118155   5.530   0.483   0.157
 5752SOL    HW218156   5.595   0.612   0.232
 5753SOL     OW18157   3.565   4.054   4.296
 5753SOL    HW118158   3.486   4.085   4.348
 5753SOL    HW218159   3.646   4.056   4.354
 5754SOL     OW18160   0.395   5.558   2.469
 5754SOL    HW118161   0.450   5.497   2.527
 5754SOL    HW218162   0.447   5.642   2.451
 5755SOL     OW18163   2.180   2.179   6.887
 5755SOL    HW118164   2.200   2.117   6.963
 5755SOL    HW218165   2.104   2.239   6.911
 5756SOL     OW18166   6.456   0.260   3.403
 5756SOL    HW118167   6.535   0.227   3.455
 5756SOL    HW218168   6.388   0.300   3.465
 5757SOL     OW18169   0.508   5.674   2.773
 5757SOL    HW118170   0.587   5.735   2.769
 5757SOL    HW218171   0.439   5.705   2.708
 5758SOL     OW18172   2.496   1.346   4.102
 5758SOL    HW118173   2.589   1.382   4.117
 5758SOL    HW218174   2.469   1.290   4.180
 5759SOL     OW18175   4.957   1.257   6.697
 5759SOL    HW118176   4.928   1.308   6.616
 5759SOL    HW218177   5.036   1.200   6.674
 5760SOL     OW18178   6.728   3.240   0.725
 5760SOL    HW118179   6.744   3.220   0.822
 5760SOL    HW218180   6.633   3.269   0.712
 5761SOL     OW18181   5.800   4.936   6.083
 5761SOL    HW118182   5.783   4.969   5.990
 5761SOL    HW218183   5.809   4.837   6.082
 5762SOL     OW18184   4.830   4.259   0.814
 5762SOL    HW118185   4.877   4.183   0.769
 5762SOL    HW218186   4.799   4.231   0.905
 5763SOL     OW18187   6.461   6.137   0.584
 5763SOL    HW118188   6.521   6.062   0.612
 5763SOL    HW218189   6.400   6.162   0.659
 5764SOL     OW18190   5.027   4.794   5.445
 5764SOL    HW118191   5.118   4.824   5.416
 5764SOL    HW218192   4.971   4.874   5.466
 5765SOL     OW18193   6.336   3.010   0.854
 5765SOL    HW118194   6.418   2.976   0.901
 5765SOL    HW218195   6.257   2.957   0.881
 5766SOL     OW18196   1.519   1.671   5.897
 5766SOL    HW118197   1.619   1.675   5.906
 5766SOL    HW218198   1.478   1.741   5.955
 5767SOL     OW18199   1.817   0.656   0.662
 5767SOL    HW118200   1.836   0.587   0.592
 5767SOL    HW218201   1.891   0.658   0.729
 5768SOL     OW18202   1.488   5.888   4.122
 5768SOL    HW118203   1.408   5.937   4.087
 5768SOL    HW218204   1.516   5.928   4.210
 5769SOL     OW18205   2.521   5.758   4.701
 5769SOL    HW118206   2.568   5.769   4.789
 5769SOL    HW218207   2.588   5.762   4.627
 5770SOL     OW18208   6.410   5.876   6.743
 5770SOL    HW118209   6.312   5.896   6.749
 5770SOL    HW218210   6.440   5.890   6.649
 5771SOL     OW18211   1.356   0.032   4.028
 5771SOL    HW118212   1.338   6.950   4.022
 5771SOL    HW218213   1.399   0.052   4.116
 5772SOL     OW18214   5.067   1.551   1.820
 5772SOL    HW118215   5.107   1.602   1.744
 5772SOL    HW218216   5.021   1.613   1.882
 5773SOL     OW18217   4.063   0.373   3.077
 5773SOL    HW118218   4.051   0.469   3.103
 5773SOL    HW218219   4.037   0.314   3.154
 5774SOL     OW18220   2.969   6.263   3.807
 5774SOL    HW118221   3.039   6.260   3.736
 5774SOL    HW218222   2.977   6.348   3.858
 5775SOL     OW18223   1.753   0.785   2.485
 5775SOL    HW118224   1.707   0.696   2.475
 5775SOL    HW218225   1.804   0.787   2.571
 5776SOL     OW18226   0.135   0.684   4.135
 5776SOL    HW118227   0.062   0.747   4.162
 5776SOL    HW218228   0.099   0.615   4.073
 5777SOL     OW18229   0.182   0.601   4.918
 5777SOL    HW118230   0.128   0.533   4.868
 5777SOL    HW218231   0.123   0.679   4.942
 5778SOL     OW18232   1.510   1.099   1.312
 5778SOL    HW118233   1.605   1.090   1.280
 5778SOL    HW218234   1.456   1.023   1.276
 5779SOL     OW18235   4.414   2.891   0.561
 5779SOL    HW118236   4.441   2.816   0.622
 5779SOL    HW218237   4.396   2.973   0.615
 5780SOL     OW18238   6.171   5.851   3.911
 5780SOL    HW118239   6.098   5.903   3.955
 5780SOL    HW218240   6.239   5.825   3.980
 5781SOL     OW18241   6.669   4.615   4.401
 5781SOL    HW118242   6.666   4.537   4.464
 5781SOL    HW218243   6.595   4.607   4.335
 5782SOL     OW18244   1.481   1.426   0.148
 5782SOL    HW118245   1.526   1.515   0.146
 5782SOL    HW218246   1.487   1.384   0.057
 5783SOL     OW18247   1.839   0.313   1.511
 5783SOL    HW118248   1.929   0.356   1.522
 5783SOL    HW218249   1.843   0.218   1.542
 5784SOL     OW18250   6.990   5.688   6.813
 5784SOL    HW118251   0.018   5.777   6.826
 5784SOL    HW218252   6.891   5.698   6.823
 5785SOL     OW18253   2.576   1.720   0.834
 5785SOL    HW118254   2.604   1.811   0.865
 5785SOL    HW218255   2.649   1.679   0.780
 5786SOL     OW18256   0.896   3.439   0.575
 5786SOL    HW118257   0.833   3.384   0.630
 5786SOL    HW218258   0.869   3.435   0.479
 5787SOL     OW18259   3.827   1.779   4.926
 5787SOL    HW118260   3.740   1.739   4.955
 5787SOL    HW218261   3.823   1.878   4.940
 5788SOL     OW18262   3.000   1.595   1.125
 5788SOL    HW118263   2.978   1.606   1.222
 5788SOL    HW218264   2.998   1.498   1.101
 5789SOL     OW18265   2.877   4.438   6.926
 5789SOL    HW118266   2.925   4.492   6.857
 5789SOL    HW218267   2.900   4.473   0.001
 5790SOL     OW18268   0.883   4.594   4.797
 5790SOL    HW118269   0.852   4.688   4.782
 5790SOL    HW218270   0.816   4.530   4.759
 5791SOL     OW18271   3.159   0.973   2.787
 5791SOL    HW118272   3.215   1.055   2.782
 5791SOL    HW218273   3.117   0.955   2.698
 5792SOL     OW18274   6.028   3.246   2.812
 5792SOL    HW118275   5.993   3.161   2.850
 5792SOL    HW218276   6.001   3.254   2.716
 5793SOL     OW18277   5.201   0.776   3.617
 5793SOL    HW118278   5.195   0.734   3.707
 5793SOL    HW218279   5.129   0.739   3.558
 5794SOL     OW18280   2.624   1.142   6.877
 5794SOL    HW118281   2.536   1.128   6.922
 5794SOL    HW218282   2.676   1.057   6.877
 5795SOL     OW18283   6.556   7.013   6.744
 5795SOL    HW118284   6.520   6.953   6.815
 5795SOL    HW218285   6.482   0.053   6.707
 5796SOL     OW18286   5.037   1.267   5.932
 5796SOL    HW118287   5.128   1.228   5.944
 5796SOL    HW218288   4.969   1.208   5.975
 5797SOL     OW18289   4.630   2.470   7.015
 5797SOL    HW118290   4.720   2.508   0.024
 5797SOL    HW218291   4.606   2.398   0.064
 5798SOL     OW18292   0.809   5.454   4.711
 5798SOL    HW118293   0.711   5.462   4.726
 5798SOL    HW218294   0.855   5.445   4.800
 5799SOL     OW18295   0.446   0.452   3.828
 5799SOL    HW118296   0.491   0.380   3.776
 5799SOL    HW218297   0.387   0.411   3.898
 5800SOL     OW18298   6.617   6.334   1.884
 5800SOL    HW118299   6.647   6.430   1.882
 5800SOL    HW218300   6.622   6.299   1.977
 5801SOL     OW18301   1.574   2.665   3.207
 5801SOL    HW118302   1.585   2.574   3.167
 5801SOL    HW218303   1.541   2.729   3.137
 5802SOL     OW18304   0.624   3.802   2.320
 5802SOL    HW118305   0.599   3.760   2.408
 5802SOL    HW218306   0.544   3.805   2.261
 5803SOL     OW18307   2.473   5.457   1.456
 5803SOL    HW118308   2.496   5.554   1.466
 5803SOL    HW218309   2.438   5.422   1.543
 5804SOL     OW18310   0.680   5.750   3.654
 5804SOL    HW118311   0.584   5.775   3.648
 5804SOL    HW218312   0.690   5.666   3.708
 5805SOL     OW18313   2.419   3.229   0.648
 5805SOL    HW118314   2.475   3.293   0.596
 5805SOL    HW218315   2.326   3.228   0.612
 5806SOL     OW18316   6.806   5.041   5.058
 5806SOL    HW118317   6.883   5.059   5.120
 5806SOL    HW218318   6.831   5.069   4.965
 5807SOL     OW18319   1.061   3.547   0.898
 5807SOL    HW118320   0.971   3.587   0.880
 5807SOL    HW218321   1.115   3.612   0.953
 5808SOL     OW18322   6.157   5.590   4.314
 5808SOL    HW118323   6.124   5.634   4.397
 5808SOL    HW218324   6.080   5.573   4.252
 5809SOL     OW18325   6.425   2.334   4.494
 5809SOL    HW118326   6.513   2.301   4.528
 5809SOL    HW218327   6.352   2.274   4.526
 5810SOL     OW18328   4.181   1.321   4.737
 5810SOL    HW118329   4.238   1.240   4.722
 5810SOL    HW218330   4.205   1.363   4.824
 5811SOL     OW18331   3.194   0.728   5.296
 5811SOL    HW118332   3.261   0.769   5.234
 5811SOL    HW218333   3.106   0.774   5.285
 5812SOL     OW18334   6.100   2.937   4.716
 5812SOL    HW118335   6.195   2.909   4.703
 5812SOL    HW218336   6.098   3.022   4.769
 5813SOL     OW18337   1.824   1.572   0.858
 5813SOL    HW118338   1.849   1.646   0.921
 5813SOL    HW218339   1.888   1.496   0.871
 5814SOL     OW18340   6.404   4.133   2.175
 5814SOL    HW118341   6.368   4.222   2.202
 5814SOL    HW218342   6.375   4.112   2.082
 5815SOL     OW18343   4.099   1.509   4.509
 5815SOL    HW118344   4.098   1.459   4.596
 5815SOL    HW218345   4.193   1.526   4.481
 5816SOL     OW18346   4.774   4.940   0.342
 5816SOL    HW118347   4.733   4.854   0.371
 5816SOL    HW218348   4.847   4.922   0.275
 5817SOL     OW18349   5.726   4.160   5.741
 5817SOL    HW118350   5.729   4.243   5.685
 5817SOL    HW218351   5.768   4.084   5.690
 5818SOL     OW18352   7.005   5.698   5.312
 5818SOL    HW118353   6.916   5.661   5.340
 5818SOL    HW218354   6.994   5.793   5.283
 5819SOL     OW18355   3.467   6.960   6.523
 5819SOL    HW118356   3.484   0.036   6.557
 5819SOL    HW218357   3.542   6.900   6.549
 5820SOL     OW18358   4.571   5.500   3.437
 5820SOL    HW118359   4.527   5.443   3.367
 5820SOL    HW218360   4.550   5.464   3.527
 5821SOL     OW18361   0.004   0.016   1.243
 5821SOL    HW118362   6.996   0.016   1.146
 5821SOL    HW218363   0.025   0.109   1.273
 5822SOL     OW18364   1.547   2.934   1.201
 5822SOL    HW118365   1.461   2.883   1.202
 5822SOL    HW218366   1.623   2.871   1.215
 5823SOL     OW18367   2.301   0.562   5.297
 5823SOL    HW118368   2.381   0.621   5.307
 5823SOL    HW218369   2.303   0.518   5.207
 5824SOL     OW18370   0.025   5.651   2.184
 5824SOL    HW118371   0.037   5.616   2.277
 5824SOL    HW218372   6.988   5.736   2.187
 5825SOL     OW18373   6.634   1.647   5.331
 5825SOL    HW118374   6.617   1.574   5.265
 5825SOL    HW218375   6.718   1.626   5.382
 5826SOL     OW18376   0.129   4.883   6.140
 5826SOL    HW118377   0.164   4.958   6.085
 5826SOL    HW218378   0.126   4.910   6.236
 5827SOL     OW18379   1.941   4.160   4.615
 5827SOL    HW118380   1.906   4.148   4.522
 5827SOL    HW218381   2.040   4.166   4.612
 5828SOL     OW18382   6.311   1.566   1.600
 5828SOL    HW118383   6.371   1.612   1.666
 5828SOL    HW218384   6.352   1.479   1.573
 5829SOL     OW18385   1.053   0.226   3.336
 5829SOL    HW118386   1.083   0.314   3.300
 5829SOL    HW218387   0.953   0.225   3.341
 5830SOL     OW18388   5.147   6.667   5.714
 5830SOL    HW118389   5.122   6.694   5.807
 5830SOL    HW218390   5.069   6.685   5.653
 5831SOL     OW18391   1.374   1.631   5.501
 5831SOL    HW118392   1.339   1.722   5.525
 5831SOL    HW218393   1.405   1.632   5.406
 5832SOL     OW18394   2.800   4.738   6.616
 5832SOL    HW118395   2.869   4.736   6.688
 5832SOL    HW218396   2.715   4.699   6.652
 5833SOL     OW18397   3.909   3.918   5.256
 5833SOL    HW118398   3.962   3.934   5.340
 5833SOL    HW218399   3.812   3.917   5.278
 5834SOL     OW18400   6.819   2.870   0.809
 5834SOL    HW118401   6.881   2.883   0.733
 5834SOL    HW218402   6.858   2.804   0.873
 5835SOL     OW18403   5.511   3.084   3.272
 5835SOL    HW118404   5.533   2.987   3.261
 5835SOL    HW218405   5.574   3.140   3.219
 5836SOL     OW18406   2.648   6.703   1.498
 5836SOL    HW118407   2.716   6.766   1.534
 5836SOL    HW218408   2.617   6.735   1.408
 5837SOL     OW18409   3.605   4.155   6.657
 5837SOL    HW118410   3.632   4.067   6.617
 5837SOL    HW218411   3.506   4.168   6.645
 5838SOL     OW18412   3.226   1.886   0.819
 5838SOL    HW118413   3.311   1.881   0.767
 5838SOL    HW218414   3.241   1.943   0.900
 5839SOL     OW18415   0.794   1.999   2.596
 5839SOL    HW118416   0.869   1.933   2.591
 5839SOL    HW218417   0.773   2.018   2.691
 5840SOL     OW18418   0.712   5.181   6.497
 5840SOL    HW118419   0.669   5.095   6.523
 5840SOL    HW218420   0.728   5.237   6.578
 5841SOL     OW18421   5.264   1.956   2.332
 5841SOL    HW118422   5.215   1.951   2.419
 5841SOL    HW218423   5.322   2.037   2.330
 5842SOL     OW18424   4.820   3.175   1.508
 5842SOL    HW118425   4.893   3.116   1.475
 5842SOL    HW218426   4.860   3.255   1.553
 5843SOL     OW18427   1.202   3.814   3.039
 5843SOL    HW118428   1.117   3.779   3.001
 5843SOL    HW218429   1.196   3.815   3.139
 5844SOL     OW18430   2.161   6.049   5.956
 5844SOL    HW118431   2.179   6.143   5.928
 5844SOL    HW218432   2.235   5.990   5.926
 5845SOL     OW18433   0.686   0.286   2.854
 5845SOL    HW118434   0.629   0.302   2.935
 5845SOL    HW218435   0.665   0.356   2.785
 5846SOL     OW18436   6.292   2.682   5.256
 5846SOL    HW118437   6.238   2.598   5.260
 5846SOL    HW218438   6.388   2.660   5.241
 5847SOL     OW18439   3.009   2.256   1.706
 5847SOL    HW118440   2.980   2.310   1.785
 5847SOL    HW218441   3.015   2.315   1.626
 5848SOL     OW18442   1.428   5.653   3.165
 5848SOL    HW118443   1.524   5.670   3.190
 5848SOL    HW218444   1.407   5.556   3.179
 5849SOL     OW18445   0.738   0.833   5.718
 5849SOL    HW118446   0.677   0.894   5.769
 5849SOL    HW218447   0.762   0.755   5.775
 5850SOL     OW18448   6.546   3.718   1.644
 5850SOL    HW118449   6.569   3.790   1.710
 5850SOL    HW218450   6.593   3.735   1.558
 5851SOL     OW18451   4.904   3.800   2.838
 5851SOL    HW118452   5.001   3.818   2.820
 5851SOL    HW218453   4.891   3.702   2.854
 5852SOL     OW18454   5.822   6.211   3.629
 5852SOL    HW118455   5.760   6.268   3.575
 5852SOL    HW218456   5.850   6.261   3.711
 5853SOL     OW18457   3.413   5.282   5.013
 5853SOL    HW118458   3.463   5.231   5.083
 5853SOL    HW218459   3.415   5.232   4.927
 5854SOL     OW18460   4.785   4.555   6.117
 5854SOL    HW118461   4.787   4.615   6.196
 5854SOL    HW218462   4.869   4.500   6.114
 5855SOL     OW18463   0.894   1.859   4.935
 5855SOL    HW118464   0.945   1.818   4.859
 5855SOL    HW218465   0.817   1.799   4.959
 5856SOL     OW18466   1.860   5.821   3.899
 5856SOL    HW118467   1.781   5.784   3.948
 5856SOL    HW218468   1.914   5.877   3.962
 5857SOL     OW18469   6.030   2.451   6.038
 5857SOL    HW118470   6.087   2.376   6.006
 5857SOL    HW218471   6.068   2.538   6.006
 5858SOL     OW18472   2.899   1.760   2.319
 5858SOL    HW118473   2.843   1.684   2.351
 5858SOL    HW218474   2.943   1.736   2.233
 5859SOL     OW18475   6.209   6.198   1.693
 5859SOL    HW118476   6.142   6.140   1.738
 5859SOL    HW218477   6.207   6.182   1.594
 5860SOL     OW18478   0.214   3.164   2.036
 5860SOL    HW118479   0.267   3.097   1.984
 5860SOL    HW218480   0.117   3.142   2.029
 5861SOL     OW18481   4.581   1.466   4.455
 5861SOL    HW118482   4.505   1.532   4.454
 5861SOL    HW218483   4.610   1.447   4.361
 5862SOL     OW18484   6.515   5.330   1.268
 5862SOL    HW118485   6.423   5.321   1.229
 5862SOL    HW218486   6.582   5.336   1.195
 5863SOL     OW18487   3.441   2.052   5.293
 5863SOL    HW118488   3.397   2.002   5.367
 5863SOL    HW218489   3.443   2.150   5.316
 5864SOL     OW18490   3.980   3.930   1.960
 5864SOL    HW118491   3.958   3.838   1.925
 5864SOL    HW218492   3.902   3.966   2.011
 5865SOL     OW18493   6.227   0.426   4.666
 5865SOL    HW118494   6.295   0.426   4.593
 5865SOL    HW218495   6.150   0.485   4.641
 5866SOL     OW18496   3.866   4.406   7.005
 5866SOL    HW118497   3.944   4.348   6.980
 5866SOL    HW218498   3.782   4.365   6.970
 5867SOL     OW18499   2.125   3.438   0.734
 5867SOL    HW118500   2.218   3.473   0.726
 5867SOL    HW218501   2.121   3.369   0.805
 5868SOL     OW18502   0.937   1.764   5.405
 5868SOL    HW118503   0.957   1.822   5.327
 5868SOL    HW218504   0.849   1.791   5.445
 5869SOL     OW18505   1.854   6.213   3.680
 5869SOL    HW118506   1.895   6.137   3.630
 5869SOL    HW218507   1.789   6.261   3.621
 5870SOL     OW18508   4.491   6.206   4.563
 5870SOL    HW118509   4.571   6.264   4.548
 5870SOL    HW218510   4.424   6.255   4.618
 5871SOL     OW18511   3.611   3.118   1.544
 5871SOL    HW118512   3.520   3.080   1.524
 5871SOL    HW218513   3.644   3.081   1.631
 5872SOL     OW18514   4.232   5.857   1.277
 5872SOL    HW118515   4.190   5.918   1.343
 5872SOL    HW218516   4.199   5.878   1.185
 5873SOL     OW18517   3.133   1.747   1.660
 5873SOL    HW118518   3.140   1.843   1.634
 5873SOL    HW218519   3.182   1.691   1.594
 5874SOL     OW18520   3.354   4.172   6.584
 5874SOL    HW118521   3.292   4.202   6.656
 5874SOL    HW218522   3.340   4.074   6.566
 5875SOL     OW18523   4.503   1.131   6.754
 5875SOL    HW118524   4.423   1.114   6.811
 5875SOL    HW218525   4.531   1.046   6.710
 5876SOL     OW18526   3.726   3.388   0.561
 5876SOL    HW118527   3.654   3.422   0.500
 5876SOL    HW218528   3.800   3.455   0.567
 5877SOL     OW18529   0.379   0.552   1.003
 5877SOL    HW118530   0.454   0.596   0.953
 5877SOL    HW218531   0.292   0.587   0.969
 5878SOL     OW18532   6.016   5.097   4.240
 5878SOL    HW118533   5.988   5.169   4.304
 5878SOL    HW218534   5.937   5.043   4.214
 5879SOL     OW18535   1.733   4.255   6.842
 5879SOL    HW118536   1.819   4.225   6.801
 5879SOL    HW218537   1.733   4.233   6.940
 5880SOL     OW18538   5.258   4.828   6.554
 5880SOL    HW118539   5.326   4.761   6.585
 5880SOL    HW218540   5.195   4.785   6.490
 5881SOL     OW18541   0.823   6.890   2.463
 5881SOL    HW118542   0.876   6.806   2.475
 5881SOL    HW218543   0.794   6.898   2.367
 5882SOL     OW18544   0.398   5.631   6.992
 5882SOL    HW118545   0.460   5.702   6.960
 5882SOL    HW218546   0.330   5.611   6.922
 5883SOL     OW18547   0.292   1.595   6.514
 5883SOL    HW118548   0.389   1.598   6.541
 5883SOL    HW218549   0.282   1.534   6.435
 5884SOL     OW18550   4.654   0.995   4.133
 5884SOL    HW118551   4.604   1.070   4.091
 5884SOL    HW218552   4.600   0.911   4.128
 5885SOL     OW18553   0.263   5.898   2.351
 5885SOL    HW118554   0.309   5.859   2.271
 5885SOL    HW218555   0.258   5.997   2.342
 5886SOL     OW18556   0.672   2.228   3.685
 5886SOL    HW118557   0.644   2.317   3.721
 5886SOL    HW218558   0.645   2.157   3.750
 5887SOL     OW18559   2.601   2.116   1.824
 5887SOL    HW118560   2.601   2.214   1.804
 5887SOL    HW218561   2.585   2.102   1.922
 5888SOL     OW18562   1.720   0.483   1.180
 5888SOL    HW118563   1.768   0.569   1.195
 5888SOL    HW218564   1.675   0.453   1.264
 5889SOL     OW18565   0.083   0.920   0.386
 5889SOL    HW118566   0.141   0.987   0.433
 5889SOL    HW218567   0.112   0.827   0.411
 5890SOL     OW18568   2.299   1.193   2.878
 5890SOL    HW118569   2.352   1.196   2.963
 5890SOL    HW218570   2.205   1.168   2.899
 5891SOL     OW18571   3.077   3.592   0.167
 5891SOL    HW118572   3.031   3.638   0.091
 5891SOL    HW218573   3.149   3.651   0.203
 5892SOL     OW18574   1.130   4.730   2.242
 5892SOL    HW118575   1.141   4.652   2.180
 5892SOL    HW218576   1.047   4.781   2.217
 5893SOL     OW18577   1.698   3.967   3.361
 5893SOL    HW118578   1.655   4.055   3.341
 5893SOL    HW218579   1.696   3.950   3.460
 5894SOL     OW18580   0.444   5.795   4.383
 5894SOL    HW118581   0.398   5.872   4.340
 5894SOL    HW218582   0.539   5.790   4.350
 5895SOL     OW18583   4.965   3.284   3.912
 5895SOL    HW118584   5.052   3.317   3.949
 5895SOL    HW218585   4.948   3.328   3.824
 5896SOL     OW18586   3.544   1.096   1.471
 5896SOL    HW118587   3.588   1.113   1.382
 5896SOL    HW218588   3.458   1.047   1.457
 5897SOL     OW18589   4.214   0.043   1.616
 5897SOL    HW118590   4.164   0.082   1.539
 5897SOL    HW218591   4.312   0.045   1.596
 5898SOL     OW18592   2.693   0.369   4.872
 5898SOL    HW118593   2.643   0.384   4.957
 5898SOL    HW218594   2.764   0.439   4.862
 5899SOL     OW18595   6.757   5.072   6.664
 5899SOL    HW118596   6.799   5.136   6.729
 5899SOL    HW218597   6.789   5.092   6.572
 5900SOL     OW18598   6.198   5.353   3.426
 5900SOL    HW118599   6.287   5.368   3.384
 5900SOL    HW218600   6.205   5.278   3.492
 5901SOL     OW18601   2.786   0.713   0.520
 5901SOL    HW118602   2.874   0.756   0.538
 5901SOL    HW218603   2.722   0.736   0.593
 5902SOL     OW18604   6.031   2.442   5.702
 5902SOL    HW118605   5.964   2.502   5.747
 5902SOL    HW218606   6.073   2.383   5.771
 5903SOL     OW18607   4.625   3.811   6.664
 5903SOL    HW118608   4.684   3.745   6.618
 5903SOL    HW218609   4.681   3.874   6.718
 5904SOL     OW18610   1.395   4.903   0.834
 5904SOL    HW118611   1.488   4.875   0.810
 5904SOL    HW218612   1.342   4.822   0.860
 5905SOL     OW18613   6.097   0.654   4.248
 5905SOL    HW118614   6.030   0.580   4.254
 5905SOL    HW218615   6.162   0.645   4.324
 5906SOL     OW18616   3.923   1.964   3.644
 5906SOL    HW118617   3.906   1.865   3.643
 5906SOL    HW218618   3.960   1.993   3.556
 5907SOL     OW18619   0.925   5.964   0.433
 5907SOL    HW118620   0.985   5.891   0.468
 5907SOL    HW218621   0.949   6.050   0.477
 5908SOL     OW18622   6.679   3.288   0.304
 5908SOL    HW118623   6.763   3.341   0.320
 5908SOL    HW218624   6.607   3.322   0.364
 5909SOL     OW18625   6.781   4.955   0.394
 5909SOL    HW118626   6.704   4.920   0.342
 5909SOL    HW218627   6.750   4.986   0.484
 5910SOL     OW18628   0.387   4.227   3.119
 5910SOL    HW118629   0.290   4.252   3.115
 5910SOL    HW218630   0.406   4.182   3.206
 5911SOL     OW18631   6.838   4.983   5.964
 5911SOL    HW118632   6.870   4.889   5.960
 5911SOL    HW218633   6.778   4.996   6.043
 5912SOL     OW18634   5.762   3.088   6.670
 5912SOL    HW118635   5.785   2.991   6.683
 5912SOL    HW218636   5.846   3.142   6.668
 5913SOL     OW18637   4.740   2.896   6.449
 5913SOL    HW118638   4.659   2.927   6.399
 5913SOL    HW218639   4.763   2.803   6.421
 5914SOL     OW18640   1.711   5.279   6.723
 5914SOL    HW118641   1.728   5.280   6.822
 5914SOL    HW218642   1.771   5.347   6.679
 5915SOL     OW18643   5.292   5.245   1.376
 5915SOL    HW118644   5.203   5.255   1.333
 5915SOL    HW218645   5.330   5.336   1.396
 5916SOL     OW18646   3.960   5.277   5.042
 5916SOL    HW118647   3.965   5.185   5.080
 5916SOL    HW218648   3.864   5.303   5.028
 5917SOL     OW18649   3.378   3.262   3.814
 5917SOL    HW118650   3.393   3.215   3.727
 5917SOL    HW218651   3.358   3.195   3.885
 5918SOL     OW18652   1.823   3.419   5.481
 5918SOL    HW118653   1.724   3.413   5.491
 5918SOL    HW218654   1.847   3.500   5.427
 5919SOL     OW18655   3.959   3.289   1.372
 5919SOL    HW118656   3.981   3.373   1.321
 5919SOL    HW218657   3.985   3.300   1.467
 5920SOL     OW18658   4.056   0.466   6.767
 5920SOL    HW118659   4.084   0.457   6.671
 5920SOL    HW218660   4.137   0.461   6.825
 5921SOL     OW18661   4.031   5.611   5.865
 5921SOL    HW118662   4.055   5.522   5.827
 5921SOL    HW218663   4.112   5.651   5.909
 5922SOL     OW18664   6.656   5.337   3.045
 5922SOL    HW118665   6.573   5.388   3.066
 5922SOL    HW218666   6.653   5.304   2.951
 5923SOL     OW18667   5.248   0.971   1.454
 5923SOL    HW118668   5.259   0.881   1.413
 5923SOL    HW218669   5.326   0.989   1.515
 5924SOL     OW18670   0.097   1.226   3.647
 5924SOL    HW118671   0.131   1.285   3.574
 5924SOL    HW218672   0.051   1.147   3.607
 5925SOL     OW18673   3.773   5.631   1.750
 5925SOL    HW118674   3.823   5.548   1.772
 5925SOL    HW218675   3.679   5.623   1.781
 5926SOL     OW18676   4.032   5.522   1.436
 5926SOL    HW118677   4.053   5.513   1.533
 5926SOL    HW218678   3.977   5.604   1.421
 5927SOL     OW18679   1.124   4.010   2.543
 5927SOL    HW118680   1.220   4.037   2.549
 5927SOL    HW218681   1.073   4.078   2.491
 5928SOL     OW18682   3.445   0.224   0.733
 5928SOL    HW118683   3.470   0.173   0.651
 5928SOL    HW218684   3.526   0.242   0.789
 5929SOL     OW18685   0.507   6.944   6.439
 5929SOL    HW118686   0.491   6.887   6.520
 5929SOL    HW218687   0.571   6.897   6.378
 5930SOL     OW18688   6.719   2.617   3.565
 5930SOL    HW118689   6.649   2.649   3.501
 5930SOL    HW218690   6.753   2.528   3.535
 5931SOL     OW18691   6.832   5.584   3.537
 5931SOL    HW118692   6.867   5.544   3.453
 5931SOL    HW218693   6.750   5.638   3.517
 5932SOL     OW18694   2.123   6.865   0.662
 5932SOL    HW118695   2.057   6.920   0.612
 5932SOL    HW218696   2.183   6.818   0.598
 5933SOL     OW18697   0.237   6.539   3.549
 5933SOL    HW118698   0.257   6.460   3.492
 5933SOL    HW218699   0.183   6.510   3.628
 5934SOL     OW18700   4.026   3.304   4.047
 5934SOL    HW118701   4.083   3.264   4.119
 5934SOL    HW218702   3.981   3.385   4.082
 5935SOL     OW18703   4.774   4.149   6.184
 5935SOL    HW118704   4.711   4.215   6.142
 5935SOL    HW218705   4.859   4.195   6.207
 5936SOL     OW18706   3.661   3.332   0.810
 5936SOL    HW118707   3.716   3.364   0.734
 5936SOL    HW218708   3.594   3.403   0.835
 5937SOL     OW18709   0.856   4.453   2.848
 5937SOL    HW118710   0.912   4.474   2.928
 5937SOL    HW218711   0.762   4.484   2.864
 5938SOL     OW18712   0.780   5.200   3.783
 5938SOL    HW118713   0.716   5.185   3.859
 5938SOL    HW218714   0.740   5.165   3.698
 5939SOL     OW18715   2.846   6.603   3.255
 5939SOL    HW118716   2.758   6.596   3.303
 5939SOL    HW218717   2.915   6.551   3.305
 5940SOL     OW18718   4.542   5.597   0.678
 5940SOL    HW118719   4.443   5.611   0.686
 5940SOL    HW218720   4.590   5.682   0.699
 5941SOL     OW18721   5.686   3.539   1.833
 5941SOL    HW118722   5.700   3.498   1.742
 5941SOL    HW218723   5.752   3.613   1.846
 5942SOL     OW18724   4.984   3.149   0.725
 5942SOL    HW118725   4.889   3.135   0.751
 5942SOL    HW218726   4.990   3.162   0.626
 5943SOL     OW18727   3.580   5.220   0.573
 5943SOL    HW118728   3.513   5.293   0.586
 5943SOL    HW218729   3.666   5.258   0.541
 5944SOL     OW18730   6.450   2.813   1.733
 5944SOL    HW118731   6.384   2.738   1.729
 5944SOL    HW218732   6.431   2.878   1.660
 5945SOL     OW18733   6.233   5.234   5.521
 5945SOL    HW118734   6.218   5.137   5.538
 5945SOL    HW218735   6.301   5.270   5.585
 5946SOL     OW18736   3.502   3.431   6.077
 5946SOL    HW118737   3.472   3.375   6.000
 5946SOL    HW218738   3.540   3.372   6.148
 5947SOL     OW18739   3.908   3.714   1.775
 5947SOL    HW118740   3.841   3.780   1.743
 5947SOL    HW218741   3.943   3.661   1.698
 5948SOL     OW18742   4.502   5.064   3.424
 5948SOL    HW118743   4.433   5.007   3.380
 5948SOL    HW218744   4.482   5.160   3.405
 5949SOL     OW18745   4.662   3.738   1.632
 5949SOL    HW118746   4.639   3.825   1.676
 5949SOL    HW218747   4.752   3.708   1.662
 5950SOL     OW18748   4.514   2.228   5.665
 5950SOL    HW118749   4.469   2.301   5.613
 5950SOL    HW218750   4.557   2.164   5.602
 5951SOL     OW18751   0.654   5.732   4.218
 5951SOL    HW118752   0.751   5.726   4.196
 5951SOL    HW218753   0.606   5.650   4.186
 5952SOL     OW18754   5.688   4.505   4.137
 5952SOL    HW118755   5.786   4.492   4.149
 5952SOL    HW218756   5.657   4.454   4.057
 5953SOL     OW18757   6.335   3.019   5.448
 5953SOL    HW118758   6.262   3.017   5.517
 5953SOL    HW218759   6.391   2.937   5.456
 5954SOL     OW18760   0.818   4.178   5.648
 5954SOL    HW118761   0.903   4.125   5.635
 5954SOL    HW218762   0.830   4.242   5.723
 5955SOL     OW18763   5.403   6.193   2.615
 5955SOL    HW118764   5.404   6.098   2.648
 5955SOL    HW218765   5.309   6.226   2.612
 5956SOL     OW18766   4.693   0.903   6.025
 5956SOL    HW118767   4.595   0.920   6.031
 5956SOL    HW218768   4.733   0.962   5.955
 5957SOL     OW18769   4.095   0.793   5.430
 5957SOL    HW118770   4.110   0.696   5.446
 5957SOL    HW218771   4.081   0.809   5.332
 5958SOL     OW18772   6.103   6.551   3.053
 5958SOL    HW118773   6.127   6.623   3.119
 5958SOL    HW218774   6.173   6.547   2.981
 5959SOL     OW18775   4.094   2.289   5.413
 5959SOL    HW118776   4.002   2.326   5.406
 5959SOL    HW218777   4.143   2.334   5.487
 5960SOL     OW18778   3.676   5.432   4.798
 5960SOL    HW118779   3.689   5.333   4.791
 5960SOL    HW218780   3.709   5.476   4.715
 5961SOL     OW18781   5.403   1.325   2.941
 5961SOL    HW118782   5.383   1.397   2.875
 5961SOL    HW218783   5.328   1.317   3.006
 5962SOL     OW18784   5.162   6.399   0.700
 5962SOL    HW118785   5.076   6.375   0.746
 5962SOL    HW218786   5.232   6.420   0.768
 5963SOL     OW18787   3.598   3.544   5.160
 5963SOL    HW118788   3.647   3.619   5.116
 5963SOL    HW218789   3.609   3.551   5.259
 5964SOL     OW18790   0.223   5.570   5.409
 5964SOL    HW118791   0.153   5.631   5.371
 5964SOL    HW218792   0.285   5.622   5.468
 5965SOL     OW18793   0.848   2.148   0.151
 5965SOL    HW118794   0.802   2.150   0.062
 5965SOL    HW218795   0.946   2.137   0.137
 5966SOL     OW18796   2.766   6.192   5.875
 5966SOL    HW118797   2.730   6.101   5.896
 5966SOL    HW218798   2.815   6.190   5.788
 5967SOL     OW18799   4.202   6.796   0.103
 5967SOL    HW118800   4.220   6.768   0.198
 5967SOL    HW218801   4.271   6.756   0.043
 5968SOL     OW18802   4.566   1.200   1.472
 5968SOL    HW118803   4.612   1.212   1.560
 5968SOL    HW218804   4.498   1.273   1.460
 5969SOL     OW18805   0.333   6.816   6.595
 5969SOL    HW118806   0.339   6.832   6.694
 5969SOL    HW218807   0.287   6.893   6.552
 5970SOL     OW18808   0.542   4.733   2.590
 5970SOL    HW118809   0.518   4.651   2.538
 5970SOL    HW218810   0.633   4.763   2.564
 5971SOL     OW18811   1.294   0.929   2.341
 5971SOL    HW118812   1.290   0.902   2.437
 5971SOL    HW218813   1.206   0.914   2.298
 5972SOL     OW18814   5.247   5.459   0.191
 5972SOL    HW118815   5.251   5.372   0.240
 5972SOL    HW218816   5.239   5.442   0.093
 5973SOL     OW18817   2.077   3.398   2.491
 5973SOL    HW118818   2.135   3.324   2.457
 5973SOL    HW218819   1.984   3.387   2.455
 5974SOL     OW18820   5.749   5.077   6.460
 5974SOL    HW118821   5.693   5.015   6.405
 5974SOL    HW218822   5.843   5.074   6.428
 5975SOL     OW18823   3.504   1.307   0.388
 5975SOL    HW118824   3.424   1.360   0.416
 5975SOL    HW218825   3.556   1.358   0.319
 5976SOL     OW18826   2.922   3.123   5.153
 5976SOL    HW118827   3.012   3.166   5.143
 5976SOL    HW218828   2.862   3.155   5.079
 5977SOL     OW18829   2.660   5.569   7.001
 5977SOL    HW118830   2.592   5.498   0.002
 5977SOL    HW218831   2.751   5.535   0.010
 5978SOL     OW18832   5.537   5.759   2.880
 5978SOL    HW118833   5.552   5.666   2.849
 5978SOL    HW218834   5.625   5.803   2.898
 5979SOL     OW18835   5.382   0.676   2.816
 5979SOL    HW118836   5.403   0.588   2.773
 5979SOL    HW218837   5.392   0.749   2.750
 5980SOL     OW18838   3.761   3.818   0.735
 5980SOL    HW118839   3.760   3.853   0.641
 5980SOL    HW218840   3.770   3.893   0.799
 5981SOL     OW18841   5.933   1.904   0.999
 5981SOL    HW118842   5.850   1.855   1.027
 5981SOL    HW218843   6.000   1.902   1.072
 5982SOL     OW18844   6.572   3.439   2.135
 5982SOL    HW118845   6.606   3.411   2.045
 5982SOL    HW218846   6.492   3.498   2.123
 5983SOL     OW18847   1.132   1.751   4.276
 5983SOL    HW118848   1.083   1.667   4.253
 5983SOL    HW218849   1.229   1.739   4.255
 5984SOL     OW18850   6.707   5.587   4.297
 5984SOL    HW118851   6.651   5.568   4.378
 5984SOL    HW218852   6.698   5.513   4.232
 5985SOL     OW18853   0.062   3.085   4.175
 5985SOL    HW118854   0.150   3.132   4.187
 5985SOL    HW218855   7.004   3.152   4.184
 5986SOL     OW18856   3.365   3.598   5.036
 5986SOL    HW118857   3.391   3.622   4.942
 5986SOL    HW218858   3.445   3.563   5.084
 5987SOL     OW18859   4.551   0.323   4.367
 5987SOL    HW118860   4.532   0.330   4.269
 5987SOL    HW218861   4.513   0.402   4.415
 5988SOL     OW18862   5.087   0.043   5.456
 5988SOL    HW118863   5.045   0.057   5.546
 5988SOL    HW218864   5.015   0.035   5.387
 5989SOL     OW18865   2.787   6.325   6.905
 5989SOL    HW118866   2.715   6.258   6.885
 5989SOL    HW218867   2.874   6.278   6.917
 5990SOL     OW18868   3.792   4.474   0.246
 5990SOL    HW118869   3.709   4.513   0.205
 5990SOL    HW218870   3.851   4.438   0.173
 5991SOL     OW18871   3.250   4.881   6.959
 5991SOL    HW118872   3.292   4.792   6.979
 5991SOL    HW218873   3.306   4.954   6.997
 5992SOL     OW18874   3.354   0.311   3.021
 5992SOL    HW118875   3.266   0.358   3.017
 5992SOL    HW218876   3.356   0.237   2.954
 5993SOL     OW18877   2.887   6.354   6.622
 5993SOL    HW118878   2.919   6.287   6.690
 5993SOL    HW218879   2.846   6.305   6.545
 5994SOL     OW18880   6.178   2.423   2.220
 5994SOL    HW118881   6.250   2.354   2.210
 5994SOL    HW218882   6.174   2.480   2.138
 5995SOL     OW18883   5.264   4.870   3.360
 5995SOL    HW118884   5.168   4.847   3.375
 5995SOL    HW218885   5.322   4.807   3.411
 5996SOL     OW18886   1.040   6.661   0.720
 5996SOL    HW118887   1.038   6.633   0.816
 5996SOL    HW218888   0.965   6.617   0.670
 5997SOL     OW18889   1.029   5.532   2.398
 5997SOL    HW118890   0.936   5.501   2.376
 5997SOL    HW218891   1.030   5.573   2.489
 5998SOL     OW18892   5.904   1.812   2.711
 5998SOL    HW118893   5.995   1.782   2.741
 5998SOL    HW218894   5.911   1.903   2.670
 5999SOL     OW18895   1.647   1.563   2.458
 5999SOL    HW118896   1.568   1.616   2.428
 5999SOL    HW218897   1.616   1.480   2.505
 6000SOL     OW18898   4.259   6.635   1.171
 6000SOL    HW118899   4.276   6.563   1.104
 6000SOL    HW218900   4.162   6.634   1.197
 6001SOL     OW18901   0.740   3.828   0.031
 6001SOL    HW118902   0.656   3.839   0.085
 6001SOL    HW218903   0.810   3.891   0.065
 6002SOL     OW18904   5.955   0.186   0.981
 6002SOL    HW118905   5.960   0.223   1.074
 6002SOL    HW218906   5.955   0.086   0.985
 6003SOL     OW18907   6.611   2.212   4.015
 6003SOL    HW118908   6.651   2.173   4.099
 6003SOL    HW218909   6.541   2.279   4.040
 6004SOL     OW18910   0.567   3.744   2.984
 6004SOL    HW118911   0.608   3.832   2.960
 6004SOL    HW218912   0.574   3.682   2.907
 6005SOL     OW18913   5.149   5.504   4.693
 6005SOL    HW118914   5.128   5.417   4.738
 6005SOL    HW218915   5.247   5.523   4.701
 6006SOL     OW18916   3.293   0.829   6.178
 6006SOL    HW118917   3.219   0.808   6.241
 6006SOL    HW218918   3.309   0.928   6.176
 6007SOL     OW18919   4.988   3.557   5.264
 6007SOL    HW118920   4.920   3.562   5.191
 6007SOL    HW218921   4.959   3.490   5.332
 6008SOL     OW18922   1.979   4.731   5.470
 6008SOL    HW118923   2.020   4.664   5.408
 6008SOL    HW218924   2.004   4.709   5.564
 6009SOL     OW18925   3.647   0.354   3.891
 6009SOL    HW118926   3.728   0.373   3.836
 6009SOL    HW218927   3.668   0.282   3.958
 6010SOL     OW18928   1.376   4.357   4.025
 6010SOL    HW118929   1.356   4.454   4.037
 6010SOL    HW218930   1.317   4.303   4.085
 6011SOL     OW18931   5.033   3.278   2.470
 6011SOL    HW118932   5.042   3.181   2.493
 6011SOL    HW218933   5.097   3.331   2.524
 6012SOL     OW18934   5.575   1.372   0.078
 6012SOL    HW118935   5.573   1.466   0.112
 6012SOL    HW218936   5.484   1.347   0.044
 6013SOL     OW18937   5.249   2.137   3.496
 6013SOL    HW118938   5.224   2.190   3.415
 6013SOL    HW218939   5.167   2.112   3.547
 6014SOL     OW18940   3.942   3.695   1.106
 6014SOL    HW118941   4.030   3.730   1.074
 6014SOL    HW218942   3.911   3.622   1.044
 6015SOL     OW18943   5.367   2.668   4.152
 6015SOL    HW118944   5.449   2.624   4.116
 6015SOL    HW218945   5.364   2.763   4.121
 6016SOL     OW18946   6.092   1.857   5.909
 6016SOL    HW118947   6.006   1.906   5.914
 6016SOL    HW218948   6.077   1.760   5.931
 6017SOL     OW18949   6.918   4.113   2.666
 6017SOL    HW118950   6.898   4.156   2.754
 6017SOL    HW218951   6.906   4.014   2.674
 6018SOL     OW18952   3.162   0.441   6.283
 6018SOL    HW118953   3.099   0.498   6.335
 6018SOL    HW218954   3.135   0.442   6.186
 6019SOL     OW18955   6.489   2.068   4.310
 6019SOL    HW118956   6.420   2.112   4.252
 6019SOL    HW218957   6.579   2.105   4.289
 6020SOL     OW18958   1.728   4.643   1.116
 6020SOL    HW118959   1.793   4.607   1.183
 6020SOL    HW218960   1.641   4.595   1.125
 6021SOL     OW18961   4.704   0.762   2.473
 6021SOL    HW118962   4.665   0.689   2.530
 6021SOL    HW218963   4.767   0.817   2.529
 6022SOL     OW18964   4.188   2.280   3.880
 6022SOL    HW118965   4.225   2.308   3.969
 6022SOL    HW218966   4.250   2.311   3.808
 6023SOL     OW18967   6.739   0.151   2.325
 6023SOL    HW118968   6.651   0.110   2.350
 6023SOL    HW218969   6.778   0.099   2.249
 6024SOL     OW18970   1.036   4.803   3.237
 6024SOL    HW118971   1.016   4.742   3.313
 6024SOL    HW218972   0.952   4.824   3.187
 6025SOL     OW18973   3.648   1.349   2.672
 6025SOL    HW118974   3.589   1.387   2.600
 6025SOL    HW218975   3.723   1.412   2.691
 6026SOL     OW18976   0.221   4.111   5.268
 6026SOL    HW118977   0.275   4.054   5.206
 6026SOL    HW218978   0.280   4.149   5.339
 6027SOL     OW18979   1.502   4.158   6.463
 6027SOL    HW118980   1.434   4.165   6.391
 6027SOL    HW218981   1.586   4.204   6.435
 6028SOL     OW18982   0.579   5.082   6.848
 6028SOL    HW118983   0.645   5.157   6.841
 6028SOL    HW218984   0.549   5.056   6.756
 6029SOL     OW18985   2.277   6.006   5.229
 6029SOL    HW118986   2.229   5.951   5.297
 6029SOL    HW218987   2.367   6.031   5.264
 6030SOL     OW18988   3.914   6.041   3.077
 6030SOL    HW118989   3.885   6.136   3.086
 6030SOL    HW218990   3.960   6.028   2.989
 6031SOL     OW18991   3.516   5.340   3.230
 6031SOL    HW118992   3.444   5.298   3.175
 6031SOL    HW218993   3.514   5.301   3.322
 6032SOL     OW18994   2.445   4.672   3.186
 6032SOL    HW118995   2.456   4.688   3.284
 6032SOL    HW218996   2.382   4.739   3.147
 6033SOL     OW18997   3.130   1.401   2.557
 6033SOL    HW118998   3.230   1.397   2.556
 6033SOL    HW218999   3.098   1.433   2.467
 6034SOL     OW19000   0.859   5.141   4.913
 6034SOL    HW119001   0.871   5.239   4.899
 6034SOL    HW219002   0.797   5.125   4.989
 6035SOL     OW19003   6.872   0.794   2.453
 6035SOL    HW119004   6.901   0.812   2.359
 6035SOL    HW219005   6.899   0.701   2.480
 6036SOL     OW19006   6.325   5.784   4.182
 6036SOL    HW119007   6.297   5.869   4.226
 6036SOL    HW219008   6.307   5.707   4.243
 6037SOL     OW19009   4.424   4.743   6.115
 6037SOL    HW119010   4.421   4.746   6.215
 6037SOL    HW219011   4.517   4.767   6.084
 6038SOL     OW19012   1.640   2.527   5.923
 6038SOL    HW119013   1.724   2.547   5.973
 6038SOL    HW219014   1.585   2.610   5.916
 6039SOL     OW19015   3.133   3.554   2.540
 6039SOL    HW119016   3.081   3.574   2.623
 6039SOL    HW219017   3.173   3.463   2.547
 6040SOL     OW19018   0.907   1.951   6.524
 6040SOL    HW119019   0.813   1.960   6.491
 6040SOL    HW219020   0.922   2.014   6.600
 6041SOL     OW19021   2.302   0.435   5.033
 6041SOL    HW119022   2.311   0.498   4.956
 6041SOL    HW219023   2.224   0.374   5.017
 6042SOL     OW19024   5.506   5.725   1.710
 6042SOL    HW119025   5.574   5.680   1.768
 6042SOL    HW219026   5.498   5.821   1.735
 6043SOL     OW19027   0.860   4.367   5.815
 6043SOL    HW119028   0.803   4.447   5.794
 6043SOL    HW219029   0.948   4.398   5.852
 6044SOL     OW19030   1.462   1.708   1.751
 6044SOL    HW119031   1.433   1.693   1.846
 6044SOL    HW219032   1.389   1.755   1.701
 6045SOL     OW19033   6.668   4.749   1.829
 6045SOL    HW119034   6.576   4.786   1.813
 6045SOL    HW219035   6.695   4.765   1.924
 6046SOL     OW19036   4.335   1.887   0.258
 6046SOL    HW119037   4.427   1.914   0.229
 6046SOL    HW219038   4.281   1.968   0.278
 6047SOL     OW19039   5.455   2.384   2.062
 6047SOL    HW119040   5.441   2.325   1.983
 6047SOL    HW219041   5.372   2.437   2.080
 6048SOL     OW19042   5.052   5.759   4.616
 6048SOL    HW119043   5.074   5.662   4.631
 6048SOL    HW219044   4.966   5.766   4.566
 6049SOL     OW19045   5.712   3.446   6.104
 6049SOL    HW119046   5.700   3.405   6.194
 6049SOL    HW219047   5.778   3.520   6.109
 6050SOL     OW19048   3.060   5.518   4.454
 6050SOL    HW119049   3.008   5.567   4.383
 6050SOL    HW219050   3.052   5.566   4.541
 6051SOL     OW19051   2.600   0.984   4.239
 6051SOL    HW119052   2.535   1.054   4.268
 6051SOL    HW219053   2.597   0.976   4.139
 6052SOL     OW19054   6.025   0.055   0.489
 6052SOL    HW119055   5.926   0.067   0.491
 6052SOL    HW219056   6.065   0.089   0.574
 6053SOL     OW19057   4.244   1.093   6.219
 6053SOL    HW119058   4.300   1.042   6.154
 6053SOL    HW219059   4.295   1.106   6.304
 6054SOL     OW19060   3.080   3.617   0.773
 6054SOL    HW119061   2.981   3.610   0.778
 6054SOL    HW219062   3.122   3.542   0.824
 6055SOL     OW19063   4.905   0.894   5.557
 6055SOL    HW119064   4.830   0.960   5.548
 6055SOL    HW219065   4.970   0.908   5.482
 6056SOL     OW19066   4.977   2.682   4.625
 6056SOL    HW119067   5.012   2.762   4.576
 6056SOL    HW219068   5.047   2.610   4.626
 6057SOL     OW19069   4.823   2.571   4.074
 6057SOL    HW119070   4.872   2.488   4.047
 6057SOL    HW219071   4.889   2.646   4.085
 6058SOL     OW19072   4.869   2.953   1.199
 6058SOL    HW119073   4.816   3.034   1.172
 6058SOL    HW219074   4.958   2.956   1.153
 6059SOL     OW19075   5.223   5.051   5.226
 6059SOL    HW119076   5.202   5.148   5.235
 6059SOL    HW219077   5.318   5.041   5.198
 6060SOL     OW19078   2.732   3.980   6.586
 6060SOL    HW119079   2.831   3.968   6.590
 6060SOL    HW219080   2.698   3.951   6.497
 6061SOL     OW19081   3.756   2.271   1.233
 6061SOL    HW119082   3.830   2.276   1.299
 6061SOL    HW219083   3.718   2.178   1.232
 6062SOL     OW19084   2.075   1.412   5.207
 6062SOL    HW119085   2.050   1.504   5.180
 6062SOL    HW219086   2.051   1.348   5.134
 6063SOL     OW19087   3.956   1.550   6.407
 6063SOL    HW119088   3.919   1.624   6.463
 6063SOL    HW219089   3.959   1.580   6.311
 6064SOL     OW19090   1.628   5.877   1.147
 6064SOL    HW119091   1.636   5.859   1.049
 6064SOL    HW219092   1.585   5.800   1.193
 6065SOL     OW19093   6.330   0.023   1.906
 6065SOL    HW119094   6.311   0.078   1.987
 6065SOL    HW219095   6.369   6.951   1.934
 6066SOL     OW19096   4.809   2.020   6.137
 6066SOL    HW119097   4.876   2.068   6.194
 6066SOL    HW219098   4.729   2.078   6.124
 6067SOL     OW19099   5.332   1.718   6.190
 6067SOL    HW119100   5.332   1.746   6.094
 6067SOL    HW219101   5.324   1.799   6.249
 6068SOL     OW19102   5.848   2.813   4.789
 6068SOL    HW119103   5.816   2.759   4.712
 6068SOL    HW219104   5.936   2.855   4.767
 6069SOL     OW19105   6.692   2.966   5.031
 6069SOL    HW119106   6.744   2.985   4.948
 6069SOL    HW219107   6.689   2.867   5.047
 6070SOL     OW19108   2.367   2.406   0.538
 6070SOL    HW119109   2.331   2.498   0.524
 6070SOL    HW219110   2.336   2.372   0.627
 6071SOL     OW19111   6.363   5.307   4.605
 6071SOL    HW119112   6.377   5.265   4.695
 6071SOL    HW219113   6.281   5.365   4.607
 6072SOL     OW19114   0.369   0.088   1.775
 6072SOL    HW119115   0.453   0.138   1.758
 6072SOL    HW219116   0.291   0.139   1.738
 6073SOL     OW19117   6.480   4.169   0.239
 6073SOL    HW119118   6.497   4.075   0.269
 6073SOL    HW219119   6.568   4.214   0.221
 6074SOL     OW19120   1.145   5.909   4.254
 6074SOL    HW119121   1.186   5.949   4.172
 6074SOL    HW219122   1.086   5.976   4.298
 6075SOL     OW19123   6.531   1.356   6.402
 6075SOL    HW119124   6.533   1.264   6.442
 6075SOL    HW219125   6.525   1.424   6.475
 6076SOL     OW19126   2.100   5.681   4.538
 6076SOL    HW119127   2.135   5.653   4.628
 6076SOL    HW219128   2.053   5.604   4.496
 6077SOL     OW19129   5.727   6.021   1.634
 6077SOL    HW119130   5.824   6.034   1.654
 6077SOL    HW219131   5.716   6.001   1.537
 6078SOL     OW19132   3.464   5.482   1.209
 6078SOL    HW119133   3.527   5.529   1.271
 6078SOL    HW219134   3.390   5.441   1.262
 6079SOL     OW19135   3.968   2.943   6.532
 6079SOL    HW119136   3.948   2.845   6.537
 6079SOL    HW219137   3.888   2.994   6.560
 6080SOL     OW19138   0.053   1.058   1.792
 6080SOL    HW119139   6.974   1.073   1.820
 6080SOL    HW219140   0.061   0.967   1.751
 6081SOL     OW19141   6.438   3.123   5.709
 6081SOL    HW119142   6.422   3.124   5.611
 6081SOL    HW219143   6.459   3.030   5.739
 6082SOL     OW19144   2.074   1.944   3.493
 6082SOL    HW119145   2.143   1.913   3.559
 6082SOL    HW219146   2.119   1.972   3.408
 6083SOL     OW19147   0.431   4.641   6.987
 6083SOL    HW119148   0.361   4.569   6.988
 6083SOL    HW219149   0.475   4.644   0.061
 6084SOL     OW19150   0.412   5.886   3.156
 6084SOL    HW119151   0.399   5.978   3.118
 6084SOL    HW219152   0.342   5.825   3.119
 6085SOL     OW19153   0.789   4.355   0.330
 6085SOL    HW119154   0.724   4.285   0.359
 6085SOL    HW219155   0.841   4.322   0.252
 6086SOL     OW19156   3.571   1.165   5.903
 6086SOL    HW119157   3.611   1.105   5.833
 6086SOL    HW219158   3.644   1.207   5.957
 6087SOL     OW19159   3.873   5.900   0.739
 6087SOL    HW119160   3.848   5.941   0.651
 6087SOL    HW219161   3.931   5.820   0.723
 6088SOL     OW19162   5.851   5.901   4.390
 6088SOL    HW119163   5.875   5.986   4.343
 6088SOL    HW219164   5.788   5.848   4.334
 6089SOL     OW19165   6.393   3.422   1.050
 6089SOL    HW119166   6.336   3.349   1.011
 6089SOL    HW219167   6.357   3.510   1.022
 6090SOL     OW19168   2.644   6.209   5.489
 6090SOL    HW119169   2.655   6.227   5.587
 6090SOL    HW219170   2.585   6.279   5.449
 6091SOL     OW19171   1.733   1.601   1.799
 6091SOL    HW119172   1.749   1.640   1.890
 6091SOL    HW219173   1.644   1.631   1.765
 6092SOL     OW19174   3.468   6.745   2.851
 6092SOL    HW119175   3.556   6.792   2.840
 6092SOL    HW219176   3.394   6.810   2.836
 6093SOL     OW19177   1.619   2.839   2.981
 6093SOL    HW119178   1.652   2.908   2.917
 6093SOL    HW219179   1.677   2.757   2.975
 6094SOL     OW19180   3.821   0.864   1.403
 6094SOL    HW119181   3.729   0.847   1.366
 6094SOL    HW219182   3.823   0.953   1.447
 6095SOL     OW19183   4.950   3.388   6.976
 6095SOL    HW119184   5.037   3.403   0.007
 6095SOL    HW219185   4.952   3.432   6.886
 6096SOL     OW19186   5.865   0.589   3.542
 6096SOL    HW119187   5.944   0.549   3.495
 6096SOL    HW219188   5.806   0.635   3.476
 6097SOL     OW19189   1.967   6.990   2.158
 6097SOL    HW119190   1.899   6.937   2.107
 6097SOL    HW219191   2.053   6.991   2.108
 6098SOL     OW19192   1.352   2.905   6.293
 6098SOL    HW119193   1.360   2.806   6.294
 6098SOL    HW219194   1.301   2.934   6.212
 6099SOL     OW19195   6.690   5.887   0.729
 6099SOL    HW119196   6.658   5.850   0.642
 6099SOL    HW219197   6.767   5.833   0.761
 6100SOL     OW19198   4.577   3.476   0.434
 6100SOL    HW119199   4.541   3.463   0.342
 6100SOL    HW219200   4.593   3.573   0.450
 6101SOL     OW19201   5.820   1.924   4.180
 6101SOL    HW119202   5.856   1.838   4.145
 6101SOL    HW219203   5.721   1.917   4.189
 6102SOL     OW19204   3.306   6.511   3.303
 6102SOL    HW119205   3.396   6.473   3.324
 6102SOL    HW219206   3.316   6.586   3.237
 6103SOL     OW19207   6.995   2.541   2.517
 6103SOL    HW119208   6.904   2.527   2.555
 6103SOL    HW219209   0.044   2.478   2.561
 6104SOL     OW19210   6.059   1.338   5.517
 6104SOL    HW119211   5.989   1.410   5.524
 6104SOL    HW219212   6.058   1.300   5.425
 6105SOL     OW19213   1.708   0.347   5.876
 6105SOL    HW119214   1.806   0.329   5.885
 6105SOL    HW219215   1.657   0.262   5.892
 6106SOL     OW19216   2.228   3.933   5.372
 6106SOL    HW119217   2.296   3.937   5.298
 6106SOL    HW219218   2.156   3.868   5.347
 6107SOL     OW19219   2.331   4.465   4.770
 6107SOL    HW119220   2.242   4.504   4.748
 6107SOL    HW219221   2.321   4.398   4.844
 6108SOL     OW19222   0.312   2.717   2.001
 6108SOL    HW119223   0.275   2.643   1.945
 6108SOL    HW219224   0.313   2.801   1.948
 6109SOL     OW19225   5.259   2.949   6.128
 6109SOL    HW119226   5.256   3.005   6.210
 6109SOL    HW219227   5.220   3.001   6.051
 6110SOL     OW19228   4.097   3.277   0.190
 6110SOL    HW119229   4.011   3.242   0.228
 6110SOL    HW219230   4.093   3.377   0.185
 6111SOL     OW19231   2.281   4.061   2.213
 6111SOL    HW119232   2.260   3.974   2.258
 6111SOL    HW219233   2.341   4.044   2.135
 6112SOL     OW19234   3.244   6.907   2.873
 6112SOL    HW119235   3.169   6.924   2.937
 6112SOL    HW219236   3.268   6.991   2.826
 6113SOL     OW19237   1.567   1.520   6.202
 6113SOL    HW119238   1.574   1.484   6.295
 6113SOL    HW219239   1.653   1.564   6.177
 6114SOL     OW19240   5.037   5.304   1.010
 6114SOL    HW119241   4.955   5.323   0.956
 6114SOL    HW219242   5.011   5.283   1.104
 6115SOL     OW19243   4.723   6.865   3.626
 6115SOL    HW119244   4.742   6.957   3.592
 6115SOL    HW219245   4.783   6.846   3.704
 6116SOL     OW19246   2.705   6.955   0.725
 6116SOL    HW119247   2.752   6.935   0.639
 6116SOL    HW219248   2.620   6.902   0.729
 6117SOL     OW19249   0.456   0.736   5.657
 6117SOL    HW119250   0.540   0.709   5.609
 6117SOL    HW219251   0.442   0.675   5.735
 6118SOL     OW19252   6.145   0.391   1.893
 6118SOL    HW119253   6.139   0.371   1.796
 6118SOL    HW219254   6.111   0.484   1.910
 6119SOL     OW19255   1.485   3.750   5.572
 6119SOL    HW119256   1.448   3.696   5.497
 6119SOL    HW219257   1.423   3.745   5.650
 6120SOL     OW19258   3.760   6.962   4.071
 6120SOL    HW119259   3.791   6.874   4.107
 6120SOL    HW219260   3.675   6.949   4.020
 6121SOL     OW19261   0.978   3.147   5.191
 6121SOL    HW119262   0.906   3.185   5.133
 6121SOL    HW219263   1.034   3.084   5.136
 6122SOL     OW19264   3.962   6.901   1.621
 6122SOL    HW119265   4.060   6.886   1.610
 6122SOL    HW219266   3.937   6.888   1.717
 6123SOL     OW19267   6.344   0.120   6.607
 6123SOL    HW119268   6.332   0.172   6.523
 6123SOL    HW219269   6.269   0.055   6.617
 6124SOL     OW19270   2.257   0.994   6.736
 6124SOL    HW119271   2.288   1.033   6.823
 6124SOL    HW219272   2.157   0.992   6.734
 6125SOL     OW19273   1.234   5.764   0.000
 6125SOL    HW119274   1.325   5.790   6.986
 6125SOL    HW219275   1.227   5.775   0.099
 6126SOL     OW19276   0.203   6.780   4.460
 6126SOL    HW119277   0.163   6.719   4.392
 6126SOL    HW219278   0.189   6.875   4.432
 6127SOL     OW19279   3.691   6.820   2.082
 6127SOL    HW119280   3.617   6.754   2.103
 6127SOL    HW219281   3.658   6.913   2.099
 6128SOL     OW19282   6.899   3.226   6.915
 6128SOL    HW119283   6.825   3.217   6.982
 6128SOL    HW219284   6.987   3.224   6.963
 6129SOL     OW19285   6.738   3.821   2.913
 6129SOL    HW119286   6.737   3.893   2.982
 6129SOL    HW219287   6.733   3.731   2.958
 6130SOL     OW19288   6.326   2.250   3.744
 6130SOL    HW119289   6.393   2.324   3.744
 6130SOL    HW219290   6.295   2.233   3.650
 6131SOL     OW19291   6.737   1.313   5.392
 6131SOL    HW119292   6.742   1.213   5.398
 6131SOL    HW219293   6.719   1.340   5.298
 6132SOL     OW19294   4.823   1.444   0.738
 6132SOL    HW119295   4.788   1.499   0.662
 6132SOL    HW219296   4.747   1.409   0.792
 6133SOL     OW19297   0.847   2.159   2.270
 6133SOL    HW119298   0.934   2.111   2.273
 6133SOL    HW219299   0.820   2.186   2.362
 6134SOL     OW19300   3.649   4.520   6.454
 6134SOL    HW119301   3.656   4.616   6.428
 6134SOL    HW219302   3.739   4.476   6.447
 6135SOL     OW19303   0.207   0.044   2.128
 6135SOL    HW119304   0.243   0.128   2.088
 6135SOL    HW219305   0.139   0.005   2.066
 6136SOL     OW19306   0.789   2.195   2.809
 6136SOL    HW119307   0.888   2.191   2.796
 6136SOL    HW219308   0.763   2.137   2.886
 6137SOL     OW19309   5.797   2.714   3.735
 6137SOL    HW119310   5.817   2.763   3.820
 6137SOL    HW219311   5.749   2.776   3.672
 6138SOL     OW19312   5.090   6.177   2.545
 6138SOL    HW119313   5.056   6.145   2.634
 6138SOL    HW219314   5.016   6.220   2.494
 6139SOL     OW19315   1.698   1.851   5.664
 6139SOL    HW119316   1.619   1.895   5.706
 6139SOL    HW219317   1.755   1.810   5.736
 6140SOL     OW19318   0.591   6.639   1.800
 6140SOL    HW119319   0.518   6.679   1.744
 6140SOL    HW219320   0.667   6.704   1.807
 6141SOL     OW19321   6.520   5.446   6.294
 6141SOL    HW119322   6.489   5.368   6.347
 6141SOL    HW219323   6.511   5.530   6.349
 6142SOL     OW19324   0.551   5.514   0.818
 6142SOL    HW119325   0.579   5.610   0.812
 6142SOL    HW219326   0.539   5.477   0.726
 6143SOL     OW19327   7.001   4.085   0.856
 6143SOL    HW119328   6.922   4.025   0.843
 6143SOL    HW219329   0.043   4.081   0.774
 6144SOL     OW19330   6.537   4.467   3.314
 6144SOL    HW119331   6.438   4.472   3.298
 6144SOL    HW219332   6.584   4.526   3.248
 6145SOL     OW19333   4.486   5.398   3.665
 6145SOL    HW119334   4.394   5.421   3.634
 6145SOL    HW219335   4.483   5.310   3.714
 6146SOL     OW19336   3.278   6.820   3.993
 6146SOL    HW119337   3.203   6.861   4.044
 6146SOL    HW219338   3.242   6.775   3.911
 6147SOL     OW19339   1.503   3.430   4.669
 6147SOL    HW119340   1.455   3.472   4.593
 6147SOL    HW219341   1.497   3.489   4.750
 6148SOL     OW19342   0.032   0.528   4.501
 6148SOL    HW119343   0.089   0.590   4.448
 6148SOL    HW219344   0.034   0.436   4.460
 6149SOL     OW19345   3.303   5.322   1.363
 6149SOL    HW119346   3.227   5.290   1.306
 6149SOL    HW219347   3.267   5.356   1.449
 6150SOL     OW19348   4.481   4.869   6.680
 6150SOL    HW119349   4.513   4.805   6.750
 6150SOL    HW219350   4.389   4.900   6.703
 6151SOL     OW19351   5.807   4.394   5.595
 6151SOL    HW119352   5.907   4.402   5.587
 6151SOL    HW219353   5.763   4.456   5.531
 6152SOL     OW19354   6.386   5.843   4.910
 6152SOL    HW119355   6.326   5.776   4.953
 6152SOL    HW219356   6.339   5.930   4.901
 6153SOL     OW19357   5.277   4.068   1.736
 6153SOL    HW119358   5.321   4.133   1.798
 6153SOL    HW219359   5.181   4.093   1.723
 6154SOL     OW19360   5.574   1.972   2.624
 6154SOL    HW119361   5.619   2.061   2.610
 6154SOL    HW219362   5.559   1.929   2.535
 6155SOL     OW19363   1.997   2.441   4.446
 6155SOL    HW119364   1.972   2.387   4.365
 6155SOL    HW219365   1.976   2.388   4.528
 6156SOL     OW19366   4.236   4.862   1.694
 6156SOL    HW119367   4.319   4.818   1.659
 6156SOL    HW219368   4.201   4.926   1.626
 6157SOL     OW19369   1.037   1.147   4.696
 6157SOL    HW119370   1.086   1.191   4.621
 6157SOL    HW219371   1.077   1.058   4.715
 6158SOL     OW19372   4.401   0.930   6.035
 6158SOL    HW119373   4.366   0.842   6.068
 6158SOL    HW219374   4.345   0.963   5.960
 6159SOL     OW19375   5.029   2.177   1.454
 6159SOL    HW119376   4.941   2.132   1.471
 6159SOL    HW219377   5.102   2.122   1.494
 6160SOL     OW19378   5.078   0.458   6.254
 6160SOL    HW119379   5.126   0.524   6.196
 6160SOL    HW219380   5.080   0.368   6.210
 6161SOL     OW19381   5.167   1.366   4.447
 6161SOL    HW119382   5.128   1.446   4.491
 6161SOL    HW219383   5.266   1.375   4.443
 6162SOL     OW19384   1.492   6.467   3.655
 6162SOL    HW119385   1.543   6.522   3.721
 6162SOL    HW219386   1.427   6.526   3.606
 6163SOL     OW19387   6.250   6.137   1.419
 6163SOL    HW119388   6.346   6.109   1.409
 6163SOL    HW219389   6.191   6.057   1.404
 6164SOL     OW19390   3.298   2.678   1.793
 6164SOL    HW119391   3.324   2.665   1.697
 6164SOL    HW219392   3.283   2.588   1.835
 6165SOL     OW19393   5.032   0.787   6.615
 6165SOL    HW119394   5.061   0.691   6.612
 6165SOL    HW219395   4.933   0.792   6.630
 6166SOL     OW19396   4.605   1.153   6.176
 6166SOL    HW119397   4.577   1.240   6.134
 6166SOL    HW219398   4.545   1.132   6.253
 6167SOL     OW19399   0.608   3.971   3.717
 6167SOL    HW119400   0.518   3.934   3.697
 6167SOL    HW219401   0.672   3.896   3.735
 6168SOL     OW19402   0.713   3.319   0.714
 6168SOL    HW119403   0.696   3.221   0.725
 6168SOL    HW219404   0.743   3.358   0.802
 6169SOL     OW19405   1.838   2.797   1.337
 6169SOL    HW119406   1.792   2.874   1.381
 6169SOL    HW219407   1.906   2.832   1.273
 6170SOL     OW19408   1.041   3.606   4.938
 6170SOL    HW119409   1.121   3.549   4.961
 6170SOL    HW219410   1.054   3.698   4.975
 6171SOL     OW19411   0.553   2.826   0.599
 6171SOL    HW119412   0.504   2.786   0.522
 6171SOL    HW219413   0.495   2.821   0.681
 6172SOL     OW19414   2.318   2.789   2.184
 6172SOL    HW119415   2.228   2.833   2.186
 6172SOL    HW219416   2.346   2.774   2.090
 6173SOL     OW19417   0.619   5.465   2.658
 6173SOL    HW119418   0.579   5.373   2.661
 6173SOL    HW219419   0.566   5.526   2.716
 6174SOL     OW19420   5.088   5.636   4.051
 6174SOL    HW119421   5.112   5.694   3.973
 6174SOL    HW219422   5.029   5.561   4.021
 6175SOL     OW19423   3.769   0.454   3.587
 6175SOL    HW119424   3.685   0.402   3.568
 6175SOL    HW219425   3.847   0.392   3.589
 6176SOL     OW19426   5.029   4.511   5.255
 6176SOL    HW119427   4.935   4.484   5.232
 6176SOL    HW219428   5.055   4.590   5.199
 6177SOL     OW19429   5.961   1.402   1.667
 6177SOL    HW119430   5.894   1.380   1.738
 6177SOL    HW219431   5.976   1.322   1.609
 6178SOL     OW19432   5.156   4.644   1.961
 6178SOL    HW119433   5.104   4.633   1.877
 6178SOL    HW219434   5.246   4.683   1.939
 6179SOL     OW19435   6.416   4.516   3.797
 6179SOL    HW119436   6.332   4.468   3.822
 6179SOL    HW219437   6.403   4.563   3.710
 6180SOL     OW19438   2.350   4.774   0.296
 6180SOL    HW119439   2.397   4.702   0.347
 6180SOL    HW219440   2.255   4.745   0.279
 6181SOL     OW19441   4.816   6.580   6.019
 6181SOL    HW119442   4.888   6.630   5.971
 6181SOL    HW219443   4.736   6.572   5.960
 6182SOL     OW19444   4.608   2.878   5.467
 6182SOL    HW119445   4.675   2.822   5.418
 6182SOL    HW219446   4.574   2.828   5.546
 6183SOL     OW19447   1.188   2.330   3.827
 6183SOL    HW119448   1.263   2.390   3.799
 6183SOL    HW219449   1.210   2.236   3.801
 6184SOL     OW19450   2.983   6.134   6.785
 6184SOL    HW119451   3.064   6.144   6.727
 6184SOL    HW219452   2.978   6.042   6.822
 6185SOL     OW19453   6.952   4.017   6.445
 6185SOL    HW119454   6.863   3.977   6.469
 6185SOL    HW219455   6.945   4.060   6.355
 6186SOL     OW19456   6.566   0.925   0.561
 6186SOL    HW119457   6.570   0.974   0.648
 6186SOL    HW219458   6.519   0.982   0.493
 6187SOL     OW19459   5.370   4.242   4.431
 6187SOL    HW119460   5.468   4.256   4.444
 6187SOL    HW219461   5.354   4.147   4.401
 6188SOL     OW19462   1.558   1.266   6.069
 6188SOL    HW119463   1.472   1.252   6.019
 6188SOL    HW219464   1.549   1.347   6.127
 6189SOL     OW19465   4.407   5.063   2.235
 6189SOL    HW119466   4.408   5.011   2.150
 6189SOL    HW219467   4.456   5.011   2.306
 6190SOL     OW19468   0.621   3.708   5.825
 6190SOL    HW119469   0.621   3.613   5.794
 6190SOL    HW219470   0.551   3.759   5.773
 6191SOL     OW19471   2.654   2.565   6.692
 6191SOL    HW119472   2.594   2.600   6.620
 6191SOL    HW219473   2.723   2.634   6.713
 6192SOL     OW19474   2.920   2.169   6.101
 6192SOL    HW119475   3.007   2.214   6.084
 6192SOL    HW219476   2.898   2.108   6.025
 6193SOL     OW19477   5.062   5.984   1.299
 6193SOL    HW119478   5.130   5.989   1.372
 6193SOL    HW219479   5.002   5.906   1.315
 6194SOL     OW19480   0.237   0.872   6.582
 6194SOL    HW119481   0.169   0.841   6.516
 6194SOL    HW219482   0.210   0.961   6.619
 6195SOL     OW19483   4.343   5.555   4.445
 6195SOL    HW119484   4.378   5.647   4.465
 6195SOL    HW219485   4.259   5.562   4.392
 6196SOL     OW19486   5.665   4.243   1.448
 6196SOL    HW119487   5.601   4.169   1.427
 6196SOL    HW219488   5.739   4.243   1.381
 6197SOL     OW19489   2.786   5.801   1.347
 6197SOL    HW119490   2.808   5.763   1.257
 6197SOL    HW219491   2.800   5.900   1.345
 6198SOL     OW19492   3.966   6.778   0.950
 6198SOL    HW119493   4.025   6.700   0.933
 6198SOL    HW219494   3.954   6.831   0.866
 6199SOL     OW19495   0.578   0.891   0.262
 6199SOL    HW119496   0.628   0.946   0.195
 6199SOL    HW219497   0.482   0.883   0.233
 6200SOL     OW19498   1.147   1.397   5.748
 6200SOL    HW119499   1.233   1.439   5.776
 6200SOL    HW219500   1.100   1.456   5.682
 6201SOL     OW19501   1.100   3.643   5.874
 6201SOL    HW119502   1.040   3.706   5.823
 6201SOL    HW219503   1.194   3.677   5.870
 6202SOL     OW19504   4.797   1.597   1.569
 6202SOL    HW119505   4.711   1.617   1.524
 6202SOL    HW219506   4.854   1.540   1.509
 6203SOL     OW19507   6.317   5.842   1.980
 6203SOL    HW119508   6.410   5.858   1.948
 6203SOL    HW219509   6.309   5.747   2.011
 6204SOL     OW19510   0.731   5.804   4.535
 6204SOL    HW119511   0.669   5.725   4.535
 6204SOL    HW219512   0.823   5.775   4.561
 6205SOL     OW19513   6.388   5.528   1.429
 6205SOL    HW119514   6.466   5.479   1.388
 6205SOL    HW219515   6.385   5.621   1.393
 6206SOL     OW19516   6.640   1.692   2.160
 6206SOL    HW119517   6.682   1.657   2.077
 6206SOL    HW219518   6.589   1.620   2.206
 6207SOL     OW19519   1.704   5.577   5.235
 6207SOL    HW119520   1.607   5.559   5.252
 6207SOL    HW219521   1.732   5.531   5.150
 6208SOL     OW19522   3.869   2.456   5.334
 6208SOL    HW119523   3.938   2.475   5.264
 6208SOL    HW219524   3.830   2.542   5.366
 6209SOL     OW19525   3.213   5.515   6.843
 6209SOL    HW119526   3.187   5.588   6.905
 6209SOL    HW219527   3.195   5.544   6.749
 6210SOL     OW19528   4.883   3.907   3.114
 6210SOL    HW119529   4.811   3.926   3.048
 6210SOL    HW219530   4.966   3.878   3.066
 6211SOL     OW19531   2.672   6.480   6.031
 6211SOL    HW119532   2.712   6.404   5.980
 6211SOL    HW219533   2.648   6.554   5.967
 6212SOL     OW19534   3.001   4.944   4.605
 6212SOL    HW119535   2.958   5.003   4.673
 6212SOL    HW219536   3.098   4.932   4.628
 6213SOL     OW19537   4.999   0.090   0.000
 6213SOL    HW119538   4.937   0.058   0.071
 6213SOL    HW219539   5.061   0.016   6.991
 6214SOL     OW19540   5.821   5.738   5.542
 6214SOL    HW119541   5.834   5.736   5.442
 6214SOL    HW219542   5.733   5.697   5.565
 6215SOL     OW19543   4.060   2.663   0.087
 6215SOL    HW119544   3.972   2.667   0.136
 6215SOL    HW219545   4.050   2.704   7.013
 6216SOL     OW19546   5.821   2.571   2.792
 6216SOL    HW119547   5.824   2.512   2.873
 6216SOL    HW219548   5.733   2.561   2.746
 6217SOL     OW19549   0.787   3.533   2.448
 6217SOL    HW119550   0.712   3.535   2.381
 6217SOL    HW219551   0.837   3.619   2.444
 6218SOL     OW19552   3.876   6.698   6.745
 6218SOL    HW119553   3.909   6.633   6.676
 6218SOL    HW219554   3.954   6.749   6.782
 6219SOL     OW19555   1.053   1.784   4.725
 6219SOL    HW119556   1.002   1.716   4.673
 6219SOL    HW219557   1.070   1.865   4.668
 6220SOL     OW19558   2.930   1.844   5.274
 6220SOL    HW119559   2.879   1.925   5.303
 6220SOL    HW219560   2.906   1.822   5.180
 6221SOL     OW19561   5.387   0.451   6.820
 6221SOL    HW119562   5.373   0.456   6.919
 6221SOL    HW219563   5.484   0.449   6.800
 6222SOL     OW19564   1.123   0.283   2.105
 6222SOL    HW119565   1.035   0.329   2.101
 6222SOL    HW219566   1.163   0.277   2.014
 6223SOL     OW19567   1.149   5.027   3.346
 6223SOL    HW119568   1.168   5.036   3.444
 6223SOL    HW219569   1.113   4.936   3.328
 6224SOL     OW19570   4.430   1.633   5.756
 6224SOL    HW119571   4.479   1.678   5.830
 6224SOL    HW219572   4.332   1.645   5.768
 6225SOL     OW19573   3.675   2.375   6.346
 6225SOL    HW119574   3.733   2.298   6.373
 6225SOL    HW219575   3.652   2.367   6.249
 6226SOL     OW19576   0.868   1.627   3.989
 6226SOL    HW119577   0.867   1.541   3.938
 6226SOL    HW219578   0.946   1.682   3.961
 6227SOL     OW19579   3.732   5.082   5.472
 6227SOL    HW119580   3.740   5.048   5.566
 6227SOL    HW219581   3.681   5.016   5.417
 6228SOL     OW19582   0.182   3.014   2.343
 6228SOL    HW119583   0.101   3.051   2.299
 6228SOL    HW219584   0.264   3.057   2.304
 6229SOL     OW19585   0.869   2.047   5.302
 6229SOL    HW119586   0.906   1.988   5.231
 6229SOL    HW219587   0.789   2.095   5.268
 6230SOL     OW19588   0.592   2.308   4.081
 6230SOL    HW119589   0.616   2.295   3.984
 6230SOL    HW219590   0.675   2.314   4.136
 6231SOL     OW19591   5.908   5.224   0.131
 6231SOL    HW119592   5.836   5.179   0.184
 6231SOL    HW219593   5.961   5.156   0.081
 6232SOL     OW19594   6.648   1.569   0.640
 6232SOL    HW119595   6.652   1.470   0.658
 6232SOL    HW219596   6.703   1.617   0.708
 6233SOL     OW19597   6.030   2.890   1.721
 6233SOL    HW119598   5.937   2.920   1.700
 6233SOL    HW219599   6.090   2.970   1.729
 6234SOL     OW19600   6.797   7.009   5.418
 6234SOL    HW119601   6.886   0.032   5.394
 6234SOL    HW219602   6.811   6.933   5.482
 6235SOL     OW19603   0.344   0.517   1.271
 6235SOL    HW119604   0.261   0.556   1.310
 6235SOL    HW219605   0.352   0.545   1.175
 6236SOL     OW19606   0.649   4.258   0.832
 6236SOL    HW119607   0.632   4.340   0.778
 6236SOL    HW219608   0.704   4.194   0.778
 6237SOL     OW19609   2.984   0.188   6.949
 6237SOL    HW119610   3.064   0.189   7.008
 6237SOL    HW219611   2.931   0.105   6.966
 6238SOL     OW19612   4.970   6.204   2.801
 6238SOL    HW119613   4.938   6.172   2.890
 6238SOL    HW219614   5.057   6.252   2.812
 6239SOL     OW19615   3.327   1.346   1.221
 6239SOL    HW119616   3.234   1.327   1.190
 6239SOL    HW219617   3.388   1.271   1.197
 6240SOL     OW19618   2.873   3.667   4.870
 6240SOL    HW119619   2.938   3.596   4.843
 6240SOL    HW219620   2.801   3.626   4.927
 6241SOL     OW19621   3.345   0.665   3.141
 6241SOL    HW119622   3.431   0.624   3.112
 6241SOL    HW219623   3.308   0.722   3.067
 6242SOL     OW19624   3.451   6.706   3.121
 6242SOL    HW119625   3.413   6.725   3.030
 6242SOL    HW219626   3.424   6.779   3.184
 6243SOL     OW19627   0.189   6.826   5.465
 6243SOL    HW119628   0.104   6.805   5.417
 6243SOL    HW219629   0.237   6.742   5.489
 6244SOL     OW19630   5.192   3.391   3.622
 6244SOL    HW119631   5.096   3.366   3.632
 6244SOL    HW219632   5.249   3.312   3.645
 6245SOL     OW19633   1.221   3.982   1.849
 6245SOL    HW119634   1.219   3.904   1.911
 6245SOL    HW219635   1.317   4.009   1.834
 6246SOL     OW19636   1.292   1.298   5.018
 6246SOL    HW119637   1.312   1.308   5.115
 6246SOL    HW219638   1.199   1.331   5.000
 6247SOL     OW19639   1.568   6.064   3.594
 6247SOL    HW119640   1.526   5.988   3.545
 6247SOL    HW219641   1.575   6.042   3.692
 6248SOL     OW19642   3.565   3.973   0.190
 6248SOL    HW119643   3.566   3.884   0.235
 6248SOL    HW219644   3.626   4.035   0.239
 6249SOL     OW19645   7.003   3.200   0.677
 6249SOL    HW119646   6.905   3.218   0.689
 6249SOL    HW219647   0.025   3.266   0.613
 6250SOL     OW19648   6.392   6.549   1.151
 6250SOL    HW119649   6.338   6.533   1.234
 6250SOL    HW219650   6.485   6.576   1.177
 6251SOL     OW19651   4.103   6.238   5.091
 6251SOL    HW119652   4.106   6.262   5.188
 6251SOL    HW219653   4.011   6.207   5.067
 6252SOL     OW19654   2.444   4.313   6.062
 6252SOL    HW119655   2.454   4.315   5.962
 6252SOL    HW219656   2.416   4.403   6.094
 6253SOL     OW19657   2.570   4.865   4.065
 6253SOL    HW119658   2.593   4.773   4.033
 6253SOL    HW219659   2.473   4.882   4.050
 6254SOL     OW19660   5.690   0.347   1.082
 6254SOL    HW119661   5.778   0.379   1.117
 6254SOL    HW219662   5.701   0.315   0.988
 6255SOL     OW19663   2.541   1.815   1.265
 6255SOL    HW119664   2.612   1.818   1.336
 6255SOL    HW219665   2.451   1.815   1.309
 6256SOL     OW19666   4.035   5.588   2.050
 6256SOL    HW119667   3.995   5.548   1.967
 6256SOL    HW219668   3.982   5.558   2.130
 6257SOL     OW19669   4.194   3.187   6.956
 6257SOL    HW119670   4.156   3.192   0.032
 6257SOL    HW219671   4.127   3.221   6.890
 6258SOL     OW19672   3.242   6.451   4.527
 6258SOL    HW119673   3.258   6.481   4.433
 6258SOL    HW219674   3.178   6.374   4.527
 6259SOL     OW19675   1.933   0.519   6.468
 6259SOL    HW119676   1.840   0.542   6.497
 6259SOL    HW219677   1.956   0.574   6.387
 6260SOL     OW19678   3.605   6.161   0.265
 6260SOL    HW119679   3.564   6.081   0.310
 6260SOL    HW219680   3.702   6.165   0.287
 6261SOL     OW19681   5.189   0.272   0.257
 6261SOL    HW119682   5.206   0.182   0.218
 6261SOL    HW219683   5.100   0.274   0.302
 6262SOL     OW19684   1.928   5.933   2.181
 6262SOL    HW119685   1.845   5.964   2.226
 6262SOL    HW219686   1.921   5.949   2.083
 6263SOL     OW19687   1.188   6.454   4.736
 6263SOL    HW119688   1.226   6.401   4.661
 6263SOL    HW219689   1.130   6.527   4.699
 6264SOL     OW19690   2.213   0.349   1.784
 6264SOL    HW119691   2.162   0.397   1.712
 6264SOL    HW219692   2.264   0.415   1.838
 6265SOL     OW19693   3.976   3.423   0.984
 6265SOL    HW119694   3.975   3.335   0.936
 6265SOL    HW219695   4.067   3.463   0.979
 6266SOL     OW19696   4.490   0.112   3.419
 6266SOL    HW119697   4.437   0.049   3.361
 6266SOL    HW219698   4.470   0.206   3.392
 6267SOL     OW19699   2.180   6.843   5.084
 6267SOL    HW119700   2.130   6.914   5.035
 6267SOL    HW219701   2.201   6.768   5.022
 6268SOL     OW19702   2.584   0.330   1.721
 6268SOL    HW119703   2.594   0.427   1.740
 6268SOL    HW219704   2.551   0.283   1.804
 6269SOL     OW19705   6.658   0.563   2.555
 6269SOL    HW119706   6.632   0.593   2.646
 6269SOL    HW219707   6.633   0.633   2.488
 6270SOL     OW19708   0.145   0.065   6.852
 6270SOL    HW119709   0.062   0.049   6.906
 6270SOL    HW219710   0.222   0.080   6.914
 6271SOL     OW19711   6.003   2.978   5.770
 6271SOL    HW119712   6.058   3.055   5.801
 6271SOL    HW219713   6.033   2.949   5.679
 6272SOL     OW19714   0.478   2.016   0.591
 6272SOL    HW119715   0.477   1.984   0.496
 6272SOL    HW219716   0.389   2.057   0.613
 6273SOL     OW19717   0.642   6.277   2.820
 6273SOL    HW119718   0.701   6.351   2.787
 6273SOL    HW219719   0.652   6.197   2.760
 6274SOL     OW19720   3.316   0.068   4.347
 6274SOL    HW119721   3.342   0.139   4.413
 6274SOL    HW219722   3.386   7.012   4.347
 6275SOL     OW19723   1.637   6.359   0.332
 6275SOL    HW119724   1.603   6.440   0.378
 6275SOL    HW219725   1.571   6.328   0.264
 6276SOL     OW19726   2.754   5.560   3.045
 6276SOL    HW119727   2.784   5.616   3.122
 6276SOL    HW219728   2.775   5.464   3.063
 6277SOL     OW19729   4.732   2.905   0.838
 6277SOL    HW119730   4.653   2.852   0.808
 6277SOL    HW219731   4.785   2.852   0.904
 6278SOL     OW19732   3.765   0.578   4.567
 6278SOL    HW119733   3.809   0.668   4.569
 6278SOL    HW219734   3.678   0.582   4.616
 6279SOL     OW19735   3.592   5.987   0.681
 6279SOL    HW119736   3.609   5.891   0.702
 6279SOL    HW219737   3.654   6.016   0.608
 6280SOL     OW19738   0.422   0.986   6.423
 6280SOL    HW119739   0.368   0.947   6.498
 6280SOL    HW219740   0.496   1.040   6.461
 6281SOL     OW19741   6.643   4.874   4.290
 6281SOL    HW119742   6.703   4.794   4.294
 6281SOL    HW219743   6.548   4.846   4.306
 6282SOL     OW19744   6.354   4.035   5.352
 6282SOL    HW119745   6.355   4.119   5.298
 6282SOL    HW219746   6.447   4.003   5.367
 6283SOL     OW19747   0.189   4.123   4.108
 6283SOL    HW119748   0.177   4.072   4.193
 6283SOL    HW219749   0.277   4.098   4.066
 6284SOL     OW19750   1.557   5.173   6.405
 6284SOL    HW119751   1.468   5.163   6.362
 6284SOL    HW219752   1.545   5.193   6.503
 6285SOL     OW19753   1.376   3.217   2.935
 6285SOL    HW119754   1.306   3.277   2.974
 6285SOL    HW219755   1.391   3.243   2.839
 6286SOL     OW19756   0.226   3.308   4.734
 6286SOL    HW119757   0.323   3.286   4.739
 6286SOL    HW219758   0.185   3.260   4.656
 6287SOL     OW19759   3.382   4.759   5.219
 6287SOL    HW119760   3.317   4.789   5.290
 6287SOL    HW219761   3.350   4.790   5.130
 6288SOL     OW19762   5.892   5.064   1.572
 6288SOL    HW119763   5.967   5.084   1.634
 6288SOL    HW219764   5.884   4.965   1.561
 6289SOL     OW19765   2.353   4.787   6.893
 6289SOL    HW119766   2.333   4.876   6.935
 6289SOL    HW219767   2.392   4.802   6.802
 6290SOL     OW19768   5.645   5.514   6.176
 6290SOL    HW119769   5.597   5.458   6.244
 6290SOL    HW219770   5.711   5.573   6.223
 6291SOL     OW19771   3.398   4.130   4.024
 6291SOL    HW119772   3.338   4.152   4.102
 6291SOL    HW219773   3.355   4.060   3.968
 6292SOL     OW19774   2.624   2.295   5.516
 6292SOL    HW119775   2.597   2.198   5.511
 6292SOL    HW219776   2.656   2.326   5.427
 6293SOL     OW19777   5.051   1.439   0.915
 6293SOL    HW119778   5.022   1.402   1.003
 6293SOL    HW219779   4.980   1.423   0.846
 6294SOL     OW19780   3.977   0.133   3.331
 6294SOL    HW119781   3.947   0.095   3.419
 6294SOL    HW219782   3.963   0.065   3.259
 6295SOL     OW19783   5.380   4.360   4.682
 6295SOL    HW119784   5.371   4.309   4.596
 6295SOL    HW219785   5.319   4.320   4.750
 6296SOL     OW19786   6.992   4.468   5.905
 6296SOL    HW119787   7.014   4.429   5.994
 6296SOL    HW219788   0.019   4.557   5.896
 6297SOL     OW19789   6.202   0.682   4.996
 6297SOL    HW119790   6.161   0.612   5.055
 6297SOL    HW219791   6.143   0.697   4.917
 6298SOL     OW19792   0.602   3.336   6.567
 6298SOL    HW119793   0.571   3.407   6.504
 6298SOL    HW219794   0.690   3.364   6.606
 6299SOL     OW19795   5.999   3.425   2.158
 6299SOL    HW119796   5.936   3.354   2.128
 6299SOL    HW219797   6.092   3.389   2.162
 6300SOL     OW19798   6.284   0.989   0.268
 6300SOL    HW119799   6.314   0.980   0.173
 6300SOL    HW219800   6.348   1.048   0.318
 6301SOL     OW19801   2.512   6.517   0.204
 6301SOL    HW119802   2.533   6.462   0.286
 6301SOL    HW219803   2.597   6.538   0.156
 6302SOL     OW19804   2.020   2.063   5.054
 6302SOL    HW119805   1.985   2.157   5.054
 6302SOL    HW219806   2.008   2.024   5.145
 6303SOL     OW19807   0.262   0.122   5.680
 6303SOL    HW119808   0.288   0.218   5.667
 6303SOL    HW219809   0.169   0.108   5.648
 6304SOL     OW19810   3.773   1.601   1.837
 6304SOL    HW119811   3.772   1.596   1.737
 6304SOL    HW219812   3.786   1.510   1.875
 6305SOL     OW19813   6.082   5.948   7.000
 6305SOL    HW119814   6.115   6.032   0.027
 6305SOL    HW219815   5.982   5.942   7.009
 6306SOL     OW19816   0.110   3.876   4.308
 6306SOL    HW119817   0.063   3.950   4.356
 6306SOL    HW219818   0.089   3.789   4.352
 6307SOL     OW19819   3.194   3.614   3.463
 6307SOL    HW119820   3.102   3.654   3.457
 6307SOL    HW219821   3.247   3.639   3.382
 6308SOL     OW19822   1.454   2.465   4.972
 6308SOL    HW119823   1.477   2.563   4.972
 6308SOL    HW219824   1.536   2.412   4.991
 6309SOL     OW19825   0.018   6.715   4.251
 6309SOL    HW119826   0.007   6.813   4.236
 6309SOL    HW219827   6.946   6.675   4.277
 6310SOL     OW19828   1.253   6.583   2.675
 6310SOL    HW119829   1.212   6.655   2.731
 6310SOL    HW219830   1.274   6.620   2.584
 6311SOL     OW19831   5.227   1.888   5.708
 6311SOL    HW119832   5.163   1.965   5.712
 6311SOL    HW219833   5.308   1.915   5.657
 6312SOL     OW19834   0.692   0.058   5.432
 6312SOL    HW119835   0.606   0.012   5.455
 6312SOL    HW219836   0.751   7.012   5.381
 6313SOL     OW19837   6.456   6.259   3.603
 6313SOL    HW119838   6.357   6.272   3.611
 6313SOL    HW219839   6.502   6.314   3.673
 6314SOL     OW19840   3.602   6.812   2.410
 6314SOL    HW119841   3.567   6.763   2.331
 6314SOL    HW219842   3.689   6.770   2.439
 6315SOL     OW19843   3.495   1.982   5.677
 6315SOL    HW119844   3.455   2.073   5.664
 6315SOL    HW219845   3.464   1.921   5.604
 6316SOL     OW19846   4.961   2.084   5.450
 6316SOL    HW119847   5.027   2.010   5.441
 6316SOL    HW219848   4.957   2.137   5.365
 6317SOL     OW19849   4.957   4.446   2.072
 6317SOL    HW119850   5.025   4.510   2.038
 6317SOL    HW219851   4.891   4.495   2.130
 6318SOL     OW19852   4.636   0.661   6.376
 6318SOL    HW119853   4.668   0.599   6.305
 6318SOL    HW219854   4.679   0.751   6.364
 6319SOL     OW19855   6.788   2.365   5.432
 6319SOL    HW119856   6.750   2.273   5.430
 6319SOL    HW219857   6.731   2.426   5.376
 6320SOL     OW19858   0.101   6.507   5.176
 6320SOL    HW119859   0.033   6.514   5.103
 6320SOL    HW219860   0.152   6.422   5.166
 6321SOL     OW19861   4.355   3.175   0.635
 6321SOL    HW119862   4.385   3.264   0.668
 6321SOL    HW219863   4.354   3.176   0.535
 6322SOL     OW19864   2.974   2.733   0.835
 6322SOL    HW119865   2.924   2.740   0.922
 6322SOL    HW219866   2.988   2.636   0.812
 6323SOL     OW19867   1.430   2.047   1.854
 6323SOL    HW119868   1.455   2.090   1.940
 6323SOL    HW219869   1.421   1.949   1.866
 6324SOL     OW19870   4.134   1.202   0.471
 6324SOL    HW119871   4.179   1.272   0.526
 6324SOL    HW219872   4.160   1.111   0.505
 6325SOL     OW19873   1.835   3.027   2.506
 6325SOL    HW119874   1.811   3.082   2.586
 6325SOL    HW219875   1.930   3.046   2.481
 6326SOL     OW19876   5.403   4.912   0.048
 6326SOL    HW119877   5.426   5.009   0.057
 6326SOL    HW219878   5.307   4.903   0.022
 6327SOL     OW19879   0.180   2.056   3.820
 6327SOL    HW119880   0.189   2.146   3.778
 6327SOL    HW219881   0.255   2.041   3.884
 6328SOL     OW19882   4.619   3.595   6.877
 6328SOL    HW119883   4.648   3.572   6.970
 6328SOL    HW219884   4.622   3.694   6.865
 6329SOL     OW19885   1.552   2.741   4.956
 6329SOL    HW119886   1.576   2.777   4.865
 6329SOL    HW219887   1.564   2.813   5.024
 6330SOL     OW19888   6.026   6.741   2.043
 6330SOL    HW119889   6.000   6.747   1.947
 6330SOL    HW219890   5.997   6.824   2.091
 6331SOL     OW19891   0.087   4.112   4.797
 6331SOL    HW119892   0.105   4.021   4.833
 6331SOL    HW219893   0.101   4.112   4.698
 6332SOL     OW19894   0.590   2.669   1.042
 6332SOL    HW119895   0.591   2.687   1.140
 6332SOL    HW219896   0.684   2.667   1.008
 6333SOL     OW19897   4.922   0.426   5.590
 6333SOL    HW119898   4.933   0.369   5.670
 6333SOL    HW219899   5.009   0.472   5.570
 6334SOL     OW19900   2.950   0.624   2.558
 6334SOL    HW119901   2.953   0.607   2.459
 6334SOL    HW219902   2.925   0.539   2.605
 6335SOL     OW19903   4.107   0.449   0.424
 6335SOL    HW119904   4.033   0.485   0.481
 6335SOL    HW219905   4.097   0.350   0.414
 6336SOL     OW19906   0.623   1.950   6.481
 6336SOL    HW119907   0.583   2.002   6.405
 6336SOL    HW219908   0.557   1.945   6.556
 6337SOL     OW19909   3.961   5.178   4.624
 6337SOL    HW119910   3.905   5.144   4.549
 6337SOL    HW219911   4.033   5.238   4.587
 6338SOL     OW19912   2.433   2.614   4.080
 6338SOL    HW119913   2.525   2.584   4.104
 6338SOL    HW219914   2.412   2.699   4.128
 6339SOL     OW19915   0.502   3.361   4.173
 6339SOL    HW119916   0.564   3.439   4.167
 6339SOL    HW219917   0.532   3.301   4.248
 6340SOL     OW19918   2.781   4.236   1.242
 6340SOL    HW119919   2.789   4.250   1.144
 6340SOL    HW219920   2.739   4.147   1.260
 6341SOL     OW19921   6.304   3.263   4.876
 6341SOL    HW119922   6.338   3.225   4.790
 6341SOL    HW219923   6.295   3.190   4.944
 6342SOL     OW19924   2.881   1.205   0.827
 6342SOL    HW119925   2.939   1.286   0.837
 6342SOL    HW219926   2.791   1.223   0.867
 6343SOL     OW19927   3.690   0.501   0.109
 6343SOL    HW119928   3.703   0.600   0.111
 6343SOL    HW219929   3.692   0.468   0.015
 6344SOL     OW19930   4.706   2.223   4.203
 6344SOL    HW119931   4.793   2.175   4.213
 6344SOL    HW219932   4.634   2.157   4.177
 6345SOL     OW19933   5.089   2.841   2.124
 6345SOL    HW119934   5.100   2.917   2.060
 6345SOL    HW219935   4.995   2.808   2.120
 6346SOL     OW19936   0.231   5.447   4.954
 6346SOL    HW119937   0.265   5.541   4.962
 6346SOL    HW219938   0.164   5.430   5.026
 6347SOL     OW19939   1.739   1.556   0.437
 6347SOL    HW119940   1.787   1.609   0.507
 6347SOL    HW219941   1.654   1.602   0.413
 6348SOL     OW19942   1.165   3.080   6.975
 6348SOL    HW119943   1.127   3.064   6.884
 6348SOL    HW219944   1.230   3.156   6.971
 6349SOL     OW19945   2.278   1.379   0.850
 6349SOL    HW119946   2.231   1.318   0.786
 6349SOL    HW219947   2.321   1.325   0.922
 6350SOL     OW19948   0.894   5.236   4.256
 6350SOL    HW119949   0.806   5.192   4.271
 6350SOL    HW219950   0.933   5.205   4.169
 6351SOL     OW19951   5.969   3.387   3.513
 6351SOL    HW119952   5.999   3.479   3.540
 6351SOL    HW219953   5.987   3.323   3.588
 6352SOL     OW19954   2.560   0.459   5.144
 6352SOL    HW119955   2.476   0.462   5.090
 6352SOL    HW219956   2.555   0.383   5.209
 6353SOL     OW19957   1.192   6.026   5.948
 6353SOL    HW119958   1.261   6.021   5.876
 6353SOL    HW219959   1.175   6.121   5.972
 6354SOL     OW19960   3.478   5.947   2.826
 6354SOL    HW119961   3.548   5.942   2.897
 6354SOL    HW219962   3.405   6.009   2.856
 6355SOL     OW19963   3.064   5.264   6.901
 6355SOL    HW119964   3.115   5.338   6.858
 6355SOL    HW219965   3.082   5.178   6.853
 6356SOL     OW19966   5.755   4.569   0.491
 6356SOL    HW119967   5.732   4.557   0.587
 6356SOL    HW219968   5.824   4.503   0.464
 6357SOL     OW19969   5.604   4.057   2.347
 6357SOL    HW119970   5.643   3.966   2.338
 6357SOL    HW219971   5.520   4.063   2.292
 6358SOL     OW19972   0.291   1.838   6.277
 6358SOL    HW119973   0.243   1.825   6.190
 6358SOL    HW219974   0.235   1.893   6.338
 6359SOL     OW19975   5.947   6.466   0.488
 6359SOL    HW119976   5.991   6.553   0.466
 6359SOL    HW219977   5.949   6.452   0.587
 6360SOL     OW19978   0.971   3.664   4.686
 6360SOL    HW119979   1.006   3.625   4.772
 6360SOL    HW219980   0.968   3.592   4.616
 6361SOL     OW19981   0.975   1.182   0.444
 6361SOL    HW119982   1.071   1.157   0.434
 6361SOL    HW219983   0.961   1.226   0.533
 6362SOL     OW19984   0.639   5.889   6.238
 6362SOL    HW119985   0.656   5.956   6.166
 6362SOL    HW219986   0.643   5.797   6.198
 6363SOL     OW19987   2.587   5.746   3.786
 6363SOL    HW119988   2.619   5.816   3.850
 6363SOL    HW219989   2.659   5.724   3.721
 6364SOL     OW19990   2.870   2.392   5.602
 6364SOL    HW119991   2.870   2.483   5.562
 6364SOL    HW219992   2.780   2.351   5.592
 6365SOL     OW19993   5.080   6.055   4.134
 6365SOL    HW119994   5.138   6.106   4.070
 6365SOL    HW219995   5.129   5.972   4.163
 6366SOL     OW19996   0.809   5.910   5.402
 6366SOL    HW119997   0.837   5.833   5.459
 6366SOL    HW219998   0.745   5.968   5.453
 6367SOL     OW19999   3.421   2.073   3.075
 6367SOL    HW120000   3.447   2.097   2.981
 6367SOL    HW220001   3.345   2.131   3.104
 6368SOL     OW20002   3.974   4.983   4.264
 6368SOL    HW120003   4.052   4.943   4.312
 6368SOL    HW220004   3.980   4.962   4.166
 6369SOL     OW20005   1.332   0.879   4.514
 6369SOL    HW120006   1.310   0.825   4.433
 6369SOL    HW220007   1.347   0.818   4.592
 6370SOL     OW20008   5.393   3.799   3.473
 6370SOL    HW120009   5.322   3.865   3.448
 6370SOL    HW220010   5.369   3.709   3.437
 6371SOL     OW20011   5.657   4.889   2.951
 6371SOL    HW120012   5.616   4.891   3.042
 6371SOL    HW220013   5.671   4.983   2.919
 6372SOL     OW20014   1.017   0.818   2.064
 6372SOL    HW120015   1.073   0.894   2.098
 6372SOL    HW220016   1.075   0.757   2.009
 6373SOL     OW20017   5.353   4.592   3.158
 6373SOL    HW120018   5.360   4.515   3.096
 6373SOL    HW220019   5.332   4.675   3.106
 6374SOL     OW20020   4.370   3.553   1.347
 6374SOL    HW120021   4.384   3.475   1.286
 6374SOL    HW220022   4.421   3.540   1.431
 6375SOL     OW20023   6.958   2.808   2.103
 6375SOL    HW120024   0.012   2.771   2.163
 6375SOL    HW220025   6.871   2.812   2.152
 6376SOL     OW20026   4.463   2.407   6.203
 6376SOL    HW120027   4.490   2.404   6.299
 6376SOL    HW220028   4.380   2.463   6.194
 6377SOL     OW20029   6.339   1.220   5.342
 6377SOL    HW120030   6.361   1.272   5.260
 6377SOL    HW220031   6.363   1.273   5.423
 6378SOL     OW20032   5.686   4.773   3.648
 6378SOL    HW120033   5.757   4.844   3.650
 6378SOL    HW220034   5.674   4.736   3.740
 6379SOL     OW20035   0.654   4.263   5.173
 6379SOL    HW120036   0.632   4.300   5.263
 6379SOL    HW220037   0.578   4.281   5.110
 6380SOL     OW20038   0.406   2.046   5.134
 6380SOL    HW120039   0.440   2.070   5.044
 6380SOL    HW220040   0.306   2.055   5.137
 6381SOL     OW20041   4.258   3.146   0.883
 6381SOL    HW120042   4.302   3.151   0.793
 6381SOL    HW220043   4.241   3.050   0.907
 6382SOL     OW20044   3.227   1.725   0.165
 6382SOL    HW120045   3.133   1.759   0.157
 6382SOL    HW220046   3.291   1.796   0.137
 6383SOL     OW20047   2.562   2.350   2.308
 6383SOL    HW120048   2.581   2.396   2.222
 6383SOL    HW220049   2.623   2.272   2.319
 6384SOL     OW20050   5.797   3.658   2.846
 6384SOL    HW120051   5.789   3.615   2.756
 6384SOL    HW220052   5.710   3.701   2.870
 6385SOL     OW20053   6.643   3.586   3.460
 6385SOL    HW120054   6.563   3.609   3.404
 6385SOL    HW220055   6.700   3.520   3.410
 6386SOL     OW20056   2.463   3.321   6.665
 6386SOL    HW120057   2.403   3.400   6.649
 6386SOL    HW220058   2.555   3.354   6.686
 6387SOL     OW20059   6.196   1.843   6.866
 6387SOL    HW120060   6.250   1.906   6.810
 6387SOL    HW220061   6.099   1.868   6.859
 6388SOL     OW20062   5.084   5.564   1.301
 6388SOL    HW120063   5.169   5.590   1.256
 6388SOL    HW220064   5.051   5.641   1.356
 6389SOL     OW20065   0.670   7.000   0.702
 6389SOL    HW120066   0.665   0.073   0.747
 6389SOL    HW220067   0.750   6.951   0.735
 6390SOL     OW20068   6.210   0.512   5.330
 6390SOL    HW120069   6.144   0.446   5.294
 6390SOL    HW220070   6.260   0.472   5.407
 6391SOL     OW20071   1.616   0.972   6.611
 6391SOL    HW120072   1.711   0.949   6.590
 6391SOL    HW220073   1.608   0.999   6.707
 6392SOL     OW20074   2.862   4.869   2.900
 6392SOL    HW120075   2.791   4.807   2.933
 6392SOL    HW220076   2.896   4.924   2.976
 6393SOL     OW20077   6.897   5.885   2.237
 6393SOL    HW120078   6.958   5.959   2.210
 6393SOL    HW220079   6.807   5.898   2.195
 6394SOL     OW20080   1.654   5.159   0.713
 6394SOL    HW120081   1.568   5.158   0.764
 6394SOL    HW220082   1.728   5.193   0.771
 6395SOL     OW20083   6.446   3.535   1.811
 6395SOL    HW120084   6.403   3.581   1.888
 6395SOL    HW220085   6.478   3.603   1.745
 6396SOL     OW20086   6.664   3.587   6.121
 6396SOL    HW120087   6.586   3.544   6.075
 6396SOL    HW220088   6.651   3.686   6.122
 6397SOL     OW20089   5.699   0.953   1.530
 6397SOL    HW120090   5.649   0.867   1.528
 6397SOL    HW220091   5.774   0.947   1.596
 6398SOL     OW20092   2.953   6.885   1.885
 6398SOL    HW120093   3.022   6.884   1.957
 6398SOL    HW220094   2.863   6.869   1.924
 6399SOL     OW20095   1.432   0.249   6.710
 6399SOL    HW120096   1.380   0.168   6.736
 6399SOL    HW220097   1.519   0.251   6.760
 6400SOL     OW20098   1.914   4.760   2.348
 6400SOL    HW120099   1.967   4.730   2.427
 6400SOL    HW220100   1.964   4.739   2.264
 6401SOL     OW20101   5.393   5.496   2.823
 6401SOL    HW120102   5.297   5.487   2.848
 6401SOL    HW220103   5.410   5.447   2.738
 6402SOL     OW20104   2.229   3.134   3.485
 6402SOL    HW120105   2.241   3.225   3.525
 6402SOL    HW220106   2.198   3.143   3.390
 6403SOL     OW20107   5.946   6.541   5.944
 6403SOL    HW120108   5.868   6.492   5.982
 6403SOL    HW220109   5.925   6.570   5.851
 6404SOL     OW20110   4.721   1.307   2.748
 6404SOL    HW120111   4.661   1.228   2.732
 6404SOL    HW220112   4.799   1.302   2.686
 6405SOL     OW20113   4.220   0.770   4.285
 6405SOL    HW120114   4.157   0.769   4.207
 6405SOL    HW220115   4.306   0.725   4.259
 6406SOL     OW20116   0.518   2.930   2.508
 6406SOL    HW120117   0.469   2.979   2.580
 6406SOL    HW220118   0.615   2.923   2.532
 6407SOL     OW20119   2.299   0.264   4.548
 6407SOL    HW120120   2.339   0.186   4.598
 6407SOL    HW220121   2.201   0.267   4.563
 6408SOL     OW20122   5.027   1.418   1.426
 6408SOL    HW120123   5.072   1.507   1.424
 6408SOL    HW220124   5.058   1.363   1.348
 6409SOL     OW20125   6.947   4.421   3.468
 6409SOL    HW120126   6.976   4.483   3.541
 6409SOL    HW220127   6.945   4.471   3.381
 6410SOL     OW20128   1.993   0.978   6.380
 6410SOL    HW120129   2.047   1.061   6.363
 6410SOL    HW220130   2.027   0.904   6.322
 6411SOL     OW20131   0.742   2.587   2.645
 6411SOL    HW120132   0.770   2.566   2.552
 6411SOL    HW220133   0.773   2.678   2.670
 6412SOL     OW20134   1.621   1.001   6.108
 6412SOL    HW120135   1.600   1.094   6.078
 6412SOL    HW220136   1.573   0.981   6.193
 6413SOL     OW20137   3.557   4.951   3.863
 6413SOL    HW120138   3.482   4.985   3.921
 6413SOL    HW220139   3.623   4.901   3.919
 6414SOL     OW20140   5.131   1.026   6.691
 6414SOL    HW120141   5.073   0.965   6.637
 6414SOL    HW220142   5.150   0.985   6.780
 6415SOL     OW20143   1.524   3.161   4.055
 6415SOL    HW120144   1.508   3.226   4.128
 6415SOL    HW220145   1.588   3.200   3.989
 6416SOL     OW20146   2.294   6.782   6.154
 6416SOL    HW120147   2.309   6.685   6.131
 6416SOL    HW220148   2.353   6.839   6.097
 6417SOL     OW20149   5.850   3.831   0.809
 6417SOL    HW120150   5.755   3.808   0.791
 6417SOL    HW220151   5.895   3.856   0.723
 6418SOL     OW20152   4.917   4.254   3.233
 6418SOL    HW120153   4.993   4.305   3.193
 6418SOL    HW220154   4.900   4.171   3.181
 6419SOL     OW20155   1.257   5.106   2.908
 6419SOL    HW120156   1.284   5.170   2.835
 6419SOL    HW220157   1.319   5.116   2.985
 6420SOL     OW20158   2.361   0.908   4.112
 6420SOL    HW120159   2.393   0.829   4.164
 6420SOL    HW220160   2.436   0.945   4.057
 6421SOL     OW20161   4.517   0.229   1.516
 6421SOL    HW120162   4.493   0.162   1.585
 6421SOL    HW220163   4.495   0.194   1.425
 6422SOL     OW20164   6.588   1.727   4.899
 6422SOL    HW120165   6.563   1.776   4.983
 6422SOL    HW220166   6.679   1.687   4.910
 6423SOL     OW20167   5.148   4.959   4.824
 6423SOL    HW120168   5.150   4.954   4.725
 6423SOL    HW220169   5.093   5.037   4.853
 6424SOL     OW20170   0.713   3.765   4.701
 6424SOL    HW120171   0.804   3.731   4.677
 6424SOL    HW220172   0.722   3.846   4.760
 6425SOL     OW20173   6.628   5.984   2.992
 6425SOL    HW120174   6.674   5.897   2.976
 6425SOL    HW220175   6.667   6.029   3.072
 6426SOL     OW20176   6.724   5.318   3.301
 6426SOL    HW120177   6.712   5.307   3.203
 6426SOL    HW220178   6.732   5.228   3.344
 6427SOL     OW20179   3.554   3.999   3.548
 6427SOL    HW120180   3.469   4.050   3.538
 6427SOL    HW220181   3.540   3.904   3.519
 6428SOL     OW20182   6.110   3.672   0.133
 6428SOL    HW120183   6.077   3.578   0.128
 6428SOL    HW220184   6.032   3.734   0.142
 6429SOL     OW20185   6.805   1.040   5.333
 6429SOL    HW120186   6.849   1.024   5.421
 6429SOL    HW220187   6.734   0.972   5.318
 6430SOL     OW20188   6.378   1.287   3.965
 6430SOL    HW120189   6.470   1.293   4.004
 6430SOL    HW220190   6.354   1.374   3.922
 6431SOL     OW20191   4.206   5.883   3.714
 6431SOL    HW120192   4.299   5.845   3.709
 6431SOL    HW220193   4.172   5.875   3.807
 6432SOL     OW20194   4.312   4.825   5.703
 6432SOL    HW120195   4.412   4.823   5.700
 6432SOL    HW220196   4.276   4.809   5.612
 6433SOL     OW20197   2.635   4.930   6.896
 6433SOL    HW120198   2.611   4.923   6.799
 6433SOL    HW220199   2.731   4.957   6.904
 6434SOL     OW20200   2.990   0.211   6.385
 6434SOL    HW120201   3.020   0.299   6.349
 6434SOL    HW220202   3.063   0.143   6.375
 6435SOL     OW20203   5.988   6.355   0.737
 6435SOL    HW120204   5.910   6.388   0.789
 6435SOL    HW220205   5.988   6.255   0.737
 6436SOL     OW20206   1.511   3.317   2.617
 6436SOL    HW120207   1.465   3.405   2.605
 6436SOL    HW220208   1.608   3.328   2.597
 6437SOL     OW20209   1.543   2.272   0.805
 6437SOL    HW120210   1.612   2.231   0.863
 6437SOL    HW220211   1.536   2.221   0.719
 6438SOL     OW20212   0.688   4.611   5.782
 6438SOL    HW120213   0.685   4.683   5.852
 6438SOL    HW220214   0.597   4.571   5.772
 6439SOL     OW20215   5.243   0.559   2.013
 6439SOL    HW120216   5.221   0.488   1.946
 6439SOL    HW220217   5.180   0.636   2.003
 6440SOL     OW20218   2.810   1.625   5.774
 6440SOL    HW120219   2.862   1.661   5.852
 6440SOL    HW220220   2.850   1.657   5.689
 6441SOL     OW20221   0.461   0.550   1.592
 6441SOL    HW120222   0.554   0.581   1.572
 6441SOL    HW220223   0.450   0.456   1.562
 6442SOL     OW20224   3.188   1.827   5.297
 6442SOL    HW120225   3.091   1.835   5.319
 6442SOL    HW220226   3.199   1.830   5.197
 6443SOL     OW20227   3.300   3.250   5.320
 6443SOL    HW120228   3.375   3.208   5.270
 6443SOL    HW220229   3.270   3.189   5.393
 6444SOL     OW20230   5.835   2.582   4.620
 6444SOL    HW120231   5.846   2.486   4.646
 6444SOL    HW220232   5.759   2.591   4.556
 6445SOL     OW20233   3.905   3.353   3.368
 6445SOL    HW120234   3.935   3.449   3.362
 6445SOL    HW220235   3.929   3.317   3.458
 6446SOL     OW20236   0.491   1.884   0.364
 6446SOL    HW120237   0.563   1.899   0.296
 6446SOL    HW220238   0.412   1.841   0.321
 6447SOL     OW20239   0.145   4.456   2.813
 6447SOL    HW120240   0.061   4.483   2.860
 6447SOL    HW220241   0.125   4.381   2.750
 6448SOL     OW20242   5.505   5.059   1.363
 6448SOL    HW120243   5.498   4.997   1.441
 6448SOL    HW220244   5.419   5.109   1.353
 6449SOL     OW20245   3.249   5.518   1.899
 6449SOL    HW120246   3.232   5.541   1.995
 6449SOL    HW220247   3.298   5.431   1.894
 6450SOL     OW20248   1.722   2.853   0.989
 6450SOL    HW120249   1.626   2.871   1.006
 6450SOL    HW220250   1.778   2.926   1.030
 6451SOL     OW20251   2.128   0.710   6.287
 6451SOL    HW120252   2.193   0.734   6.359
 6451SOL    HW220253   2.139   0.772   6.210
 6452SOL     OW20254   4.762   4.231   2.711
 6452SOL    HW120255   4.778   4.167   2.635
 6452SOL    HW220256   4.716   4.182   2.785
 6453SOL     OW20257   2.400   6.903   1.525
 6453SOL    HW120258   2.365   6.832   1.463
 6453SOL    HW220259   2.367   6.993   1.494
 6454SOL     OW20260   1.216   1.284   3.112
 6454SOL    HW120261   1.127   1.249   3.140
 6454SOL    HW220262   1.288   1.231   3.157
 6455SOL     OW20263   6.716   3.291   3.502
 6455SOL    HW120264   6.655   3.358   3.545
 6455SOL    HW220265   6.810   3.309   3.531
 6456SOL     OW20266   1.559   1.468   3.793
 6456SOL    HW120267   1.562   1.413   3.709
 6456SOL    HW220268   1.557   1.408   3.872
 6457SOL     OW20269   5.500   0.344   1.535
 6457SOL    HW120270   5.479   0.293   1.452
 6457SOL    HW220271   5.600   0.346   1.548
 6458SOL     OW20272   1.336   5.119   4.192
 6458SOL    HW120273   1.368   5.211   4.215
 6458SOL    HW220274   1.245   5.125   4.151
 6459SOL     OW20275   6.228   3.279   2.072
 6459SOL    HW120276   6.170   3.279   1.991
 6459SOL    HW220277   6.302   3.213   2.060
 6460SOL     OW20278   5.849   6.087   6.273
 6460SOL    HW120279   5.823   6.071   6.178
 6460SOL    HW220280   5.807   6.171   6.306
 6461SOL     OW20281   2.572   4.451   6.965
 6461SOL    HW120282   2.639   4.388   6.926
 6461SOL    HW220283   2.488   4.401   6.987
 6462SOL     OW20284   1.627   2.853   4.694
 6462SOL    HW120285   1.671   2.820   4.611
 6462SOL    HW220286   1.531   2.825   4.695
 6463SOL     OW20287   5.432   0.809   0.592
 6463SOL    HW120288   5.510   0.870   0.603
 6463SOL    HW220289   5.363   0.831   0.660
 6464SOL     OW20290   2.117   5.313   5.226
 6464SOL    HW120291   2.086   5.235   5.280
 6464SOL    HW220292   2.081   5.306   5.133
 6465SOL     OW20293   6.733   2.765   2.464
 6465SOL    HW120294   6.805   2.835   2.464
 6465SOL    HW220295   6.753   2.698   2.392
 6466SOL     OW20296   5.852   1.455   6.221
 6466SOL    HW120297   5.950   1.471   6.235
 6466SOL    HW220298   5.806   1.450   6.310
 6467SOL     OW20299   4.007   0.286   1.079
 6467SOL    HW120300   4.094   0.321   1.114
 6467SOL    HW220301   4.005   0.187   1.088
 6468SOL     OW20302   2.972   6.339   1.452
 6468SOL    HW120303   2.924   6.252   1.459
 6468SOL    HW220304   2.983   6.378   1.543
 6469SOL     OW20305   4.001   2.204   3.445
 6469SOL    HW120306   3.966   2.253   3.526
 6469SOL    HW220307   4.083   2.250   3.412
 6470SOL     OW20308   6.098   3.002   1.014
 6470SOL    HW120309   6.073   2.910   0.987
 6470SOL    HW220310   6.044   3.068   0.962
 6471SOL     OW20311   0.333   6.555   5.504
 6471SOL    HW120312   0.334   6.584   5.600
 6471SOL    HW220313   0.268   6.480   5.493
 6472SOL     OW20314   6.609   5.993   2.264
 6472SOL    HW120315   6.613   5.931   2.342
 6472SOL    HW220316   6.514   6.015   2.244
 6473SOL     OW20317   2.880   2.025   4.813
 6473SOL    HW120318   2.835   2.096   4.760
 6473SOL    HW220319   2.816   1.988   4.881
 6474SOL     OW20320   4.450   5.900   5.421
 6474SOL    HW120321   4.384   5.889   5.347
 6474SOL    HW220322   4.541   5.873   5.389
 6475SOL     OW20323   5.849   4.437   3.751
 6475SOL    HW120324   5.755   4.408   3.729
 6475SOL    HW220325   5.846   4.508   3.822
 6476SOL     OW20326   5.429   3.037   0.493
 6476SOL    HW120327   5.421   2.984   0.577
 6476SOL    HW220328   5.473   2.982   0.422
 6477SOL     OW20329   6.545   5.456   0.008
 6477SOL    HW120330   6.540   5.383   6.956
 6477SOL    HW220331   6.482   5.436   0.083
 6478SOL     OW20332   3.354   6.504   2.356
 6478SOL    HW120333   3.388   6.419   2.396
 6478SOL    HW220334   3.291   6.549   2.419
 6479SOL     OW20335   4.119   5.576   4.299
 6479SOL    HW120336   4.068   5.660   4.319
 6479SOL    HW220337   4.074   5.526   4.225
 6480SOL     OW20338   2.854   1.246   6.811
 6480SOL    HW120339   2.911   1.217   6.888
 6480SOL    HW220340   2.758   1.230   6.832
 6481SOL     OW20341   3.576   2.031   1.822
 6481SOL    HW120342   3.476   2.031   1.827
 6481SOL    HW220343   3.612   2.099   1.885
 6482SOL     OW20344   6.357   2.234   6.455
 6482SOL    HW120345   6.320   2.230   6.548
 6482SOL    HW220346   6.308   2.168   6.397
 6483SOL     OW20347   6.739   6.969   3.355
 6483SOL    HW120348   6.739   0.017   3.277
 6483SOL    HW220349   6.648   6.931   3.366
 6484SOL     OW20350   3.204   0.670   2.752
 6484SOL    HW120351   3.262   0.748   2.777
 6484SOL    HW220352   3.132   0.701   2.690
 6485SOL     OW20353   2.189   5.204   3.901
 6485SOL    HW120354   2.266   5.268   3.903
 6485SOL    HW220355   2.140   5.214   3.814
 6486SOL     OW20356   0.980   4.509   2.007
 6486SOL    HW120357   0.886   4.489   1.979
 6486SOL    HW220358   1.012   4.591   1.961
 6487SOL     OW20359   1.366   6.521   5.571
 6487SOL    HW120360   1.399   6.461   5.644
 6487SOL    HW220361   1.346   6.612   5.608
 6488SOL     OW20362   4.047   5.940   4.412
 6488SOL    HW120363   4.128   5.941   4.353
 6488SOL    HW220364   4.075   5.955   4.507
 6489SOL     OW20365   3.913   3.206   6.298
 6489SOL    HW120366   3.819   3.206   6.332
 6489SOL    HW220367   3.927   3.127   6.239
 6490SOL     OW20368   3.969   1.068   5.940
 6490SOL    HW120369   3.927   1.111   5.860
 6490SOL    HW220370   3.908   0.998   5.976
 6491SOL     OW20371   2.796   0.520   1.091
 6491SOL    HW120372   2.833   0.554   1.004
 6491SOL    HW220373   2.858   0.451   1.129
 6492SOL     OW20374   3.589   4.132   5.607
 6492SOL    HW120375   3.501   4.178   5.619
 6492SOL    HW220376   3.661   4.185   5.653
 6493SOL     OW20377   1.355   4.227   6.246
 6493SOL    HW120378   1.360   4.286   6.166
 6493SOL    HW220379   1.269   4.176   6.244
 6494SOL     OW20380   7.005   6.914   2.814
 6494SOL    HW120381   6.970   6.877   2.900
 6494SOL    HW220382   0.021   7.007   2.827
 6495SOL     OW20383   0.009   0.953   4.123
 6495SOL    HW120384   0.015   0.999   4.035
 6495SOL    HW220385   6.935   0.969   4.164
 6496SOL     OW20386   5.745   1.103   2.919
 6496SOL    HW120387   5.707   1.185   2.962
 6496SOL    HW220388   5.823   1.128   2.862
 6497SOL     OW20389   1.018   0.539   1.530
 6497SOL    HW120390   1.080   0.462   1.537
 6497SOL    HW220391   1.066   0.618   1.492
 6498SOL     OW20392   1.064   3.150   4.782
 6498SOL    HW120393   1.012   3.223   4.827
 6498SOL    HW220394   1.154   3.184   4.757
 6499SOL     OW20395   5.356   3.993   5.623
 6499SOL    HW120396   5.447   3.960   5.597
 6499SOL    HW220397   5.320   4.053   5.550
 6500SOL     OW20398   6.623   4.228   3.872
 6500SOL    HW120399   6.578   4.155   3.820
 6500SOL    HW220400   6.713   4.246   3.834
 6501SOL     OW20401   6.537   1.060   0.829
 6501SOL    HW120402   6.621   1.008   0.843
 6501SOL    HW220403   6.473   1.040   0.903
 6502SOL     OW20404   6.974   3.673   2.522
 6502SOL    HW120405   6.972   3.767   2.489
 6502SOL    HW220406   6.987   3.611   2.445
 6503SOL     OW20407   5.301   0.964   3.826
 6503SOL    HW120408   5.302   1.064   3.829
 6503SOL    HW220409   5.207   0.931   3.823
 6504SOL     OW20410   3.527   6.373   5.976
 6504SOL    HW120411   3.491   6.280   5.970
 6504SOL    HW220412   3.529   6.403   6.071
 6505SOL     OW20413   5.742   6.325   6.003
 6505SOL    HW120414   5.659   6.361   5.961
 6505SOL    HW220415   5.735   6.334   6.102
 6506SOL     OW20416   6.919   2.804   2.779
 6506SOL    HW120417   7.004   2.766   2.741
 6506SOL    HW220418   6.856   2.824   2.705
 6507SOL     OW20419   2.693   5.581   6.719
 6507SOL    HW120420   2.667   5.567   6.815
 6507SOL    HW220421   2.756   5.659   6.713
 6508SOL     OW20422   1.641   0.487   2.851
 6508SOL    HW120423   1.654   0.501   2.949
 6508SOL    HW220424   1.590   0.403   2.836
 6509SOL     OW20425   4.492   2.271   4.476
 6509SOL    HW120426   4.504   2.191   4.417
 6509SOL    HW220427   4.580   2.317   4.488
 6510SOL     OW20428   6.132   4.796   6.807
 6510SOL    HW120429   6.175   4.867   6.752
 6510SOL    HW220430   6.190   4.714   6.805
 6511SOL     OW20431   4.242   0.716   4.552
 6511SOL    HW120432   4.170   0.654   4.583
 6511SOL    HW220433   4.233   0.729   4.453
 6512SOL     OW20434   3.733   6.439   2.131
 6512SOL    HW120435   3.750   6.401   2.222
 6512SOL    HW220436   3.818   6.477   2.094
 6513SOL     OW20437   2.791   5.489   3.353
 6513SOL    HW120438   2.819   5.398   3.385
 6513SOL    HW220439   2.693   5.500   3.363
 6514SOL     OW20440   5.636   1.389   4.697
 6514SOL    HW120441   5.573   1.451   4.745
 6514SOL    HW220442   5.722   1.384   4.748
 6515SOL     OW20443   1.128   3.714   3.358
 6515SOL    HW120444   1.114   3.723   3.457
 6515SOL    HW220445   1.097   3.624   3.328
 6516SOL     OW20446   0.305   3.030   1.502
 6516SOL    HW120447   0.207   3.043   1.520
 6516SOL    HW220448   0.319   3.013   1.405
 6517SOL     OW20449   0.149   1.857   1.686
 6517SOL    HW120450   0.195   1.938   1.722
 6517SOL    HW220451   0.187   1.835   1.595
 6518SOL     OW20452   0.811   0.248   1.004
 6518SOL    HW120453   0.785   0.171   1.064
 6518SOL    HW220454   0.775   0.333   1.042
 6519SOL     OW20455   0.793   1.377   2.677
 6519SOL    HW120456   0.859   1.440   2.719
 6519SOL    HW220457   0.709   1.426   2.657
 6520SOL     OW20458   0.145   5.260   0.274
 6520SOL    HW120459   0.213   5.207   0.224
 6520SOL    HW220460   0.097   5.321   0.211
 6521SOL     OW20461   1.722   2.715   4.485
 6521SOL    HW120462   1.810   2.669   4.501
 6521SOL    HW220463   1.663   2.655   4.431
 6522SOL     OW20464   3.471   4.842   5.687
 6522SOL    HW120465   3.506   4.936   5.695
 6522SOL    HW220466   3.375   4.845   5.661
 6523SOL     OW20467   3.781   1.342   6.938
 6523SOL    HW120468   3.683   1.357   6.924
 6523SOL    HW220469   3.795   1.247   6.968
 6524SOL     OW20470   2.498   3.736   1.056
 6524SOL    HW120471   2.558   3.764   1.131
 6524SOL    HW220472   2.543   3.664   1.003
 6525SOL     OW20473   2.049   4.632   2.574
 6525SOL    HW120474   2.146   4.658   2.573
 6525SOL    HW220475   2.015   4.634   2.667
 6526SOL     OW20476   1.518   0.388   1.631
 6526SOL    HW120477   1.466   0.302   1.637
 6526SOL    HW220478   1.505   0.429   1.541
 6527SOL     OW20479   6.729   2.189   6.639
 6527SOL    HW120480   6.689   2.189   6.548
 6527SOL    HW220481   6.802   2.258   6.643
 6528SOL     OW20482   5.746   1.563   5.369
 6528SOL    HW120483   5.659   1.518   5.387
 6528SOL    HW220484   5.788   1.523   5.287
 6529SOL     OW20485   1.781   0.391   2.625
 6529SOL    HW120486   1.834   0.308   2.639
 6529SOL    HW220487   1.745   0.423   2.713
 6530SOL     OW20488   6.656   1.602   1.117
 6530SOL    HW120489   6.651   1.648   1.206
 6530SOL    HW220490   6.590   1.643   1.055
 6531SOL     OW20491   5.068   3.141   4.824
 6531SOL    HW120492   5.049   3.234   4.853
 6531SOL    HW220493   5.007   3.077   4.871
 6532SOL     OW20494   1.008   1.309   1.269
 6532SOL    HW120495   0.925   1.363   1.256
 6532SOL    HW220496   0.996   1.247   1.346
 6533SOL     OW20497   4.536   6.549   0.344
 6533SOL    HW120498   4.548   6.542   0.245
 6533SOL    HW220499   4.460   6.612   0.363
 6534SOL     OW20500   5.007   5.008   1.732
 6534SOL    HW120501   5.094   5.032   1.689
 6534SOL    HW220502   5.020   4.926   1.788
 6535SOL     OW20503   6.811   4.397   4.122
 6535SOL    HW120504   6.763   4.325   4.171
 6535SOL    HW220505   6.748   4.443   4.059
 6536SOL     OW20506   0.505   1.747   5.320
 6536SOL    HW120507   0.452   1.662   5.320
 6536SOL    HW220508   0.584   1.738   5.380
 6537SOL     OW20509   6.999   4.487   6.693
 6537SOL    HW120510   6.984   4.397   6.652
 6537SOL    HW220511   6.915   4.541   6.685
 6538SOL     OW20512   2.097   3.704   5.309
 6538SOL    HW120513   2.144   3.725   5.223
 6538SOL    HW220514   1.999   3.694   5.292
 6539SOL     OW20515   4.880   0.632   6.978
 6539SOL    HW120516   4.808   0.565   6.957
 6539SOL    HW220517   4.846   0.724   6.960
 6540SOL     OW20518   4.018   2.401   6.284
 6540SOL    HW120519   4.090   2.367   6.345
 6540SOL    HW220520   3.934   2.415   6.337
 6541SOL     OW20521   4.972   1.401   5.185
 6541SOL    HW120522   5.009   1.309   5.174
 6541SOL    HW220523   4.990   1.454   5.102
 6542SOL     OW20524   0.175   2.688   3.802
 6542SOL    HW120525   0.179   2.723   3.709
 6542SOL    HW220526   0.264   2.698   3.846
 6543SOL     OW20527   4.201   3.132   5.304
 6543SOL    HW120528   4.227   3.036   5.300
 6543SOL    HW220529   4.118   3.147   5.249
 6544SOL     OW20530   1.710   6.354   3.490
 6544SOL    HW120531   1.695   6.315   3.400
 6544SOL    HW220532   1.623   6.389   3.527
 6545SOL     OW20533   4.289   0.427   0.728
 6545SOL    HW120534   4.190   0.420   0.736
 6545SOL    HW220535   4.313   0.485   0.650
 6546SOL     OW20536   2.390   3.925   5.996
 6546SOL    HW120537   2.448   3.886   5.924
 6546SOL    HW220538   2.448   3.971   6.064
 6547SOL     OW20539   4.753   1.120   6.811
 6547SOL    HW120540   4.823   1.174   6.764
 6547SOL    HW220541   4.663   1.143   6.776
 6548SOL     OW20542   1.184   3.783   1.426
 6548SOL    HW120543   1.279   3.813   1.428
 6548SOL    HW220544   1.141   3.814   1.341
 6549SOL     OW20545   4.528   0.868   1.865
 6549SOL    HW120546   4.536   0.894   1.961
 6549SOL    HW220547   4.450   0.806   1.854
 6550SOL     OW20548   7.008   6.752   4.652
 6550SOL    HW120549   0.045   6.740   4.567
 6550SOL    HW220550   0.054   6.779   4.726
 6551SOL     OW20551   2.188   3.729   1.988
 6551SOL    HW120552   2.088   3.737   1.981
 6551SOL    HW220553   2.213   3.633   1.997
 6552SOL     OW20554   1.454   0.420   0.295
 6552SOL    HW120555   1.527   0.358   0.320
 6552SOL    HW220556   1.369   0.369   0.282
 6553SOL     OW20557   6.776   2.041   3.419
 6553SOL    HW120558   6.786   2.130   3.465
 6553SOL    HW220559   6.780   1.968   3.487
 6554SOL     OW20560   1.413   0.357   4.429
 6554SOL    HW120561   1.481   0.423   4.461
 6554SOL    HW220562   1.374   0.309   4.507
 6555SOL     OW20563   4.643   2.342   2.889
 6555SOL    HW120564   4.584   2.414   2.925
 6555SOL    HW220565   4.714   2.383   2.831
 6556SOL     OW20566   5.452   4.716   3.506
 6556SOL    HW120567   5.460   4.620   3.482
 6556SOL    HW220568   5.538   4.748   3.545
 6557SOL     OW20569   2.605   0.119   2.636
 6557SOL    HW120570   2.532   0.067   2.592
 6557SOL    HW220571   2.581   0.216   2.636
 6558SOL     OW20572   6.892   4.747   0.588
 6558SOL    HW120573   6.922   4.686   0.515
 6558SOL    HW220574   6.970   4.798   0.624
 6559SOL     OW20575   0.964   4.202   0.142
 6559SOL    HW120576   1.053   4.234   0.176
 6559SOL    HW220577   0.934   4.263   0.068
 6560SOL     OW20578   4.305   5.288   1.523
 6560SOL    HW120579   4.251   5.253   1.446
 6560SOL    HW220580   4.252   5.356   1.573
 6561SOL     OW20581   3.500   4.301   1.243
 6561SOL    HW120582   3.452   4.213   1.252
 6561SOL    HW220583   3.536   4.310   1.151
 6562SOL     OW20584   6.074   2.257   0.978
 6562SOL    HW120585   6.036   2.349   0.970
 6562SOL    HW220586   6.020   2.194   0.923
 6563SOL     OW20587   5.223   5.561   5.771
 6563SOL    HW120588   5.201   5.569   5.868
 6563SOL    HW220589   5.315   5.521   5.761
 6564SOL     OW20590   6.743   3.452   2.805
 6564SOL    HW120591   6.712   3.547   2.812
 6564SOL    HW220592   6.740   3.423   2.709
 6565SOL     OW20593   5.685   1.196   2.063
 6565SOL    HW120594   5.643   1.191   2.154
 6565SOL    HW220595   5.715   1.104   2.036
 6566SOL     OW20596   3.985   6.294   1.951
 6566SOL    HW120597   3.979   6.392   1.968
 6566SOL    HW220598   3.897   6.261   1.915
 6567SOL     OW20599   4.714   0.781   2.193
 6567SOL    HW120600   4.640   0.842   2.163
 6567SOL    HW220601   4.705   0.763   2.291
 6568SOL     OW20602   3.413   1.599   4.020
 6568SOL    HW120603   3.509   1.624   4.008
 6568SOL    HW220604   3.364   1.615   3.934
 6569SOL     OW20605   2.698   3.021   0.421
 6569SOL    HW120606   2.692   2.926   0.388
 6569SOL    HW220607   2.639   3.079   0.366
 6570SOL     OW20608   2.716   0.388   2.393
 6570SOL    HW120609   2.739   0.380   2.490
 6570SOL    HW220610   2.646   0.321   2.370
 6571SOL     OW20611   3.238   5.067   1.978
 6571SOL    HW120612   3.243   5.063   2.078
 6571SOL    HW220613   3.240   4.974   1.941
 6572SOL     OW20614   6.874   4.306   4.629
 6572SOL    HW120615   6.878   4.349   4.719
 6572SOL    HW220616   6.787   4.259   4.618
 6573SOL     OW20617   0.528   1.606   2.308
 6573SOL    HW120618   0.596   1.559   2.252
 6573SOL    HW220619   0.536   1.577   2.403
 6574SOL     OW20620   2.271   5.824   2.661
 6574SOL    HW120621   2.228   5.902   2.707
 6574SOL    HW220622   2.369   5.824   2.680
 6575SOL     OW20623   0.592   6.578   3.869
 6575SOL    HW120624   0.545   6.632   3.799
 6575SOL    HW220625   0.618   6.489   3.831
 6576SOL     OW20626   2.200   6.146   6.870
 6576SOL    HW120627   2.125   6.199   6.830
 6576SOL    HW220628   2.257   6.207   6.925
 6577SOL     OW20629   1.102   2.070   3.350
 6577SOL    HW120630   1.129   1.987   3.397
 6577SOL    HW220631   1.079   2.141   3.417
 6578SOL     OW20632   0.747   6.050   2.640
 6578SOL    HW120633   0.824   6.099   2.682
 6578SOL    HW220634   0.717   6.099   2.558
 6579SOL     OW20635   0.648   3.269   3.333
 6579SOL    HW120636   0.622   3.292   3.240
 6579SOL    HW220637   0.625   3.173   3.351
 6580SOL     OW20638   0.059   1.958   0.381
 6580SOL    HW120639   0.026   2.041   0.425
 6580SOL    HW220640   7.012   1.883   0.399
 6581SOL     OW20641   2.195   0.461   0.317
 6581SOL    HW120642   2.213   0.373   0.360
 6581SOL    HW220643   2.281   0.504   0.291
 6582SOL     OW20644   6.974   1.239   2.902
 6582SOL    HW120645   6.985   1.156   2.956
 6582SOL    HW220646   6.903   1.225   2.833
 6583SOL     OW20647   4.896   0.290   6.402
 6583SOL    HW120648   4.862   0.225   6.334
 6583SOL    HW220649   4.955   0.357   6.356
 6584SOL     OW20650   4.474   2.242   0.558
 6584SOL    HW120651   4.440   2.337   0.556
 6584SOL    HW220652   4.511   2.218   0.468
 6585SOL     OW20653   6.545   6.108   0.144
 6585SOL    HW120654   6.553   6.203   0.114
 6585SOL    HW220655   6.604   6.051   0.088
 6586SOL     OW20656   5.522   1.093   5.989
 6586SOL    HW120657   5.571   1.165   6.037
 6586SOL    HW220658   5.522   1.111   5.891
 6587SOL     OW20659   2.155   5.131   5.623
 6587SOL    HW120660   2.085   5.151   5.554
 6587SOL    HW220661   2.195   5.041   5.604
 6588SOL     OW20662   6.972   2.764   1.835
 6588SOL    HW120663   6.966   2.759   1.935
 6588SOL    HW220664   6.889   2.807   1.799
 6589SOL     OW20665   4.941   0.188   1.632
 6589SOL    HW120666   4.943   0.088   1.632
 6589SOL    HW220667   4.991   0.222   1.552
 6590SOL     OW20668   6.815   1.141   7.012
 6590SOL    HW120669   6.873   1.083   6.955
 6590SOL    HW220670   6.779   1.088   0.072
 6591SOL     OW20671   6.340   5.749   3.308
 6591SOL    HW120672   6.298   5.829   3.352
 6591SOL    HW220673   6.352   5.767   3.211
 6592SOL     OW20674   5.364   6.821   2.862
 6592SOL    HW120675   5.381   6.905   2.811
 6592SOL    HW220676   5.409   6.827   2.952
 6593SOL     OW20677   2.206   2.223   3.066
 6593SOL    HW120678   2.145   2.266   2.999
 6593SOL    HW220679   2.296   2.266   3.062
 6594SOL     OW20680   3.763   1.317   6.100
 6594SOL    HW120681   3.850   1.293   6.145
 6594SOL    HW220682   3.780   1.385   6.029
 6595SOL     OW20683   1.261   4.413   6.666
 6595SOL    HW120684   1.309   4.372   6.743
 6595SOL    HW220685   1.257   4.512   6.678
 6596SOL     OW20686   3.099   6.896   4.462
 6596SOL    HW120687   3.114   6.988   4.499
 6596SOL    HW220688   3.138   6.829   4.525
 6597SOL     OW20689   1.042   5.374   1.209
 6597SOL    HW120690   0.975   5.307   1.176
 6597SOL    HW220691   1.128   5.364   1.159
 6598SOL     OW20692   1.687   4.870   3.898
 6598SOL    HW120693   1.679   4.786   3.846
 6598SOL    HW220694   1.764   4.863   3.962
 6599SOL     OW20695   4.307   6.262   6.229
 6599SOL    HW120696   4.395   6.230   6.264
 6599SOL    HW220697   4.286   6.352   6.269
 6600SOL     OW20698   3.715   6.021   5.462
 6600SOL    HW120699   3.641   6.078   5.427
 6600SOL    HW220700   3.730   6.041   5.559
 6601SOL     OW20701   1.825   1.927   4.937
 6601SOL    HW120702   1.908   1.976   4.963
 6601SOL    HW220703   1.848   1.852   4.874
 6602SOL     OW20704   1.928   1.047   1.824
 6602SOL    HW120705   1.846   1.101   1.842
 6602SOL    HW220706   1.932   0.970   1.889
 6603SOL     OW20707   0.481   3.001   3.348
 6603SOL    HW120708   0.558   2.955   3.393
 6603SOL    HW220709   0.404   3.008   3.412
 6604SOL     OW20710   1.058   6.756   1.449
 6604SOL    HW120711   1.135   6.695   1.434
 6604SOL    HW220712   1.015   6.778   1.361
 6605SOL     OW20713   5.541   5.420   1.381
 6605SOL    HW120714   5.600   5.342   1.401
 6605SOL    HW220715   5.580   5.473   1.306
 6606SOL     OW20716   0.562   5.751   2.228
 6606SOL    HW120717   0.466   5.753   2.203
 6606SOL    HW220718   0.573   5.779   2.324
 6607SOL     OW20719   1.538   4.503   2.769
 6607SOL    HW120720   1.556   4.581   2.708
 6607SOL    HW220721   1.483   4.435   2.720
 6608SOL     OW20722   6.772   6.634   0.166
 6608SOL    HW120723   6.747   6.615   0.261
 6608SOL    HW220724   6.853   6.581   0.141
 6609SOL     OW20725   5.457   1.078   0.208
 6609SOL    HW120726   5.474   1.155   0.147
 6609SOL    HW220727   5.520   1.082   0.286
 6610SOL     OW20728   2.067   6.449   0.038
 6610SOL    HW120729   2.022   6.422   0.123
 6610SOL    HW220730   2.028   6.398   6.978
 6611SOL     OW20731   4.881   3.343   3.094
 6611SOL    HW120732   4.898   3.340   2.995
 6611SOL    HW220733   4.800   3.288   3.115
 6612SOL     OW20734   6.342   2.056   6.787
 6612SOL    HW120735   6.366   2.007   6.704
 6612SOL    HW220736   6.421   2.108   6.820
 6613SOL     OW20737   6.520   6.377   5.248
 6613SOL    HW120738   6.581   6.319   5.193
 6613SOL    HW220739   6.477   6.445   5.189
 6614SOL     OW20740   4.544   5.150   6.863
 6614SOL    HW120741   4.557   5.234   6.810
 6614SOL    HW220742   4.548   5.071   6.803
 6615SOL     OW20743   1.114   5.667   1.289
 6615SOL    HW120744   1.071   5.681   1.378
 6615SOL    HW220745   1.104   5.571   1.262
 6616SOL     OW20746   4.865   0.392   6.673
 6616SOL    HW120747   4.915   0.474   6.700
 6616SOL    HW220748   4.895   0.362   6.582
 6617SOL     OW20749   4.424   5.336   3.268
 6617SOL    HW120750   4.407   5.261   3.204
 6617SOL    HW220751   4.337   5.379   3.294
 6618SOL     OW20752   1.844   2.371   2.645
 6618SOL    HW120753   1.886   2.312   2.715
 6618SOL    HW220754   1.763   2.416   2.682
 6619SOL     OW20755   5.194   0.426   3.334
 6619SOL    HW120756   5.147   0.455   3.418
 6619SOL    HW220757   5.262   0.356   3.356
 6620SOL     OW20758   1.662   2.723   5.230
 6620SOL    HW120759   1.687   2.658   5.301
 6620SOL    HW220760   1.659   2.676   5.141
 6621SOL     OW20761   3.313   3.181   6.087
 6621SOL    HW120762   3.339   3.092   6.049
 6621SOL    HW220763   3.297   3.172   6.185
 6622SOL     OW20764   5.948   5.954   2.143
 6622SOL    HW120765   5.898   5.915   2.065
 6622SOL    HW220766   5.900   6.035   2.177
 6623SOL     OW20767   3.577   3.400   4.627
 6623SOL    HW120768   3.665   3.435   4.595
 6623SOL    HW220769   3.583   3.377   4.724
 6624SOL     OW20770   0.111   4.312   5.716
 6624SOL    HW120771   0.046   4.350   5.782
 6624SOL    HW220772   0.173   4.384   5.685
 6625SOL     OW20773   4.922   1.934   5.175
 6625SOL    HW120774   4.944   1.910   5.270
 6625SOL    HW220775   4.890   2.029   5.172
 6626SOL     OW20776   3.571   6.315   5.241
 6626SOL    HW120777   3.545   6.250   5.313
 6626SOL    HW220778   3.670   6.327   5.240
 6627SOL     OW20779   1.795   6.194   5.337
 6627SOL    HW120780   1.750   6.107   5.317
 6627SOL    HW220781   1.808   6.204   5.435
 6628SOL     OW20782   6.621   5.011   4.743
 6628SOL    HW120783   6.663   4.930   4.703
 6628SOL    HW220784   6.580   4.988   4.832
 6629SOL     OW20785   4.915   6.735   6.335
 6629SOL    HW120786   4.912   6.636   6.319
 6629SOL    HW220787   4.868   6.756   6.420
 6630SOL     OW20788   3.573   1.790   1.619
 6630SOL    HW120789   3.637   1.714   1.606
 6630SOL    HW220790   3.625   1.876   1.622
 6631SOL     OW20791   2.414   5.754   4.214
 6631SOL    HW120792   2.475   5.675   4.203
 6631SOL    HW220793   2.333   5.726   4.265
 6632SOL     OW20794   1.121   0.044   1.047
 6632SOL    HW120795   1.047   6.994   1.038
 6632SOL    HW220796   1.128   0.099   0.964
 6633SOL     OW20797   2.107   4.778   6.501
 6633SOL    HW120798   2.027   4.826   6.538
 6633SOL    HW220799   2.169   4.844   6.458
 6634SOL     OW20800   5.018   1.541   4.954
 6634SOL    HW120801   4.979   1.631   4.935
 6634SOL    HW220802   5.101   1.528   4.900
 6635SOL     OW20803   4.653   4.437   2.840
 6635SOL    HW120804   4.693   4.362   2.788
 6635SOL    HW220805   4.656   4.521   2.786
 6636SOL     OW20806   5.011   1.844   6.702
 6636SOL    HW120807   5.004   1.807   6.609
 6636SOL    HW220808   5.009   1.770   6.768
 6637SOL     OW20809   0.812   0.059   6.468
 6637SOL    HW120810   0.763   0.104   6.543
 6637SOL    HW220811   0.753   0.053   6.388
 6638SOL     OW20812   3.292   3.792   3.258
 6638SOL    HW120813   3.241   3.876   3.238
 6638SOL    HW220814   3.241   3.713   3.221
 6639SOL     OW20815   4.738   4.578   6.622
 6639SOL    HW120816   4.798   4.518   6.675
 6639SOL    HW220817   4.643   4.558   6.646
 6640SOL     OW20818   6.945   2.033   4.897
 6640SOL    HW120819   6.971   1.937   4.906
 6640SOL    HW220820   6.855   2.048   4.937
 6641SOL     OW20821   2.800   1.457   6.666
 6641SOL    HW120822   2.843   1.385   6.719
 6641SOL    HW220823   2.799   1.542   6.719
 6642SOL     OW20824   2.043   5.967   6.612
 6642SOL    HW120825   1.996   5.948   6.698
 6642SOL    HW220826   2.138   5.992   6.630
 6643SOL     OW20827   5.402   6.171   0.275
 6643SOL    HW120828   5.443   6.258   0.303
 6643SOL    HW220829   5.442   6.141   0.188
 6644SOL     OW20830   2.773   5.072   1.207
 6644SOL    HW120831   2.685   5.041   1.242
 6644SOL    HW220832   2.761   5.159   1.158
 6645SOL     OW20833   5.694   4.209   0.565
 6645SOL    HW120834   5.793   4.222   0.564
 6645SOL    HW220835   5.652   4.279   0.624
 6646SOL     OW20836   4.359   0.942   5.150
 6646SOL    HW120837   4.375   0.881   5.228
 6646SOL    HW220838   4.344   0.888   5.068
 6647SOL     OW20839   5.095   0.243   1.403
 6647SOL    HW120840   5.099   0.172   1.333
 6647SOL    HW220841   5.077   0.331   1.360
 6648SOL     OW20842   3.377   6.435   3.759
 6648SOL    HW120843   3.360   6.440   3.857
 6648SOL    HW220844   3.475   6.422   3.743
 6649SOL     OW20845   5.902   1.913   6.533
 6649SOL    HW120846   5.830   1.910   6.464
 6649SOL    HW220847   5.923   1.820   6.564
 6650SOL     OW20848   3.858   1.209   5.715
 6650SOL    HW120849   3.881   1.218   5.618
 6650SOL    HW220850   3.844   1.299   5.755
 6651SOL     OW20851   2.718   0.602   6.102
 6651SOL    HW120852   2.737   0.700   6.091
 6651SOL    HW220853   2.669   0.587   6.188
 6652SOL     OW20854   0.258   4.292   6.890
 6652SOL    HW120855   0.315   4.342   6.955
 6652SOL    HW220856   0.184   4.246   6.939
 6653SOL     OW20857   3.992   4.427   1.353
 6653SOL    HW120858   3.904   4.393   1.320
 6653SOL    HW220859   4.066   4.383   1.302
 6654SOL     OW20860   1.960   5.229   1.155
 6654SOL    HW120861   1.949   5.181   1.242
 6654SOL    HW220862   2.019   5.309   1.168
 6655SOL     OW20863   1.167   6.368   3.910
 6655SOL    HW120864   1.127   6.331   3.994
 6655SOL    HW220865   1.267   6.370   3.920
 6656SOL     OW20866   5.523   2.295   3.504
 6656SOL    HW120867   5.550   2.252   3.590
 6656SOL    HW220868   5.424   2.285   3.491
 6657SOL     OW20869   5.411   4.772   6.198
 6657SOL    HW120870   5.411   4.849   6.134
 6657SOL    HW220871   5.395   4.687   6.147
 6658SOL     OW20872   5.290   0.968   4.724
 6658SOL    HW120873   5.227   1.043   4.705
 6658SOL    HW220874   5.321   0.974   4.819
 6659SOL     OW20875   2.603   2.479   0.444
 6659SOL    HW120876   2.517   2.435   0.466
 6659SOL    HW220877   2.632   2.451   0.352
 6660SOL     OW20878   1.477   4.564   1.146
 6660SOL    HW120879   1.400   4.527   1.199
 6660SOL    HW220880   1.466   4.663   1.137
 6661SOL     OW20881   1.599   0.158   5.540
 6661SOL    HW120882   1.688   0.197   5.516
 6661SOL    HW220883   1.577   0.180   5.635
 6662SOL     OW20884   0.933   0.287   0.592
 6662SOL    HW120885   1.008   0.352   0.602
 6662SOL    HW220886   0.960   0.198   0.629
 6663SOL     OW20887   6.413   6.187   4.537
 6663SOL    HW120888   6.456   6.145   4.457
 6663SOL    HW220889   6.484   6.214   4.602
 6664SOL     OW20890   2.240   6.853   0.394
 6664SOL    HW120891   2.202   6.817   0.308
 6664SOL    HW220892   2.312   6.792   0.427
 6665SOL     OW20893   1.776   6.234   4.449
 6665SOL    HW120894   1.831   6.160   4.490
 6665SOL    HW220895   1.723   6.279   4.521
 6666SOL     OW20896   5.897   6.195   6.779
 6666SOL    HW120897   5.934   6.192   6.687
 6666SOL    HW220898   5.881   6.101   6.811
 6667SOL     OW20899   6.361   6.795   6.213
 6667SOL    HW120900   6.287   6.801   6.145
 6667SOL    HW220901   6.449   6.794   6.166
 6668SOL     OW20902   6.885   5.694   0.850
 6668SOL    HW120903   6.834   5.661   0.929
 6668SOL    HW220904   6.980   5.712   0.876
 6669SOL     OW20905   2.608   1.977   2.096
 6669SOL    HW120906   2.641   1.884   2.076
 6669SOL    HW220907   2.524   1.971   2.149
 6670SOL     OW20908   3.388   1.841   5.466
 6670SOL    HW120909   3.369   1.777   5.540
 6670SOL    HW220910   3.314   1.838   5.398
 6671SOL     OW20911   4.186   6.845   0.764
 6671SOL    HW120912   4.139   6.810   0.682
 6671SOL    HW220913   4.247   6.774   0.800
 6672SOL     OW20914   6.641   2.811   6.595
 6672SOL    HW120915   6.694   2.825   6.679
 6672SOL    HW220916   6.568   2.879   6.590
 6673SOL     OW20917   4.886   4.511   3.975
 6673SOL    HW120918   4.943   4.433   3.947
 6673SOL    HW220919   4.838   4.488   4.060
 6674SOL     OW20920   0.818   3.527   0.013
 6674SOL    HW120921   0.721   3.549   0.011
 6674SOL    HW220922   0.867   3.598   0.062
 6675SOL     OW20923   5.947   3.870   0.278
 6675SOL    HW120924   6.044   3.893   0.288
 6675SOL    HW220925   5.891   3.942   0.319
 6676SOL     OW20926   0.750   3.712   5.444
 6676SOL    HW120927   0.773   3.630   5.392
 6676SOL    HW220928   0.655   3.737   5.427
 6677SOL     OW20929   1.054   2.006   5.977
 6677SOL    HW120930   1.025   2.016   6.073
 6677SOL    HW220931   1.092   1.914   5.963
 6678SOL     OW20932   3.439   3.720   0.068
 6678SOL    HW120933   3.498   3.724   0.148
 6678SOL    HW220934   3.425   3.812   0.033
 6679SOL     OW20935   3.192   0.738   4.252
 6679SOL    HW120936   3.217   0.669   4.184
 6679SOL    HW220937   3.125   0.700   4.315
 6680SOL     OW20938   4.802   6.815   6.572
 6680SOL    HW120939   4.703   6.825   6.562
 6680SOL    HW220940   4.839   6.898   6.615
 6681SOL     OW20941   4.106   5.587   0.985
 6681SOL    HW120942   4.159   5.549   0.909
 6681SOL    HW220943   4.139   5.549   1.071
 6682SOL     OW20944   1.488   4.417   0.905
 6682SOL    HW120945   1.442   4.329   0.918
 6682SOL    HW220946   1.513   4.455   0.994
 6683SOL     OW20947   5.952   3.073   5.436
 6683SOL    HW120948   5.985   3.120   5.354
 6683SOL    HW220949   5.891   3.134   5.487
 6684SOL     OW20950   3.264   5.961   2.178
 6684SOL    HW120951   3.208   6.024   2.231
 6684SOL    HW220952   3.268   5.992   2.083
 6685SOL     OW20953   5.427   2.738   5.805
 6685SOL    HW120954   5.495   2.808   5.785
 6685SOL    HW220955   5.417   2.730   5.905
 6686SOL     OW20956   4.968   5.357   4.167
 6686SOL    HW120957   4.920   5.425   4.223
 6686SOL    HW220958   4.968   5.269   4.214
 6687SOL     OW20959   0.779   3.288   1.181
 6687SOL    HW120960   0.817   3.224   1.115
 6687SOL    HW220961   0.763   3.241   1.268
 6688SOL     OW20962   6.120   4.459   1.418
 6688SOL    HW120963   6.139   4.524   1.491
 6688SOL    HW220964   6.032   4.481   1.376
 6689SOL     OW20965   3.811   3.413   6.489
 6689SOL    HW120966   3.885   3.480   6.479
 6689SOL    HW220967   3.845   3.322   6.464
 6690SOL     OW20968   0.241   0.830   1.027
 6690SOL    HW120969   0.159   0.781   1.055
 6690SOL    HW220970   0.275   0.885   1.104
 6691SOL     OW20971   2.516   6.988   2.002
 6691SOL    HW120972   2.484   0.063   2.029
 6691SOL    HW220973   2.475   6.963   1.915
 6692SOL     OW20974   4.166   3.403   3.856
 6692SOL    HW120975   4.096   3.370   3.920
 6692SOL    HW220976   4.254   3.407   3.903
 6693SOL     OW20977   3.707   2.236   5.213
 6693SOL    HW120978   3.757   2.318   5.240
 6693SOL    HW220979   3.609   2.248   5.234
 6694SOL     OW20980   4.272   5.567   1.333
 6694SOL    HW120981   4.194   5.548   1.392
 6694SOL    HW220982   4.269   5.662   1.302
 6695SOL     OW20983   2.994   2.024   6.841
 6695SOL    HW120984   3.087   2.027   6.878
 6695SOL    HW220985   2.986   1.946   6.779
 6696SOL     OW20986   3.152   3.007   4.586
 6696SOL    HW120987   3.232   2.972   4.536
 6696SOL    HW220988   3.168   3.000   4.684
 6697SOL     OW20989   4.378   2.127   3.130
 6697SOL    HW120990   4.296   2.070   3.127
 6697SOL    HW220991   4.380   2.188   3.052
 6698SOL     OW20992   3.050   2.061   0.663
 6698SOL    HW120993   3.041   1.979   0.720
 6698SOL    HW220994   3.144   2.093   0.665
 6699SOL     OW20995   2.705   5.789   5.656
 6699SOL    HW120996   2.798   5.753   5.668
 6699SOL    HW220997   2.682   5.789   5.559
 6700SOL     OW20998   0.600   0.874   1.098
 6700SOL    HW120999   0.649   0.831   1.023
 6700SOL    HW221000   0.609   0.973   1.092
 6701SOL     OW21001   5.868   5.195   1.868
 6701SOL    HW121002   5.863   5.287   1.907
 6701SOL    HW221003   5.801   5.136   1.913
 6702SOL     OW21004   2.812   2.044   1.667
 6702SOL    HW121005   2.748   2.079   1.736
 6702SOL    HW221006   2.895   2.100   1.667
 6703SOL     OW21007   5.854   0.744   0.470
 6703SOL    HW121008   5.913   0.667   0.493
 6703SOL    HW221009   5.906   0.812   0.418
 6704SOL     OW21010   3.838   1.700   3.410
 6704SOL    HW121011   3.848   1.683   3.508
 6704SOL    HW221012   3.769   1.638   3.372
 6705SOL     OW21013   6.253   3.940   1.514
 6705SOL    HW121014   6.346   3.966   1.539
 6705SOL    HW221015   6.201   4.022   1.488
 6706SOL     OW21016   1.656   4.549   1.565
 6706SOL    HW121017   1.669   4.623   1.631
 6706SOL    HW221018   1.589   4.484   1.601
 6707SOL     OW21019   6.193   6.352   3.631
 6707SOL    HW121020   6.168   6.397   3.717
 6707SOL    HW221021   6.129   6.378   3.560
 6708SOL     OW21022   6.836   4.394   0.849
 6708SOL    HW121023   6.860   4.319   0.786
 6708SOL    HW221024   6.779   4.460   0.801
 6709SOL     OW21025   2.154   6.502   2.275
 6709SOL    HW121026   2.098   6.523   2.195
 6709SOL    HW221027   2.247   6.533   2.260
 6710SOL     OW21028   4.186   1.412   6.453
 6710SOL    HW121029   4.094   1.440   6.425
 6710SOL    HW221030   4.249   1.424   6.377
 6711SOL     OW21031   4.915   6.342   5.770
 6711SOL    HW121032   4.880   6.333   5.863
 6711SOL    HW221033   5.015   6.337   5.771
 6712SOL     OW21034   5.358   4.225   0.483
 6712SOL    HW121035   5.411   4.149   0.520
 6712SOL    HW221036   5.420   4.295   0.447
 6713SOL     OW21037   2.127   0.284   2.621
 6713SOL    HW121038   2.111   0.192   2.583
 6713SOL    HW221039   2.101   0.353   2.553
 6714SOL     OW21040   6.575   0.833   5.958
 6714SOL    HW121041   6.578   0.811   5.861
 6714SOL    HW221042   6.658   0.882   5.984
 6715SOL     OW21043   0.388   0.389   0.570
 6715SOL    HW121044   0.389   0.485   0.600
 6715SOL    HW221045   0.436   0.333   0.637
 6716SOL     OW21046   0.487   5.496   2.092
 6716SOL    HW121047   0.481   5.578   2.036
 6716SOL    HW221048   0.579   5.488   2.130
 6717SOL     OW21049   3.620   2.687   6.616
 6717SOL    HW121050   3.567   2.690   6.700
 6717SOL    HW221051   3.657   2.595   6.603
 6718SOL     OW21052   5.208   0.826   0.749
 6718SOL    HW121053   5.156   0.893   0.697
 6718SOL    HW221054   5.197   0.844   0.847
 6719SOL     OW21055   2.967   6.534   6.828
 6719SOL    HW121056   2.905   6.491   6.761
 6719SOL    HW221057   2.932   6.625   6.851
 6720SOL     OW21058   1.794   0.653   4.457
 6720SOL    HW121059   1.872   0.700   4.497
 6720SOL    HW221060   1.734   0.619   4.530
 6721SOL     OW21061   6.859   6.438   0.335
 6721SOL    HW121062   6.773   6.387   0.343
 6721SOL    HW221063   6.922   6.386   0.277
 6722SOL     OW21064   6.632   3.123   1.764
 6722SOL    HW121065   6.716   3.141   1.713
 6722SOL    HW221066   6.615   3.024   1.768
 6723SOL     OW21067   1.905   6.495   4.457
 6723SOL    HW121068   1.851   6.411   4.465
 6723SOL    HW221069   1.995   6.481   4.498
 6724SOL     OW21070   2.047   3.680   5.720
 6724SOL    HW121071   2.023   3.592   5.762
 6724SOL    HW221072   2.097   3.664   5.636
 6725SOL     OW21073   0.259   3.799   1.528
 6725SOL    HW121074   0.356   3.773   1.537
 6725SOL    HW221075   0.205   3.750   1.596
 6726SOL     OW21076   1.023   2.496   4.971
 6726SOL    HW121077   0.986   2.416   5.017
 6726SOL    HW221078   1.041   2.568   5.038
 6727SOL     OW21079   0.683   4.810   5.468
 6727SOL    HW121080   0.674   4.820   5.369
 6727SOL    HW221081   0.780   4.799   5.491
 6728SOL     OW21082   3.482   2.056   2.172
 6728SOL    HW121083   3.461   2.062   2.270
 6728SOL    HW221084   3.551   2.123   2.148
 6729SOL     OW21085   6.401   0.855   2.470
 6729SOL    HW121086   6.447   0.779   2.425
 6729SOL    HW221087   6.350   0.821   2.549
 6730SOL     OW21088   1.662   6.818   1.202
 6730SOL    HW121089   1.634   6.725   1.224
 6730SOL    HW221090   1.728   6.817   1.127
 6731SOL     OW21091   1.214   6.360   1.217
 6731SOL    HW121092   1.152   6.329   1.144
 6731SOL    HW221093   1.281   6.288   1.236
 6732SOL     OW21094   5.503   4.444   5.000
 6732SOL    HW121095   5.418   4.419   5.045
 6732SOL    HW221096   5.572   4.374   5.017
 6733SOL     OW21097   3.716   5.281   6.197
 6733SOL    HW121098   3.814   5.277   6.179
 6733SOL    HW221099   3.672   5.338   6.128
 6734SOL     OW21100   5.830   2.496   4.230
 6734SOL    HW121101   5.771   2.415   4.239
 6734SOL    HW221102   5.919   2.477   4.270
 6735SOL     OW21103   0.087   4.360   4.955
 6735SOL    HW121104   7.014   4.405   4.942
 6735SOL    HW221105   0.086   4.270   4.911
 6736SOL     OW21106   3.181   3.880   0.238
 6736SOL    HW121107   3.096   3.932   0.248
 6736SOL    HW221108   3.193   3.853   0.142
 6737SOL     OW21109   1.466   2.578   1.038
 6737SOL    HW121110   1.432   2.652   1.097
 6737SOL    HW221111   1.542   2.532   1.084
 6738SOL     OW21112   1.494   5.863   3.438
 6738SOL    HW121113   1.431   5.786   3.430
 6738SOL    HW221114   1.576   5.845   3.383
 6739SOL     OW21115   4.395   5.933   4.660
 6739SOL    HW121116   4.424   5.887   4.576
 6739SOL    HW221117   4.447   6.017   4.672
 6740SOL     OW21118   1.019   0.407   5.104
 6740SOL    HW121119   1.027   0.311   5.080
 6740SOL    HW221120   1.106   0.439   5.142
 6741SOL     OW21121   4.323   1.820   5.155
 6741SOL    HW121122   4.373   1.852   5.074
 6741SOL    HW221123   4.267   1.894   5.191
 6742SOL     OW21124   5.744   6.178   2.773
 6742SOL    HW121125   5.685   6.244   2.819
 6742SOL    HW221126   5.735   6.089   2.817
 6743SOL     OW21127   3.980   4.579   6.692
 6743SOL    HW121128   3.895   4.527   6.701
 6743SOL    HW221129   3.994   4.602   6.596
 6744SOL     OW21130   6.136   4.199   5.948
 6744SOL    HW121131   6.128   4.295   5.976
 6744SOL    HW221132   6.051   4.151   5.969
 6745SOL     OW21133   6.871   6.766   3.456
 6745SOL    HW121134   6.968   6.778   3.478
 6745SOL    HW221135   6.838   6.847   3.407
 6746SOL     OW21136   1.013   0.975   3.521
 6746SOL    HW121137   1.013   1.064   3.565
 6746SOL    HW221138   1.107   0.944   3.509
 6747SOL     OW21139   5.430   1.476   4.847
 6747SOL    HW121140   5.384   1.399   4.890
 6747SOL    HW221141   5.377   1.560   4.860
 6748SOL     OW21142   3.195   1.803   4.014
 6748SOL    HW121143   3.253   1.723   4.032
 6748SOL    HW221144   3.169   1.846   4.100
 6749SOL     OW21145   3.808   4.963   0.466
 6749SOL    HW121146   3.785   5.060   0.481
 6749SOL    HW221147   3.847   4.925   0.550
 6750SOL     OW21148   3.500   1.709   4.613
 6750SOL    HW121149   3.403   1.712   4.636
 6750SOL    HW221150   3.547   1.786   4.657
 6751SOL     OW21151   4.934   6.903   3.181
 6751SOL    HW121152   4.843   6.887   3.143
 6751SOL    HW221153   5.003   6.879   3.113
 6752SOL     OW21154   1.404   1.149   3.268
 6752SOL    HW121155   1.395   1.056   3.302
 6752SOL    HW221156   1.497   1.163   3.234
 6753SOL     OW21157   2.965   0.597   6.412
 6753SOL    HW121158   2.907   0.676   6.392
 6753SOL    HW221159   3.019   0.616   6.494
 6754SOL     OW21160   7.013   1.768   1.078
 6754SOL    HW121161   6.940   1.832   1.100
 6754SOL    HW221162   6.977   1.675   1.077
 6755SOL     OW21163   4.042   1.033   2.530
 6755SOL    HW121164   4.140   1.018   2.518
 6755SOL    HW221165   4.008   0.970   2.600
 6756SOL     OW21166   3.812   5.914   5.240
 6756SOL    HW121167   3.800   5.986   5.172
 6756SOL    HW221168   3.767   5.942   5.325
 6757SOL     OW21169   4.133   1.987   0.759
 6757SOL    HW121170   4.100   2.029   0.843
 6757SOL    HW221171   4.226   2.019   0.740
 6758SOL     OW21172   6.166   1.949   2.420
 6758SOL    HW121173   6.203   1.930   2.511
 6758SOL    HW221174   6.230   1.916   2.351
 6759SOL     OW21175   1.275   4.105   4.511
 6759SOL    HW121176   1.364   4.129   4.550
 6759SOL    HW221177   1.233   4.032   4.566
 6760SOL     OW21178   6.610   4.077   2.520
 6760SOL    HW121179   6.634   4.165   2.479
 6760SOL    HW221180   6.635   4.003   2.456
 6761SOL     OW21181   6.415   2.763   5.623
 6761SOL    HW121182   6.419   2.665   5.600
 6761SOL    HW221183   6.457   2.778   5.712
 6762SOL     OW21184   1.059   5.127   5.259
 6762SOL    HW121185   1.081   5.182   5.178
 6762SOL    HW221186   0.994   5.056   5.234
 6763SOL     OW21187   0.494   5.238   3.460
 6763SOL    HW121188   0.457   5.201   3.545
 6763SOL    HW221189   0.441   5.319   3.434
 6764SOL     OW21190   1.319   5.376   1.165
 6764SOL    HW121191   1.375   5.306   1.208
 6764SOL    HW221192   1.355   5.466   1.188
 6765SOL     OW21193   5.517   4.566   3.847
 6765SOL    HW121194   5.464   4.564   3.763
 6765SOL    HW221195   5.513   4.477   3.891
 6766SOL     OW21196   5.019   6.752   5.950
 6766SOL    HW121197   5.103   6.725   5.997
 6766SOL    HW221198   5.002   6.850   5.966
 6767SOL     OW21199   2.132   1.783   1.200
 6767SOL    HW121200   2.200   1.810   1.268
 6767SOL    HW221201   2.178   1.737   1.123
 6768SOL     OW21202   1.481   6.592   4.380
 6768SOL    HW121203   1.517   6.663   4.440
 6768SOL    HW221204   1.489   6.620   4.285
 6769SOL     OW21205   2.989   0.528   6.066
 6769SOL    HW121206   2.895   0.519   6.099
 6769SOL    HW221207   3.001   0.471   5.985
 6770SOL     OW21208   5.391   1.549   3.454
 6770SOL    HW121209   5.315   1.601   3.492
 6770SOL    HW221210   5.430   1.598   3.377
 6771SOL     OW21211   3.881   1.707   2.731
 6771SOL    HW121212   3.950   1.777   2.711
 6771SOL    HW221213   3.922   1.616   2.723
 6772SOL     OW21214   4.478   2.475   2.497
 6772SOL    HW121215   4.405   2.452   2.562
 6772SOL    HW221216   4.451   2.445   2.406
 6773SOL     OW21217   0.337   5.899   1.833
 6773SOL    HW121218   0.345   5.988   1.789
 6773SOL    HW221219   0.277   5.840   1.779
 6774SOL     OW21220   1.224   4.123   5.343
 6774SOL    HW121221   1.287   4.199   5.332
 6774SOL    HW221222   1.261   4.041   5.299
 6775SOL     OW21223   2.692   2.145   2.493
 6775SOL    HW121224   2.746   2.158   2.410
 6775SOL    HW221225   2.736   2.192   2.570
 6776SOL     OW21226   4.463   3.195   0.009
 6776SOL    HW121227   4.367   3.220   7.011
 6776SOL    HW221228   4.516   3.219   6.943
 6777SOL     OW21229   5.131   4.721   0.664
 6777SOL    HW121230   5.179   4.634   0.672
 6777SOL    HW221231   5.073   4.719   0.582
 6778SOL     OW21232   6.770   5.676   2.022
 6778SOL    HW121233   6.821   5.592   2.003
 6778SOL    HW221234   6.812   5.752   1.972
 6779SOL     OW21235   5.455   6.002   5.761
 6779SOL    HW121236   5.404   5.932   5.712
 6779SOL    HW221237   5.547   5.967   5.782
 6780SOL     OW21238   1.647   2.425   2.348
 6780SOL    HW121239   1.556   2.433   2.307
 6780SOL    HW221240   1.659   2.497   2.417
 6781SOL     OW21241   6.266   2.130   4.175
 6781SOL    HW121242   6.203   2.081   4.236
 6781SOL    HW221243   6.241   2.113   4.080
 6782SOL     OW21244   1.049   0.861   3.079
 6782SOL    HW121245   1.008   0.897   3.163
 6782SOL    HW221246   0.982   0.863   3.005
 6783SOL     OW21247   6.529   1.270   5.977
 6783SOL    HW121248   6.473   1.187   5.972
 6783SOL    HW221249   6.606   1.254   6.040
 6784SOL     OW21250   1.834   3.687   0.797
 6784SOL    HW121251   1.925   3.683   0.838
 6784SOL    HW221252   1.824   3.773   0.747
 6785SOL     OW21253   6.058   5.698   4.818
 6785SOL    HW121254   5.997   5.774   4.836
 6785SOL    HW221255   6.130   5.694   4.887
 6786SOL     OW21256   1.889   2.023   0.653
 6786SOL    HW121257   1.954   1.980   0.590
 6786SOL    HW221258   1.918   2.005   0.747
 6787SOL     OW21259   2.685   2.524   0.133
 6787SOL    HW121260   2.713   2.615   0.105
 6787SOL    HW221261   2.586   2.515   0.123
 6788SOL     OW21262   1.279   4.471   1.330
 6788SOL    HW121263   1.331   4.397   1.375
 6788SOL    HW221264   1.192   4.435   1.297
 6789SOL     OW21265   1.115   5.397   3.175
 6789SOL    HW121266   1.072   5.365   3.090
 6789SOL    HW221267   1.089   5.492   3.192
 6790SOL     OW21268   0.925   3.725   0.567
 6790SOL    HW121269   0.941   3.626   0.573
 6790SOL    HW221270   0.964   3.760   0.482
 6791SOL     OW21271   3.887   2.032   2.033
 6791SOL    HW121272   3.810   2.093   2.054
 6791SOL    HW221273   3.853   1.939   2.022
 6792SOL     OW21274   5.542   6.841   4.529
 6792SOL    HW121275   5.602   6.807   4.456
 6792SOL    HW221276   5.485   6.915   4.492
 6793SOL     OW21277   1.711   1.206   0.166
 6793SOL    HW121278   1.647   1.129   0.169
 6793SOL    HW221279   1.801   1.173   0.136
 6794SOL     OW21280   4.712   1.410   5.429
 6794SOL    HW121281   4.705   1.325   5.378
 6794SOL    HW221282   4.761   1.393   5.515
 6795SOL     OW21283   1.480   6.406   0.965
 6795SOL    HW121284   1.407   6.474   0.953
 6795SOL    HW221285   1.441   6.322   1.003
 6796SOL     OW21286   5.547   1.189   3.291
 6796SOL    HW121287   5.458   1.147   3.273
 6796SOL    HW221288   5.541   1.245   3.374
 6797SOL     OW21289   6.756   1.995   1.664
 6797SOL    HW121290   6.708   1.909   1.647
 6797SOL    HW221291   6.690   2.070   1.669
 6798SOL     OW21292   6.484   6.269   1.671
 6798SOL    HW121293   6.505   6.290   1.766
 6798SOL    HW221294   6.387   6.246   1.663
 6799SOL     OW21295   0.197   0.562   2.212
 6799SOL    HW121296   0.184   0.509   2.128
 6799SOL    HW221297   0.288   0.603   2.212
 6800SOL     OW21298   2.304   2.203   2.343
 6800SOL    HW121299   2.376   2.272   2.341
 6800SOL    HW221300   2.273   2.190   2.437
 6801SOL     OW21301   0.977   0.084   3.092
 6801SOL    HW121302   1.038   0.114   3.167
 6801SOL    HW221303   0.919   0.009   3.125
 6802SOL     OW21304   3.573   6.094   1.635
 6802SOL    HW121305   3.564   6.006   1.589
 6802SOL    HW221306   3.581   6.167   1.567
 6803SOL     OW21307   4.159   3.864   5.735
 6803SOL    HW121308   4.099   3.874   5.815
 6803SOL    HW221309   4.231   3.798   5.756
 6804SOL     OW21310   3.654   5.236   3.745
 6804SOL    HW121311   3.691   5.211   3.835
 6804SOL    HW221312   3.718   5.207   3.674
 6805SOL     OW21313   0.143   4.967   6.653
 6805SOL    HW121314   0.197   5.051   6.652
 6805SOL    HW221315   0.179   4.905   6.723
 6806SOL     OW21316   6.568   1.139   3.069
 6806SOL    HW121317   6.588   1.106   3.161
 6806SOL    HW221318   6.626   1.218   3.048
 6807SOL     OW21319   3.018   2.953   1.436
 6807SOL    HW121320   3.076   3.015   1.488
 6807SOL    HW221321   3.075   2.887   1.387
 6808SOL     OW21322   6.508   1.682   6.430
 6808SOL    HW121323   6.535   1.644   6.341
 6808SOL    HW221324   6.421   1.642   6.458
 6809SOL     OW21325   0.612   3.029   1.320
 6809SOL    HW121326   0.675   3.090   1.369
 6809SOL    HW221327   0.663   2.972   1.257
 6810SOL     OW21328   1.980   1.145   2.208
 6810SOL    HW121329   1.968   1.242   2.188
 6810SOL    HW221330   2.027   1.100   2.132
 6811SOL     OW21331   5.402   4.326   1.438
 6811SOL    HW121332   5.502   4.334   1.436
 6811SOL    HW221333   5.370   4.340   1.532
 6812SOL     OW21334   3.128   3.499   4.406
 6812SOL    HW121335   3.155   3.403   4.401
 6812SOL    HW221336   3.197   3.550   4.458
 6813SOL     OW21337   5.587   3.977   2.813
 6813SOL    HW121338   5.686   3.971   2.801
 6813SOL    HW221339   5.554   3.897   2.863
 6814SOL     OW21340   3.920   2.348   6.037
 6814SOL    HW121341   3.947   2.253   6.022
 6814SOL    HW221342   3.957   2.381   6.123
 6815SOL     OW21343   3.413   5.998   0.445
 6815SOL    HW121344   3.424   6.018   0.543
 6815SOL    HW221345   3.343   5.927   0.434
 6816SOL     OW21346   6.551   0.869   6.431
 6816SOL    HW121347   6.498   0.831   6.355
 6816SOL    HW221348   6.508   0.953   6.463
 6817SOL     OW21349   2.585   2.455   2.573
 6817SOL    HW121350   2.531   2.537   2.590
 6817SOL    HW221351   2.571   2.425   2.479
 6818SOL     OW21352   2.381   6.244   0.951
 6818SOL    HW121353   2.431   6.302   1.016
 6818SOL    HW221354   2.313   6.190   1.001
 6819SOL     OW21355   3.661   1.495   3.336
 6819SOL    HW121356   3.591   1.445   3.286
 6819SOL    HW221357   3.727   1.431   3.375
 6820SOL     OW21358   1.931   6.167   1.249
 6820SOL    HW121359   1.855   6.172   1.314
 6820SOL    HW221360   2.018   6.174   1.299
 6821SOL     OW21361   4.020   2.098   5.155
 6821SOL    HW121362   3.943   2.102   5.091
 6821SOL    HW221363   4.002   2.029   5.225
 6822SOL     OW21364   5.801   2.225   5.776
 6822SOL    HW121365   5.785   2.209   5.678
 6822SOL    HW221366   5.898   2.210   5.797
 6823SOL     OW21367   5.215   3.874   5.832
 6823SOL    HW121368   5.257   3.801   5.885
 6823SOL    HW221369   5.281   3.909   5.765
 6824SOL     OW21370   1.293   1.848   0.108
 6824SOL    HW121371   1.284   1.780   0.035
 6824SOL    HW221372   1.209   1.900   0.116
 6825SOL     OW21373   5.611   0.371   0.510
 6825SOL    HW121374   5.625   0.423   0.425
 6825SOL    HW221375   5.524   0.322   0.505
 6826SOL     OW21376   1.863   3.216   3.389
 6826SOL    HW121377   1.883   3.312   3.371
 6826SOL    HW221378   1.874   3.163   3.304
 6827SOL     OW21379   4.801   5.258   5.780
 6827SOL    HW121380   4.863   5.191   5.819
 6827SOL    HW221381   4.733   5.284   5.848
 6828SOL     OW21382   3.402   1.107   1.832
 6828SOL    HW121383   3.440   1.195   1.860
 6828SOL    HW221384   3.464   1.033   1.859
 6829SOL     OW21385   4.716   6.013   4.608
 6829SOL    HW121386   4.651   6.057   4.546
 6829SOL    HW221387   4.768   6.083   4.657
 6830SOL     OW21388   4.744   0.575   3.322
 6830SOL    HW121389   4.701   0.505   3.265
 6830SOL    HW221390   4.745   0.546   3.417
 6831SOL     OW21391   0.953   0.647   6.715
 6831SOL    HW121392   1.032   0.708   6.712
 6831SOL    HW221393   0.970   0.568   6.655
 6832SOL     OW21394   2.284   4.238   0.647
 6832SOL    HW121395   2.205   4.180   0.667
 6832SOL    HW221396   2.254   4.320   0.599
 6833SOL     OW21397   3.121   4.973   6.240
 6833SOL    HW121398   3.086   4.900   6.181
 6833SOL    HW221399   3.044   5.023   6.279
 6834SOL     OW21400   5.305   6.981   0.578
 6834SOL    HW121401   5.288   6.914   0.506
 6834SOL    HW221402   5.219   7.008   0.619
 6835SOL     OW21403   4.609   0.533   4.784
 6835SOL    HW121404   4.708   0.520   4.779
 6835SOL    HW221405   4.572   0.479   4.860
 6836SOL     OW21406   3.181   4.471   0.513
 6836SOL    HW121407   3.144   4.405   0.448
 6836SOL    HW221408   3.161   4.441   0.606
 6837SOL     OW21409   0.719   2.031   3.018
 6837SOL    HW121410   0.734   2.054   3.114
 6837SOL    HW221411   0.666   1.947   3.011
 6838SOL     OW21412   3.437   6.388   0.236
 6838SOL    HW121413   3.489   6.302   0.245
 6838SOL    HW221414   3.343   6.367   0.210
 6839SOL     OW21415   5.595   1.363   6.106
 6839SOL    HW121416   5.667   1.408   6.160
 6839SOL    HW221417   5.508   1.371   6.154
 6840SOL     OW21418   3.265   0.525   4.121
 6840SOL    HW121419   3.333   0.461   4.159
 6840SOL    HW221420   3.294   0.553   4.030
 6841SOL     OW21421   4.112   4.625   0.591
 6841SOL    HW121422   4.150   4.688   0.524
 6841SOL    HW221423   4.038   4.573   0.549
 6842SOL     OW21424   2.648   3.468   0.716
 6842SOL    HW121425   2.611   3.513   0.635
 6842SOL    HW221426   2.630   3.369   0.711
 6843SOL     OW21427   6.287   6.490   1.751
 6843SOL    HW121428   6.362   6.489   1.817
 6843SOL    HW221429   6.238   6.404   1.754
 6844SOL     OW21430   4.610   0.278   3.649
 6844SOL    HW121431   4.614   0.255   3.552
 6844SOL    HW221432   4.562   0.206   3.698
 6845SOL     OW21433   6.274   5.136   3.806
 6845SOL    HW121434   6.267   5.105   3.901
 6845SOL    HW221435   6.262   5.236   3.803
 6846SOL     OW21436   3.998   2.787   0.377
 6846SOL    HW121437   3.944   2.782   0.294
 6846SOL    HW221438   4.091   2.815   0.355
 6847SOL     OW21439   0.108   4.219   3.447
 6847SOL    HW121440   0.058   4.295   3.486
 6847SOL    HW221441   0.045   4.144   3.427
 6848SOL     OW21442   4.226   6.926   3.601
 6848SOL    HW121443   4.254   6.830   3.591
 6848SOL    HW221444   4.306   6.985   3.591
 6849SOL     OW21445   4.093   4.929   4.684
 6849SOL    HW121446   4.116   4.898   4.592
 6849SOL    HW221447   4.015   4.993   4.679
 6850SOL     OW21448   6.221   4.329   1.786
 6850SOL    HW121449   6.268   4.372   1.708
 6850SOL    HW221450   6.163   4.397   1.831
 6851SOL     OW21451   0.906   2.543   2.940
 6851SOL    HW121452   0.812   2.545   2.905
 6851SOL    HW221453   0.909   2.486   3.022
 6852SOL     OW21454   2.585   4.931   0.741
 6852SOL    HW121455   2.535   4.950   0.657
 6852SOL    HW221456   2.533   4.964   0.819
 6853SOL     OW21457   6.554   3.928   0.293
 6853SOL    HW121458   6.650   3.904   0.286
 6853SOL    HW221459   6.499   3.863   0.239
 6854SOL     OW21460   4.663   2.256   6.123
 6854SOL    HW121461   4.749   2.291   6.159
 6854SOL    HW221462   4.587   2.309   6.160
 6855SOL     OW21463   3.722   5.478   3.368
 6855SOL    HW121464   3.656   5.454   3.297
 6855SOL    HW221465   3.675   5.491   3.455
 6856SOL     OW21466   5.533   3.421   5.212
 6856SOL    HW121467   5.518   3.332   5.255
 6856SOL    HW221468   5.450   3.449   5.163
 6857SOL     OW21469   3.168   2.367   0.001
 6857SOL    HW121470   3.234   2.401   6.951
 6857SOL    HW221471   3.076   2.393   6.989
 6858SOL     OW21472   3.863   3.809   3.544
 6858SOL    HW121473   3.806   3.728   3.539
 6858SOL    HW221474   3.920   3.806   3.627
 6859SOL     OW21475   0.356   0.914   0.770
 6859SOL    HW121476   0.421   0.843   0.743
 6859SOL    HW221477   0.302   0.882   0.848
 6860SOL     OW21478   0.018   4.782   1.500
 6860SOL    HW121479   0.082   4.744   1.432
 6860SOL    HW221480   0.007   4.880   1.484
 6861SOL     OW21481   4.496   4.775   0.156
 6861SOL    HW121482   4.398   4.793   0.173
 6861SOL    HW221483   4.527   4.702   0.216
 6862SOL     OW21484   1.762   4.949   5.585
 6862SOL    HW121485   1.844   4.893   5.596
 6862SOL    HW221486   1.703   4.909   5.515
 6863SOL     OW21487   5.691   0.165   6.058
 6863SOL    HW121488   5.693   0.213   6.145
 6863SOL    HW221489   5.674   0.068   6.073
 6864SOL     OW21490   2.681   5.534   4.399
 6864SOL    HW121491   2.700   5.439   4.424
 6864SOL    HW221492   2.630   5.536   4.313
 6865SOL     OW21493   1.283   6.084   3.342
 6865SOL    HW121494   1.363   6.041   3.300
 6865SOL    HW221495   1.287   6.070   3.441
 6866SOL     OW21496   6.436   4.903   3.473
 6866SOL    HW121497   6.386   4.919   3.388
 6866SOL    HW221498   6.517   4.848   3.454
 6867SOL     OW21499   2.382   3.873   1.581
 6867SOL    HW121500   2.479   3.849   1.572
 6867SOL    HW221501   2.371   3.971   1.564
 6868SOL     OW21502   1.126   5.392   6.005
 6868SOL    HW121503   1.123   5.295   5.981
 6868SOL    HW221504   1.124   5.447   5.922
 6869SOL     OW21505   6.125   1.208   5.744
 6869SOL    HW121506   6.089   1.244   5.658
 6869SOL    HW221507   6.064   1.231   5.819
 6870SOL     OW21508   0.460   5.166   1.783
 6870SOL    HW121509   0.470   5.075   1.744
 6870SOL    HW221510   0.518   5.230   1.733
 6871SOL     OW21511   6.113   4.493   3.497
 6871SOL    HW121512   6.117   4.459   3.591
 6871SOL    HW221513   6.192   4.552   3.480
 6872SOL     OW21514   0.186   2.783   1.277
 6872SOL    HW121515   0.267   2.838   1.292
 6872SOL    HW221516   0.201   2.721   1.200
 6873SOL     OW21517   6.855   3.847   5.315
 6873SOL    HW121518   6.787   3.810   5.252
 6873SOL    HW221519   6.874   3.779   5.386
 6874SOL     OW21520   0.285   5.806   2.603
 6874SOL    HW121521   0.313   5.886   2.657
 6874SOL    HW221522   0.270   5.834   2.509
 6875SOL     OW21523   2.505   2.599   3.126
 6875SOL    HW121524   2.426   2.629   3.179
 6875SOL    HW221525   2.569   2.675   3.116
 6876SOL     OW21526   3.332   6.935   3.650
 6876SOL    HW121527   3.249   6.960   3.601
 6876SOL    HW221528   3.319   6.846   3.696
 6877SOL     OW21529   2.727   4.011   0.981
 6877SOL    HW121530   2.805   3.952   0.960
 6877SOL    HW221531   2.749   4.106   0.957
 6878SOL     OW21532   3.212   1.333   5.398
 6878SOL    HW121533   3.186   1.417   5.351
 6878SOL    HW221534   3.250   1.268   5.332
 6879SOL     OW21535   0.746   2.314   0.973
 6879SOL    HW121536   0.662   2.279   0.934
 6879SOL    HW221537   0.767   2.266   1.058
 6880SOL     OW21538   1.535   4.951   4.606
 6880SOL    HW121539   1.476   4.874   4.629
 6880SOL    HW221540   1.631   4.924   4.617
 6881SOL     OW21541   1.739   4.163   0.640
 6881SOL    HW121542   1.820   4.122   0.682
 6881SOL    HW221543   1.674   4.090   0.616
 6882SOL     OW21544   2.717   0.586   0.098
 6882SOL    HW121545   2.717   0.595   7.014
 6882SOL    HW221546   2.737   0.674   0.140
 6883SOL     OW21547   4.747   1.092   0.293
 6883SOL    HW121548   4.733   1.044   0.380
 6883SOL    HW221549   4.660   1.128   0.260
 6884SOL     OW21550   2.521   4.534   3.997
 6884SOL    HW121551   2.565   4.447   3.972
 6884SOL    HW221552   2.497   4.532   4.094
 6885SOL     OW21553   3.965   5.099   3.882
 6885SOL    HW121554   4.045   5.153   3.856
 6885SOL    HW221555   3.973   5.007   3.845
 6886SOL     OW21556   6.846   0.990   4.308
 6886SOL    HW121557   6.864   0.906   4.360
 6886SOL    HW221558   6.766   1.036   4.345
 6887SOL     OW21559   5.209   5.820   6.157
 6887SOL    HW121560   5.154   5.739   6.135
 6887SOL    HW221561   5.171   5.866   6.237
 6888SOL     OW21562   5.492   6.218   6.923
 6888SOL    HW121563   5.431   6.294   6.903
 6888SOL    HW221564   5.441   6.132   6.916
 6889SOL     OW21565   2.318   2.256   5.039
 6889SOL    HW121566   2.263   2.271   4.957
 6889SOL    HW221567   2.291   2.320   5.110
 6890SOL     OW21568   4.763   6.203   1.865
 6890SOL    HW121569   4.790   6.261   1.788
 6890SOL    HW221570   4.663   6.193   1.865
 6891SOL     OW21571   2.046   4.465   3.072
 6891SOL    HW121572   1.985   4.470   3.151
 6891SOL    HW221573   2.129   4.416   3.097
 6892SOL     OW21574   3.127   2.115   3.220
 6892SOL    HW121575   3.044   2.170   3.214
 6892SOL    HW221576   3.105   2.023   3.252
 6893SOL     OW21577   4.077   4.244   6.938
 6893SOL    HW121578   4.144   4.303   6.892
 6893SOL    HW221579   4.125   4.174   6.990
 6894SOL     OW21580   6.545   4.650   1.160
 6894SOL    HW121581   6.467   4.609   1.208
 6894SOL    HW221582   6.603   4.577   1.123
 6895SOL     OW21583   3.405   4.877   0.304
 6895SOL    HW121584   3.385   4.955   0.363
 6895SOL    HW221585   3.501   4.879   0.276
 6896SOL     OW21586   2.350   0.023   3.848
 6896SOL    HW121587   2.296   6.956   3.863
 6896SOL    HW221588   2.414   0.035   3.923
 6897SOL     OW21589   4.805   3.955   5.981
 6897SOL    HW121590   4.733   3.978   5.916
 6897SOL    HW221591   4.803   4.020   6.057
 6898SOL     OW21592   3.384   1.415   1.465
 6898SOL    HW121593   3.387   1.385   1.369
 6898SOL    HW221594   3.360   1.338   1.524
 6899SOL     OW21595   5.366   6.466   1.231
 6899SOL    HW121596   5.457   6.434   1.204
 6899SOL    HW221597   5.361   6.474   1.330
 6900SOL     OW21598   6.290   6.445   5.408
 6900SOL    HW121599   6.250   6.511   5.345
 6900SOL    HW221600   6.363   6.394   5.363
 6901SOL     OW21601   6.970   6.131   6.286
 6901SOL    HW121602   6.906   6.208   6.290
 6901SOL    HW221603   6.919   6.045   6.296
 6902SOL     OW21604   5.506   5.991   6.673
 6902SOL    HW121605   5.492   5.898   6.706
 6902SOL    HW221606   5.463   6.001   6.583
 6903SOL     OW21607   2.837   5.535   4.818
 6903SOL    HW121608   2.782   5.496   4.892
 6903SOL    HW221609   2.806   5.498   4.731
 6904SOL     OW21610   5.432   0.502   4.466
 6904SOL    HW121611   5.426   0.577   4.401
 6904SOL    HW221612   5.472   0.535   4.552
 6905SOL     OW21613   5.932   6.500   6.373
 6905SOL    HW121614   5.974   6.457   6.293
 6905SOL    HW221615   5.995   6.495   6.450
 6906SOL     OW21616   4.601   1.164   3.713
 6906SOL    HW121617   4.560   1.128   3.796
 6906SOL    HW221618   4.700   1.152   3.716
 6907SOL     OW21619   5.204   2.631   1.794
 6907SOL    HW121620   5.177   2.616   1.890
 6907SOL    HW221621   5.179   2.724   1.768
 6908SOL     OW21622   0.941   5.569   6.204
 6908SOL    HW121623   1.011   5.538   6.140
 6908SOL    HW221624   0.918   5.496   6.268
 6909SOL     OW21625   5.190   4.478   1.339
 6909SOL    HW121626   5.163   4.446   1.248
 6909SOL    HW221627   5.267   4.424   1.372
 6910SOL     OW21628   0.021   2.132   3.350
 6910SOL    HW121629   6.944   2.101   3.331
 6910SOL    HW221630   0.044   2.112   3.445
 6911SOL     OW21631   4.520   6.004   3.968
 6911SOL    HW121632   4.486   6.095   3.943
 6911SOL    HW221633   4.599   5.982   3.910
 6912SOL     OW21634   3.956   4.198   6.627
 6912SOL    HW121635   3.891   4.262   6.586
 6912SOL    HW221636   3.991   4.237   6.713
 6913SOL     OW21637   4.878   5.562   4.332
 6913SOL    HW121638   4.835   5.647   4.363
 6913SOL    HW221639   4.977   5.569   4.345
 6914SOL     OW21640   5.723   3.454   4.723
 6914SOL    HW121641   5.775   3.524   4.674
 6914SOL    HW221642   5.785   3.403   4.784
 6915SOL     OW21643   5.948   2.771   1.991
 6915SOL    HW121644   5.929   2.807   1.899
 6915SOL    HW221645   5.976   2.846   2.051
 6916SOL     OW21646   6.347   2.618   0.343
 6916SOL    HW121647   6.438   2.632   0.304
 6916SOL    HW221648   6.347   2.535   0.399
 6917SOL     OW21649   3.317   6.012   1.095
 6917SOL    HW121650   3.234   6.063   1.073
 6917SOL    HW221651   3.389   6.037   1.030
 6918SOL     OW21652   0.463   2.993   4.102
 6918SOL    HW121653   0.413   3.079   4.088
 6918SOL    HW221654   0.561   3.011   4.092
 6919SOL     OW21655   6.916   5.842   3.136
 6919SOL    HW121656   6.972   5.785   3.195
 6919SOL    HW221657   6.824   5.850   3.174
 6920SOL     OW21658   4.311   6.042   5.197
 6920SOL    HW121659   4.316   5.963   5.136
 6920SOL    HW221660   4.221   6.086   5.187
 6921SOL     OW21661   5.554   5.340   3.752
 6921SOL    HW121662   5.498   5.321   3.832
 6921SOL    HW221663   5.501   5.392   3.685
 6922SOL     OW21664   2.117   5.822   5.388
 6922SOL    HW121665   2.055   5.833   5.310
 6922SOL    HW221666   2.156   5.730   5.387
 6923SOL     OW21667   4.631   5.485   3.098
 6923SOL    HW121668   4.542   5.473   3.140
 6923SOL    HW221669   4.696   5.419   3.136
 6924SOL     OW21670   2.526   3.622   6.825
 6924SOL    HW121671   2.444   3.595   6.775
 6924SOL    HW221672   2.607   3.588   6.776
 6925SOL     OW21673   4.942   6.210   4.327
 6925SOL    HW121674   4.984   6.160   4.251
 6925SOL    HW221675   4.843   6.216   4.313
 6926SOL     OW21676   3.544   2.856   1.049
 6926SOL    HW121677   3.625   2.826   0.999
 6926SOL    HW221678   3.490   2.918   0.992
 6927SOL     OW21679   4.282   3.050   6.193
 6927SOL    HW121680   4.321   3.088   6.277
 6927SOL    HW221681   4.236   3.122   6.142
 6928SOL     OW21682   6.134   5.459   0.629
 6928SOL    HW121683   6.035   5.458   0.618
 6928SOL    HW221684   6.161   5.538   0.684
 6929SOL     OW21685   5.844   5.262   1.130
 6929SOL    HW121686   5.787   5.200   1.077
 6929SOL    HW221687   5.797   5.285   1.216
 6930SOL     OW21688   0.267   0.100   2.591
 6930SOL    HW121689   0.364   0.094   2.615
 6930SOL    HW221690   0.255   0.169   2.520
 6931SOL     OW21691   2.165   0.820   2.498
 6931SOL    HW121692   2.198   0.773   2.416
 6931SOL    HW221693   2.117   0.755   2.557
 6932SOL     OW21694   4.293   6.579   0.776
 6932SOL    HW121695   4.384   6.594   0.738
 6932SOL    HW221696   4.230   6.551   0.703
 6933SOL     OW21697   3.422   6.079   4.517
 6933SOL    HW121698   3.458   6.023   4.442
 6933SOL    HW221699   3.365   6.022   4.577
 6934SOL     OW21700   5.217   3.497   6.208
 6934SOL    HW121701   5.144   3.550   6.165
 6934SOL    HW221702   5.237   3.417   6.152
 6935SOL     OW21703   4.868   5.314   2.554
 6935SOL    HW121704   4.772   5.290   2.545
 6935SOL    HW221705   4.878   5.414   2.552
 6936SOL     OW21706   5.965   1.510   3.196
 6936SOL    HW121707   5.971   1.527   3.294
 6936SOL    HW221708   5.872   1.528   3.164
 6937SOL     OW21709   6.749   6.080   6.957
 6937SOL    HW121710   6.794   6.170   6.956
 6937SOL    HW221711   6.660   6.087   6.911
 6938SOL     OW21712   5.229   3.283   5.200
 6938SOL    HW121713   5.182   3.226   5.268
 6938SOL    HW221714   5.326   3.256   5.197
 6939SOL     OW21715   1.523   5.010   2.022
 6939SOL    HW121716   1.483   4.978   1.937
 6939SOL    HW221717   1.471   4.974   2.100
 6940SOL     OW21718   4.342   0.344   6.667
 6940SOL    HW121719   4.353   0.333   6.766
 6940SOL    HW221720   4.412   0.408   6.633
 6941SOL     OW21721   3.744   3.936   1.729
 6941SOL    HW121722   3.787   4.022   1.700
 6941SOL    HW221723   3.764   3.920   1.825
 6942SOL     OW21724   5.644   0.064   1.112
 6942SOL    HW121725   5.616   6.994   1.069
 6942SOL    HW221726   5.671   0.129   1.041
 6943SOL     OW21727   3.912   5.777   0.259
 6943SOL    HW121728   3.823   5.742   0.289
 6943SOL    HW221729   3.976   5.701   0.247
 6944SOL     OW21730   0.567   4.132   6.663
 6944SOL    HW121731   0.475   4.110   6.695
 6944SOL    HW221732   0.574   4.112   6.565
 6945SOL     OW21733   6.214   1.017   6.685
 6945SOL    HW121734   6.181   0.968   6.604
 6945SOL    HW221735   6.148   1.006   6.759
 6946SOL     OW21736   5.423   6.668   0.814
 6946SOL    HW121737   5.455   6.667   0.719
 6946SOL    HW221738   5.400   6.575   0.842
 6947SOL     OW21739   3.209   6.081   6.617
 6947SOL    HW121740   3.202   5.984   6.639
 6947SOL    HW221741   3.207   6.094   6.518
 6948SOL     OW21742   0.324   0.118   0.696
 6948SOL    HW121743   0.301   0.166   0.781
 6948SOL    HW221744   0.298   0.174   0.618
 6949SOL     OW21745   3.923   6.993   2.768
 6949SOL    HW121746   3.939   0.051   2.834
 6949SOL    HW221747   3.830   6.960   2.778
 6950SOL     OW21748   2.251   1.940   4.920
 6950SOL    HW121749   2.247   1.962   4.823
 6950SOL    HW221750   2.174   1.984   4.967
 6951SOL     OW21751   6.562   5.733   6.103
 6951SOL    HW121752   6.466   5.710   6.118
 6951SOL    HW221753   6.619   5.660   6.141
 6952SOL     OW21754   1.016   6.013   3.235
 6952SOL    HW121755   0.935   5.984   3.286
 6952SOL    HW221756   1.086   6.045   3.299
 6953SOL     OW21757   4.423   6.175   0.925
 6953SOL    HW121758   4.427   6.138   0.832
 6953SOL    HW221759   4.515   6.177   0.964
 6954SOL     OW21760   6.698   3.577   3.103
 6954SOL    HW121761   6.745   3.489   3.101
 6954SOL    HW221762   6.601   3.561   3.122
 6955SOL     OW21763   6.229   0.154   2.411
 6955SOL    HW121764   6.327   0.134   2.420
 6955SOL    HW221765   6.176   0.074   2.439
 6956SOL     OW21766   5.691   5.600   3.614
 6956SOL    HW121767   5.620   5.537   3.584
 6956SOL    HW221768   5.689   5.682   3.557
 6957SOL     OW21769   6.359   4.907   0.586
 6957SOL    HW121770   6.357   4.974   0.512
 6957SOL    HW221771   6.448   4.861   0.586
 6958SOL     OW21772   3.367   2.858   4.509
 6958SOL    HW121773   3.400   2.887   4.419
 6958SOL    HW221774   3.364   2.759   4.513
 6959SOL     OW21775   1.691   2.330   4.219
 6959SOL    HW121776   1.693   2.349   4.121
 6959SOL    HW221777   1.783   2.301   4.249
 6960SOL     OW21778   2.767   4.590   1.326
 6960SOL    HW121779   2.715   4.590   1.241
 6960SOL    HW221780   2.813   4.502   1.337
 6961SOL     OW21781   5.964   1.711   3.646
 6961SOL    HW121782   5.904   1.743   3.719
 6961SOL    HW221783   5.933   1.749   3.559
 6962SOL     OW21784   5.088   6.347   1.622
 6962SOL    HW121785   4.993   6.351   1.650
 6962SOL    HW221786   5.114   6.252   1.605
 6963SOL     OW21787   5.308   5.964   1.026
 6963SOL    HW121788   5.214   5.997   1.017
 6963SOL    HW221789   5.331   5.904   0.949
 6964SOL     OW21790   3.282   0.891   4.852
 6964SOL    HW121791   3.356   0.890   4.785
 6964SOL    HW221792   3.321   0.891   4.944
 6965SOL     OW21793   0.770   1.686   0.621
 6965SOL    HW121794   0.847   1.628   0.645
 6965SOL    HW221795   0.753   1.680   0.523
 6966SOL     OW21796   0.359   2.161   3.456
 6966SOL    HW121797   0.423   2.119   3.392
 6966SOL    HW221798   0.321   2.244   3.416
 6967SOL     OW21799   2.426   0.749   5.692
 6967SOL    HW121800   2.515   0.794   5.683
 6967SOL    HW221801   2.413   0.684   5.617
 6968SOL     OW21802   3.933   6.632   2.992
 6968SOL    HW121803   3.989   6.691   2.934
 6968SOL    HW221804   3.970   6.539   2.992
 6969SOL     OW21805   3.729   2.406   1.001
 6969SOL    HW121806   3.743   2.375   1.095
 6969SOL    HW221807   3.632   2.422   0.985
 6970SOL     OW21808   4.170   4.152   5.776
 6970SOL    HW121809   4.164   4.052   5.776
 6970SOL    HW221810   4.102   4.190   5.713
 6971SOL     OW21811   6.757   4.273   2.229
 6971SOL    HW121812   6.706   4.315   2.154
 6971SOL    HW221813   6.715   4.299   2.316
 6972SOL     OW21814   5.211   4.176   3.164
 6972SOL    HW121815   5.256   4.110   3.105
 6972SOL    HW221816   5.197   4.262   3.115
 6973SOL     OW21817   0.792   2.984   4.337
 6973SOL    HW121818   0.769   2.904   4.281
 6973SOL    HW221819   0.887   2.977   4.368
 6974SOL     OW21820   2.932   3.751   2.981
 6974SOL    HW121821   2.873   3.678   3.016
 6974SOL    HW221822   3.012   3.711   2.936
 6975SOL     OW21823   1.774   6.382   6.422
 6975SOL    HW121824   1.859   6.344   6.458
 6975SOL    HW221825   1.741   6.453   6.484
 6976SOL     OW21826   4.876   5.530   4.870
 6976SOL    HW121827   4.898   5.485   4.956
 6976SOL    HW221828   4.925   5.616   4.864
 6977SOL     OW21829   3.918   3.144   1.807
 6977SOL    HW121830   3.919   3.044   1.813
 6977SOL    HW221831   3.954   3.183   1.892
 6978SOL     OW21832   5.822   1.436   1.955
 6978SOL    HW121833   5.797   1.511   2.016
 6978SOL    HW221834   5.764   1.357   1.974
 6979SOL     OW21835   0.740   4.311   1.090
 6979SOL    HW121836   0.677   4.311   1.167
 6979SOL    HW221837   0.689   4.320   1.005
 6980SOL     OW21838   1.797   0.934   4.146
 6980SOL    HW121839   1.728   0.882   4.197
 6980SOL    HW221840   1.759   0.962   4.058
 6981SOL     OW21841   3.571   2.934   5.517
 6981SOL    HW121842   3.628   3.016   5.527
 6981SOL    HW221843   3.575   2.901   5.423
 6982SOL     OW21844   1.311   0.484   5.191
 6982SOL    HW121845   1.359   0.396   5.193
 6982SOL    HW221846   1.280   0.508   5.283
 6983SOL     OW21847   3.378   2.068   3.828
 6983SOL    HW121848   3.418   2.117   3.750
 6983SOL    HW221849   3.280   2.055   3.812
 6984SOL     OW21850   2.181   2.104   3.299
 6984SOL    HW121851   2.259   2.145   3.346
 6984SOL    HW221852   2.166   2.152   3.212
 6985SOL     OW21853   6.120   5.434   1.514
 6985SOL    HW121854   6.196   5.497   1.495
 6985SOL    HW221855   6.119   5.362   1.444
 6986SOL     OW21856   2.272   0.114   5.541
 6986SOL    HW121857   2.229   0.062   5.467
 6986SOL    HW221858   2.279   0.210   5.514
 6987SOL     OW21859   5.954   1.234   6.081
 6987SOL    HW121860   5.891   1.308   6.103
 6987SOL    HW221861   6.007   1.210   6.162
 6988SOL     OW21862   0.625   0.712   5.422
 6988SOL    HW121863   0.639   0.621   5.381
 6988SOL    HW221864   0.714   0.751   5.446
 6989SOL     OW21865   0.962   3.572   3.147
 6989SOL    HW121866   0.982   3.626   3.065
 6989SOL    HW221867   0.887   3.616   3.197
 6990SOL     OW21868   4.722   2.473   1.077
 6990SOL    HW121869   4.743   2.437   1.168
 6990SOL    HW221870   4.679   2.401   1.022
 6991SOL     OW21871   4.087   5.011   2.887
 6991SOL    HW121872   4.068   5.088   2.826
 6991SOL    HW221873   4.010   4.947   2.884
 6992SOL     OW21874   5.192   6.552   6.217
 6992SOL    HW121875   5.247   6.577   6.297
 6992SOL    HW221876   5.218   6.608   6.139
 6993SOL     OW21877   5.099   0.585   2.682
 6993SOL    HW121878   5.062   0.492   2.687
 6993SOL    HW221879   5.171   0.596   2.751
 6994SOL     OW21880   0.161   2.355   4.410
 6994SOL    HW121881   0.204   2.272   4.446
 6994SOL    HW221882   0.061   2.347   4.419
 6995SOL     OW21883   6.931   4.702   6.178
 6995SOL    HW121884   6.990   4.629   6.211
 6995SOL    HW221885   6.979   4.789   6.181
 6996SOL     OW21886   1.273   6.824   7.002
 6996SOL    HW121887   1.185   6.810   0.032
 6996SOL    HW221888   1.282   6.758   6.927
 6997SOL     OW21889   6.788   5.859   5.081
 6997SOL    HW121890   6.866   5.918   5.061
 6997SOL    HW221891   6.779   5.789   5.009
 6998SOL     OW21892   2.164   0.798   1.770
 6998SOL    HW121893   2.179   0.701   1.786
 6998SOL    HW221894   2.106   0.835   1.844
 6999SOL     OW21895   2.569   1.923   6.805
 6999SOL    HW121896   2.576   2.016   6.843
 6999SOL    HW221897   2.477   1.888   6.821
 7000SOL     OW21898   4.733   6.788   0.916
 7000SOL    HW121899   4.695   6.877   0.943
 7000SOL    HW221900   4.831   6.788   0.933
 7001SOL     OW21901   1.329   3.245   5.644
 7001SOL    HW121902   1.264   3.310   5.605
 7001SOL    HW221903   1.310   3.153   5.607
 7002SOL     OW21904   1.618   5.417   3.984
 7002SOL    HW121905   1.716   5.437   3.981
 7002SOL    HW221906   1.590   5.376   3.897
 7003SOL     OW21907   4.049   5.145   0.350
 7003SOL    HW121908   4.073   5.067   0.409
 7003SOL    HW221909   4.007   5.111   0.266
 7004SOL     OW21910   1.636   5.097   2.269
 7004SOL    HW121911   1.553   5.139   2.307
 7004SOL    HW221912   1.621   5.074   2.173
 7005SOL     OW21913   1.477   0.163   0.996
 7005SOL    HW121914   1.506   0.259   0.992
 7005SOL    HW221915   1.401   0.154   1.060
 7006SOL     OW21916   5.257   4.828   4.056
 7006SOL    HW121917   5.289   4.747   4.104
 7006SOL    HW221918   5.176   4.805   4.001
 7007SOL     OW21919   4.172   0.804   3.829
 7007SOL    HW121920   4.173   0.718   3.880
 7007SOL    HW221921   4.203   0.787   3.735
 7008SOL     OW21922   0.281   3.602   4.761
 7008SOL    HW121923   0.314   3.645   4.676
 7008SOL    HW221924   0.242   3.513   4.739
 7009SOL     OW21925   5.550   5.859   2.033
 7009SOL    HW121926   5.473   5.797   2.048
 7009SOL    HW221927   5.618   5.846   2.105
 7010SOL     OW21928   5.338   4.055   3.895
 7010SOL    HW121929   5.399   4.058   3.975
 7010SOL    HW221930   5.297   3.964   3.889
 7011SOL     OW21931   2.936   6.831   6.537
 7011SOL    HW121932   2.867   6.903   6.522
 7011SOL    HW221933   2.917   6.754   6.477
 7012SOL     OW21934   0.305   2.335   1.793
 7012SOL    HW121935   0.241   2.408   1.815
 7012SOL    HW221936   0.396   2.373   1.779
 7013SOL     OW21937   0.324   0.541   0.175
 7013SOL    HW121938   0.334   0.565   0.079
 7013SOL    HW221939   0.291   0.447   0.183
 7014SOL     OW21940   4.137   3.551   0.713
 7014SOL    HW121941   4.176   3.519   0.800
 7014SOL    HW221942   4.106   3.473   0.660
 7015SOL     OW21943   6.588   4.350   1.966
 7015SOL    HW121944   6.498   4.338   1.924
 7015SOL    HW221945   6.659   4.312   1.906
 7016SOL     OW21946   3.382   4.874   1.394
 7016SOL    HW121947   3.446   4.945   1.420
 7016SOL    HW221948   3.332   4.842   1.474
 7017SOL     OW21949   2.116   5.091   2.763
 7017SOL    HW121950   2.024   5.068   2.731
 7017SOL    HW221951   2.184   5.039   2.711
 7018SOL     OW21952   5.524   3.392   4.126
 7018SOL    HW121953   5.480   3.481   4.113
 7018SOL    HW221954   5.603   3.403   4.186
 7019SOL     OW21955   3.714   4.183   0.340
 7019SOL    HW121956   3.696   4.281   0.338
 7019SOL    HW221957   3.805   4.165   0.305
 7020SOL     OW21958   6.569   4.867   6.524
 7020SOL    HW121959   6.640   4.913   6.578
 7020SOL    HW221960   6.605   4.843   6.434
 7021SOL     OW21961   1.495   2.008   5.735
 7021SOL    HW121962   1.488   2.098   5.778
 7021SOL    HW221963   1.411   1.988   5.685
 7022SOL     OW21964   4.915   6.773   5.534
 7022SOL    HW121965   4.949   6.867   5.523
 7022SOL    HW221966   4.840   6.773   5.601
 7023SOL     OW21967   6.550   2.605   4.067
 7023SOL    HW121968   6.623   2.624   4.001
 7023SOL    HW221969   6.584   2.541   4.135
 7024SOL     OW21970   2.903   4.006   5.214
 7024SOL    HW121971   2.826   4.058   5.177
 7024SOL    HW221972   2.940   3.947   5.143
 7025SOL     OW21973   3.001   0.928   0.461
 7025SOL    HW121974   3.009   0.899   0.366
 7025SOL    HW221975   3.076   0.991   0.483
 7026SOL     OW21976   3.323   1.834   2.012
 7026SOL    HW121977   3.386   1.881   2.073
 7026SOL    HW221978   3.273   1.901   1.957
 7027SOL     OW21979   2.583   5.552   4.134
 7027SOL    HW121980   2.662   5.572   4.076
 7027SOL    HW221981   2.534   5.473   4.097
 7028SOL     OW21982   3.156   1.918   4.293
 7028SOL    HW121983   3.197   1.939   4.382
 7028SOL    HW221984   3.162   1.999   4.234
 7029SOL     OW21985   4.946   4.934   5.170
 7029SOL    HW121986   5.037   4.975   5.169
 7029SOL    HW221987   4.947   4.851   5.225
 7030SOL     OW21988   1.145   0.556   4.843
 7030SOL    HW121989   1.163   0.591   4.935
 7030SOL    HW221990   1.049   0.532   4.834
 7031SOL     OW21991   3.428   5.865   5.661
 7031SOL    HW121992   3.435   5.854   5.562
 7031SOL    HW221993   3.519   5.868   5.701
 7032SOL     OW21994   3.645   1.344   3.718
 7032SOL    HW121995   3.705   1.296   3.655
 7032SOL    HW221996   3.699   1.404   3.777
 7033SOL     OW21997   1.549   2.275   3.446
 7033SOL    HW121998   1.469   2.307   3.396
 7033SOL    HW221999   1.535   2.288   3.544
 7034SOL     OW22000   6.387   0.571   3.806
 7034SOL    HW122001   6.296   0.574   3.847
 7034SOL    HW222002   6.413   0.663   3.776
 7035SOL     OW22003   1.241   6.859   0.623
 7035SOL    HW122004   1.181   6.788   0.659
 7035SOL    HW222005   1.317   6.873   0.687
 7036SOL     OW22006   6.961   0.271   2.976
 7036SOL    HW122007   0.014   0.229   2.916
 7036SOL    HW222008   7.003   0.292   3.064
 7037SOL     OW22009   1.477   1.094   6.415
 7037SOL    HW122010   1.530   1.042   6.481
 7037SOL    HW222011   1.491   1.192   6.430
 7038SOL     OW22012   2.409   3.208   5.357
 7038SOL    HW122013   2.439   3.129   5.304
 7038SOL    HW222014   2.310   3.221   5.346
 7039SOL     OW22015   2.098   5.262   2.115
 7039SOL    HW122016   2.052   5.232   2.031
 7039SOL    HW222017   2.136   5.182   2.162
 7040SOL     OW22018   5.844   1.970   5.902
 7040SOL    HW122019   5.823   2.029   5.824
 7040SOL    HW222020   5.762   1.920   5.929
 7041SOL     OW22021   6.119   1.035   1.799
 7041SOL    HW122022   6.213   1.003   1.813
 7041SOL    HW222023   6.120   1.114   1.738
 7042SOL     OW22024   4.531   4.925   5.134
 7042SOL    HW122025   4.503   5.000   5.076
 7042SOL    HW222026   4.597   4.868   5.086
 7043SOL     OW22027   2.407   4.521   2.877
 7043SOL    HW122028   2.482   4.554   2.935
 7043SOL    HW222029   2.400   4.421   2.885
 7044SOL     OW22030   5.556   4.783   4.425
 7044SOL    HW122031   5.595   4.694   4.450
 7044SOL    HW222032   5.481   4.770   4.360
 7045SOL     OW22033   5.012   5.719   3.356
 7045SOL    HW122034   5.012   5.689   3.261
 7045SOL    HW222035   4.943   5.668   3.407
 7046SOL     OW22036   2.926   1.089   3.187
 7046SOL    HW122037   2.959   0.995   3.180
 7046SOL    HW222038   2.921   1.116   3.283
 7047SOL     OW22039   6.263   1.386   2.442
 7047SOL    HW122040   6.187   1.328   2.409
 7047SOL    HW222041   6.266   1.383   2.542
 7048SOL     OW22042   5.190   6.950   3.312
 7048SOL    HW122043   5.140   6.957   3.226
 7048SOL    HW222044   5.131   6.910   3.382
 7049SOL     OW22045   3.480   1.925   0.651
 7049SOL    HW122046   3.509   1.877   0.734
 7049SOL    HW222047   3.551   1.989   0.623
 7050SOL     OW22048   4.222   3.522   1.738
 7050SOL    HW122049   4.195   3.456   1.808
 7050SOL    HW222050   4.317   3.508   1.713
 7051SOL     OW22051   6.153   6.512   1.013
 7051SOL    HW122052   6.251   6.514   1.034
 7051SOL    HW222053   6.106   6.581   1.067
 7052SOL     OW22054   5.509   1.758   3.237
 7052SOL    HW122055   5.435   1.821   3.262
 7052SOL    HW222056   5.585   1.810   3.198
 7053SOL     OW22057   1.545   2.968   5.199
 7053SOL    HW122058   1.593   3.044   5.243
 7053SOL    HW222059   1.588   2.882   5.226
 7054SOL     OW22060   6.847   6.992   0.413
 7054SOL    HW122061   6.890   6.939   0.486
 7054SOL    HW222062   6.832   0.070   0.444
 7055SOL     OW22063   2.887   6.831   6.221
 7055SOL    HW122064   2.897   6.750   6.278
 7055SOL    HW222065   2.791   6.846   6.199
 7056SOL     OW22066   0.354   4.463   1.538
 7056SOL    HW122067   0.428   4.452   1.603
 7056SOL    HW222068   0.283   4.396   1.557
 7057SOL     OW22069   2.588   4.848   4.339
 7057SOL    HW122070   2.582   4.804   4.249
 7057SOL    HW222071   2.672   4.819   4.385
 7058SOL     OW22072   5.338   4.404   5.316
 7058SOL    HW122073   5.256   4.390   5.372
 7058SOL    HW222074   5.365   4.317   5.274
 7059SOL     OW22075   0.514   1.627   3.748
 7059SOL    HW122076   0.547   1.660   3.837
 7059SOL    HW222077   0.419   1.654   3.736
 7060SOL     OW22078   3.806   0.117   1.573
 7060SOL    HW122079   3.794   0.169   1.658
 7060SOL    HW222080   3.851   0.030   1.594
 7061SOL     OW22081   0.170   3.467   3.960
 7061SOL    HW122082   0.134   3.521   4.036
 7061SOL    HW222083   0.098   3.455   3.891
 7062SOL     OW22084   3.905   1.377   5.478
 7062SOL    HW122085   3.866   1.357   5.388
 7062SOL    HW222086   3.882   1.470   5.505
 7063SOL     OW22087   1.373   7.015   2.255
 7063SOL    HW122088   1.300   6.967   2.305
 7063SOL    HW222089   1.357   0.097   2.261
 7064SOL     OW22090   3.914   1.863   6.982
 7064SOL    HW122091   3.992   1.919   6.952
 7064SOL    HW222092   3.928   1.836   0.062
 7065SOL     OW22093   5.076   3.880   6.355
 7065SOL    HW122094   5.142   3.815   6.396
 7065SOL    HW222095   5.007   3.829   6.304
 7066SOL     OW22096   4.528   6.917   0.015
 7066SOL    HW122097   4.525   6.928   0.114
 7066SOL    HW222098   4.460   6.977   6.989
 7067SOL     OW22099   1.570   2.860   5.683
 7067SOL    HW122100   1.478   2.822   5.673
 7067SOL    HW222101   1.564   2.960   5.695
 7068SOL     OW22102   6.864   4.695   4.802
 7068SOL    HW122103   6.953   4.667   4.764
 7068SOL    HW222104   6.805   4.727   4.728
 7069SOL     OW22105   5.496   2.336   4.471
 7069SOL    HW122106   5.443   2.339   4.386
 7069SOL    HW222107   5.588   2.302   4.451
 7070SOL     OW22108   0.216   0.026   5.141
 7070SOL    HW122109   0.307   7.009   5.164
 7070SOL    HW222110   0.221   0.088   5.063
 7071SOL     OW22111   3.435   5.822   5.370
 7071SOL    HW122112   3.463   5.790   5.279
 7071SOL    HW222113   3.343   5.860   5.365
 7072SOL     OW22114   1.430   6.276   0.145
 7072SOL    HW122115   1.458   6.268   0.050
 7072SOL    HW222116   1.337   6.241   0.156
 7073SOL     OW22117   5.365   6.969   3.696
 7073SOL    HW122118   5.372   6.879   3.653
 7073SOL    HW222119   5.434   6.978   3.767
 7074SOL     OW22120   5.571   2.706   2.005
 7074SOL    HW122121   5.600   2.632   1.945
 7074SOL    HW222122   5.582   2.678   2.101
 7075SOL     OW22123   1.898   4.279   5.219
 7075SOL    HW122124   1.932   4.305   5.128
 7075SOL    HW222125   1.839   4.198   5.211
 7076SOL     OW22126   5.773   2.790   6.698
 7076SOL    HW122127   5.731   2.783   6.788
 7076SOL    HW222128   5.830   2.710   6.681
 7077SOL     OW22129   2.122   4.746   3.910
 7077SOL    HW122130   2.067   4.739   3.826
 7077SOL    HW222131   2.163   4.657   3.930
 7078SOL     OW22132   6.652   6.597   1.931
 7078SOL    HW122133   6.639   6.651   1.848
 7078SOL    HW222134   6.748   6.600   1.958
 7079SOL     OW22135   0.106   6.180   4.489
 7079SOL    HW122136   0.157   6.264   4.468
 7079SOL    HW222137   0.010   6.192   4.465
 7080SOL     OW22138   3.368   0.914   5.139
 7080SOL    HW122139   3.461   0.880   5.146
 7080SOL    HW222140   3.361   1.003   5.184
 7081SOL     OW22141   1.811   6.063   6.873
 7081SOL    HW122142   1.895   6.013   6.893
 7081SOL    HW222143   1.746   6.050   6.947
 7082SOL     OW22144   6.715   4.273   0.157
 7082SOL    HW122145   6.776   4.289   0.235
 7082SOL    HW222146   6.753   4.317   0.075
 7083SOL     OW22147   1.495   7.006   1.326
 7083SOL    HW122148   1.573   6.943   1.321
 7083SOL    HW222149   1.527   0.083   1.308
 7084SOL     OW22150   0.663   5.130   5.104
 7084SOL    HW122151   0.622   5.039   5.093
 7084SOL    HW222152   0.621   5.176   5.183
 7085SOL     OW22153   0.772   1.235   2.446
 7085SOL    HW122154   0.701   1.303   2.425
 7085SOL    HW222155   0.788   1.233   2.545
 7086SOL     OW22156   5.923   0.224   5.945
 7086SOL    HW122157   5.832   0.212   5.985
 7086SOL    HW222158   5.947   0.143   5.891
 7087SOL     OW22159   6.244   3.869   4.222
 7087SOL    HW122160   6.287   3.780   4.238
 7087SOL    HW222161   6.302   3.924   4.162
 7088SOL     OW22162   5.023   2.760   4.028
 7088SOL    HW122163   5.118   2.739   4.050
 7088SOL    HW222164   5.020   2.823   3.950
 7089SOL     OW22165   2.691   2.382   4.415
 7089SOL    HW122166   2.627   2.457   4.394
 7089SOL    HW222167   2.641   2.295   4.414
 7090SOL     OW22168   1.869   0.523   6.812
 7090SOL    HW122169   1.953   0.474   6.835
 7090SOL    HW222170   1.825   0.555   6.895
 7091SOL     OW22171   0.316   2.139   1.020
 7091SOL    HW122172   0.282   2.164   1.110
 7091SOL    HW222173   0.385   2.205   0.991
 7092SOL     OW22174   4.143   3.181   5.586
 7092SOL    HW122175   4.159   3.144   5.494
 7092SOL    HW222176   4.175   3.115   5.654
 7093SOL     OW22177   3.693   3.893   2.059
 7093SOL    HW122178   3.638   3.814   2.087
 7093SOL    HW222179   3.647   3.977   2.088
 7094SOL     OW22180   0.005   5.911   5.618
 7094SOL    HW122181   0.098   5.945   5.598
 7094SOL    HW222182   7.014   5.891   5.716
 7095SOL     OW22183   3.679   4.672   5.632
 7095SOL    HW122184   3.615   4.739   5.671
 7095SOL    HW222185   3.646   4.642   5.543
 7096SOL     OW22186   6.781   1.400   3.178
 7096SOL    HW122187   6.792   1.418   3.081
 7096SOL    HW222188   6.816   1.478   3.231
 7097SOL     OW22189   4.675   1.251   1.736
 7097SOL    HW122190   4.765   1.256   1.780
 7097SOL    HW222191   4.608   1.300   1.792
 7098SOL     OW22192   2.272   5.555   5.736
 7098SOL    HW122193   2.311   5.463   5.746
 7098SOL    HW222194   2.174   5.548   5.721
 7099SOL     OW22195   3.620   1.209   5.272
 7099SOL    HW122196   3.682   1.274   5.227
 7099SOL    HW222197   3.673   1.147   5.330
 7100SOL     OW22198   0.046   3.827   0.154
 7100SOL    HW122199   7.006   3.757   0.199
 7100SOL    HW222200   0.010   3.918   0.175
 7101SOL     OW22201   2.529   1.658   5.487
 7101SOL    HW122202   2.538   1.591   5.413
 7101SOL    HW222203   2.523   1.750   5.449
 7102SOL     OW22204   5.003   6.820   0.902
 7102SOL    HW122205   4.998   6.793   0.806
 7102SOL    HW222206   5.082   6.879   0.916
 7103SOL     OW22207   5.618   5.071   1.955
 7103SOL    HW122208   5.612   5.001   2.026
 7103SOL    HW222209   5.577   5.156   1.988
 7104SOL     OW22210   6.647   3.981   3.105
 7104SOL    HW122211   6.559   3.933   3.102
 7104SOL    HW222212   6.644   4.052   3.175
 7105SOL     OW22213   2.773   3.511   5.186
 7105SOL    HW122214   2.816   3.486   5.099
 7105SOL    HW222215   2.741   3.428   5.232
 7106SOL     OW22216   3.591   3.569   1.924
 7106SOL    HW122217   3.663   3.598   1.987
 7106SOL    HW222218   3.631   3.519   1.848
 7107SOL     OW22219   4.657   0.969   0.504
 7107SOL    HW122220   4.720   0.890   0.501
 7107SOL    HW222221   4.639   0.993   0.600
 7108SOL     OW22222   2.996   6.110   2.823
 7108SOL    HW122223   3.045   6.145   2.743
 7108SOL    HW222224   2.932   6.180   2.855
 7109SOL     OW22225   2.176   6.891   5.856
 7109SOL    HW122226   2.260   6.930   5.893
 7109SOL    HW222227   2.193   6.796   5.829
 7110SOL     OW22228   2.713   5.794   4.491
 7110SOL    HW122229   2.676   5.850   4.416
 7110SOL    HW222230   2.712   5.698   4.464
 7111SOL     OW22231   1.125   2.657   5.161
 7111SOL    HW122232   1.173   2.734   5.119
 7111SOL    HW222233   1.191   2.597   5.206
 7112SOL     OW22234   2.023   4.879   4.850
 7112SOL    HW122235   1.981   4.811   4.910
 7112SOL    HW222236   2.100   4.838   4.801
 7113SOL     OW22237   3.334   4.096   4.419
 7113SOL    HW122238   3.275   4.045   4.480
 7113SOL    HW222239   3.293   4.100   4.328
 7114SOL     OW22240   5.452   5.456   0.526
 7114SOL    HW122241   5.438   5.402   0.609
 7114SOL    HW222242   5.472   5.551   0.551
 7115SOL     OW22243   5.308   2.877   0.041
 7115SOL    HW122244   5.212   2.857   0.062
 7115SOL    HW222245   5.325   2.859   6.961
 7116SOL     OW22246   6.089   4.679   2.909
 7116SOL    HW122247   6.169   4.619   2.906
 7116SOL    HW222248   6.009   4.628   2.939
 7117SOL     OW22249   0.798   6.680   4.635
 7117SOL    HW122250   0.754   6.722   4.556
 7117SOL    HW222251   0.743   6.602   4.666
 7118SOL     OW22252   2.977   4.967   6.532
 7118SOL    HW122253   2.883   4.941   6.556
 7118SOL    HW222254   2.975   5.056   6.486
 7119SOL     OW22255   4.848   1.583   4.035
 7119SOL    HW122256   4.792   1.617   3.959
 7119SOL    HW222257   4.925   1.531   3.999
 7120SOL     OW22258   3.314   2.159   1.932
 7120SOL    HW122259   3.221   2.139   1.960
 7120SOL    HW222260   3.377   2.138   2.007
 7121SOL     OW22261   0.417   0.052   3.821
 7121SOL    HW122262   0.327   0.094   3.810
 7121SOL    HW222263   0.457   0.080   3.908
 7122SOL     OW22264   1.456   0.763   6.008
 7122SOL    HW122265   1.386   0.823   6.045
 7122SOL    HW222266   1.447   0.757   5.908
 7123SOL     OW22267   1.289   4.514   3.468
 7123SOL    HW122268   1.345   4.581   3.517
 7123SOL    HW222269   1.331   4.495   3.379
 7124SOL     OW22270   6.902   1.476   1.426
 7124SOL    HW122271   6.952   1.522   1.499
 7124SOL    HW222272   6.952   1.487   1.340
 7125SOL     OW22273   0.603   0.256   0.828
 7125SOL    HW122274   0.698   0.275   0.852
 7125SOL    HW222275   0.550   0.237   0.911
 7126SOL     OW22276   3.403   5.117   7.009
 7126SOL    HW122277   3.497   5.137   0.021
 7126SOL    HW222278   3.340   5.161   0.057
 7127SOL     OW22279   1.951   5.284   6.431
 7127SOL    HW122280   1.964   5.188   6.455
 7127SOL    HW222281   1.867   5.294   6.378
 7128SOL     OW22282   3.156   4.301   6.759
 7128SOL    HW122283   3.184   4.396   6.764
 7128SOL    HW222284   3.071   4.294   6.707
 7129SOL     OW22285   2.216   1.167   0.283
 7129SOL    HW122286   2.310   1.139   0.260
 7129SOL    HW222287   2.220   1.245   0.345
 7130SOL     OW22288   3.889   5.830   4.219
 7130SOL    HW122289   3.935   5.866   4.300
 7130SOL    HW222290   3.853   5.905   4.165
 7131SOL     OW22291   2.490   0.821   1.533
 7131SOL    HW122292   2.584   0.827   1.567
 7131SOL    HW222293   2.431   0.881   1.587
 7132SOL     OW22294   3.482   3.991   0.704
 7132SOL    HW122295   3.436   3.925   0.645
 7132SOL    HW222296   3.505   3.947   0.792
 7133SOL     OW22297   4.487   5.138   5.349
 7133SOL    HW122298   4.495   5.117   5.447
 7133SOL    HW222299   4.498   5.055   5.296
 7134SOL     OW22300   4.664   6.920   1.366
 7134SOL    HW122301   4.613   6.995   1.409
 7134SOL    HW222302   4.621   6.896   1.279
 7135SOL     OW22303   1.338   2.617   3.375
 7135SOL    HW122304   1.348   2.676   3.456
 7135SOL    HW222305   1.423   2.619   3.322
 7136SOL     OW22306   2.683   1.384   0.116
 7136SOL    HW122307   2.757   1.435   0.073
 7136SOL    HW222308   2.683   1.290   0.083
 7137SOL     OW22309   3.069   0.922   6.831
 7137SOL    HW122310   3.112   1.002   6.791
 7137SOL    HW222311   3.133   0.876   6.893
 7138SOL     OW22312   2.573   2.060   0.080
 7138SOL    HW122313   2.670   2.069   0.103
 7138SOL    HW222314   2.551   2.117   0.001
 7139SOL     OW22315   6.071   4.687   1.602
 7139SOL    HW122316   5.972   4.678   1.600
 7139SOL    HW222317   6.103   4.725   1.515
 7140SOL     OW22318   6.809   4.259   1.842
 7140SOL    HW122319   6.871   4.326   1.883
 7140SOL    HW222320   6.833   4.247   1.745
 7141SOL     OW22321   3.645   6.322   0.943
 7141SOL    HW122322   3.737   6.321   0.983
 7141SOL    HW222323   3.617   6.417   0.927
 7142SOL     OW22324   3.948   6.443   3.349
 7142SOL    HW122325   4.016   6.515   3.369
 7142SOL    HW222326   3.859   6.471   3.386
 7143SOL     OW22327   1.763   2.985   6.654
 7143SOL    HW122328   1.669   2.992   6.689
 7143SOL    HW222329   1.763   2.929   6.571
 7144SOL     OW22330   1.724   2.099   2.749
 7144SOL    HW122331   1.680   2.013   2.721
 7144SOL    HW222332   1.749   2.093   2.846
 7145SOL     OW22333   3.982   0.076   6.617
 7145SOL    HW122334   4.033   0.143   6.563
 7145SOL    HW222335   3.961   7.013   6.559
 7146SOL     OW22336   1.674   6.698   6.339
 7146SOL    HW122337   1.749   6.666   6.282
 7146SOL    HW222338   1.689   6.667   6.433
 7147SOL     OW22339   6.622   6.536   3.255
 7147SOL    HW122340   6.541   6.556   3.310
 7147SOL    HW222341   6.680   6.471   3.303
 7148SOL     OW22342   6.655   6.630   1.174
 7148SOL    HW122343   6.694   6.650   1.263
 7148SOL    HW222344   6.705   6.554   1.132
 7149SOL     OW22345   0.132   6.700   3.849
 7149SOL    HW122346   0.095   6.610   3.828
 7149SOL    HW222347   0.226   6.707   3.814
 7150SOL     OW22348   3.529   3.001   0.787
 7150SOL    HW122349   3.502   2.915   0.744
 7150SOL    HW222350   3.466   3.073   0.760
 7151SOL     OW22351   3.209   6.703   0.873
 7151SOL    HW122352   3.247   6.787   0.837
 7151SOL    HW222353   3.122   6.683   0.828
 7152SOL     OW22354   6.674   0.615   5.173
 7152SOL    HW122355   6.768   0.647   5.174
 7152SOL    HW222356   6.621   0.668   5.107
 7153SOL     OW22357   4.108   5.273   1.304
 7153SOL    HW122358   4.108   5.262   1.205
 7153SOL    HW222359   4.087   5.368   1.327
 7154SOL     OW22360   4.867   6.549   3.238
 7154SOL    HW122361   4.902   6.636   3.273
 7154SOL    HW222362   4.781   6.527   3.284
 7155SOL     OW22363   2.428   2.864   0.916
 7155SOL    HW122364   2.385   2.954   0.930
 7155SOL    HW222365   2.469   2.861   0.825
 7156SOL     OW22366   6.864   3.064   3.155
 7156SOL    HW122367   6.804   3.102   3.085
 7156SOL    HW222368   6.933   3.006   3.111
 7157SOL     OW22369   0.370   3.867   1.258
 7157SOL    HW122370   0.335   3.832   1.346
 7157SOL    HW222371   0.384   3.790   1.196
 7158SOL     OW22372   1.073   0.421   4.382
 7158SOL    HW122373   1.007   0.383   4.448
 7158SOL    HW222374   1.162   0.377   4.396
 7159SOL     OW22375   0.820   4.861   3.837
 7159SOL    HW122376   0.845   4.944   3.887
 7159SOL    HW222377   0.902   4.813   3.807
 7160SOL     OW22378   5.998   0.221   2.575
 7160SOL    HW122379   5.945   0.251   2.495
 7160SOL    HW222380   6.090   0.196   2.547
 7161SOL     OW22381   3.132   3.971   2.976
 7161SOL    HW122382   3.056   3.907   2.965
 7161SOL    HW222383   3.189   3.969   2.895
 7162SOL     OW22384   1.309   5.145   6.315
 7162SOL    HW122385   1.273   5.057   6.284
 7162SOL    HW222386   1.328   5.203   6.235
 7163SOL     OW22387   2.410   6.974   2.515
 7163SOL    HW122388   2.327   6.970   2.571
 7163SOL    HW222389   2.385   6.995   2.420
 7164SOL     OW22390   2.933   0.145   4.699
 7164SOL    HW122391   2.852   0.086   4.688
 7164SOL    HW222392   2.981   0.152   4.611
 7165SOL     OW22393   6.397   6.758   2.413
 7165SOL    HW122394   6.377   6.661   2.399
 7165SOL    HW222395   6.467   6.786   2.348
 7166SOL     OW22396   4.808   1.556   1.201
 7166SOL    HW122397   4.732   1.619   1.184
 7166SOL    HW222398   4.892   1.607   1.213
 7167SOL     OW22399   5.213   3.095   4.543
 7167SOL    HW122400   5.155   3.117   4.621
 7167SOL    HW222401   5.248   3.179   4.503
 7168SOL     OW22402   1.952   2.532   2.994
 7168SOL    HW122403   1.988   2.603   2.933
 7168SOL    HW222404   1.854   2.544   3.005
 7169SOL     OW22405   0.035   3.856   5.679
 7169SOL    HW122406   0.062   3.814   5.592
 7169SOL    HW222407   0.070   3.801   5.755
 7170SOL     OW22408   4.606   6.862   2.338
 7170SOL    HW122409   4.519   6.855   2.387
 7170SOL    HW222410   4.671   6.915   2.394
 7171SOL     OW22411   6.473   4.131   6.710
 7171SOL    HW122412   6.493   4.167   6.801
 7171SOL    HW222413   6.374   4.123   6.698
 7172SOL     OW22414   1.957   0.129   5.207
 7172SOL    HW122415   1.908   0.215   5.217
 7172SOL    HW222416   1.892   0.053   5.215
 7173SOL     OW22417   6.485   4.296   6.944
 7173SOL    HW122418   6.454   4.390   6.928
 7173SOL    HW222419   6.530   4.291   0.017
 7174SOL     OW22420   1.330   3.694   0.555
 7174SOL    HW122421   1.404   3.750   0.592
 7174SOL    HW222422   1.327   3.607   0.602
 7175SOL     OW22423   5.809   2.864   5.376
 7175SOL    HW122424   5.798   2.865   5.276
 7175SOL    HW222425   5.861   2.945   5.404
 7176SOL     OW22426   6.790   1.524   3.479
 7176SOL    HW122427   6.753   1.579   3.404
 7176SOL    HW222428   6.887   1.546   3.491
 7177SOL     OW22429   0.960   4.393   5.093
 7177SOL    HW122430   0.880   4.453   5.094
 7177SOL    HW222431   0.973   4.357   5.001
 7178SOL     OW22432   6.494   1.366   5.518
 7178SOL    HW122433   6.577   1.359   5.463
 7178SOL    HW222434   6.514   1.411   5.605
 7179SOL     OW22435   2.184   3.813   4.512
 7179SOL    HW122436   2.240   3.844   4.435
 7179SOL    HW222437   2.113   3.881   4.531
 7180SOL     OW22438   2.247   5.075   6.967
 7180SOL    HW122439   2.280   5.090   6.874
 7180SOL    HW222440   2.325   5.065   0.013
 7181SOL     OW22441   1.805   0.441   0.238
 7181SOL    HW122442   1.796   0.341   0.239
 7181SOL    HW222443   1.881   0.466   0.178
 7182SOL     OW22444   0.135   3.544   4.301
 7182SOL    HW122445   0.070   3.595   4.245
 7182SOL    HW222446   0.101   3.538   4.394
 7183SOL     OW22447   1.504   5.599   1.202
 7183SOL    HW122448   1.590   5.549   1.191
 7183SOL    HW222449   1.471   5.589   1.296
 7184SOL     OW22450   6.568   0.859   4.073
 7184SOL    HW122451   6.478   0.824   4.044
 7184SOL    HW222452   6.622   0.881   3.992
 7185SOL     OW22453   5.913   0.914   4.995
 7185SOL    HW122454   5.853   0.836   5.010
 7185SOL    HW222455   5.923   0.930   4.896
 7186SOL     OW22456   6.434   1.717   1.798
 7186SOL    HW122457   6.399   1.671   1.879
 7186SOL    HW222458   6.380   1.799   1.780
 7187SOL     OW22459   3.024   4.126   5.433
 7187SOL    HW122460   2.991   4.071   5.357
 7187SOL    HW222461   3.066   4.067   5.502
 7188SOL     OW22462   4.993   6.598   0.009
 7188SOL    HW122463   4.930   6.595   6.947
 7188SOL    HW222464   5.077   6.646   6.999
 7189SOL     OW22465   6.065   1.496   5.043
 7189SOL    HW122466   6.047   1.438   5.123
 7189SOL    HW222467   5.995   1.480   4.973
 7190SOL     OW22468   6.858   5.151   1.703
 7190SOL    HW122469   6.762   5.125   1.710
 7190SOL    HW222470   6.867   5.251   1.713
 7191SOL     OW22471   1.517   4.734   2.584
 7191SOL    HW122472   1.481   4.793   2.657
 7191SOL    HW222473   1.567   4.790   2.518
 7192SOL     OW22474   2.141   4.199   5.755
 7192SOL    HW122475   2.134   4.101   5.774
 7192SOL    HW222476   2.209   4.214   5.683
 7193SOL     OW22477   1.439   2.479   2.189
 7193SOL    HW122478   1.440   2.577   2.170
 7193SOL    HW222479   1.404   2.430   2.108
 7194SOL     OW22480   2.062   2.494   0.820
 7194SOL    HW122481   2.067   2.454   0.912
 7194SOL    HW222482   1.999   2.571   0.820
 7195SOL     OW22483   0.697   4.074   6.920
 7195SOL    HW122484   0.663   4.084   6.827
 7195SOL    HW222485   0.785   4.027   6.918
 7196SOL     OW22486   2.253   3.637   1.670
 7196SOL    HW122487   2.288   3.728   1.650
 7196SOL    HW222488   2.315   3.589   1.732
 7197SOL     OW22489   0.664   2.584   5.499
 7197SOL    HW122490   0.651   2.683   5.502
 7197SOL    HW222491   0.724   2.561   5.422
 7198SOL     OW22492   0.766   0.670   0.533
 7198SOL    HW122493   0.860   0.702   0.536
 7198SOL    HW222494   0.759   0.581   0.579
 7199SOL     OW22495   1.523   0.218   2.018
 7199SOL    HW122496   1.469   0.172   1.948
 7199SOL    HW222497   1.470   0.226   2.102
 7200SOL     OW22498   2.290   2.661   6.923
 7200SOL    HW122499   2.221   2.672   6.851
 7200SOL    HW222500   2.343   2.578   6.905
 7201SOL     OW22501   1.105   6.245   4.138
 7201SOL    HW122502   1.115   6.217   4.234
 7201SOL    HW222503   1.013   6.223   4.107
 7202SOL     OW22504   5.510   6.778   0.226
 7202SOL    HW122505   5.556   6.715   0.163
 7202SOL    HW222506   5.555   6.868   0.221
 7203SOL     OW22507   0.002   1.209   0.629
 7203SOL    HW122508   0.014   1.168   0.719
 7203SOL    HW222509   0.007   1.308   0.636
 7204SOL     OW22510   0.302   0.494   6.050
 7204SOL    HW122511   0.289   0.509   6.149
 7204SOL    HW222512   0.258   0.408   6.024
 7205SOL     OW22513   1.855   3.888   4.573
 7205SOL    HW122514   1.864   3.973   4.624
 7205SOL    HW222515   1.900   3.814   4.623
 7206SOL     OW22516   1.394   0.291   2.225
 7206SOL    HW122517   1.441   0.372   2.259
 7206SOL    HW222518   1.305   0.317   2.187
 7207SOL     OW22519   3.028   0.318   3.347
 7207SOL    HW122520   3.011   0.416   3.347
 7207SOL    HW222521   3.122   0.300   3.375
 7208SOL     OW22522   3.945   6.916   3.604
 7208SOL    HW122523   4.042   6.930   3.587
 7208SOL    HW222524   3.903   7.004   3.628
 7209SOL     OW22525   2.600   3.152   1.604
 7209SOL    HW122526   2.666   3.142   1.679
 7209SOL    HW222527   2.525   3.212   1.632
 7210SOL     OW22528   4.215   0.810   2.806
 7210SOL    HW122529   4.276   0.857   2.870
 7210SOL    HW222530   4.241   0.714   2.799
 7211SOL     OW22531   1.908   6.969   4.781
 7211SOL    HW122532   1.829   6.985   4.723
 7211SOL    HW222533   1.991   6.968   4.725
 7212SOL     OW22534   0.227   6.309   4.928
 7212SOL    HW122535   0.279   6.314   5.013
 7212SOL    HW222536   0.269   6.368   4.859
 7213SOL     OW22537   4.103   6.055   6.562
 7213SOL    HW122538   4.041   5.985   6.525
 7213SOL    HW222539   4.098   6.054   6.662
 7214SOL     OW22540   0.211   0.078   4.699
 7214SOL    HW122541   0.219   6.997   4.720
 7214SOL    HW222542   0.133   0.093   4.639
 7215SOL     OW22543   6.980   3.413   3.765
 7215SOL    HW122544   6.885   3.396   3.791
 7215SOL    HW222545   7.009   3.347   3.696
 7216SOL     OW22546   3.014   0.356   0.460
 7216SOL    HW122547   2.973   0.371   0.370
 7216SOL    HW222548   3.087   0.423   0.476
 7217SOL     OW22549   1.908   3.990   3.697
 7217SOL    HW122550   1.942   4.034   3.614
 7217SOL    HW222551   1.808   3.994   3.697
 7218SOL     OW22552   6.415   2.601   4.465
 7218SOL    HW122553   6.365   2.615   4.379
 7218SOL    HW222554   6.422   2.503   4.484
 7219SOL     OW22555   4.117   6.851   2.934
 7219SOL    HW122556   4.061   6.891   3.007
 7219SOL    HW222557   4.094   6.896   2.847
 7220SOL     OW22558   0.401   4.089   4.728
 7220SOL    HW122559   0.464   4.068   4.653
 7220SOL    HW222560   0.307   4.077   4.697
 7221SOL     OW22561   3.091   5.883   4.312
 7221SOL    HW122562   3.138   5.866   4.398
 7221SOL    HW222563   3.152   5.861   4.236
 7222SOL     OW22564   6.166   6.796   3.183
 7222SOL    HW122565   6.260   6.828   3.190
 7222SOL    HW222566   6.104   6.874   3.180
 7223SOL     OW22567   3.402   1.389   0.813
 7223SOL    HW122568   3.428   1.293   0.829
 7223SOL    HW222569   3.305   1.401   0.835
 7224SOL     OW22570   5.213   2.073   4.144
 7224SOL    HW122571   5.269   1.993   4.165
 7224SOL    HW222572   5.248   2.152   4.195
 7225SOL     OW22573   1.179   6.185   0.743
 7225SOL    HW122574   1.275   6.210   0.728
 7225SOL    HW222575   1.173   6.086   0.757
 7226SOL     OW22576   6.141   0.649   1.994
 7226SOL    HW122577   6.091   0.733   2.018
 7226SOL    HW222578   6.135   0.585   2.070
 7227SOL     OW22579   2.910   1.993   0.971
 7227SOL    HW122580   2.947   1.980   1.063
 7227SOL    HW222581   2.958   2.067   0.925
 7228SOL     OW22582   1.025   2.163   2.686
 7228SOL    HW122583   1.112   2.140   2.642
 7228SOL    HW222584   0.963   2.201   2.617
 7229SOL     OW22585   1.093   6.012   5.390
 7229SOL    HW122586   1.112   6.109   5.376
 7229SOL    HW222587   0.994   5.998   5.395
 7230SOL     OW22588   3.070   5.291   5.290
 7230SOL    HW122589   3.051   5.368   5.352
 7230SOL    HW222590   3.112   5.326   5.206
 7231SOL     OW22591   4.215   0.578   6.418
 7231SOL    HW122592   4.125   0.558   6.457
 7231SOL    HW222593   4.257   0.654   6.469
 7232SOL     OW22594   5.004   6.067   3.180
 7232SOL    HW122595   5.059   6.048   3.261
 7232SOL    HW222596   4.982   5.981   3.133
 7233SOL     OW22597   1.027   1.686   3.565
 7233SOL    HW122598   1.062   1.621   3.632
 7233SOL    HW222599   0.928   1.692   3.572
 7234SOL     OW22600   5.399   2.333   3.801
 7234SOL    HW122601   5.318   2.295   3.845
 7234SOL    HW222602   5.464   2.259   3.781
 7235SOL     OW22603   0.123   5.033   2.872
 7235SOL    HW122604   0.188   5.030   2.797
 7235SOL    HW222605   0.031   5.047   2.835
 7236SOL     OW22606   2.535   1.862   1.783
 7236SOL    HW122607   2.566   1.957   1.779
 7236SOL    HW222608   2.510   1.839   1.878
 7237SOL     OW22609   4.146   6.872   4.756
 7237SOL    HW122610   4.074   6.802   4.754
 7237SOL    HW222611   4.225   6.839   4.705
 7238SOL     OW22612   4.211   1.388   6.918
 7238SOL    HW122613   4.135   1.406   6.980
 7238SOL    HW222614   4.199   1.442   6.834
 7239SOL     OW22615   1.092   2.015   2.288
 7239SOL    HW122616   1.170   2.073   2.266
 7239SOL    HW222617   1.116   1.956   2.365
 7240SOL     OW22618   1.141   0.721   6.254
 7240SOL    HW122619   1.055   0.702   6.300
 7240SOL    HW222620   1.198   0.638   6.256
 7241SOL     OW22621   1.530   0.683   0.913
 7241SOL    HW122622   1.524   0.746   0.836
 7241SOL    HW222623   1.588   0.605   0.888
 7242SOL     OW22624   7.015   5.932   6.920
 7242SOL    HW122625   6.931   5.985   6.927
 7242SOL    HW222626   0.054   5.966   6.844
 7243SOL     OW22627   6.265   4.414   6.386
 7243SOL    HW122628   6.273   4.318   6.358
 7243SOL    HW222629   6.276   4.473   6.306
 7244SOL     OW22630   6.802   0.818   1.860
 7244SOL    HW122631   6.790   0.895   1.922
 7244SOL    HW222632   6.843   0.741   1.909
 7245SOL     OW22633   1.334   2.747   5.373
 7245SOL    HW122634   1.422   2.709   5.402
 7245SOL    HW222635   1.336   2.766   5.275
 7246SOL     OW22636   0.542   0.195   4.026
 7246SOL    HW122637   0.631   0.240   4.025
 7246SOL    HW222638   0.487   0.230   4.102
 7247SOL     OW22639   2.576   1.006   3.972
 7247SOL    HW122640   2.624   0.949   3.905
 7247SOL    HW222641   2.614   1.099   3.969
 7248SOL     OW22642   2.551   1.457   3.003
 7248SOL    HW122643   2.526   1.477   2.908
 7248SOL    HW222644   2.621   1.385   3.005
 7249SOL     OW22645   6.701   5.083   2.443
 7249SOL    HW122646   6.771   5.151   2.422
 7249SOL    HW222647   6.690   5.021   2.366
 7250SOL     OW22648   5.360   6.985   6.222
 7250SOL    HW122649   5.325   0.042   6.280
 7250SOL    HW222650   5.399   6.913   6.279
 7251SOL     OW22651   0.732   6.495   5.573
 7251SOL    HW122652   0.644   6.455   5.550
 7251SOL    HW222653   0.796   6.422   5.596
 7252SOL     OW22654   4.027   3.195   2.138
 7252SOL    HW122655   3.949   3.256   2.131
 7252SOL    HW222656   4.001   3.114   2.191
 7253SOL     OW22657   1.254   6.038   6.755
 7253SOL    HW122658   1.304   6.006   6.675
 7253SOL    HW222659   1.290   5.994   6.837
 7254SOL     OW22660   4.735   5.038   4.095
 7254SOL    HW122661   4.787   4.967   4.142
 7254SOL    HW222662   4.790   5.078   4.022
 7255SOL     OW22663   3.067   3.971   1.094
 7255SOL    HW122664   3.028   3.966   1.002
 7255SOL    HW222665   3.129   3.893   1.108
 7256SOL     OW22666   3.034   5.719   4.690
 7256SOL    HW122667   3.021   5.817   4.673
 7256SOL    HW222668   2.961   5.685   4.749
 7257SOL     OW22669   5.738   2.255   3.335
 7257SOL    HW122670   5.786   2.196   3.399
 7257SOL    HW222671   5.654   2.290   3.378
 7258SOL     OW22672   4.779   1.465   3.179
 7258SOL    HW122673   4.799   1.533   3.249
 7258SOL    HW222674   4.860   1.410   3.160
 7259SOL     OW22675   2.181   3.898   0.718
 7259SOL    HW122676   2.108   3.967   0.719
 7259SOL    HW222677   2.202   3.873   0.624
 7260SOL     OW22678   4.204   1.851   1.451
 7260SOL    HW122679   4.113   1.838   1.411
 7260SOL    HW222680   4.252   1.924   1.402
 7261SOL     OW22681   1.431   2.500   1.373
 7261SOL    HW122682   1.486   2.428   1.333
 7261SOL    HW222683   1.414   2.480   1.470
 7262SOL     OW22684   5.122   2.250   6.274
 7262SOL    HW122685   5.059   2.203   6.336
 7262SOL    HW222686   5.205   2.276   6.324
 7263SOL     OW22687   0.950   0.428   0.183
 7263SOL    HW122688   0.983   0.427   0.089
 7263SOL    HW222689   0.867   0.373   0.190
 7264SOL     OW22690   5.569   2.074   6.754
 7264SOL    HW122691   5.536   2.014   6.682
 7264SOL    HW222692   5.619   2.151   6.714
 7265SOL     OW22693   6.064   5.674   5.649
 7265SOL    HW122694   6.129   5.612   5.604
 7265SOL    HW222695   5.989   5.694   5.587
 7266SOL     OW22696   5.438   5.997   1.704
 7266SOL    HW122697   5.533   6.017   1.680
 7266SOL    HW222698   5.424   6.019   1.801
 7267SOL     OW22699   6.402   6.517   5.055
 7267SOL    HW122700   6.315   6.466   5.060
 7267SOL    HW222701   6.448   6.495   4.969
 7268SOL     OW22702   5.985   5.266   3.252
 7268SOL    HW122703   6.041   5.303   3.326
 7268SOL    HW222704   6.027   5.289   3.164
 7269SOL     OW22705   6.840   6.571   6.706
 7269SOL    HW122706   6.935   6.561   6.678
 7269SOL    HW222707   6.825   6.663   6.743
 7270SOL     OW22708   1.832   3.678   5.341
 7270SOL    HW122709   1.808   3.654   5.247
 7270SOL    HW222710   1.808   3.774   5.358
 7271SOL     OW22711   0.792   6.224   3.384
 7271SOL    HW122712   0.749   6.145   3.428
 7271SOL    HW222713   0.781   6.218   3.285
 7272SOL     OW22714   5.950   5.639   2.160
 7272SOL    HW122715   5.874   5.703   2.171
 7272SOL    HW222716   6.015   5.651   2.235
 7273SOL     OW22717   6.103   4.590   1.950
 7273SOL    HW122718   6.134   4.674   1.905
 7273SOL    HW222719   6.108   4.603   2.049
 7274SOL     OW22720   0.754   5.584   6.832
 7274SOL    HW122721   0.688   5.652   6.800
 7274SOL    HW222722   0.832   5.631   6.873
 7275SOL     OW22723   6.927   6.475   2.431
 7275SOL    HW122724   6.972   6.493   2.518
 7275SOL    HW222725   6.853   6.408   2.445
 7276SOL     OW22726   3.750   1.071   2.892
 7276SOL    HW122727   3.745   0.979   2.931
 7276SOL    HW222728   3.661   1.096   2.854
 7277SOL     OW22729   4.184   0.634   3.553
 7277SOL    HW122730   4.254   0.621   3.624
 7277SOL    HW222731   4.112   0.565   3.565
 7278SOL     OW22732   3.179   2.780   1.296
 7278SOL    HW122733   3.153   2.729   1.378
 7278SOL    HW222734   3.277   2.766   1.278
 7279SOL     OW22735   3.857   4.207   6.077
 7279SOL    HW122736   3.868   4.139   6.149
 7279SOL    HW222737   3.804   4.167   6.002
 7280SOL     OW22738   0.187   1.435   3.486
 7280SOL    HW122739   0.146   1.424   3.395
 7280SOL    HW222740   0.270   1.491   3.478
 7281SOL     OW22741   2.012   1.050   0.880
 7281SOL    HW122742   2.108   1.034   0.857
 7281SOL    HW222743   1.966   1.095   0.803
 7282SOL     OW22744   6.547   6.106   1.441
 7282SOL    HW122745   6.539   6.168   1.519
 7282SOL    HW222746   6.635   6.058   1.446
 7283SOL     OW22747   4.934   0.389   2.339
 7283SOL    HW122748   4.953   0.484   2.314
 7283SOL    HW222749   4.852   0.384   2.396
 7284SOL     OW22750   0.086   2.225   5.790
 7284SOL    HW122751   0.127   2.313   5.813
 7284SOL    HW222752   7.002   2.233   5.797
 7285SOL     OW22753   5.452   3.050   2.345
 7285SOL    HW122754   5.359   3.019   2.365
 7285SOL    HW222755   5.450   3.112   2.267
 7286SOL     OW22756   1.371   1.114   0.978
 7286SOL    HW122757   1.467   1.140   0.980
 7286SOL    HW222758   1.325   1.147   1.060
 7287SOL     OW22759   0.396   2.452   5.350
 7287SOL    HW122760   0.466   2.470   5.419
 7287SOL    HW222761   0.356   2.361   5.365
 7288SOL     OW22762   1.662   1.818   2.087
 7288SOL    HW122763   1.714   1.738   2.117
 7288SOL    HW222764   1.720   1.899   2.093
 7289SOL     OW22765   5.807   1.571   3.422
 7289SOL    HW122766   5.757   1.570   3.335
 7289SOL    HW222767   5.766   1.638   3.484
 7290SOL     OW22768   3.197   1.905   5.727
 7290SOL    HW122769   3.099   1.921   5.717
 7290SOL    HW222770   3.220   1.816   5.687
 7291SOL     OW22771   0.982   0.086   0.149
 7291SOL    HW122772   1.077   0.071   0.122
 7291SOL    HW222773   0.929   0.120   0.072
 7292SOL     OW22774   3.145   6.913   3.155
 7292SOL    HW122775   3.093   6.838   3.113
 7292SOL    HW222776   3.094   6.998   3.145
 7293SOL     OW22777   1.535   1.502   4.662
 7293SOL    HW122778   1.456   1.442   4.648
 7293SOL    HW222779   1.534   1.536   4.757
 7294SOL     OW22780   2.646   4.395   0.235
 7294SOL    HW122781   2.633   4.430   0.142
 7294SOL    HW222782   2.697   4.462   0.288
 7295SOL     OW22783   6.165   4.263   0.989
 7295SOL    HW122784   6.148   4.188   1.052
 7295SOL    HW222785   6.264   4.270   0.972
 7296SOL     OW22786   2.853   6.075   1.519
 7296SOL    HW122787   2.775   6.067   1.581
 7296SOL    HW222788   2.934   6.036   1.562
 7297SOL     OW22789   3.740   6.795   1.461
 7297SOL    HW122790   3.824   6.798   1.515
 7297SOL    HW222791   3.737   6.711   1.408
 7298SOL     OW22792   5.107   5.572   6.022
 7298SOL    HW122793   5.010   5.590   6.005
 7298SOL    HW222794   5.117   5.512   6.101
 7299SOL     OW22795   0.876   2.366   1.377
 7299SOL    HW122796   0.901   2.340   1.471
 7299SOL    HW222797   0.887   2.287   1.317
 7300SOL     OW22798   0.387   6.806   2.375
 7300SOL    HW122799   0.440   6.810   2.460
 7300SOL    HW222800   0.300   6.854   2.388
 7301SOL     OW22801   6.366   2.108   4.788
 7301SOL    HW122802   6.433   2.101   4.715
 7301SOL    HW222803   6.349   2.017   4.826
 7302SOL     OW22804   0.237   2.712   5.820
 7302SOL    HW122805   0.271   2.698   5.727
 7302SOL    HW222806   0.300   2.773   5.869
 7303SOL     OW22807   4.153   0.987   6.769
 7303SOL    HW122808   4.198   1.031   6.847
 7303SOL    HW222809   4.098   1.054   6.720
 7304SOL     OW22810   2.890   5.439   1.382
 7304SOL    HW122811   2.952   5.462   1.457
 7304SOL    HW222812   2.803   5.408   1.419
 7305SOL     OW22813   4.958   1.997   1.207
 7305SOL    HW122814   5.051   2.028   1.223
 7305SOL    HW222815   4.912   1.985   1.296
 7306SOL     OW22816   3.940   1.399   1.546
 7306SOL    HW122817   3.862   1.461   1.555
 7306SOL    HW222818   4.018   1.448   1.506
 7307SOL     OW22819   2.729   6.392   2.597
 7307SOL    HW122820   2.745   6.454   2.520
 7307SOL    HW222821   2.722   6.298   2.563
 7308SOL     OW22822   6.639   2.452   4.866
 7308SOL    HW122823   6.561   2.394   4.891
 7308SOL    HW222824   6.722   2.414   4.905
 7309SOL     OW22825   3.712   5.119   0.820
 7309SOL    HW122826   3.721   5.205   0.870
 7309SOL    HW222827   3.644   5.130   0.747
 7310SOL     OW22828   2.172   3.956   6.908
 7310SOL    HW122829   2.239   3.913   6.968
 7310SOL    HW222830   2.212   4.037   6.866
 7311SOL     OW22831   1.895   1.787   1.060
 7311SOL    HW122832   1.818   1.838   1.098
 7311SOL    HW222833   1.962   1.769   1.132
 7312SOL     OW22834   0.695   3.081   4.749
 7312SOL    HW122835   0.728   3.011   4.811
 7312SOL    HW222836   0.662   3.039   4.664
 7313SOL     OW22837   2.179   0.791   1.146
 7313SOL    HW122838   2.095   0.791   1.091
 7313SOL    HW222839   2.170   0.724   1.219
 7314SOL     OW22840   0.050   4.929   6.401
 7314SOL    HW122841   7.010   4.856   6.440
 7314SOL    HW222842   0.095   4.979   6.475
 7315SOL     OW22843   5.704   5.640   1.865
 7315SOL    HW122844   5.632   5.670   1.927
 7315SOL    HW222845   5.754   5.564   1.906
 7316SOL     OW22846   3.592   3.218   6.739
 7316SOL    HW122847   3.653   3.165   6.798
 7316SOL    HW222848   3.500   3.181   6.745
 7317SOL     OW22849   4.421   1.778   1.717
 7317SOL    HW122850   4.329   1.774   1.754
 7317SOL    HW222851   4.485   1.806   1.788
 7318SOL     OW22852   2.918   0.124   2.093
 7318SOL    HW122853   3.001   0.134   2.148
 7318SOL    HW222854   2.863   0.049   2.131
 7319SOL     OW22855   6.967   3.858   6.880
 7319SOL    HW122856   0.007   3.809   6.814
 7319SOL    HW222857   7.013   3.859   6.969
 7320SOL     OW22858   1.178   3.500   2.328
 7320SOL    HW122859   1.097   3.527   2.276
 7320SOL    HW222860   1.256   3.492   2.266
 7321SOL     OW22861   1.195   6.313   5.967
 7321SOL    HW122862   1.107   6.353   5.990
 7321SOL    HW222863   1.267   6.356   6.022
 7322SOL     OW22864   6.591   2.728   2.688
 7322SOL    HW122865   6.643   2.736   2.603
 7322SOL    HW222866   6.509   2.785   2.682
 7323SOL     OW22867   1.916   2.652   1.575
 7323SOL    HW122868   1.849   2.703   1.630
 7323SOL    HW222869   1.908   2.679   1.480
 7324SOL     OW22870   5.743   5.924   1.093
 7324SOL    HW122871   5.734   6.017   1.057
 7324SOL    HW222872   5.678   5.864   1.046
 7325SOL     OW22873   2.363   0.454   6.178
 7325SOL    HW122874   2.435   0.385   6.191
 7325SOL    HW222875   2.383   0.533   6.236
 7326SOL     OW22876   2.642   6.517   6.696
 7326SOL    HW122877   2.669   6.605   6.736
 7326SOL    HW222878   2.722   6.473   6.655
 7327SOL     OW22879   6.363   2.249   5.682
 7327SOL    HW122880   6.396   2.334   5.641
 7327SOL    HW222881   6.308   2.199   5.615
 7328SOL     OW22882   4.338   7.011   6.668
 7328SOL    HW122883   4.275   7.016   6.591
 7328SOL    HW222884   4.399   6.932   6.656
 7329SOL     OW22885   1.256   3.964   0.804
 7329SOL    HW122886   1.327   3.900   0.833
 7329SOL    HW222887   1.166   3.921   0.814
 7330SOL     OW22888   1.815   2.736   0.040
 7330SOL    HW122889   1.775   2.716   0.130
 7330SOL    HW222890   1.858   2.826   0.042
 7331SOL     OW22891   5.741   6.603   1.226
 7331SOL    HW122892   5.726   6.505   1.228
 7331SOL    HW222893   5.699   6.642   1.145
 7332SOL     OW22894   3.393   5.979   6.930
 7332SOL    HW122895   3.296   6.000   6.943
 7332SOL    HW222896   3.445   6.065   6.928
 7333SOL     OW22897   6.521   3.357   3.253
 7333SOL    HW122898   6.584   3.348   3.331
 7333SOL    HW222899   6.502   3.267   3.215
 7334SOL     OW22900   1.752   5.847   6.235
 7334SOL    HW122901   1.805   5.912   6.180
 7334SOL    HW222902   1.809   5.768   6.259
 7335SOL     OW22903   0.447   2.716   3.471
 7335SOL    HW122904   0.479   2.644   3.410
 7335SOL    HW222905   0.514   2.791   3.473
 7336SOL     OW22906   1.767   6.843   2.566
 7336SOL    HW122907   1.796   6.785   2.643
 7336SOL    HW222908   1.680   6.808   2.530
 7337SOL     OW22909   1.068   2.778   1.393
 7337SOL    HW122910   1.070   2.792   1.492
 7337SOL    HW222911   1.079   2.866   1.347
 7338SOL     OW22912   4.688   1.542   1.836
 7338SOL    HW122913   4.665   1.636   1.861
 7338SOL    HW222914   4.740   1.542   1.750
 7339SOL     OW22915   5.770   0.551   4.903
 7339SOL    HW122916   5.859   0.577   4.866
 7339SOL    HW222917   5.780   0.523   4.998
 7340SOL     OW22918   2.952   1.393   0.544
 7340SOL    HW122919   2.949   1.428   0.450
 7340SOL    HW222920   2.907   1.304   0.548
 7341SOL     OW22921   0.515   4.356   5.651
 7341SOL    HW122922   0.515   4.279   5.714
 7341SOL    HW222923   0.468   4.434   5.693
 7342SOL     OW22924   0.411   0.313   6.626
 7342SOL    HW122925   0.366   0.232   6.588
 7342SOL    HW222926   0.347   0.389   6.630
 7343SOL     OW22927   5.711   4.731   1.837
 7343SOL    HW122928   5.745   4.638   1.847
 7343SOL    HW222929   5.756   4.791   1.903
 7344SOL     OW22930   0.566   1.081   5.861
 7344SOL    HW122931   0.613   1.157   5.906
 7344SOL    HW222932   0.568   1.001   5.921
 7345SOL     OW22933   4.882   5.568   5.202
 7345SOL    HW122934   4.809   5.635   5.196
 7345SOL    HW222935   4.854   5.493   5.263
 7346SOL     OW22936   4.683   4.947   1.297
 7346SOL    HW122937   4.749   4.991   1.237
 7346SOL    HW222938   4.648   4.864   1.254
 7347SOL     OW22939   0.194   2.589   1.063
 7347SOL    HW122940   0.169   2.636   0.979
 7347SOL    HW222941   0.275   2.532   1.047
 7348SOL     OW22942   1.245   3.721   3.974
 7348SOL    HW122943   1.336   3.710   4.014
 7348SOL    HW222944   1.204   3.631   3.959
 7349SOL     OW22945   4.832   2.179   1.022
 7349SOL    HW122946   4.890   2.260   1.030
 7349SOL    HW222947   4.860   2.111   1.089
 7350SOL     OW22948   1.561   3.150   5.744
 7350SOL    HW122949   1.489   3.209   5.709
 7350SOL    HW222950   1.647   3.201   5.751
 7351SOL     OW22951   5.047   6.730   4.821
 7351SOL    HW122952   5.143   6.742   4.846
 7351SOL    HW222953   5.004   6.820   4.809
 7352SOL     OW22954   1.915   2.590   3.263
 7352SOL    HW122955   1.935   2.610   3.167
 7352SOL    HW222956   1.878   2.498   3.271
 7353SOL     OW22957   0.829   0.650   5.870
 7353SOL    HW122958   0.919   0.673   5.907
 7353SOL    HW222959   0.806   0.556   5.894
 7354SOL     OW22960   6.971   1.511   5.708
 7354SOL    HW122961   6.986   1.412   5.715
 7354SOL    HW222962   0.016   1.558   5.771
 7355SOL     OW22963   2.263   0.957   0.820
 7355SOL    HW122964   2.274   0.887   0.749
 7355SOL    HW222965   2.321   1.035   0.798
 7356SOL     OW22966   3.775   3.607   6.146
 7356SOL    HW122967   3.786   3.645   6.054
 7356SOL    HW222968   3.746   3.512   6.140
 7357SOL     OW22969   4.642   6.538   1.533
 7357SOL    HW122970   4.599   6.505   1.449
 7357SOL    HW222971   4.575   6.585   1.590
 7358SOL     OW22972   6.162   3.581   3.054
 7358SOL    HW122973   6.203   3.531   3.129
 7358SOL    HW222974   6.227   3.587   2.978
 7359SOL     OW22975   2.240   1.926   6.181
 7359SOL    HW122976   2.268   1.937   6.086
 7359SOL    HW222977   2.312   1.960   6.242
 7360SOL     OW22978   3.153   3.698   5.187
 7360SOL    HW122979   3.177   3.658   5.276
 7360SOL    HW222980   3.233   3.692   5.126
 7361SOL     OW22981   4.519   6.965   1.620
 7361SOL    HW122982   4.575   7.008   1.691
 7361SOL    HW222983   4.499   6.871   1.646
 7362SOL     OW22984   1.352   4.857   4.908
 7362SOL    HW122985   1.450   4.836   4.912
 7362SOL    HW222986   1.315   4.864   5.001
 7363SOL     OW22987   4.567   1.991   1.384
 7363SOL    HW122988   4.534   2.030   1.298
 7363SOL    HW222989   4.534   2.047   1.460
 7364SOL     OW22990   4.381   0.712   1.481
 7364SOL    HW122991   4.353   0.799   1.440
 7364SOL    HW222992   4.301   0.651   1.486
 7365SOL     OW22993   1.283   5.905   1.639
 7365SOL    HW122994   1.262   5.907   1.737
 7365SOL    HW222995   1.359   5.842   1.623
 7366SOL     OW22996   2.219   5.215   6.623
 7366SOL    HW122997   2.267   5.286   6.571
 7366SOL    HW222998   2.196   5.139   6.562
 7367SOL     OW22999   5.071   2.875   1.026
 7367SOL    HW123000   5.003   2.804   1.008
 7367SOL    HW223001   5.134   2.881   0.948
 7368SOL     OW23002   3.813   2.988   2.763
 7368SOL    HW123003   3.872   2.915   2.730
 7368SOL    HW223004   3.781   2.965   2.855
 7369SOL     OW23005   3.869   2.829   6.932
 7369SOL    HW123006   3.809   2.749   6.933
 7369SOL    HW223007   3.951   2.809   6.878
 7370SOL     OW23008   2.005   0.711   4.189
 7370SOL    HW123009   2.068   0.703   4.112
 7370SOL    HW223010   1.936   0.780   4.169
 7371SOL     OW23011   1.715   6.305   3.915
 7371SOL    HW123012   1.718   6.241   3.992
 7371SOL    HW223013   1.759   6.263   3.836
 7372SOL     OW23014   4.346   1.080   4.817
 7372SOL    HW123015   4.383   1.131   4.895
 7372SOL    HW223016   4.295   1.001   4.852
 7373SOL     OW23017   6.012   2.365   4.021
 7373SOL    HW123018   6.078   2.290   4.029
 7373SOL    HW223019   6.061   2.449   3.996
 7374SOL     OW23020   2.296   1.522   5.614
 7374SOL    HW123021   2.291   1.476   5.526
 7374SOL    HW223022   2.384   1.570   5.622
 7375SOL     OW23023   1.911   2.942   3.138
 7375SOL    HW123024   1.915   3.038   3.110
 7375SOL    HW223025   1.988   2.922   3.199
 7376SOL     OW23026   2.555   1.339   0.652
 7376SOL    HW123027   2.626   1.382   0.708
 7376SOL    HW223028   2.483   1.406   0.634
 7377SOL     OW23029   5.519   4.457   0.409
 7377SOL    HW123030   5.474   4.518   0.344
 7377SOL    HW223031   5.612   4.490   0.426
 7378SOL     OW23032   6.832   0.969   6.036
 7378SOL    HW123033   6.913   0.912   6.026
 7378SOL    HW223034   6.857   1.065   6.025
 7379SOL     OW23035   3.397   1.520   3.081
 7379SOL    HW123036   3.377   1.611   3.047
 7379SOL    HW223037   3.386   1.519   3.181
 7380SOL     OW23038   6.869   4.444   4.900
 7380SOL    HW123039   6.857   4.541   4.879
 7380SOL    HW223040   6.806   4.417   4.972
 7381SOL     OW23041   4.539   3.959   1.248
 7381SOL    HW123042   4.483   3.898   1.304
 7381SOL    HW223043   4.627   3.973   1.294
 7382SOL     OW23044   6.707   6.489   6.025
 7382SOL    HW123045   6.740   6.542   6.104
 7382SOL    HW223046   6.608   6.500   6.016
 7383SOL     OW23047   1.268   6.871   1.283
 7383SOL    HW123048   1.347   6.924   1.316
 7383SOL    HW223049   1.213   6.928   1.222
 7384SOL     OW23050   5.659   0.278   2.898
 7384SOL    HW123051   5.694   0.199   2.848
 7384SOL    HW223052   5.619   0.343   2.833
 7385SOL     OW23053   4.261   6.154   2.253
 7385SOL    HW123054   4.167   6.188   2.248
 7385SOL    HW223055   4.265   6.075   2.314
 7386SOL     OW23056   0.656   1.941   5.710
 7386SOL    HW123057   0.731   2.001   5.739
 7386SOL    HW223058   0.569   1.989   5.722
 7387SOL     OW23059   5.409   6.068   4.155
 7387SOL    HW123060   5.365   6.099   4.239
 7387SOL    HW223061   5.375   5.977   4.131
 7388SOL     OW23062   0.200   4.898   2.479
 7388SOL    HW123063   0.218   4.877   2.383
 7388SOL    HW223064   0.278   4.870   2.535
 7389SOL     OW23065   0.044   3.660   6.662
 7389SOL    HW123066   0.137   3.670   6.628
 7389SOL    HW223067   7.015   3.584   6.615
 7390SOL     OW23068   1.261   1.688   6.899
 7390SOL    HW123069   1.294   1.596   6.877
 7390SOL    HW223070   1.222   1.730   6.817
 7391SOL     OW23071   4.023   3.737   4.276
 7391SOL    HW123072   3.994   3.808   4.211
 7391SOL    HW223073   4.090   3.775   4.339
 7392SOL     OW23074   2.290   6.009   0.133
 7392SOL    HW123075   2.220   6.066   0.090
 7392SOL    HW223076   2.368   6.065   0.158
 7393SOL     OW23077   6.095   4.952   2.960
 7393SOL    HW123078   6.045   4.961   3.047
 7393SOL    HW223079   6.094   4.857   2.931
 7394SOL     OW23080   2.386   2.496   5.853
 7394SOL    HW123081   2.380   2.412   5.800
 7394SOL    HW223082   2.307   2.555   5.832
 7395SOL     OW23083   1.411   2.276   0.319
 7395SOL    HW123084   1.392   2.374   0.326
 7395SOL    HW223085   1.504   2.258   0.351
 7396SOL     OW23086   0.979   0.053   0.699
 7396SOL    HW123087   1.008   7.012   0.622
 7396SOL    HW223088   0.953   7.011   0.776
 7397SOL     OW23089   4.510   5.467   4.623
 7397SOL    HW123090   4.509   5.371   4.595
 7397SOL    HW223091   4.475   5.524   4.547
 7398SOL     OW23092   2.340   4.924   4.510
 7398SOL    HW123093   2.438   4.918   4.490
 7398SOL    HW223094   2.303   5.007   4.468
 7399SOL     OW23095   1.395   2.270   5.409
 7399SOL    HW123096   1.378   2.285   5.507
 7399SOL    HW223097   1.422   2.175   5.395
 7400SOL     OW23098   3.854   2.105   5.540
 7400SOL    HW123099   3.770   2.155   5.560
 7400SOL    HW223100   3.839   2.044   5.463
 7401SOL     OW23101   1.420   1.531   4.955
 7401SOL    HW123102   1.498   1.546   5.017
 7401SOL    HW223103   1.374   1.446   4.980
 7402SOL     OW23104   2.687   5.968   6.579
 7402SOL    HW123105   2.605   5.914   6.564
 7402SOL    HW223106   2.675   6.058   6.537
 7403SOL     OW23107   2.190   3.805   2.288
 7403SOL    HW123108   2.214   3.760   2.202
 7403SOL    HW223109   2.196   3.739   2.363
 7404SOL     OW23110   2.380   5.378   1.708
 7404SOL    HW123111   2.465   5.343   1.749
 7404SOL    HW223112   2.318   5.409   1.781
 7405SOL     OW23113   3.790   5.104   4.433
 7405SOL    HW123114   3.699   5.062   4.422
 7405SOL    HW223115   3.853   5.064   4.367
 7406SOL     OW23116   0.088   2.639   3.063
 7406SOL    HW123117   0.173   2.667   3.106
 7406SOL    HW223118   0.108   2.591   2.977
 7407SOL     OW23119   1.133   0.083   4.904
 7407SOL    HW123120   1.207   0.025   4.939
 7407SOL    HW223121   1.100   0.047   4.817
 7408SOL     OW23122   3.150   3.871   6.985
 7408SOL    HW123123   3.086   3.811   6.936
 7408SOL    HW223124   3.106   3.959   7.002
 7409SOL     OW23125   6.419   2.319   6.864
 7409SOL    HW123126   6.342   2.382   6.874
 7409SOL    HW223127   6.501   2.371   6.837
 7410SOL     OW23128   6.747   0.212   0.477
 7410SOL    HW123129   6.754   0.279   0.403
 7410SOL    HW223130   6.651   0.192   0.495
 7411SOL     OW23131   2.373   0.017   5.981
 7411SOL    HW123132   2.330   0.094   6.028
 7411SOL    HW223133   2.472   0.031   5.980
 7412SOL     OW23134   4.644   0.325   1.973
 7412SOL    HW123135   4.655   0.246   2.032
 7412SOL    HW223136   4.699   0.312   1.890
 7413SOL     OW23137   5.434   5.572   3.986
 7413SOL    HW123138   5.478   5.487   3.957
 7413SOL    HW223139   5.429   5.575   4.086
 7414SOL     OW23140   0.539   0.689   3.944
 7414SOL    HW123141   0.458   0.748   3.947
 7414SOL    HW223142   0.516   0.605   3.895
 7415SOL     OW23143   2.312   4.945   3.964
 7415SOL    HW123144   2.288   5.038   3.936
 7415SOL    HW223145   2.232   4.886   3.957
 7416SOL     OW23146   1.743   1.194   2.827
 7416SOL    HW123147   1.833   1.157   2.806
 7416SOL    HW223148   1.709   1.245   2.748
 7417SOL     OW23149   1.712   0.561   0.017
 7417SOL    HW123150   1.699   0.506   0.099
 7417SOL    HW223151   1.626   0.568   6.983
 7418SOL     OW23152   2.434   5.801   0.240
 7418SOL    HW123153   2.376   5.865   0.190
 7418SOL    HW223154   2.482   5.849   0.313
 7419SOL     OW23155   6.570   2.695   5.047
 7419SOL    HW123156   6.648   2.712   4.987
 7419SOL    HW223157   6.489   2.677   4.991
 7420SOL     OW23158   0.439   7.006   1.489
 7420SOL    HW123159   0.394   0.017   1.404
 7420SOL    HW223160   0.393   0.032   1.567
 7421SOL     OW23161   3.874   4.335   0.772
 7421SOL    HW123162   3.932   4.336   0.691
 7421SOL    HW223163   3.784   4.372   0.749
 7422SOL     OW23164   6.914   3.291   2.409
 7422SOL    HW123165   6.921   3.223   2.336
 7422SOL    HW223166   6.970   3.263   2.486
 7423SOL     OW23167   5.780   3.219   5.595
 7423SOL    HW123168   5.794   3.220   5.694
 7423SOL    HW223169   5.714   3.148   5.571
 7424SOL     OW23170   6.695   6.521   5.633
 7424SOL    HW123171   6.665   6.438   5.679
 7424SOL    HW223172   6.664   6.601   5.685
 7425SOL     OW23173   4.208   5.732   6.663
 7425SOL    HW123174   4.119   5.726   6.709
 7425SOL    HW223175   4.280   5.707   6.728
 7426SOL     OW23176   3.299   1.665   5.650
 7426SOL    HW123177   3.251   1.577   5.653
 7426SOL    HW223178   3.384   1.659   5.703
 7427SOL     OW23179   4.323   0.235   3.659
 7427SOL    HW123180   4.357   0.235   3.565
 7427SOL    HW223181   4.340   0.324   3.700
 7428SOL     OW23182   4.235   1.529   5.509
 7428SOL    HW123183   4.150   1.549   5.559
 7428SOL    HW223184   4.313   1.543   5.570
 7429SOL     OW23185   0.648   6.485   4.183
 7429SOL    HW123186   0.602   6.417   4.240
 7429SOL    HW223187   0.595   6.499   4.099
 7430SOL     OW23188   1.296   2.957   0.421
 7430SOL    HW123189   1.212   2.904   0.422
 7430SOL    HW223190   1.325   2.978   0.514
 7431SOL     OW23191   1.354   2.794   3.577
 7431SOL    HW123192   1.308   2.881   3.564
 7431SOL    HW223193   1.452   2.808   3.584
 7432SOL     OW23194   0.961   0.916   2.838
 7432SOL    HW123195   1.026   0.979   2.796
 7432SOL    HW223196   0.894   0.887   2.770
 7433SOL     OW23197   4.686   6.354   5.587
 7433SOL    HW123198   4.734   6.391   5.508
 7433SOL    HW223199   4.751   6.341   5.662
 7434SOL     OW23200   5.117   6.066   5.697
 7434SOL    HW123201   5.022   6.097   5.704
 7434SOL    HW223202   5.151   6.045   5.788
 7435SOL     OW23203   3.605   5.704   0.766
 7435SOL    HW123204   3.549   5.660   0.696
 7435SOL    HW223205   3.554   5.708   0.852
 7436SOL     OW23206   5.160   4.068   6.155
 7436SOL    HW123207   5.135   3.991   6.213
 7436SOL    HW223208   5.102   4.070   6.074
 7437SOL     OW23209   1.630   6.024   0.092
 7437SOL    HW123210   1.578   6.086   0.151
 7437SOL    HW223211   1.703   5.981   0.146
 7438SOL     OW23212   1.015   5.930   6.955
 7438SOL    HW123213   1.081   5.859   6.980
 7438SOL    HW223214   1.061   6.000   6.901
 7439SOL     OW23215   2.286   6.236   5.792
 7439SOL    HW123216   2.276   6.144   5.754
 7439SOL    HW223217   2.367   6.279   5.753
 7440SOL     OW23218   6.852   2.942   4.020
 7440SOL    HW123219   6.942   2.979   4.044
 7440SOL    HW223220   6.789   3.017   3.999
 7441SOL     OW23221   5.379   6.572   3.908
 7441SOL    HW123222   5.394   6.486   3.957
 7441SOL    HW223223   5.457   6.590   3.848
 7442SOL     OW23224   6.275   1.386   6.103
 7442SOL    HW123225   6.338   1.308   6.098
 7442SOL    HW223226   6.287   1.444   6.022
 7443SOL     OW23227   0.356   6.137   1.728
 7443SOL    HW123228   0.400   6.211   1.676
 7443SOL    HW223229   0.309   6.176   1.808
 7444SOL     OW23230   5.553   2.388   5.452
 7444SOL    HW123231   5.552   2.424   5.546
 7444SOL    HW223232   5.496   2.306   5.447
 7445SOL     OW23233   3.982   0.890   0.988
 7445SOL    HW123234   3.952   0.817   1.050
 7445SOL    HW223235   3.950   0.978   1.024
 7446SOL     OW23236   5.858   3.247   0.413
 7446SOL    HW123237   5.935   3.255   0.476
 7446SOL    HW223238   5.790   3.185   0.451
 7447SOL     OW23239   0.403   3.294   6.751
 7447SOL    HW123240   0.459   3.295   6.668
 7447SOL    HW223241   0.446   3.350   6.822
 7448SOL     OW23242   6.377   6.775   5.126
 7448SOL    HW123243   6.382   6.676   5.119
 7448SOL    HW223244   6.456   6.809   5.178
 7449SOL     OW23245   0.710   3.643   2.125
 7449SOL    HW123246   0.691   3.696   2.208
 7449SOL    HW223247   0.739   3.705   2.052
 7450SOL     OW23248   5.172   2.468   4.609
 7450SOL    HW123249   5.219   2.507   4.530
 7450SOL    HW223250   5.145   2.374   4.590
 7451SOL     OW23251   6.757   0.090   3.132
 7451SOL    HW123252   6.663   0.123   3.126
 7451SOL    HW223253   6.817   0.149   3.078
 7452SOL     OW23254   6.753   6.681   4.813
 7452SOL    HW123255   6.735   6.773   4.848
 7452SOL    HW223256   6.806   6.687   4.729
 7453SOL     OW23257   5.029   0.240   5.814
 7453SOL    HW123258   4.993   0.248   5.907
 7453SOL    HW223259   5.128   0.256   5.816
 7454SOL     OW23260   0.526   2.712   2.195
 7454SOL    HW123261   0.538   2.614   2.212
 7454SOL    HW223262   0.433   2.728   2.162
 7455SOL     OW23263   7.015   2.469   2.198
 7455SOL    HW123264   6.922   2.501   2.216
 7455SOL    HW223265   0.064   2.541   2.220
 7456SOL     OW23266   0.812   1.426   3.779
 7456SOL    HW123267   0.793   1.510   3.729
 7456SOL    HW223268   0.732   1.400   3.833
 7457SOL     OW23269   3.564   0.037   6.145
 7457SOL    HW123270   3.524   6.989   6.211
 7457SOL    HW223271   3.655   0.065   6.177
 7458SOL     OW23272   1.435   6.331   5.765
 7458SOL    HW123273   1.461   6.316   5.861
 7458SOL    HW223274   1.487   6.270   5.706
 7459SOL     OW23275   4.554   0.576   2.095
 7459SOL    HW123276   4.594   0.502   2.041
 7459SOL    HW223277   4.612   0.658   2.086
 7460SOL     OW23278   1.259   5.343   0.855
 7460SOL    HW123279   1.213   5.362   0.942
 7460SOL    HW223280   1.357   5.337   0.869
 7461SOL     OW23281   5.642   1.120   6.385
 7461SOL    HW123282   5.613   1.204   6.430
 7461SOL    HW223283   5.571   1.050   6.396
 7462SOL     OW23284   1.852   4.113   2.375
 7462SOL    HW123285   1.923   4.124   2.305
 7462SOL    HW223286   1.764   4.144   2.338
 7463SOL     OW23287   2.273   4.901   0.707
 7463SOL    HW123288   2.276   4.963   0.785
 7463SOL    HW223289   2.242   4.951   0.626
 7464SOL     OW23290   5.281   0.144   6.403
 7464SOL    HW123291   5.199   0.087   6.414
 7464SOL    HW223292   5.322   0.159   6.493
 7465SOL     OW23293   1.596   5.615   6.837
 7465SOL    HW123294   1.630   5.609   6.743
 7465SOL    HW223295   1.543   5.532   6.857
 7466SOL     OW23296   6.973   0.709   5.175
 7466SOL    HW123297   6.975   0.623   5.227
 7466SOL    HW223298   7.015   0.782   5.228
 7467SOL     OW23299   0.762   1.430   1.276
 7467SOL    HW123300   0.762   1.358   1.345
 7467SOL    HW223301   0.670   1.468   1.269
 7468SOL     OW23302   5.833   3.139   3.641
 7468SOL    HW123303   5.775   3.202   3.589
 7468SOL    HW223304   5.800   3.132   3.735
 7469SOL     OW23305   6.853   0.747   0.583
 7469SOL    HW123306   6.805   0.679   0.638
 7469SOL    HW223307   6.790   0.786   0.516
 7470SOL     OW23308   6.450   3.719   3.305
 7470SOL    HW123309   6.368   3.707   3.360
 7470SOL    HW223310   6.428   3.765   3.219
 7471SOL     OW23311   5.562   6.672   5.891
 7471SOL    HW123312   5.632   6.726   5.844
 7471SOL    HW223313   5.575   6.575   5.870
 7472SOL     OW23314   6.273   6.887   4.677
 7472SOL    HW123315   6.267   6.986   4.689
 7472SOL    HW223316   6.224   6.842   4.751
 7473SOL     OW23317   5.922   5.177   3.934
 7473SOL    HW123318   5.892   5.238   3.860
 7473SOL    HW223319   6.002   5.216   3.979
 7474SOL     OW23320   0.975   1.608   5.626
 7474SOL    HW123321   0.991   1.675   5.554
 7474SOL    HW223322   0.894   1.554   5.604
 7475SOL     OW23323   5.135   2.338   2.398
 7475SOL    HW123324   5.234   2.335   2.412
 7475SOL    HW223325   5.115   2.391   2.316
 7476SOL     OW23326   3.298   0.674   3.850
 7476SOL    HW123327   3.229   0.733   3.809
 7476SOL    HW223328   3.346   0.723   3.923
 7477SOL     OW23329   0.316   1.193   5.409
 7477SOL    HW123330   0.373   1.130   5.462
 7477SOL    HW223331   0.237   1.221   5.464
 7478SOL     OW23332   5.110   4.617   5.652
 7478SOL    HW123333   5.082   4.682   5.582
 7478SOL    HW223334   5.135   4.530   5.608
 7479SOL     OW23335   4.051   2.211   2.400
 7479SOL    HW123336   3.974   2.274   2.402
 7479SOL    HW223337   4.041   2.143   2.472
 7480SOL     OW23338   1.075   3.856   2.218
 7480SOL    HW123339   1.088   3.891   2.311
 7480SOL    HW223340   1.013   3.917   2.168
 7481SOL     OW23341   6.334   5.564   1.014
 7481SOL    HW123342   6.433   5.550   1.004
 7481SOL    HW223343   6.316   5.661   1.029
 7482SOL     OW23344   4.675   2.779   3.066
 7482SOL    HW123345   4.676   2.731   3.154
 7482SOL    HW223346   4.739   2.735   3.003
 7483SOL     OW23347   4.724   2.772   4.488
 7483SOL    HW123348   4.715   2.673   4.503
 7483SOL    HW223349   4.745   2.789   4.392
 7484SOL     OW23350   1.670   6.907   4.342
 7484SOL    HW123351   1.720   6.850   4.406
 7484SOL    HW223352   1.662   6.860   4.254
 7485SOL     OW23353   3.589   0.034   4.529
 7485SOL    HW123354   3.626   0.118   4.569
 7485SOL    HW223355   3.506   0.009   4.579
 7486SOL     OW23356   1.864   6.702   0.479
 7486SOL    HW123357   1.878   6.690   0.380
 7486SOL    HW223358   1.887   6.796   0.505
 7487SOL     OW23359   1.827   6.678   3.665
 7487SOL    HW123360   1.784   6.751   3.612
 7487SOL    HW223361   1.901   6.637   3.612
 7488SOL     OW23362   2.766   6.561   3.867
 7488SOL    HW123363   2.711   6.625   3.813
 7488SOL    HW223364   2.710   6.481   3.890
 7489SOL     OW23365   5.242   2.635   5.162
 7489SOL    HW123366   5.186   2.663   5.241
 7489SOL    HW223367   5.183   2.600   5.090
 7490SOL     OW23368   1.375   0.329   2.538
 7490SOL    HW123369   1.472   0.321   2.515
 7490SOL    HW223370   1.340   0.241   2.568
 7491SOL     OW23371   5.376   2.745   6.786
 7491SOL    HW123372   5.357   2.657   6.744
 7491SOL    HW223373   5.465   2.742   6.832
 7492SOL     OW23374   1.909   0.628   3.092
 7492SOL    HW123375   1.959   0.671   3.017
 7492SOL    HW223376   1.954   0.543   3.117
 7493SOL     OW23377   0.405   3.664   6.818
 7493SOL    HW123378   0.343   3.722   6.870
 7493SOL    HW223379   0.365   3.642   6.729
 7494SOL     OW23380   5.367   1.160   2.691
 7494SOL    HW123381   5.402   1.209   2.771
 7494SOL    HW223382   5.268   1.174   2.686
 7495SOL     OW23383   1.526   1.946   6.411
 7495SOL    HW123384   1.551   1.947   6.314
 7495SOL    HW223385   1.557   2.031   6.454
 7496SOL     OW23386   5.907   3.289   4.870
 7496SOL    HW123387   5.900   3.201   4.916
 7496SOL    HW223388   5.970   3.282   4.793
 7497SOL     OW23389   2.048   4.412   6.230
 7497SOL    HW123390   2.130   4.427   6.173
 7497SOL    HW223391   1.968   4.403   6.171
 7498SOL     OW23392   3.230   0.357   5.089
 7498SOL    HW123393   3.199   0.323   5.000
 7498SOL    HW223394   3.159   0.414   5.129
 7499SOL     OW23395   3.289   1.289   2.965
 7499SOL    HW123396   3.283   1.379   3.009
 7499SOL    HW223397   3.198   1.247   2.963
 7500SOL     OW23398   3.417   5.560   2.923
 7500SOL    HW123399   3.373   5.608   3.000
 7500SOL    HW223400   3.509   5.532   2.950
 7501SOL     OW23401   5.186   3.637   4.763
 7501SOL    HW123402   5.098   3.669   4.797
 7501SOL    HW223403   5.201   3.543   4.794
 7502SOL     OW23404   3.006   0.398   4.615
 7502SOL    HW123405   3.050   0.439   4.695
 7502SOL    HW223406   2.959   0.314   4.642
 7503SOL     OW23407   1.410   0.500   1.102
 7503SOL    HW123408   1.476   0.563   1.058
 7503SOL    HW223409   1.322   0.508   1.056
 7504SOL     OW23410   0.883   6.796   3.267
 7504SOL    HW123411   0.969   6.829   3.306
 7504SOL    HW223412   0.813   6.868   3.272
 7505SOL     OW23413   1.541   2.770   5.932
 7505SOL    HW123414   1.445   2.791   5.950
 7505SOL    HW223415   1.567   2.809   5.843
 7506SOL     OW23416   5.013   1.143   3.406
 7506SOL    HW123417   4.982   1.068   3.464
 7506SOL    HW223418   5.004   1.117   3.310
 7507SOL     OW23419   0.180   1.263   2.729
 7507SOL    HW123420   0.247   1.223   2.792
 7507SOL    HW223421   0.091   1.271   2.775
 7508SOL     OW23422   1.194   0.127   1.633
 7508SOL    HW123423   1.132   0.049   1.633
 7508SOL    HW223424   1.289   0.095   1.629
 7509SOL     OW23425   5.982   4.443   0.416
 7509SOL    HW123426   6.028   4.530   0.432
 7509SOL    HW223427   6.012   4.376   0.484
 7510SOL     OW23428   3.649   3.523   5.451
 7510SOL    HW123429   3.604   3.611   5.462
 7510SOL    HW223430   3.676   3.488   5.541
 7511SOL     OW23431   2.481   6.313   3.909
 7511SOL    HW123432   2.549   6.266   3.853
 7511SOL    HW223433   2.433   6.382   3.853
 7512SOL     OW23434   2.717   6.734   6.854
 7512SOL    HW123435   2.726   6.678   6.936
 7512SOL    HW223436   2.703   6.829   6.880
 7513SOL     OW23437   1.902   0.998   1.439
 7513SOL    HW123438   1.965   0.926   1.469
 7513SOL    HW223439   1.816   0.989   1.489
 7514SOL     OW23440   2.609   5.693   1.776
 7514SOL    HW123441   2.675   5.619   1.785
 7514SOL    HW223442   2.590   5.709   1.679
 7515SOL     OW23443   6.739   5.335   4.225
 7515SOL    HW123444   6.811   5.377   4.169
 7515SOL    HW223445   6.727   5.239   4.198
 7516SOL     OW23446   6.753   6.150   5.301
 7516SOL    HW123447   6.726   6.153   5.205
 7516SOL    HW223448   6.804   6.066   5.319
 7517SOL     OW23449   0.106   2.645   0.580
 7517SOL    HW123450   0.012   2.671   0.562
 7517SOL    HW223451   0.150   2.614   0.495
 7518SOL     OW23452   4.239   4.691   3.769
 7518SOL    HW123453   4.265   4.644   3.684
 7518SOL    HW223454   4.322   4.717   3.819
 7519SOL     OW23455   0.391   6.300   3.395
 7519SOL    HW123456   0.467   6.366   3.397
 7519SOL    HW223457   0.372   6.275   3.301
 7520SOL     OW23458   1.843   0.028   2.395
 7520SOL    HW123459   1.856   0.013   2.297
 7520SOL    HW223460   1.819   6.958   2.440
 7521SOL     OW23461   4.587   4.004   5.496
 7521SOL    HW123462   4.653   3.980   5.567
 7521SOL    HW223463   4.511   4.053   5.538
 7522SOL     OW23464   1.418   1.475   5.745
 7522SOL    HW123465   1.487   1.516   5.805
 7522SOL    HW223466   1.405   1.534   5.665
 7523SOL     OW23467   5.994   0.577   6.449
 7523SOL    HW123468   5.998   0.609   6.543
 7523SOL    HW223469   6.004   0.477   6.446
 7524SOL     OW23470   1.305   2.460   5.230
 7524SOL    HW123471   1.342   2.396   5.297
 7524SOL    HW223472   1.365   2.464   5.150
 7525SOL     OW23473   3.520   0.652   6.092
 7525SOL    HW123474   3.597   0.642   6.154
 7525SOL    HW223475   3.453   0.714   6.132
 7526SOL     OW23476   3.016   3.605   1.731
 7526SOL    HW123477   2.963   3.551   1.666
 7526SOL    HW223478   3.086   3.547   1.773
 7527SOL     OW23479   2.955   6.007   3.381
 7527SOL    HW123480   2.864   5.969   3.399
 7527SOL    HW223481   2.962   6.098   3.423
 7528SOL     OW23482   5.921   2.468   0.935
 7528SOL    HW123483   5.913   2.473   0.835
 7528SOL    HW223484   5.836   2.432   0.974
 7529SOL     OW23485   5.054   1.580   4.569
 7529SOL    HW123486   5.059   1.668   4.522
 7529SOL    HW223487   4.974   1.580   4.630
 7530SOL     OW23488   6.966   3.112   2.209
 7530SOL    HW123489   6.947   3.026   2.160
 7530SOL    HW223490   6.946   3.189   2.149
 7531SOL     OW23491   5.542   3.061   4.695
 7531SOL    HW123492   5.445   3.061   4.717
 7531SOL    HW223493   5.595   3.033   4.775
 7532SOL     OW23494   4.816   5.798   6.886
 7532SOL    HW123495   4.795   5.839   6.797
 7532SOL    HW223496   4.801   5.865   6.959
 7533SOL     OW23497   3.436   0.892   1.616
 7533SOL    HW123498   3.488   0.962   1.666
 7533SOL    HW223499   3.384   0.837   1.681
 7534SOL     OW23500   4.397   6.805   5.562
 7534SOL    HW123501   4.453   6.885   5.538
 7534SOL    HW223502   4.422   6.728   5.502
 7535SOL     OW23503   2.117   0.940   4.923
 7535SOL    HW123504   2.031   0.890   4.914
 7535SOL    HW223505   2.157   0.921   5.013
 7536SOL     OW23506   5.044   4.722   3.913
 7536SOL    HW123507   4.984   4.643   3.913
 7536SOL    HW223508   5.008   4.791   3.850
 7537SOL     OW23509   2.562   5.724   1.487
 7537SOL    HW123510   2.497   5.800   1.487
 7537SOL    HW223511   2.640   5.747   1.429
 7538SOL     OW23512   1.682   2.417   1.085
 7538SOL    HW123513   1.767   2.446   1.128
 7538SOL    HW223514   1.699   2.339   1.025
 7539SOL     OW23515   1.700   3.746   3.860
 7539SOL    HW123516   1.766   3.683   3.819
 7539SOL    HW223517   1.707   3.835   3.814
 7540SOL     OW23518   4.442   0.505   4.547
 7540SOL    HW123519   4.372   0.573   4.566
 7540SOL    HW223520   4.491   0.483   4.631
 7541SOL     OW23521   0.747   4.613   5.036
 7541SOL    HW123522   0.805   4.608   4.955
 7541SOL    HW223523   0.735   4.709   5.063
 7542SOL     OW23524   1.366   5.031   6.846
 7542SOL    HW123525   1.377   4.931   6.846
 7542SOL    HW223526   1.271   5.054   6.823
 7543SOL     OW23527   4.257   1.727   6.036
 7543SOL    HW123528   4.217   1.775   6.114
 7543SOL    HW223529   4.348   1.766   6.016
 7544SOL     OW23530   6.946   2.124   2.531
 7544SOL    HW123531   6.848   2.142   2.527
 7544SOL    HW223532   6.967   2.040   2.482
 7545SOL     OW23533   0.223   5.000   0.466
 7545SOL    HW123534   0.229   5.075   0.400
 7545SOL    HW223535   0.141   4.945   0.446
 7546SOL     OW23536   3.280   2.412   1.495
 7546SOL    HW123537   3.315   2.435   1.404
 7546SOL    HW223538   3.350   2.363   1.546
 7547SOL     OW23539   5.155   1.777   0.567
 7547SOL    HW123540   5.198   1.862   0.597
 7547SOL    HW223541   5.084   1.798   0.499
 7548SOL     OW23542   5.015   1.614   6.847
 7548SOL    HW123543   4.970   1.635   6.933
 7548SOL    HW223544   5.096   1.558   6.865
 7549SOL     OW23545   3.593   2.856   6.372
 7549SOL    HW123546   3.594   2.786   6.443
 7549SOL    HW223547   3.568   2.815   6.284
 7550SOL     OW23548   2.492   5.109   3.492
 7550SOL    HW123549   2.518   5.042   3.561
 7550SOL    HW223550   2.425   5.173   3.531
 7551SOL     OW23551   5.659   3.484   6.453
 7551SOL    HW123552   5.599   3.404   6.448
 7551SOL    HW223553   5.753   3.457   6.431
 7552SOL     OW23554   1.379   5.920   2.915
 7552SOL    HW123555   1.339   5.829   2.906
 7552SOL    HW223556   1.475   5.912   2.941
 7553SOL     OW23557   4.372   6.353   5.616
 7553SOL    HW123558   4.462   6.315   5.635
 7553SOL    HW223559   4.351   6.425   5.682
 7554SOL     OW23560   4.965   0.987   0.177
 7554SOL    HW123561   4.887   1.011   0.235
 7554SOL    HW223562   5.050   1.002   0.227
 7555SOL     OW23563   2.172   4.797   6.190
 7555SOL    HW123564   2.084   4.801   6.143
 7555SOL    HW223565   2.161   4.750   6.278
 7556SOL     OW23566   2.293   2.861   0.523
 7556SOL    HW123567   2.303   2.812   0.437
 7556SOL    HW223568   2.238   2.807   0.586
 7557SOL     OW23569   5.217   1.094   5.444
 7557SOL    HW123570   5.163   1.158   5.498
 7557SOL    HW223571   5.164   1.010   5.429
 7558SOL     OW23572   1.567   2.549   4.341
 7558SOL    HW123573   1.629   2.475   4.315
 7558SOL    HW223574   1.514   2.577   4.261
 7559SOL     OW23575   4.629   3.920   0.824
 7559SOL    HW123576   4.665   3.880   0.740
 7559SOL    HW223577   4.703   3.930   0.891
 7560SOL     OW23578   5.325   6.418   0.929
 7560SOL    HW123579   5.391   6.343   0.936
 7560SOL    HW223580   5.278   6.430   1.016
 7561SOL     OW23581   0.990   3.040   6.753
 7561SOL    HW123582   1.006   3.094   6.671
 7561SOL    HW223583   0.896   3.055   6.785
 7562SOL     OW23584   0.416   5.782   4.657
 7562SOL    HW123585   0.421   5.874   4.698
 7562SOL    HW223586   0.419   5.790   4.558
 7563SOL     OW23587   3.156   0.254   1.284
 7563SOL    HW123588   3.241   0.304   1.268
 7563SOL    HW223589   3.176   0.166   1.327
 7564SOL     OW23590   3.784   6.774   3.293
 7564SOL    HW123591   3.766   6.687   3.247
 7564SOL    HW223592   3.733   6.777   3.379
 7565SOL     OW23593   5.487   3.119   0.129
 7565SOL    HW123594   5.434   3.037   0.110
 7565SOL    HW223595   5.581   3.094   0.153
 7566SOL     OW23596   6.653   4.647   3.115
 7566SOL    HW123597   6.701   4.724   3.157
 7566SOL    HW223598   6.667   4.649   3.016
 7567SOL     OW23599   2.008   1.930   5.297
 7567SOL    HW123600   1.919   1.950   5.337
 7567SOL    HW223601   2.080   1.959   5.359
 7568SOL     OW23602   5.136   5.993   3.394
 7568SOL    HW123603   5.121   5.924   3.465
 7568SOL    HW223604   5.232   5.990   3.365
 7569SOL     OW23605   3.730   4.992   5.732
 7569SOL    HW123606   3.675   5.069   5.767
 7569SOL    HW223607   3.790   4.958   5.804
 7570SOL     OW23608   5.225   3.444   4.969
 7570SOL    HW123609   5.234   3.394   5.055
 7570SOL    HW223610   5.225   3.542   4.988
 7571SOL     OW23611   4.306   4.899   3.260
 7571SOL    HW123612   4.216   4.857   3.253
 7571SOL    HW223613   4.342   4.915   3.168
 7572SOL     OW23614   4.205   1.078   1.560
 7572SOL    HW123615   4.275   1.039   1.501
 7572SOL    HW223616   4.239   1.084   1.654
 7573SOL     OW23617   0.156   0.399   5.495
 7573SOL    HW123618   0.233   0.418   5.557
 7573SOL    HW223619   0.190   0.353   5.413
 7574SOL     OW23620   5.299   0.571   5.249
 7574SOL    HW123621   5.227   0.507   5.222
 7574SOL    HW223622   5.353   0.531   5.323
 7575SOL     OW23623   5.433   0.904   6.195
 7575SOL    HW123624   5.435   0.811   6.157
 7575SOL    HW223625   5.506   0.958   6.154
 7576SOL     OW23626   4.823   3.371   0.527
 7576SOL    HW123627   4.853   3.280   0.498
 7576SOL    HW223628   4.737   3.394   0.482
 7577SOL     OW23629   1.018   6.804   0.077
 7577SOL    HW123630   1.000   6.706   0.063
 7577SOL    HW223631   0.932   6.851   0.097
 7578SOL     OW23632   2.697   5.331   1.519
 7578SOL    HW123633   2.660   5.246   1.554
 7578SOL    HW223634   2.626   5.380   1.468
 7579SOL     OW23635   0.515   1.103   2.647
 7579SOL    HW123636   0.468   1.015   2.655
 7579SOL    HW223637   0.465   1.161   2.582
 7580SOL     OW23638   0.800   3.795   4.290
 7580SOL    HW123639   0.898   3.806   4.307
 7580SOL    HW223640   0.765   3.719   4.344
 7581SOL     OW23641   0.044   1.448   2.189
 7581SOL    HW123642   0.056   1.460   2.288
 7581SOL    HW223643   0.057   1.536   2.143
 7582SOL     OW23644   3.844   1.115   1.801
 7582SOL    HW123645   3.866   1.096   1.705
 7582SOL    HW223646   3.916   1.079   1.860
 7583SOL     OW23647   6.031   2.948   2.178
 7583SOL    HW123648   5.979   2.926   2.261
 7583SOL    HW223649   6.028   3.047   2.162
 7584SOL     OW23650   3.497   0.320   2.351
 7584SOL    HW123651   3.427   0.390   2.338
 7584SOL    HW223652   3.588   0.362   2.349
 7585SOL     OW23653   1.944   2.673   6.679
 7585SOL    HW123654   1.999   2.749   6.713
 7585SOL    HW223655   1.880   2.707   6.610
 7586SOL     OW23656   2.786   0.665   3.588
 7586SOL    HW123657   2.815   0.588   3.646
 7586SOL    HW223658   2.834   0.659   3.500
 7587SOL     OW23659   2.194   1.980   0.056
 7587SOL    HW123660   2.255   1.984   0.135
 7587SOL    HW223661   2.233   1.919   7.003
 7588SOL     OW23662   1.281   2.760   3.844
 7588SOL    HW123663   1.287   2.778   3.745
 7588SOL    HW223664   1.357   2.805   3.891
 7589SOL     OW23665   0.247   0.297   2.415
 7589SOL    HW123666   0.256   0.273   2.318
 7589SOL    HW223667   0.234   0.396   2.423
 7590SOL     OW23668   3.468   2.463   6.482
 7590SOL    HW123669   3.552   2.441   6.432
 7590SOL    HW223670   3.456   2.562   6.483
 7591SOL     OW23671   6.847   3.695   0.944
 7591SOL    HW123672   6.774   3.718   1.008
 7591SOL    HW223673   6.930   3.743   0.969
 7592SOL     OW23674   0.046   5.411   5.150
 7592SOL    HW123675   0.035   5.498   5.197
 7592SOL    HW223676   0.086   5.344   5.212
 7593SOL     OW23677   6.355   3.109   0.050
 7593SOL    HW123678   6.369   3.022   0.004
 7593SOL    HW223679   6.354   3.096   0.149
 7594SOL     OW23680   1.395   4.512   2.459
 7594SOL    HW123681   1.298   4.500   2.476
 7594SOL    HW223682   1.427   4.596   2.503
 7595SOL     OW23683   6.076   2.708   5.880
 7595SOL    HW123684   6.118   2.679   5.795
 7595SOL    HW223685   6.037   2.800   5.868
 7596SOL     OW23686   4.054   6.272   3.575
 7596SOL    HW123687   4.043   6.294   3.478
 7596SOL    HW223688   4.149   6.246   3.593
 7597SOL     OW23689   2.177   6.794   2.928
 7597SOL    HW123690   2.150   6.882   2.966
 7597SOL    HW223691   2.258   6.761   2.975
 7598SOL     OW23692   6.782   0.881   3.205
 7598SOL    HW123693   6.745   0.832   3.126
 7598SOL    HW223694   6.819   0.815   3.270
 7599SOL     OW23695   5.684   1.890   2.359
 7599SOL    HW123696   5.668   1.793   2.339
 7599SOL    HW223697   5.774   1.917   2.324
 7600SOL     OW23698   1.384   1.672   3.356
 7600SOL    HW123699   1.408   1.719   3.441
 7600SOL    HW223700   1.371   1.574   3.375
 7601SOL     OW23701   1.906   4.431   2.482
 7601SOL    HW123702   1.940   4.517   2.518
 7601SOL    HW223703   1.811   4.442   2.452
 7602SOL     OW23704   2.302   3.528   6.681
 7602SOL    HW123705   2.259   3.565   6.763
 7602SOL    HW223706   2.235   3.523   6.607
 7603SOL     OW23707   1.371   5.751   6.211
 7603SOL    HW123708   1.431   5.831   6.208
 7603SOL    HW223709   1.368   5.715   6.304
 7604SOL     OW23710   2.085   3.508   4.459
 7604SOL    HW123711   2.093   3.576   4.385
 7604SOL    HW223712   2.170   3.456   4.465
 7605SOL     OW23713   1.238   1.003   1.772
 7605SOL    HW123714   1.295   0.922   1.763
 7605SOL    HW223715   1.253   1.045   1.861
 7606SOL     OW23716   6.096   3.909   4.811
 7606SOL    HW123717   6.008   3.941   4.777
 7606SOL    HW223718   6.081   3.844   4.885
 7607SOL     OW23719   3.205   5.223   0.140
 7607SOL    HW123720   3.159   5.187   0.221
 7607SOL    HW223721   3.137   5.249   0.072
 7608SOL     OW23722   3.785   4.268   1.229
 7608SOL    HW123723   3.782   4.273   1.129
 7608SOL    HW223724   3.692   4.274   1.265
 7609SOL     OW23725   1.395   2.780   4.424
 7609SOL    HW123726   1.361   2.725   4.500
 7609SOL    HW223727   1.450   2.723   4.363
 7610SOL     OW23728   4.146   4.467   6.152
 7610SOL    HW123729   4.216   4.502   6.090
 7610SOL    HW223730   4.057   4.472   6.109
 7611SOL     OW23731   5.795   3.907   1.659
 7611SOL    HW123732   5.699   3.882   1.653
 7611SOL    HW223733   5.842   3.844   1.721
 7612SOL     OW23734   4.899   3.232   2.145
 7612SOL    HW123735   4.836   3.159   2.119
 7612SOL    HW223736   4.942   3.210   2.233
 7613SOL     OW23737   6.971   2.755   1.011
 7613SOL    HW123738   0.027   2.774   0.943
 7613SOL    HW223739   7.010   2.702   1.087
 7614SOL     OW23740   5.356   3.426   0.933
 7614SOL    HW123741   5.279   3.366   0.956
 7614SOL    HW223742   5.431   3.411   0.998
 7615SOL     OW23743   3.895   4.892   6.929
 7615SOL    HW123744   3.812   4.865   6.881
 7615SOL    HW223745   3.964   4.820   6.920
 7616SOL     OW23746   6.190   6.300   4.437
 7616SOL    HW123747   6.116   6.337   4.494
 7616SOL    HW223748   6.258   6.255   4.495
 7617SOL     OW23749   3.995   6.413   2.831
 7617SOL    HW123750   3.912   6.357   2.829
 7617SOL    HW223751   4.015   6.446   2.739
 7618SOL     OW23752   0.157   1.997   5.955
 7618SOL    HW123753   0.255   2.018   5.954
 7618SOL    HW223754   0.105   2.079   5.930
 7619SOL     OW23755   6.810   2.959   4.766
 7619SOL    HW123756   6.900   2.954   4.723
 7619SOL    HW223757   6.753   2.882   4.736
 7620SOL     OW23758   3.898   5.751   1.388
 7620SOL    HW123759   3.903   5.842   1.429
 7620SOL    HW223760   3.906   5.758   1.289
 7621SOL     OW23761   6.613   0.720   1.075
 7621SOL    HW123762   6.636   0.813   1.046
 7621SOL    HW223763   6.514   0.707   1.070
 7622SOL     OW23764   3.980   5.036   6.644
 7622SOL    HW123765   3.921   5.108   6.678
 7622SOL    HW223766   3.985   5.041   6.544
 7623SOL     OW23767   4.846   3.483   6.722
 7623SOL    HW123768   4.885   3.563   6.676
 7623SOL    HW223769   4.757   3.508   6.762
 7624SOL     OW23770   0.032   3.719   5.020
 7624SOL    HW123771   0.010   3.630   4.979
 7624SOL    HW223772   0.088   3.772   4.956
 7625SOL     OW23773   5.067   0.562   0.873
 7625SOL    HW123774   4.971   0.581   0.894
 7625SOL    HW223775   5.110   0.645   0.838
 7626SOL     OW23776   6.583   0.399   4.191
 7626SOL    HW123777   6.525   0.348   4.127
 7626SOL    HW223778   6.678   0.369   4.182
 7627SOL     OW23779   5.118   2.947   0.389
 7627SOL    HW123780   5.156   2.879   0.452
 7627SOL    HW223781   5.191   3.009   0.358
 7628SOL     OW23782   3.451   2.299   1.659
 7628SOL    HW123783   3.544   2.332   1.676
 7628SOL    HW223784   3.406   2.282   1.747
 7629SOL     OW23785   0.202   5.069   3.614
 7629SOL    HW123786   0.179   5.052   3.519
 7629SOL    HW223787   0.231   5.164   3.625
 7630SOL     OW23788   0.679   0.198   1.285
 7630SOL    HW123789   0.661   0.130   1.357
 7630SOL    HW223790   0.766   0.243   1.304
 7631SOL     OW23791   0.577   1.467   6.026
 7631SOL    HW123792   0.623   1.551   6.056
 7631SOL    HW223793   0.636   1.388   6.043
 7632SOL     OW23794   4.631   4.526   1.490
 7632SOL    HW123795   4.630   4.451   1.557
 7632SOL    HW223796   4.719   4.527   1.443
 7633SOL     OW23797   5.503   0.145   2.175
 7633SOL    HW123798   5.579   0.116   2.234
 7633SOL    HW223799   5.437   0.071   2.167
 7634SOL     OW23800   1.786   1.623   2.218
 7634SOL    HW123801   1.806   1.537   2.172
 7634SOL    HW223802   1.737   1.605   2.303
 7635SOL     OW23803   3.634   4.840   5.294
 7635SOL    HW123804   3.725   4.817   5.257
 7635SOL    HW223805   3.568   4.772   5.263
 7636SOL     OW23806   1.876   3.206   3.897
 7636SOL    HW123807   1.854   3.298   3.927
 7636SOL    HW223808   1.965   3.178   3.933
 7637SOL     OW23809   2.815   6.231   2.149
 7637SOL    HW123810   2.821   6.139   2.110
 7637SOL    HW223811   2.906   6.273   2.149
 7638SOL     OW23812   2.193   6.087   1.272
 7638SOL    HW123813   2.266   6.155   1.277
 7638SOL    HW223814   2.173   6.065   1.177
 7639SOL     OW23815   0.421   1.925   1.168
 7639SOL    HW123816   0.515   1.956   1.184
 7639SOL    HW223817   0.370   1.997   1.122
 7640SOL     OW23818   3.362   1.588   6.034
 7640SOL    HW123819   3.316   1.514   5.985
 7640SOL    HW223820   3.299   1.665   6.045
 7641SOL     OW23821   1.649   3.840   2.226
 7641SOL    HW123822   1.725   3.776   2.239
 7641SOL    HW223823   1.647   3.869   2.130
 7642SOL     OW23824   3.653   2.070   2.654
 7642SOL    HW123825   3.630   2.012   2.732
 7642SOL    HW223826   3.752   2.086   2.653
 7643SOL     OW23827   4.601   2.448   3.434
 7643SOL    HW123828   4.537   2.498   3.492
 7643SOL    HW223829   4.571   2.353   3.426
 7644SOL     OW23830   4.515   2.405   1.765
 7644SOL    HW123831   4.479   2.419   1.673
 7644SOL    HW223832   4.612   2.386   1.761
 7645SOL     OW23833   5.255   3.614   5.306
 7645SOL    HW123834   5.292   3.591   5.395
 7645SOL    HW223835   5.161   3.579   5.298
 7646SOL     OW23836   1.571   3.268   3.403
 7646SOL    HW123837   1.666   3.239   3.406
 7646SOL    HW223838   1.529   3.236   3.318
 7647SOL     OW23839   6.777   2.358   3.468
 7647SOL    HW123840   6.872   2.375   3.445
 7647SOL    HW223841   6.771   2.319   3.560
 7648SOL     OW23842   2.575   1.639   3.192
 7648SOL    HW123843   2.640   1.705   3.155
 7648SOL    HW223844   2.564   1.563   3.128
 7649SOL     OW23845   0.852   0.737   3.674
 7649SOL    HW123846   0.916   0.699   3.741
 7649SOL    HW223847   0.895   0.813   3.626
 7650SOL     OW23848   5.606   1.357   0.451
 7650SOL    HW123849   5.564   1.347   0.541
 7650SOL    HW223850   5.539   1.394   0.386
 7651SOL     OW23851   2.141   0.492   3.586
 7651SOL    HW123852   2.198   0.412   3.570
 7651SOL    HW223853   2.045   0.465   3.586
 7652SOL     OW23854   6.002   3.031   4.998
 7652SOL    HW123855   6.073   2.984   5.049
 7652SOL    HW223856   5.920   2.973   4.993
 7653SOL     OW23857   0.298   2.144   6.865
 7653SOL    HW123858   0.208   2.106   6.886
 7653SOL    HW223859   0.367   2.102   6.925
 7654SOL     OW23860   4.750   2.930   4.729
 7654SOL    HW123861   4.769   3.020   4.691
 7654SOL    HW223862   4.721   2.868   4.656
 7655SOL     OW23863   4.463   6.337   3.159
 7655SOL    HW123864   4.547   6.322   3.106
 7655SOL    HW223865   4.384   6.317   3.102
 7656SOL     OW23866   3.407   3.955   6.890
 7656SOL    HW123867   3.443   4.047   6.909
 7656SOL    HW223868   3.311   3.951   6.918
 7657SOL     OW23869   1.073   2.294   3.549
 7657SOL    HW123870   1.070   2.359   3.624
 7657SOL    HW223871   0.981   2.283   3.511
 7658SOL     OW23872   3.169   0.520   6.610
 7658SOL    HW123873   3.100   0.494   6.678
 7658SOL    HW223874   3.184   0.444   6.546
 7659SOL     OW23875   5.572   4.881   6.381
 7659SOL    HW123876   5.518   4.844   6.306
 7659SOL    HW223877   5.634   4.810   6.416
 7660SOL     OW23878   0.215   5.679   3.108
 7660SOL    HW123879   0.158   5.678   3.190
 7660SOL    HW223880   0.211   5.590   3.063
 7661SOL     OW23881   5.132   2.201   4.899
 7661SOL    HW123882   5.036   2.226   4.903
 7661SOL    HW223883   5.180   2.239   4.978
 7662SOL     OW23884   1.711   2.973   4.198
 7662SOL    HW123885   1.639   2.906   4.214
 7662SOL    HW223886   1.674   3.048   4.143
 7663SOL     OW23887   6.584   5.733   5.834
 7663SOL    HW123888   6.564   5.722   5.932
 7663SOL    HW223889   6.683   5.725   5.820
 7664SOL     OW23890   4.148   0.574   1.825
 7664SOL    HW123891   4.123   0.659   1.780
 7664SOL    HW223892   4.191   0.594   1.913
 7665SOL     OW23893   5.800   0.932   4.290
 7665SOL    HW123894   5.875   0.907   4.228
 7665SOL    HW223895   5.735   0.990   4.242
 7666SOL     OW23896   0.677   5.081   2.179
 7666SOL    HW123897   0.589   5.129   2.185
 7666SOL    HW223898   0.660   4.982   2.174
 7667SOL     OW23899   4.237   0.271   2.319
 7667SOL    HW123900   4.233   0.191   2.379
 7667SOL    HW223901   4.328   0.312   2.323
 7668SOL     OW23902   3.084   5.017   0.653
 7668SOL    HW123903   3.116   4.941   0.708
 7668SOL    HW223904   3.000   4.991   0.604
 7669SOL     OW23905   4.647   0.819   4.959
 7669SOL    HW123906   4.665   0.903   5.011
 7669SOL    HW223907   4.596   0.842   4.876
 7670SOL     OW23908   0.800   4.756   0.519
 7670SOL    HW123909   0.832   4.841   0.478
 7670SOL    HW223910   0.727   4.776   0.585
 7671SOL     OW23911   3.646   1.276   1.645
 7671SOL    HW123912   3.611   1.206   1.582
 7671SOL    HW223913   3.696   1.232   1.719
 7672SOL     OW23914   0.187   6.272   2.643
 7672SOL    HW123915   0.129   6.346   2.677
 7672SOL    HW223916   0.130   6.191   2.626
 7673SOL     OW23917   1.249   6.569   1.351
 7673SOL    HW123918   1.292   6.648   1.307
 7673SOL    HW223919   1.246   6.493   1.286
 7674SOL     OW23920   4.579   0.802   3.344
 7674SOL    HW123921   4.623   0.713   3.330
 7674SOL    HW223922   4.593   0.831   3.438
 7675SOL     OW23923   6.236   6.727   2.644
 7675SOL    HW123924   6.195   6.704   2.556
 7675SOL    HW223925   6.201   6.815   2.676
 7676SOL     OW23926   2.517   1.876   0.535
 7676SOL    HW123927   2.573   1.892   0.454
 7676SOL    HW223928   2.466   1.791   0.524
 7677SOL     OW23929   1.272   4.708   1.495
 7677SOL    HW123930   1.258   4.640   1.423
 7677SOL    HW223931   1.357   4.758   1.477
 7678SOL     OW23932   2.397   2.781   5.311
 7678SOL    HW123933   2.420   2.858   5.251
 7678SOL    HW223934   2.299   2.761   5.304
 7679SOL     OW23935   3.274   6.567   5.828
 7679SOL    HW123936   3.338   6.548   5.753
 7679SOL    HW223937   3.190   6.607   5.791
 7680SOL     OW23938   1.561   0.814   0.678
 7680SOL    HW123939   1.644   0.772   0.712
 7680SOL    HW223940   1.551   0.794   0.581
 7681SOL     OW23941   2.521   0.598   1.125
 7681SOL    HW123942   2.616   0.569   1.119
 7681SOL    HW223943   2.497   0.653   1.046
 7682SOL     OW23944   3.638   0.074   2.064
 7682SOL    HW123945   3.679   0.107   2.149
 7682SOL    HW223946   3.678   0.122   1.986
 7683SOL     OW23947   6.195   2.196   4.520
 7683SOL    HW123948   6.195   2.137   4.601
 7683SOL    HW223949   6.117   2.172   4.462
 7684SOL     OW23950   3.929   1.992   1.308
 7684SOL    HW123951   3.939   2.025   1.402
 7684SOL    HW223952   3.836   2.009   1.276
 7685SOL     OW23953   2.934   1.703   6.004
 7685SOL    HW123954   2.888   1.789   5.982
 7685SOL    HW223955   2.887   1.658   6.080
 7686SOL     OW23956   0.119   6.253   3.135
 7686SOL    HW123957   0.137   6.343   3.095
 7686SOL    HW223958   0.092   6.264   3.231
 7687SOL     OW23959   6.097   5.369   3.965
 7687SOL    HW123960   6.122   5.450   3.912
 7687SOL    HW223961   6.166   5.354   4.036
 7688SOL     OW23962   1.047   6.190   5.144
 7688SOL    HW123963   1.091   6.222   5.228
 7688SOL    HW223964   1.021   6.094   5.154
 7689SOL     OW23965   5.827   6.196   2.186
 7689SOL    HW123966   5.755   6.245   2.137
 7689SOL    HW223967   5.847   6.243   2.272
 7690SOL     OW23968   5.445   4.452   6.986
 7690SOL    HW123969   5.465   4.368   0.020
 7690SOL    HW223970   5.461   4.438   6.889
 7691SOL     OW23971   4.930   3.616   4.074
 7691SOL    HW123972   4.921   3.524   4.113
 7691SOL    HW223973   4.930   3.683   4.148
 7692SOL     OW23974   0.928   6.254   2.038
 7692SOL    HW123975   0.830   6.248   2.021
 7692SOL    HW223976   0.972   6.300   1.961
 7693SOL     OW23977   3.367   6.944   1.930
 7693SOL    HW123978   3.333   7.016   1.870
 7693SOL    HW223979   3.467   6.948   1.934
 7694SOL     OW23980   5.181   3.851   4.096
 7694SOL    HW123981   5.220   3.808   4.014
 7694SOL    HW223982   5.082   3.854   4.088
 7695SOL     OW23983   4.585   0.041   1.004
 7695SOL    HW123984   4.653   0.110   1.027
 7695SOL    HW223985   4.523   0.078   0.934
 7696SOL     OW23986   0.336   0.771   5.988
 7696SOL    HW123987   0.404   0.801   6.054
 7696SOL    HW223988   0.331   0.671   5.988
 7697SOL     OW23989   2.351   0.096   3.365
 7697SOL    HW123990   2.424   0.058   3.421
 7697SOL    HW223991   2.306   0.022   3.314
 7698SOL     OW23992   5.545   2.147   4.056
 7698SOL    HW123993   5.476   2.194   4.112
 7698SOL    HW223994   5.636   2.184   4.079
 7699SOL     OW23995   3.465   6.110   5.983
 7699SOL    HW123996   3.542   6.054   5.955
 7699SOL    HW223997   3.379   6.066   5.956
 7700SOL     OW23998   4.702   5.761   3.091
 7700SOL    HW123999   4.801   5.751   3.101
 7700SOL    HW224000   4.658   5.673   3.107
 7701SOL     OW24001   6.243   2.000   0.177
 7701SOL    HW124002   6.161   2.001   0.235
 7701SOL    HW224003   6.230   2.062   0.100
 7702SOL     OW24004   3.696   6.139   4.825
 7702SOL    HW124005   3.697   6.114   4.729
 7702SOL    HW224006   3.660   6.062   4.879
 7703SOL     OW24007   6.148   6.050   6.204
 7703SOL    HW124008   6.053   6.056   6.235
 7703SOL    HW224009   6.149   6.035   6.105
 7704SOL     OW24010   5.879   0.472   4.277
 7704SOL    HW124011   5.839   0.540   4.338
 7704SOL    HW224012   5.840   0.483   4.185
 7705SOL     OW24013   2.437   6.012   0.500
 7705SOL    HW124014   2.430   5.962   0.586
 7705SOL    HW224015   2.347   6.049   0.476
 7706SOL     OW24016   3.581   3.920   4.870
 7706SOL    HW124017   3.569   3.880   4.779
 7706SOL    HW224018   3.512   3.991   4.885
 7707SOL     OW24019   0.050   4.730   5.894
 7707SOL    HW124020   0.079   4.772   5.980
 7707SOL    HW224021   0.119   4.748   5.823
 7708SOL     OW24022   0.996   6.677   5.649
 7708SOL    HW124023   1.028   6.767   5.620
 7708SOL    HW224024   0.957   6.683   5.740
 7709SOL     OW24025   6.856   4.567   2.594
 7709SOL    HW124026   6.903   4.480   2.582
 7709SOL    HW224027   6.800   4.586   2.513
 7710SOL     OW24028   3.400   2.722   0.399
 7710SOL    HW124029   3.428   2.817   0.414
 7710SOL    HW224030   3.326   2.699   0.462
 7711SOL     OW24031   5.311   6.954   5.753
 7711SOL    HW124032   5.402   6.972   5.715
 7711SOL    HW224033   5.291   6.856   5.744
 7712SOL     OW24034   0.287   5.338   1.305
 7712SOL    HW124035   0.273   5.387   1.391
 7712SOL    HW224036   0.369   5.372   1.260
 7713SOL     OW24037   1.422   4.010   0.593
 7713SOL    HW124038   1.346   4.012   0.658
 7713SOL    HW224039   1.390   4.040   0.503
 7714SOL     OW24040   0.328   4.419   5.396
 7714SOL    HW124041   0.243   4.397   5.348
 7714SOL    HW224042   0.369   4.335   5.431
 7715SOL     OW24043   3.118   2.481   0.258
 7715SOL    HW124044   3.049   2.409   0.260
 7715SOL    HW224045   3.166   2.479   0.171
 7716SOL     OW24046   0.014   4.967   1.837
 7716SOL    HW124047   6.992   5.051   1.799
 7716SOL    HW224048   0.027   4.900   1.764
 7717SOL     OW24049   1.799   0.789   6.238
 7717SOL    HW124050   1.845   0.703   6.258
 7717SOL    HW224051   1.841   0.863   6.290
 7718SOL     OW24052   6.620   4.200   3.278
 7718SOL    HW124053   6.599   4.137   3.352
 7718SOL    HW224054   6.613   4.294   3.311
 7719SOL     OW24055   0.410   4.143   5.454
 7719SOL    HW124056   0.506   4.116   5.453
 7719SOL    HW224057   0.364   4.101   5.532
 7720SOL     OW24058   6.624   2.201   6.385
 7720SOL    HW124059   6.636   2.107   6.351
 7720SOL    HW224060   6.526   2.220   6.394
 7721SOL     OW24061   0.232   5.307   2.352
 7721SOL    HW124062   0.285   5.384   2.389
 7721SOL    HW224063   0.233   5.231   2.417
 7722SOL     OW24064   1.347   3.887   3.334
 7722SOL    HW124065   1.378   3.929   3.419
 7722SOL    HW224066   1.259   3.841   3.350
 7723SOL     OW24067   4.573   3.458   6.543
 7723SOL    HW124068   4.612   3.533   6.490
 7723SOL    HW224069   4.531   3.391   6.481
 7724SOL     OW24070   2.553   3.968   0.783
 7724SOL    HW124071   2.632   3.988   0.841
 7724SOL    HW224072   2.480   3.928   0.838
 7725SOL     OW24073   6.443   1.939   2.651
 7725SOL    HW124074   6.468   2.035   2.654
 7725SOL    HW224075   6.466   1.902   2.560
 7726SOL     OW24076   1.977   5.215   5.858
 7726SOL    HW124077   1.988   5.311   5.882
 7726SOL    HW224078   2.041   5.191   5.786
 7727SOL     OW24079   6.893   2.063   2.820
 7727SOL    HW124080   6.917   2.114   2.737
 7727SOL    HW224081   6.817   2.108   2.866
 7728SOL     OW24082   2.153   2.963   5.203
 7728SOL    HW124083   2.163   3.031   5.275
 7728SOL    HW224084   2.233   2.965   5.143
 7729SOL     OW24085   6.110   1.899   1.206
 7729SOL    HW124086   6.144   1.993   1.195
 7729SOL    HW224087   6.048   1.896   1.285
 7730SOL     OW24088   6.865   4.953   0.048
 7730SOL    HW124089   6.892   4.952   6.968
 7730SOL    HW224090   6.810   5.035   0.066
 7731SOL     OW24091   6.085   1.049   6.972
 7731SOL    HW124092   6.054   1.108   0.030
 7731SOL    HW224093   6.177   1.015   6.993
 7732SOL     OW24094   4.758   6.700   0.662
 7732SOL    HW124095   4.778   6.760   0.739
 7732SOL    HW224096   4.843   6.658   0.630
 7733SOL     OW24097   5.483   6.124   2.354
 7733SOL    HW124098   5.574   6.082   2.355
 7733SOL    HW224099   5.455   6.148   2.447
 7734SOL     OW24100   1.298   4.861   4.157
 7734SOL    HW124101   1.334   4.954   4.161
 7734SOL    HW224102   1.343   4.805   4.227
 7735SOL     OW24103   4.918   6.433   6.221
 7735SOL    HW124104   5.017   6.447   6.222
 7735SOL    HW224105   4.878   6.476   6.140
 7736SOL     OW24106   2.650   2.981   6.795
 7736SOL    HW124107   2.726   3.028   6.751
 7736SOL    HW224108   2.681   2.892   6.828
 7737SOL     OW24109   2.528   6.434   2.789
 7737SOL    HW124110   2.599   6.419   2.721
 7737SOL    HW224111   2.443   6.463   2.744
 7738SOL     OW24112   3.126   5.682   0.097
 7738SOL    HW124113   3.140   5.679   0.196
 7738SOL    HW224114   3.062   5.610   0.070
 7739SOL     OW24115   6.937   2.257   1.927
 7739SOL    HW124116   6.973   2.236   1.836
 7739SOL    HW224117   6.860   2.320   1.918
 7740SOL     OW24118   2.981   0.817   3.134
 7740SOL    HW124119   2.898   0.832   3.080
 7740SOL    HW224120   3.059   0.806   3.073
 7741SOL     OW24121   0.300   5.091   5.997
 7741SOL    HW124122   0.373   5.072   5.931
 7741SOL    HW224123   0.231   5.149   5.954
 7742SOL     OW24124   4.148   1.993   3.022
 7742SOL    HW124125   4.121   1.898   3.038
 7742SOL    HW224126   4.090   2.054   3.076
 7743SOL     OW24127   5.455   2.056   0.299
 7743SOL    HW124128   5.453   2.093   0.206
 7743SOL    HW224129   5.430   1.959   0.297
 7744SOL     OW24130   0.501   0.423   4.257
 7744SOL    HW124131   0.556   0.377   4.326
 7744SOL    HW224132   0.446   0.495   4.301
 7745SOL     OW24133   4.043   1.239   6.625
 7745SOL    HW124134   4.114   1.269   6.562
 7745SOL    HW224135   4.016   1.314   6.684
 7746SOL     OW24136   1.094   0.596   0.363
 7746SOL    HW124137   1.103   0.676   0.303
 7746SOL    HW224138   1.046   0.523   0.314
 7747SOL     OW24139   5.750   6.217   1.036
 7747SOL    HW124140   5.843   6.201   1.068
 7747SOL    HW224141   5.751   6.271   0.952
 7748SOL     OW24142   2.950   3.779   4.627
 7748SOL    HW124143   2.905   3.748   4.711
 7748SOL    HW224144   2.902   3.742   4.547
 7749SOL     OW24145   3.288   3.450   5.671
 7749SOL    HW124146   3.203   3.403   5.695
 7749SOL    HW224147   3.288   3.473   5.574
 7750SOL     OW24148   6.886   5.669   0.542
 7750SOL    HW124149   6.857   5.718   0.460
 7750SOL    HW224150   6.970   5.709   0.578
 7751SOL     OW24151   1.566   2.940   2.403
 7751SOL    HW124152   1.493   2.993   2.445
 7751SOL    HW224153   1.654   2.970   2.441
 7752SOL     OW24154   5.984   6.296   5.310
 7752SOL    HW124155   5.985   6.377   5.368
 7752SOL    HW224156   6.074   6.254   5.309
 7753SOL     OW24157   1.981   0.463   4.844
 7753SOL    HW124158   1.905   0.512   4.887
 7753SOL    HW224159   2.038   0.527   4.794
 7754SOL     OW24160   4.997   6.911   1.690
 7754SOL    HW124161   5.084   6.881   1.652
 7754SOL    HW224162   4.926   6.843   1.670
 7755SOL     OW24163   1.319   2.307   5.679
 7755SOL    HW124164   1.250   2.367   5.721
 7755SOL    HW224165   1.301   2.212   5.707
 7756SOL     OW24166   3.164   5.765   1.793
 7756SOL    HW124167   3.155   5.676   1.837
 7756SOL    HW224168   3.094   5.774   1.723
 7757SOL     OW24169   5.905   6.048   5.236
 7757SOL    HW124170   5.934   6.132   5.282
 7757SOL    HW224171   5.807   6.055   5.214
 7758SOL     OW24172   1.357   1.837   6.040
 7758SOL    HW124173   1.427   1.903   6.069
 7758SOL    HW224174   1.318   1.793   6.120
 7759SOL     OW24175   1.233   1.897   5.445
 7759SOL    HW124176   1.181   1.873   5.363
 7759SOL    HW224177   1.316   1.945   5.418
 7760SOL     OW24178   5.506   3.668   2.496
 7760SOL    HW124179   5.462   3.734   2.557
 7760SOL    HW224180   5.440   3.636   2.428
 7761SOL     OW24181   0.901   0.299   5.917
 7761SOL    HW124182   0.916   0.315   5.819
 7761SOL    HW224183   0.806   0.319   5.940
 7762SOL     OW24184   4.538   0.814   3.855
 7762SOL    HW124185   4.553   0.746   3.927
 7762SOL    HW224186   4.474   0.884   3.888
 7763SOL     OW24187   0.875   0.890   6.815
 7763SOL    HW124188   0.883   0.795   6.784
 7763SOL    HW224189   0.953   0.943   6.782
 7764SOL     OW24190   3.549   2.856   3.258
 7764SOL    HW124191   3.602   2.805   3.191
 7764SOL    HW224192   3.604   2.869   3.341
 7765SOL     OW24193   6.260   2.854   4.103
 7765SOL    HW124194   6.287   2.873   4.009
 7765SOL    HW224195   6.272   2.756   4.122
 7766SOL     OW24196   6.084   2.781   6.820
 7766SOL    HW124197   6.057   2.693   6.779
 7766SOL    HW224198   6.098   2.849   6.748
 7767SOL     OW24199   4.744   5.507   2.841
 7767SOL    HW124200   4.685   5.498   2.922
 7767SOL    HW224201   4.687   5.519   2.760
 7768SOL     OW24202   4.254   4.614   1.959
 7768SOL    HW124203   4.340   4.655   1.928
 7768SOL    HW224204   4.222   4.547   1.892
 7769SOL     OW24205   4.895   2.928   3.185
 7769SOL    HW124206   4.813   2.879   3.153
 7769SOL    HW224207   4.944   2.872   3.252
 7770SOL     OW24208   1.619   4.205   2.625
 7770SOL    HW124209   1.639   4.198   2.528
 7770SOL    HW224210   1.695   4.249   2.673
 7771SOL     OW24211   3.440   2.327   5.317
 7771SOL    HW124212   3.359   2.324   5.259
 7771SOL    HW224213   3.440   2.413   5.369
 7772SOL     OW24214   5.292   6.976   2.256
 7772SOL    HW124215   5.214   7.013   2.205
 7772SOL    HW224216   5.290   6.876   2.253
 7773SOL     OW24217   2.387   5.743   5.163
 7773SOL    HW124218   2.468   5.790   5.128
 7773SOL    HW224219   2.322   5.811   5.198
 7774SOL     OW24220   5.440   2.136   5.393
 7774SOL    HW124221   5.467   2.091   5.477
 7774SOL    HW224222   5.507   2.117   5.321
 7775SOL     OW24223   5.174   5.968   1.552
 7775SOL    HW124224   5.257   6.011   1.587
 7775SOL    HW224225   5.097   5.991   1.612
 7776SOL     OW24226   1.696   5.004   6.710
 7776SOL    HW124227   1.605   4.971   6.686
 7776SOL    HW224228   1.698   5.103   6.705
 7777SOL     OW24229   0.469   0.088   4.346
 7777SOL    HW124230   0.468   0.057   4.441
 7777SOL    HW224231   0.557   0.064   4.304
 7778SOL     OW24232   5.221   3.910   1.054
 7778SOL    HW124233   5.244   3.950   0.966
 7778SOL    HW224234   5.232   3.979   1.126
 7779SOL     OW24235   2.509   2.495   1.805
 7779SOL    HW124236   2.431   2.446   1.843
 7779SOL    HW224237   2.578   2.430   1.774
 7780SOL     OW24238   0.989   4.308   5.343
 7780SOL    HW124239   0.974   4.327   5.246
 7780SOL    HW224240   1.077   4.262   5.355
 7781SOL     OW24241   0.846   4.650   0.203
 7781SOL    HW124242   0.912   4.723   0.186
 7781SOL    HW224243   0.853   4.580   0.131
 7782SOL     OW24244   6.667   4.763   4.643
 7782SOL    HW124245   6.618   4.697   4.699
 7782SOL    HW224246   6.646   4.747   4.546
 7783SOL     OW24247   1.104   5.749   4.992
 7783SOL    HW124248   1.126   5.660   4.950
 7783SOL    HW224249   1.101   5.819   4.920
 7784SOL     OW24250   2.947   2.474   1.300
 7784SOL    HW124251   3.006   2.551   1.324
 7784SOL    HW224252   2.891   2.449   1.379
 7785SOL     OW24253   1.957   5.505   4.374
 7785SOL    HW124254   2.004   5.472   4.292
 7785SOL    HW224255   1.882   5.566   4.347
 7786SOL     OW24256   2.733   6.539   0.053
 7786SOL    HW124257   2.749   6.459   7.011
 7786SOL    HW224258   2.821   6.582   0.074
 7787SOL     OW24259   2.164   2.808   6.726
 7787SOL    HW124260   2.219   2.857   6.658
 7787SOL    HW224261   2.115   2.873   6.783
 7788SOL     OW24262   2.378   5.502   1.172
 7788SOL    HW124263   2.413   5.504   1.265
 7788SOL    HW224264   2.449   5.531   1.108
 7789SOL     OW24265   1.884   6.658   6.114
 7789SOL    HW124266   1.903   6.726   6.044
 7789SOL    HW224267   1.970   6.615   6.142
 7790SOL     OW24268   5.888   5.780   3.499
 7790SOL    HW124269   5.866   5.704   3.559
 7790SOL    HW224270   5.827   5.857   3.519
 7791SOL     OW24271   2.393   5.349   3.963
 7791SOL    HW124272   2.372   5.338   4.061
 7791SOL    HW224273   2.489   5.330   3.948
 7792SOL     OW24274   1.841   5.093   4.877
 7792SOL    HW124275   1.898   5.039   4.815
 7792SOL    HW224276   1.761   5.127   4.826
 7793SOL     OW24277   3.397   0.919   0.697
 7793SOL    HW124278   3.366   0.837   0.746
 7793SOL    HW224279   3.318   0.964   0.655
 7794SOL     OW24280   6.180   4.189   2.980
 7794SOL    HW124281   6.107   4.252   2.956
 7794SOL    HW224282   6.145   4.095   2.979
 7795SOL     OW24283   2.335   4.461   5.541
 7795SOL    HW124284   2.369   4.500   5.627
 7795SOL    HW224285   2.377   4.371   5.527
 7796SOL     OW24286   4.109   3.565   3.642
 7796SOL    HW124287   4.086   3.653   3.683
 7796SOL    HW224288   4.139   3.501   3.714
 7797SOL     OW24289   1.270   6.940   3.045
 7797SOL    HW124290   1.364   6.917   3.067
 7797SOL    HW224291   1.208   6.892   3.108
 7798SOL     OW24292   2.430   3.814   5.525
 7798SOL    HW124293   2.349   3.852   5.480
 7798SOL    HW224294   2.482   3.760   5.459
 7799SOL     OW24295   0.944   6.201   2.696
 7799SOL    HW124296   1.005   6.221   2.620
 7799SOL    HW224297   0.990   6.220   2.783
 7800SOL     OW24298   0.728   5.452   1.377
 7800SOL    HW124299   0.789   5.374   1.364
 7800SOL    HW224300   0.678   5.471   1.293
 7801SOL     OW24301   2.374   1.694   1.607
 7801SOL    HW124302   2.399   1.600   1.629
 7801SOL    HW224303   2.424   1.757   1.665
 7802SOL     OW24304   6.017   2.695   1.017
 7802SOL    HW124305   5.990   2.735   1.104
 7802SOL    HW224306   5.972   2.607   1.005
 7803SOL     OW24307   4.725   1.901   5.869
 7803SOL    HW124308   4.778   1.835   5.814
 7803SOL    HW224309   4.781   1.933   5.945
 7804SOL     OW24310   4.581   1.938   3.851
 7804SOL    HW124311   4.575   1.905   3.945
 7804SOL    HW224312   4.665   1.904   3.808
 7805SOL     OW24313   5.679   2.789   1.570
 7805SOL    HW124314   5.624   2.706   1.572
 7805SOL    HW224315   5.672   2.833   1.481
 7806SOL     OW24316   5.860   1.818   0.296
 7806SOL    HW124317   5.941   1.823   0.355
 7806SOL    HW224318   5.864   1.736   0.240
 7807SOL     OW24319   1.360   4.773   5.455
 7807SOL    HW124320   1.451   4.799   5.489
 7807SOL    HW224321   1.315   4.854   5.418
 7808SOL     OW24322   6.435   3.248   3.619
 7808SOL    HW124323   6.509   3.184   3.598
 7808SOL    HW224324   6.351   3.219   3.574
 7809SOL     OW24325   2.920   5.154   3.813
 7809SOL    HW124326   2.854   5.194   3.749
 7809SOL    HW224327   2.876   5.082   3.866
 7810SOL     OW24328   3.785   0.071   4.326
 7810SOL    HW124329   3.782   7.001   4.277
 7810SOL    HW224330   3.707   0.077   4.388
 7811SOL     OW24331   1.923   5.392   2.296
 7811SOL    HW124332   1.969   5.365   2.212
 7811SOL    HW224333   1.903   5.311   2.351
 7812SOL     OW24334   0.173   1.926   4.258
 7812SOL    HW124335   0.124   1.873   4.189
 7812SOL    HW224336   0.110   1.991   4.301
 7813SOL     OW24337   5.123   2.568   6.988
 7813SOL    HW124338   5.128   2.642   6.922
 7813SOL    HW224339   5.166   2.486   6.950
 7814SOL     OW24340   0.423   3.467   3.398
 7814SOL    HW124341   0.487   3.449   3.473
 7814SOL    HW224342   0.445   3.408   3.321
 7815SOL     OW24343   5.481   1.074   5.491
 7815SOL    HW124344   5.385   1.080   5.466
 7815SOL    HW224345   5.511   0.979   5.489
 7816SOL     OW24346   1.806   2.546   6.314
 7816SOL    HW124347   1.822   2.539   6.216
 7816SOL    HW224348   1.831   2.460   6.358
 7817SOL     OW24349   5.236   5.045   3.138
 7817SOL    HW124350   5.238   4.969   3.203
 7817SOL    HW224351   5.329   5.065   3.107
 7818SOL     OW24352   4.295   0.697   2.044
 7818SOL    HW124353   4.373   0.643   2.077
 7818SOL    HW224354   4.293   0.785   2.092
 7819SOL     OW24355   0.191   3.643   1.746
 7819SOL    HW124356   0.187   3.693   1.832
 7819SOL    HW224357   0.190   3.545   1.764
 7820SOL     OW24358   1.146   1.764   5.853
 7820SOL    HW124359   1.156   1.723   5.762
 7820SOL    HW224360   1.236   1.770   5.897
 7821SOL     OW24361   5.546   5.709   0.577
 7821SOL    HW124362   5.497   5.766   0.511
 7821SOL    HW224363   5.644   5.725   0.569
 7822SOL     OW24364   2.170   2.252   6.423
 7822SOL    HW124365   2.143   2.268   6.518
 7822SOL    HW224366   2.142   2.160   6.396
 7823SOL     OW24367   2.607   3.701   5.346
 7823SOL    HW124368   2.678   3.652   5.297
 7823SOL    HW224369   2.581   3.783   5.294
 7824SOL     OW24370   6.154   0.605   3.949
 7824SOL    HW124371   6.090   0.539   3.911
 7824SOL    HW224372   6.132   0.621   4.046
 7825SOL     OW24373   1.558   3.251   1.030
 7825SOL    HW124374   1.541   3.156   1.053
 7825SOL    HW224375   1.583   3.258   0.933
 7826SOL     OW24376   6.215   1.479   0.754
 7826SOL    HW124377   6.239   1.423   0.833
 7826SOL    HW224378   6.159   1.557   0.784
 7827SOL     OW24379   2.736   5.271   1.037
 7827SOL    HW124380   2.671   5.271   0.962
 7827SOL    HW224381   2.761   5.366   1.060
 7828SOL     OW24382   1.591   4.502   6.648
 7828SOL    HW124383   1.531   4.447   6.706
 7828SOL    HW224384   1.668   4.537   6.702
 7829SOL     OW24385   2.679   3.674   1.310
 7829SOL    HW124386   2.667   3.578   1.285
 7829SOL    HW224387   2.752   3.682   1.378
 7830SOL     OW24388   2.498   4.515   5.788
 7830SOL    HW124389   2.554   4.574   5.731
 7830SOL    HW224390   2.526   4.420   5.777
 7831SOL     OW24391   1.614   6.142   1.268
 7831SOL    HW124392   1.672   6.156   1.187
 7831SOL    HW224393   1.563   6.056   1.257
 7832SOL     OW24394   4.600   0.978   3.129
 7832SOL    HW124395   4.691   1.017   3.113
 7832SOL    HW224396   4.597   0.936   3.220
 7833SOL     OW24397   0.519   1.243   6.492
 7833SOL    HW124398   0.518   1.341   6.476
 7833SOL    HW224399   0.426   1.207   6.482
 7834SOL     OW24400   6.389   1.805   3.806
 7834SOL    HW124401   6.468   1.843   3.759
 7834SOL    HW224402   6.307   1.854   3.778
 7835SOL     OW24403   3.346   2.186   5.636
 7835SOL    HW124404   3.276   2.116   5.622
 7835SOL    HW224405   3.302   2.276   5.641
 7836SOL     OW24406   3.114   3.019   4.857
 7836SOL    HW124407   3.192   2.985   4.909
 7836SOL    HW224408   3.041   2.951   4.859
 7837SOL     OW24409   6.545   5.770   0.517
 7837SOL    HW124410   6.455   5.813   0.510
 7837SOL    HW224411   6.539   5.675   0.484
 7838SOL     OW24412   4.244   6.685   0.348
 7838SOL    HW124413   4.174   6.699   0.418
 7838SOL    HW224414   4.323   6.744   0.367
 7839SOL     OW24415   6.153   4.829   4.930
 7839SOL    HW124416   6.154   4.755   4.863
 7839SOL    HW224417   6.058   4.854   4.950
 7840SOL     OW24418   6.118   2.590   3.887
 7840SOL    HW124419   6.104   2.583   3.788
 7840SOL    HW224420   6.215   2.606   3.905
 7841SOL     OW24421   4.097   2.395   0.053
 7841SOL    HW124422   4.079   2.487   0.087
 7841SOL    HW224423   4.011   2.350   0.028
 7842SOL     OW24424   2.523   1.927   2.942
 7842SOL    HW124425   2.550   1.937   2.846
 7842SOL    HW224426   2.519   2.017   2.985
 7843SOL     OW24427   6.186   5.542   2.783
 7843SOL    HW124428   6.106   5.491   2.750
 7843SOL    HW224429   6.211   5.508   2.874
 7844SOL     OW24430   3.788   6.435   2.413
 7844SOL    HW124431   3.721   6.446   2.486
 7844SOL    HW224432   3.820   6.525   2.384
 7845SOL     OW24433   5.409   1.906   3.491
 7845SOL    HW124434   5.359   1.890   3.576
 7845SOL    HW224435   5.404   2.003   3.467
 7846SOL     OW24436   1.030   1.038   2.266
 7846SOL    HW124437   1.032   1.138   2.273
 7846SOL    HW224438   0.945   1.004   2.308
 7847SOL     OW24439   0.002   1.854   2.940
 7847SOL    HW124440   6.972   1.941   2.921
 7847SOL    HW224441   0.090   1.853   2.893
 7848SOL     OW24442   3.613   3.718   0.349
 7848SOL    HW124443   3.711   3.735   0.358
 7848SOL    HW224444   3.594   3.622   0.368
 7849SOL     OW24445   5.575   4.240   3.663
 7849SOL    HW124446   5.623   4.160   3.628
 7849SOL    HW224447   5.560   4.229   3.762
 7850SOL     OW24448   0.380   2.346   4.968
 7850SOL    HW124449   0.353   2.259   4.926
 7850SOL    HW224450   0.306   2.380   5.025
 7851SOL     OW24451   6.792   1.332   1.823
 7851SOL    HW124452   6.752   1.366   1.738
 7851SOL    HW224453   6.891   1.346   1.820
 7852SOL     OW24454   2.636   1.764   6.072
 7852SOL    HW124455   2.686   1.711   6.141
 7852SOL    HW224456   2.642   1.861   6.093
 7853SOL     OW24457   4.515   2.168   1.155
 7853SOL    HW124458   4.594   2.213   1.197
 7853SOL    HW224459   4.498   2.208   1.065
 7854SOL     OW24460   3.748   3.234   0.122
 7854SOL    HW124461   3.650   3.249   0.137
 7854SOL    HW224462   3.787   3.188   0.201
 7855SOL     OW24463   4.670   5.574   4.139
 7855SOL    HW124464   4.641   5.491   4.090
 7855SOL    HW224465   4.747   5.552   4.198
 7856SOL     OW24466   6.472   4.790   5.165
 7856SOL    HW124467   6.548   4.762   5.106
 7856SOL    HW224468   6.435   4.710   5.212
 7857SOL     OW24469   5.581   1.721   5.625
 7857SOL    HW124470   5.665   1.686   5.667
 7857SOL    HW224471   5.523   1.645   5.598
 7858SOL     OW24472   5.631   6.138   3.988
 7858SOL    HW124473   5.650   6.063   3.924
 7858SOL    HW224474   5.548   6.117   4.040
 7859SOL     OW24475   4.556   2.744   6.677
 7859SOL    HW124476   4.520   2.690   6.753
 7859SOL    HW224477   4.654   2.758   6.690
 7860SOL     OW24478   3.474   0.072   2.677
 7860SOL    HW124479   3.422   7.009   2.643
 7860SOL    HW224480   3.412   0.133   2.726
 7861SOL     OW24481   3.535   4.876   1.663
 7861SOL    HW124482   3.571   4.940   1.731
 7861SOL    HW224483   3.505   4.792   1.709
 7862SOL     OW24484   2.313   3.713   1.340
 7862SOL    HW124485   2.356   3.772   1.271
 7862SOL    HW224486   2.323   3.755   1.430
 7863SOL     OW24487   0.399   5.276   3.752
 7863SOL    HW124488   0.472   5.327   3.798
 7863SOL    HW224489   0.361   5.208   3.814
 7864SOL     OW24490   0.615   5.455   5.257
 7864SOL    HW124491   0.573   5.522   5.196
 7864SOL    HW224492   0.555   5.375   5.265
 7865SOL     OW24493   6.221   6.128   4.086
 7865SOL    HW124494   6.185   6.221   4.092
 7865SOL    HW224495   6.219   6.085   4.176
 7866SOL     OW24496   1.302   1.609   6.222
 7866SOL    HW124497   1.398   1.584   6.208
 7866SOL    HW224498   1.244   1.532   6.196
 7867SOL     OW24499   6.243   5.972   3.491
 7867SOL    HW124500   6.147   5.991   3.511
 7867SOL    HW224501   6.290   5.946   3.576
 7868SOL     OW24502   5.608   6.343   1.237
 7868SOL    HW124503   5.623   6.273   1.167
 7868SOL    HW224504   5.562   6.303   1.315
 7869SOL     OW24505   6.183   3.990   0.360
 7869SOL    HW124506   6.193   4.089   0.370
 7869SOL    HW224507   6.273   3.947   0.354
 7870SOL     OW24508   3.990   4.865   3.751
 7870SOL    HW124509   4.055   4.790   3.753
 7870SOL    HW224510   4.007   4.922   3.670
 7871SOL     OW24511   4.783   2.940   2.437
 7871SOL    HW124512   4.718   3.017   2.438
 7871SOL    HW224513   4.785   2.899   2.346
 7872SOL     OW24514   2.139   4.339   3.402
 7872SOL    HW124515   2.158   4.421   3.457
 7872SOL    HW224516   2.198   4.339   3.321
 7873SOL     OW24517   5.703   0.796   5.721
 7873SOL    HW124518   5.791   0.844   5.726
 7873SOL    HW224519   5.677   0.764   5.812
 7874SOL     OW24520   5.392   2.081   0.033
 7874SOL    HW124521   5.292   2.078   0.032
 7874SOL    HW224522   5.425   2.096   6.956
 7875SOL     OW24523   5.067   2.809   6.888
 7875SOL    HW124524   5.057   2.819   6.987
 7875SOL    HW224525   5.106   2.893   6.849
 7876SOL     OW24526   0.914   0.318   4.767
 7876SOL    HW124527   0.832   0.297   4.822
 7876SOL    HW224528   0.995   0.286   4.816
 7877SOL     OW24529   0.720   2.089   3.318
 7877SOL    HW124530   0.764   2.166   3.364
 7877SOL    HW224531   0.778   2.008   3.327
 7878SOL     OW24532   5.695   5.050   4.967
 7878SOL    HW124533   5.669   5.116   4.897
 7878SOL    HW224534   5.614   5.019   5.017
 7879SOL     OW24535   4.541   4.741   3.522
 7879SOL    HW124536   4.448   4.713   3.499
 7879SOL    HW224537   4.603   4.663   3.515
 7880SOL     OW24538   1.490   5.155   0.931
 7880SOL    HW124539   1.492   5.178   1.029
 7880SOL    HW224540   1.490   5.055   0.921
 7881SOL     OW24541   6.592   4.452   4.602
 7881SOL    HW124542   6.550   4.490   4.685
 7881SOL    HW224543   6.626   4.360   4.621
 7882SOL     OW24544   1.000   2.479   1.723
 7882SOL    HW124545   0.910   2.521   1.710
 7882SOL    HW224546   0.994   2.410   1.796
 7883SOL     OW24547   1.026   0.800   0.600
 7883SOL    HW124548   1.029   0.812   0.501
 7883SOL    HW224549   0.987   0.882   0.643
 7884SOL     OW24550   2.074   3.700   4.020
 7884SOL    HW124551   2.094   3.707   3.922
 7884SOL    HW224552   2.114   3.778   4.068
 7885SOL     OW24553   6.819   4.760   2.122
 7885SOL    HW124554   6.750   4.808   2.177
 7885SOL    HW224555   6.910   4.789   2.151
 7886SOL     OW24556   3.451   5.387   6.804
 7886SOL    HW124557   3.374   5.450   6.809
 7886SOL    HW224558   3.435   5.310   6.866
 7887SOL     OW24559   3.375   2.815   5.252
 7887SOL    HW124560   3.296   2.796   5.311
 7887SOL    HW224561   3.344   2.829   5.158
 7888SOL     OW24562   6.670   0.389   4.961
 7888SOL    HW124563   6.579   0.375   4.923
 7888SOL    HW224564   6.694   0.486   4.956
 7889SOL     OW24565   1.550   4.988   0.271
 7889SOL    HW124566   1.611   5.001   0.350
 7889SOL    HW224567   1.567   4.899   0.230
 7890SOL     OW24568   1.045   2.667   3.399
 7890SOL    HW124569   1.016   2.750   3.351
 7890SOL    HW224570   1.144   2.659   3.395
 7891SOL     OW24571   2.244   4.279   3.717
 7891SOL    HW124572   2.242   4.179   3.705
 7891SOL    HW224573   2.276   4.322   3.633
 7892SOL     OW24574   1.732   1.079   3.922
 7892SOL    HW124575   1.803   1.142   3.954
 7892SOL    HW224576   1.758   1.042   3.833
 7893SOL     OW24577   6.595   6.293   2.906
 7893SOL    HW124578   6.654   6.216   2.926
 7893SOL    HW224579   6.540   6.315   2.986
 7894SOL     OW24580   3.780   6.659   0.314
 7894SOL    HW124581   3.788   6.654   0.215
 7894SOL    HW224582   3.705   6.601   0.345
 7895SOL     OW24583   5.596   0.423   4.752
 7895SOL    HW124584   5.542   0.361   4.808
 7895SOL    HW224585   5.668   0.464   4.808
 7896SOL     OW24586   4.599   3.540   0.882
 7896SOL    HW124587   4.673   3.512   0.943
 7896SOL    HW224588   4.544   3.611   0.926
 7897SOL     OW24589   2.882   3.925   0.466
 7897SOL    HW124590   2.900   4.007   0.411
 7897SOL    HW224591   2.966   3.896   0.512
 7898SOL     OW24592   3.885   2.098   2.889
 7898SOL    HW124593   3.894   2.133   2.982
 7898SOL    HW224594   3.823   2.020   2.889
 7899SOL     OW24595   5.691   6.878   1.639
 7899SOL    HW124596   5.676   6.975   1.656
 7899SOL    HW224597   5.617   6.843   1.581
 7900SOL     OW24598   1.576   4.625   2.051
 7900SOL    HW124599   1.521   4.705   2.077
 7900SOL    HW224600   1.628   4.594   2.130
 7901SOL     OW24601   4.958   1.567   6.369
 7901SOL    HW124602   4.941   1.659   6.334
 7901SOL    HW224603   5.031   1.571   6.439
 7902SOL     OW24604   6.015   6.654   1.187
 7902SOL    HW124605   5.916   6.663   1.195
 7902SOL    HW224606   6.052   6.619   1.274
 7903SOL     OW24607   5.588   1.360   1.113
 7903SOL    HW124608   5.563   1.264   1.123
 7903SOL    HW224609   5.638   1.373   1.028
 7904SOL     OW24610   5.508   0.168   3.436
 7904SOL    HW124611   5.412   0.187   3.457
 7904SOL    HW224612   5.565   0.243   3.469
 7905SOL     OW24613   4.887   2.245   0.099
 7905SOL    HW124614   4.979   2.228   0.064
 7905SOL    HW224615   4.891   2.308   0.176
 7906SOL     OW24616   0.520   5.418   0.579
 7906SOL    HW124617   0.614   5.413   0.544
 7906SOL    HW224618   0.458   5.437   0.504
 7907SOL     OW24619   5.385   2.351   2.775
 7907SOL    HW124620   5.302   2.296   2.769
 7907SOL    HW224621   5.465   2.292   2.763
 7908SOL     OW24622   1.074   1.415   5.364
 7908SOL    HW124623   1.072   1.462   5.275
 7908SOL    HW224624   1.069   1.483   5.437
 7909SOL     OW24625   5.597   4.176   4.822
 7909SOL    HW124626   5.533   4.240   4.780
 7909SOL    HW224627   5.631   4.213   4.908
 7910SOL     OW24628   3.005   3.634   5.679
 7910SOL    HW124629   3.021   3.700   5.605
 7910SOL    HW224630   3.000   3.542   5.640
 7911SOL     OW24631   1.991   3.311   0.150
 7911SOL    HW124632   2.046   3.394   0.146
 7911SOL    HW224633   1.935   3.312   0.233
 7912SOL     OW24634   0.105   4.990   1.136
 7912SOL    HW124635   0.122   5.088   1.129
 7912SOL    HW224636   0.020   4.967   1.088
 7913SOL     OW24637   1.658   4.434   0.687
 7913SOL    HW124638   1.588   4.438   0.758
 7913SOL    HW224639   1.704   4.345   0.691
 7914SOL     OW24640   0.331   4.101   0.295
 7914SOL    HW124641   0.263   4.151   0.348
 7914SOL    HW224642   0.332   4.005   0.322
 7915SOL     OW24643   4.896   2.758   1.807
 7915SOL    HW124644   4.797   2.754   1.818
 7915SOL    HW224645   4.922   2.845   1.766
 7916SOL     OW24646   0.969   4.029   5.007
 7916SOL    HW124647   0.953   4.094   4.932
 7916SOL    HW224648   0.958   4.076   5.095
 7917SOL     OW24649   4.164   3.604   4.659
 7917SOL    HW124650   4.166   3.554   4.746
 7917SOL    HW224651   4.161   3.702   4.677
 7918SOL     OW24652   0.234   1.407   5.641
 7918SOL    HW124653   0.217   1.434   5.736
 7918SOL    HW224654   0.329   1.379   5.631
 7919SOL     OW24655   1.811   4.321   2.782
 7919SOL    HW124656   1.790   4.283   2.872
 7919SOL    HW224657   1.892   4.275   2.746
 7920SOL     OW24658   0.350   6.103   0.813
 7920SOL    HW124659   0.376   6.045   0.735
 7920SOL    HW224660   0.373   6.198   0.793
 7921SOL     OW24661   5.434   6.619   0.538
 7921SOL    HW124662   5.393   6.531   0.562
 7921SOL    HW224663   5.368   6.674   0.487
 7922SOL     OW24664   7.008   6.801   0.608
 7922SOL    HW124665   6.974   6.707   0.606
 7922SOL    HW224666   0.062   6.812   0.538
 7923SOL     OW24667   3.473   0.267   1.677
 7923SOL    HW124668   3.493   0.218   1.592
 7923SOL    HW224669   3.397   0.222   1.724
 7924SOL     OW24670   4.179   6.940   1.863
 7924SOL    HW124671   4.187   6.996   1.946
 7924SOL    HW224672   4.177   6.999   1.783
 7925SOL     OW24673   0.555   1.536   6.645
 7925SOL    HW124674   0.584   1.444   6.670
 7925SOL    HW224675   0.635   1.597   6.645
 7926SOL     OW24676   4.977   1.795   5.422
 7926SOL    HW124677   4.893   1.804   5.475
 7926SOL    HW224678   5.016   1.703   5.436
 7927SOL     OW24679   4.327   5.595   2.565
 7927SOL    HW124680   4.263   5.535   2.516
 7927SOL    HW224681   4.362   5.665   2.502
 7928SOL     OW24682   1.441   1.859   4.583
 7928SOL    HW124683   1.425   1.831   4.677
 7928SOL    HW224684   1.377   1.932   4.558
 7929SOL     OW24685   4.180   5.008   6.216
 7929SOL    HW124686   4.173   4.947   6.137
 7929SOL    HW224687   4.252   4.976   6.277
 7930SOL     OW24688   4.043   5.701   4.740
 7930SOL    HW124689   4.125   5.647   4.761
 7930SOL    HW224690   3.969   5.674   4.801
 7931SOL     OW24691   1.824   2.145   0.105
 7931SOL    HW124692   1.793   2.056   0.072
 7931SOL    HW224693   1.876   2.133   0.189
 7932SOL     OW24694   1.272   6.472   6.530
 7932SOL    HW124695   1.326   6.453   6.447
 7932SOL    HW224696   1.236   6.565   6.526
 7933SOL     OW24697   0.152   5.982   6.115
 7933SOL    HW124698   0.201   5.941   6.192
 7933SOL    HW224699   0.078   6.040   6.149
 7934SOL     OW24700   2.470   4.983   0.100
 7934SOL    HW124701   2.460   4.890   0.133
 7934SOL    HW224702   2.550   4.989   0.040
 7935SOL     OW24703   5.976   5.524   0.119
 7935SOL    HW124704   5.985   5.548   0.215
 7935SOL    HW224705   5.966   5.424   0.110
 7936SOL     OW24706   3.971   6.241   2.456
 7936SOL    HW124707   3.977   6.184   2.374
 7936SOL    HW224708   3.897   6.307   2.445
 7937SOL     OW24709   6.937   6.176   3.578
 7937SOL    HW124710   7.007   6.108   3.555
 7937SOL    HW224711   6.851   6.129   3.597
 7938SOL     OW24712   6.294   5.371   4.164
 7938SOL    HW124713   6.225   5.428   4.211
 7938SOL    HW224714   6.349   5.323   4.232
 7939SOL     OW24715   1.718   2.574   5.468
 7939SOL    HW124716   1.760   2.641   5.529
 7939SOL    HW224717   1.624   2.556   5.498
 7940SOL     OW24718   1.909   3.815   1.999
 7940SOL    HW124719   1.824   3.762   1.990
 7940SOL    HW224720   1.927   3.832   2.096
 7941SOL     OW24721   5.723   1.215   0.750
 7941SOL    HW124722   5.772   1.140   0.704
 7941SOL    HW224723   5.627   1.215   0.721
 7942SOL     OW24724   6.235   6.299   2.884
 7942SOL    HW124725   6.291   6.275   2.962
 7942SOL    HW224726   6.253   6.394   2.858
 7943SOL     OW24727   6.102   3.315   0.504
 7943SOL    HW124728   6.169   3.309   0.430
 7943SOL    HW224729   6.095   3.409   0.536
 7944SOL     OW24730   0.173   2.586   1.483
 7944SOL    HW124731   0.179   2.655   1.411
 7944SOL    HW224732   0.264   2.550   1.502
 7945SOL     OW24733   5.926   5.775   1.609
 7945SOL    HW124734   5.862   5.807   1.539
 7945SOL    HW224735   5.958   5.853   1.663
 7946SOL     OW24736   2.294   1.429   5.344
 7946SOL    HW124737   2.213   1.404   5.292
 7946SOL    HW224738   2.366   1.459   5.281
 7947SOL     OW24739   3.831   1.929   6.293
 7947SOL    HW124740   3.901   1.907   6.225
 7947SOL    HW224741   3.741   1.919   6.251
 7948SOL     OW24742   1.003   6.665   1.035
 7948SOL    HW124743   0.987   6.712   1.122
 7948SOL    HW224744   0.981   6.568   1.045
 7949SOL     OW24745   4.397   4.732   4.960
 7949SOL    HW124746   4.427   4.715   4.866
 7949SOL    HW224747   4.394   4.646   5.010
 7950SOL     OW24748   5.516   5.169   4.767
 7950SOL    HW124749   5.554   5.193   4.678
 7950SOL    HW224750   5.481   5.075   4.765
 7951SOL     OW24751   2.427   4.210   1.864
 7951SOL    HW124752   2.492   4.203   1.788
 7951SOL    HW224753   2.375   4.125   1.871
 7952SOL     OW24754   0.552   3.497   6.980
 7952SOL    HW124755   0.515   3.563   6.915
 7952SOL    HW224756   0.484   3.475   0.033
 7953SOL     OW24757   2.352   2.685   3.821
 7953SOL    HW124758   2.256   2.686   3.791
 7953SOL    HW224759   2.361   2.630   3.904
 7954SOL     OW24760   4.408   4.196   5.611
 7954SOL    HW124761   4.319   4.179   5.654
 7954SOL    HW224762   4.406   4.285   5.566
 7955SOL     OW24763   1.166   6.667   6.769
 7955SOL    HW124764   1.162   6.698   6.674
 7955SOL    HW224765   1.074   6.639   6.799
 7956SOL     OW24766   3.655   5.776   2.685
 7956SOL    HW124767   3.701   5.845   2.630
 7956SOL    HW224768   3.583   5.820   2.739
 7957SOL     OW24769   1.164   0.607   1.901
 7957SOL    HW124770   1.222   0.610   1.983
 7957SOL    HW224771   1.109   0.524   1.901
 7958SOL     OW24772   3.915   4.979   5.006
 7958SOL    HW124773   3.908   4.912   5.079
 7958SOL    HW224774   4.007   4.974   4.966
 7959SOL     OW24775   4.257   5.761   0.772
 7959SOL    HW124776   4.187   5.692   0.750
 7959SOL    HW224777   4.233   5.808   0.857
 7960SOL     OW24778   2.795   0.910   6.875
 7960SOL    HW124779   2.751   0.844   6.814
 7960SOL    HW224780   2.893   0.914   6.853
 7961SOL     OW24781   0.053   0.850   1.299
 7961SOL    HW124782   6.990   0.853   1.359
 7961SOL    HW224783   0.132   0.889   1.346
 7962SOL     OW24784   1.026   0.436   6.929
 7962SOL    HW124785   1.107   0.490   6.905
 7962SOL    HW224786   0.945   0.477   6.888
 7963SOL     OW24787   6.745   0.190   3.875
 7963SOL    HW124788   6.733   0.092   3.892
 7963SOL    HW224789   6.813   0.227   3.939
 7964SOL     OW24790   0.244   4.876   3.931
 7964SOL    HW124791   0.188   4.841   4.006
 7964SOL    HW224792   0.309   4.806   3.903
 7965SOL     OW24793   3.466   2.450   5.941
 7965SOL    HW124794   3.427   2.457   5.849
 7965SOL    HW224795   3.529   2.525   5.956
 7966SOL     OW24796   0.859   2.776   5.212
 7966SOL    HW124797   0.943   2.786   5.159
 7966SOL    HW224798   0.857   2.685   5.253
 7967SOL     OW24799   2.733   6.314   3.534
 7967SOL    HW124800   2.696   6.251   3.602
 7967SOL    HW224801   2.832   6.305   3.531
 7968SOL     OW24802   1.941   2.714   3.504
 7968SOL    HW124803   1.936   2.670   3.415
 7968SOL    HW224804   2.021   2.774   3.508
 7969SOL     OW24805   3.828   5.316   0.460
 7969SOL    HW124806   3.883   5.240   0.426
 7969SOL    HW224807   3.864   5.402   0.423
 7970SOL     OW24808   6.589   3.047   2.490
 7970SOL    HW124809   6.521   3.078   2.557
 7970SOL    HW224810   6.674   3.026   2.537
 7971SOL     OW24811   4.503   1.788   0.684
 7971SOL    HW124812   4.415   1.813   0.644
 7971SOL    HW224813   4.492   1.775   0.783
 7972SOL     OW24814   1.853   3.302   0.614
 7972SOL    HW124815   1.826   3.341   0.701
 7972SOL    HW224816   1.874   3.205   0.625
 7973SOL     OW24817   4.490   4.764   3.841
 7973SOL    HW124818   4.507   4.794   3.935
 7973SOL    HW224819   4.462   4.842   3.785
 7974SOL     OW24820   5.888   1.422   5.813
 7974SOL    HW124821   5.887   1.481   5.732
 7974SOL    HW224822   5.828   1.344   5.799
 7975SOL     OW24823   6.041   1.266   2.293
 7975SOL    HW124824   6.028   1.279   2.195
 7975SOL    HW224825   5.996   1.182   2.323
 7976SOL     OW24826   0.659   0.647   6.279
 7976SOL    HW124827   0.751   0.683   6.294
 7976SOL    HW224828   0.596   0.722   6.259
 7977SOL     OW24829   4.983   6.009   1.728
 7977SOL    HW124830   4.912   6.067   1.767
 7977SOL    HW224831   4.953   5.913   1.732
 7978SOL     OW24832   6.292   3.475   6.472
 7978SOL    HW124833   6.201   3.507   6.497
 7978SOL    HW224834   6.292   3.375   6.464
 7979SOL     OW24835   4.048   6.301   5.337
 7979SOL    HW124836   3.987   6.332   5.410
 7979SOL    HW224837   4.103   6.224   5.368
 7980SOL     OW24838   2.622   5.254   6.853
 7980SOL    HW124839   2.554   5.273   6.924
 7980SOL    HW224840   2.596   5.302   6.769
 7981SOL     OW24841   0.794   5.390   1.889
 7981SOL    HW124842   0.779   5.485   1.863
 7981SOL    HW224843   0.764   5.376   1.983
 7982SOL     OW24844   0.160   1.571   0.143
 7982SOL    HW124845   0.209   1.484   0.146
 7982SOL    HW224846   0.103   1.575   0.061
 7983SOL     OW24847   5.690   1.633   2.091
 7983SOL    HW124848   5.621   1.620   2.162
 7983SOL    HW224849   5.758   1.699   2.121
 7984SOL     OW24850   1.590   1.290   0.961
 7984SOL    HW124851   1.583   1.390   0.951
 7984SOL    HW224852   1.677   1.267   1.004
 7985SOL     OW24853   2.239   0.733   3.520
 7985SOL    HW124854   2.201   0.646   3.552
 7985SOL    HW224855   2.338   0.726   3.515
 7986SOL     OW24856   3.512   1.382   6.923
 7986SOL    HW124857   3.467   1.407   7.009
 7986SOL    HW224858   3.466   1.428   6.847
 7987SOL     OW24859   1.511   3.024   7.003
 7987SOL    HW124860   1.598   3.059   0.021
 7987SOL    HW224861   1.440   3.040   0.055
 7988SOL     OW24862   1.364   2.277   4.150
 7988SOL    HW124863   1.406   2.353   4.200
 7988SOL    HW224864   1.302   2.227   4.211
 7989SOL     OW24865   3.525   3.165   5.154
 7989SOL    HW124866   3.554   3.073   5.179
 7989SOL    HW224867   3.596   3.230   5.179
 7990SOL     OW24868   6.974   3.255   3.544
 7990SOL    HW124869   6.981   3.161   3.577
 7990SOL    HW224870   0.043   3.280   3.497
 7991SOL     OW24871   6.482   0.232   4.010
 7991SOL    HW124872   6.546   0.236   3.933
 7991SOL    HW224873   6.457   0.137   4.028
 7992SOL     OW24874   1.668   6.344   1.681
 7992SOL    HW124875   1.656   6.436   1.642
 7992SOL    HW224876   1.607   6.280   1.636
 7993SOL     OW24877   0.503   0.153   6.292
 7993SOL    HW124878   0.501   0.069   6.347
 7993SOL    HW224879   0.480   0.231   6.350
 7994SOL     OW24880   4.486   6.811   2.869
 7994SOL    HW124881   4.457   6.716   2.881
 7994SOL    HW224882   4.458   6.844   2.779
 7995SOL     OW24883   4.746   4.916   3.555
 7995SOL    HW124884   4.706   5.005   3.534
 7995SOL    HW224885   4.677   4.858   3.598
 7996SOL     OW24886   3.347   0.008   4.665
 7996SOL    HW124887   3.291   6.976   4.733
 7996SOL    HW224888   3.330   0.107   4.672
 7997SOL     OW24889   0.537   1.426   1.807
 7997SOL    HW124890   0.442   1.406   1.831
 7997SOL    HW224891   0.547   1.524   1.792
 7998SOL     OW24892   3.306   5.695   1.333
 7998SOL    HW124893   3.385   5.705   1.273
 7998SOL    HW224894   3.337   5.686   1.428
 7999SOL     OW24895   0.694   6.879   6.246
 7999SOL    HW124896   0.788   6.865   6.275
 7999SOL    HW224897   0.692   6.912   6.152
 8000SOL     OW24898   5.060   0.336   6.957
 8000SOL    HW124899   5.030   0.246   6.989
 8000SOL    HW224900   4.999   0.406   6.993
 8001SOL     OW24901   3.385   5.752   0.968
 8001SOL    HW124902   3.356   5.830   1.024
 8001SOL    HW224903   3.318   5.737   0.895
 8002SOL     OW24904   0.529   2.502   5.697
 8002SOL    HW124905   0.594   2.527   5.625
 8002SOL    HW224906   0.575   2.509   5.786
 8003SOL     OW24907   3.201   5.118   2.665
 8003SOL    HW124908   3.128   5.099   2.600
 8003SOL    HW224909   3.266   5.182   2.624
 8004SOL     OW24910   2.191   3.077   3.764
 8004SOL    HW124911   2.094   3.051   3.761
 8004SOL    HW224912   2.232   3.065   3.674
 8005SOL     OW24913   3.317   0.168   2.174
 8005SOL    HW124914   3.384   0.233   2.210
 8005SOL    HW224915   3.355   0.120   2.096
 8006SOL     OW24916   2.167   0.490   6.616
 8006SOL    HW124917   2.117   0.536   6.543
 8006SOL    HW224918   2.115   0.495   6.701
 8007SOL     OW24919   6.585   1.240   4.462
 8007SOL    HW124920   6.651   1.274   4.395
 8007SOL    HW224921   6.535   1.162   4.423
 8008SOL     OW24922   4.777   5.969   5.762
 8008SOL    HW124923   4.821   5.879   5.754
 8008SOL    HW224924   4.760   6.006   5.671
 8009SOL     OW24925   5.752   1.071   3.190
 8009SOL    HW124926   5.741   1.069   3.091
 8009SOL    HW224927   5.672   1.115   3.232
 8010SOL     OW24928   0.462   1.085   6.985
 8010SOL    HW124929   0.433   1.178   7.005
 8010SOL    HW224930   0.394   1.021   0.004
 8011SOL     OW24931   3.228   2.275   0.704
 8011SOL    HW124932   3.183   2.356   0.742
 8011SOL    HW224933   3.315   2.261   0.752
 8012SOL     OW24934   2.084   4.441   1.454
 8012SOL    HW124935   2.126   4.508   1.515
 8012SOL    HW224936   2.056   4.361   1.507
 8013SOL     OW24937   0.989   5.322   3.447
 8013SOL    HW124938   1.016   5.335   3.351
 8013SOL    HW224939   0.979   5.225   3.466
 8014SOL     OW24940   1.417   6.750   5.130
 8014SOL    HW124941   1.417   6.700   5.044
 8014SOL    HW224942   1.447   6.845   5.114
 8015SOL     OW24943   2.484   1.092   0.233
 8015SOL    HW124944   2.574   1.122   0.267
 8015SOL    HW224945   2.472   0.995   0.253
 8016SOL     OW24946   5.450   0.505   5.825
 8016SOL    HW124947   5.437   0.558   5.908
 8016SOL    HW224948   5.425   0.560   5.746
 8017SOL     OW24949   6.291   6.880   0.535
 8017SOL    HW124950   6.289   6.849   0.630
 8017SOL    HW224951   6.381   6.863   0.496
 8018SOL     OW24952   3.144   2.167   5.895
 8018SOL    HW124953   3.145   2.070   5.871
 8018SOL    HW224954   3.206   2.183   5.971
 8019SOL     OW24955   2.316   4.577   6.110
 8019SOL    HW124956   2.384   4.598   6.180
 8019SOL    HW224957   2.248   4.650   6.106
 8020SOL     OW24958   6.010   6.762   0.498
 8020SOL    HW124959   6.019   6.744   0.596
 8020SOL    HW224960   6.056   6.849   0.476
 8021SOL     OW24961   1.666   1.852   1.215
 8021SOL    HW124962   1.691   1.772   1.270
 8021SOL    HW224963   1.706   1.934   1.256
 8022SOL     OW24964   5.118   6.559   2.710
 8022SOL    HW124965   5.053   6.561   2.786
 8022SOL    HW224966   5.155   6.467   2.699
 8023SOL     OW24967   6.086   5.338   3.018
 8023SOL    HW124968   6.174   5.297   3.045
 8023SOL    HW224969   6.046   5.286   2.944
 8024SOL     OW24970   2.926   4.936   6.926
 8024SOL    HW124971   3.005   4.979   6.881
 8024SOL    HW224972   2.930   4.954   0.008
 8025SOL     OW24973   2.412   6.457   6.806
 8025SOL    HW124974   2.497   6.480   6.760
 8025SOL    HW224975   2.369   6.541   6.840
 8026SOL     OW24976   0.928   4.384   6.595
 8026SOL    HW124977   1.017   4.414   6.630
 8026SOL    HW224978   0.942   4.323   6.516
 8027SOL     OW24979   4.411   0.734   5.325
 8027SOL    HW124980   4.384   0.655   5.271
 8027SOL    HW224981   4.461   0.703   5.407
 8028SOL     OW24982   3.190   4.953   4.376
 8028SOL    HW124983   3.213   5.050   4.382
 8028SOL    HW224984   3.117   4.933   4.442
 8029SOL     OW24985   5.025   3.261   1.221
 8029SOL    HW124986   4.929   3.232   1.218
 8029SOL    HW224987   5.031   3.358   1.201
 8030SOL     OW24988   4.119   4.496   0.267
 8030SOL    HW124989   4.084   4.590   0.257
 8030SOL    HW224990   4.189   4.480   0.198
 8031SOL     OW24991   5.638   6.521   2.622
 8031SOL    HW124992   5.704   6.476   2.563
 8031SOL    HW224993   5.577   6.453   2.663
 8032SOL     OW24994   6.558   5.136   6.835
 8032SOL    HW124995   6.610   5.145   6.920
 8032SOL    HW224996   6.611   5.083   6.769
 8033SOL     OW24997   4.869   2.678   5.746
 8033SOL    HW124998   4.959   2.722   5.743
 8033SOL    HW224999   4.847   2.654   5.841
 8034SOL     OW25000   6.399   0.412   4.905
 8034SOL    HW125001   6.372   0.417   5.001
 8034SOL    HW225002   6.318   0.415   4.847
 8035SOL     OW25003   5.062   1.899   4.532
 8035SOL    HW125004   4.981   1.934   4.579
 8035SOL    HW225005   5.039   1.880   4.437
 8036SOL     OW25006   0.834   4.263   2.649
 8036SOL    HW125007   0.752   4.208   2.657
 8036SOL    HW225008   0.828   4.343   2.709
 8037SOL     OW25009   1.674   3.261   1.416
 8037SOL    HW125010   1.621   3.281   1.334
 8037SOL    HW225011   1.674   3.342   1.476
 8038SOL     OW25012   3.551   0.486   3.057
 8038SOL    HW125013   3.613   0.503   2.980
 8038SOL    HW225014   3.479   0.422   3.028
 8039SOL     OW25015   0.746   1.956   4.166
 8039SOL    HW125016   0.761   2.054   4.157
 8039SOL    HW225017   0.830   1.907   4.142
 8040SOL     OW25018   1.849   6.333   0.599
 8040SOL    HW125019   1.778   6.401   0.583
 8040SOL    HW225020   1.925   6.348   0.536
 8041SOL     OW25021   3.031   0.762   2.229
 8041SOL    HW125022   2.951   0.819   2.249
 8041SOL    HW225023   3.105   0.785   2.291
 8042SOL     OW25024   3.100   3.153   3.656
 8042SOL    HW125025   3.159   3.148   3.576
 8042SOL    HW225026   3.032   3.226   3.645
 8043SOL     OW25027   4.332   6.853   2.422
 8043SOL    HW125028   4.319   6.947   2.455
 8043SOL    HW225029   4.283   6.842   2.335
 8044SOL     OW25030   3.789   2.886   0.860
 8044SOL    HW125031   3.809   2.872   0.763
 8044SOL    HW225032   3.836   2.815   0.913
 8045SOL     OW25033   5.262   0.690   1.714
 8045SOL    HW125034   5.199   0.613   1.717
 8045SOL    HW225035   5.211   0.776   1.718
 8046SOL     OW25036   0.365   5.311   0.859
 8046SOL    HW125037   0.309   5.305   0.776
 8046SOL    HW225038   0.412   5.399   0.861
 8047SOL     OW25039   3.872   5.613   4.556
 8047SOL    HW125040   3.930   5.653   4.626
 8047SOL    HW225041   3.904   5.521   4.535
 8048SOL     OW25042   5.048   1.236   5.635
 8048SOL    HW125043   5.029   1.323   5.679
 8048SOL    HW225044   5.038   1.162   5.702
 8049SOL     OW25045   0.419   0.117   6.962
 8049SOL    HW125046   0.427   0.041   6.897
 8049SOL    HW225047   0.485   0.188   6.939
 8050SOL     OW25048   1.779   3.826   2.850
 8050SOL    HW125049   1.683   3.843   2.871
 8050SOL    HW225050   1.794   3.836   2.751
 8051SOL     OW25051   4.581   5.501   2.625
 8051SOL    HW125052   4.511   5.554   2.577
 8051SOL    HW225053   4.617   5.431   2.563
 8052SOL     OW25054   4.685   2.116   1.861
 8052SOL    HW125055   4.585   2.115   1.849
 8052SOL    HW225056   4.726   2.174   1.791
 8053SOL     OW25057   2.964   3.739   3.386
 8053SOL    HW125058   2.913   3.706   3.306
 8053SOL    HW225059   2.967   3.839   3.385
 8054SOL     OW25060   4.747   0.274   4.553
 8054SOL    HW125061   4.807   0.353   4.566
 8054SOL    HW225062   4.678   0.296   4.483
 8055SOL     OW25063   0.431   6.999   5.486
 8055SOL    HW125064   0.400   0.054   5.549
 8055SOL    HW225065   0.352   6.947   5.454
 8056SOL     OW25066   3.610   1.874   3.810
 8056SOL    HW125067   3.520   1.909   3.834
 8056SOL    HW225068   3.669   1.949   3.781
 8057SOL     OW25069   2.707   1.975   3.335
 8057SOL    HW125070   2.732   1.928   3.251
 8057SOL    HW225071   2.607   1.975   3.345
 8058SOL     OW25072   4.714   0.607   1.749
 8058SOL    HW125073   4.703   0.508   1.736
 8058SOL    HW225074   4.694   0.654   1.663
 8059SOL     OW25075   4.197   1.970   4.443
 8059SOL    HW125076   4.211   2.053   4.498
 8059SOL    HW225077   4.101   1.944   4.447
 8060SOL     OW25078   6.993   2.040   3.628
 8060SOL    HW125079   0.059   2.044   3.686
 8060SOL    HW225080   6.925   1.981   3.671
 8061SOL     OW25081   0.439   0.854   2.683
 8061SOL    HW125082   0.496   0.826   2.760
 8061SOL    HW225083   0.410   0.773   2.632
 8062SOL     OW25084   3.491   5.227   4.532
 8062SOL    HW125085   3.404   5.251   4.574
 8062SOL    HW225086   3.538   5.311   4.502
 8063SOL     OW25087   0.842   2.568   1.015
 8063SOL    HW125088   0.886   2.566   1.105
 8063SOL    HW225089   0.815   2.475   0.989
 8064SOL     OW25090   0.209   4.230   1.752
 8064SOL    HW125091   0.138   4.295   1.724
 8064SOL    HW225092   0.287   4.280   1.790
 8065SOL     OW25093   2.860   5.855   4.165
 8065SOL    HW125094   2.774   5.861   4.216
 8065SOL    HW225095   2.937   5.863   4.229
 8066SOL     OW25096   0.456   2.139   5.710
 8066SOL    HW125097   0.366   2.143   5.666
 8066SOL    HW225098   0.524   2.180   5.649
 8067SOL     OW25099   4.602   2.780   1.805
 8067SOL    HW125100   4.587   2.876   1.830
 8067SOL    HW225101   4.615   2.726   1.888
 8068SOL     OW25102   0.050   4.047   0.585
 8068SOL    HW125103   6.985   4.005   0.544
 8068SOL    HW225104   0.057   4.143   0.556
 8069SOL     OW25105   1.895   6.419   1.171
 8069SOL    HW125106   1.836   6.417   1.091
 8069SOL    HW225107   1.913   6.325   1.202
 8070SOL     OW25108   3.520   3.465   0.383
 8070SOL    HW125109   3.443   3.474   0.446
 8070SOL    HW225110   3.500   3.395   0.315
 8071SOL     OW25111   2.872   6.361   4.821
 8071SOL    HW125112   2.815   6.288   4.860
 8071SOL    HW225113   2.937   6.393   4.890
 8072SOL     OW25114   3.493   0.949   0.074
 8072SOL    HW125115   3.583   0.984   0.045
 8072SOL    HW225116   3.483   0.964   0.172
 8073SOL     OW25117   3.763   5.649   5.273
 8073SOL    HW125118   3.767   5.748   5.257
 8073SOL    HW225119   3.714   5.605   5.198
 8074SOL     OW25120   4.010   2.263   0.451
 8074SOL    HW125121   3.928   2.285   0.503
 8074SOL    HW225122   4.057   2.348   0.426
 8075SOL     OW25123   6.670   0.794   0.355
 8075SOL    HW125124   6.655   0.695   0.352
 8075SOL    HW225125   6.621   0.832   0.433
 8076SOL     OW25126   5.778   2.134   5.508
 8076SOL    HW125127   5.849   2.123   5.439
 8076SOL    HW225128   5.711   2.060   5.499
 8077SOL     OW25129   2.098   5.452   1.206
 8077SOL    HW125130   2.195   5.465   1.185
 8077SOL    HW225131   2.085   5.458   1.305
 8078SOL     OW25132   6.354   1.746   0.356
 8078SOL    HW125133   6.447   1.757   0.320
 8078SOL    HW225134   6.359   1.705   0.447
 8079SOL     OW25135   4.533   1.540   3.290
 8079SOL    HW125136   4.597   1.479   3.244
 8079SOL    HW225137   4.517   1.621   3.233
 8080SOL     OW25138   0.289   2.850   0.303
 8080SOL    HW125139   0.336   2.768   0.336
 8080SOL    HW225140   0.204   2.862   0.355
 8081SOL     OW25141   5.166   6.748   4.451
 8081SOL    HW125142   5.124   6.675   4.504
 8081SOL    HW225143   5.166   6.833   4.504
 8082SOL     OW25144   5.112   6.705   1.931
 8082SOL    HW125145   5.144   6.778   1.871
 8082SOL    HW225146   5.061   6.744   2.008
 8083SOL     OW25147   4.828   4.082   2.509
 8083SOL    HW125148   4.816   4.116   2.416
 8083SOL    HW225149   4.783   3.994   2.518
 8084SOL     OW25150   4.769   0.391   0.306
 8084SOL    HW125151   4.742   0.349   0.392
 8084SOL    HW225152   4.757   0.324   0.232
 8085SOL     OW25153   5.881   6.805   2.407
 8085SOL    HW125154   5.877   6.728   2.343
 8085SOL    HW225155   5.961   6.861   2.387
 8086SOL     OW25156   4.336   1.072   3.549
 8086SOL    HW125157   4.431   1.052   3.574
 8086SOL    HW225158   4.333   1.113   3.458
 8087SOL     OW25159   2.860   1.133   0.554
 8087SOL    HW125160   2.866   1.135   0.653
 8087SOL    HW225161   2.899   1.048   0.520
 8088SOL     OW25162   5.164   2.884   1.730
 8088SOL    HW125163   5.110   2.926   1.657
 8088SOL    HW225164   5.165   2.944   1.810
 8089SOL     OW25165   5.045   2.529   0.553
 8089SOL    HW125166   5.131   2.531   0.504
 8089SOL    HW225167   5.005   2.621   0.555
 8090SOL     OW25168   4.552   1.929   6.927
 8090SOL    HW125169   4.577   1.904   6.833
 8090SOL    HW225170   4.550   1.846   6.984
 8091SOL     OW25171   2.732   3.389   6.056
 8091SOL    HW125172   2.639   3.391   6.019
 8091SOL    HW225173   2.754   3.478   6.096
 8092SOL     OW25174   6.855   2.703   5.120
 8092SOL    HW125175   6.929   2.769   5.135
 8092SOL    HW225176   6.890   2.610   5.129
 8093SOL     OW25177   4.831   4.911   2.686
 8093SOL    HW125178   4.757   4.861   2.731
 8093SOL    HW225179   4.837   5.004   2.724
 8094SOL     OW25180   1.465   3.423   5.193
 8094SOL    HW125181   1.417   3.423   5.106
 8094SOL    HW225182   1.558   3.390   5.180
 8095SOL     OW25183   6.450   3.943   5.006
 8095SOL    HW125184   6.369   3.923   5.062
 8095SOL    HW225185   6.421   3.967   4.914
 8096SOL     OW25186   2.705   6.201   3.799
 8096SOL    HW125187   2.802   6.224   3.807
 8096SOL    HW225188   2.693   6.102   3.806
 8097SOL     OW25189   4.727   6.449   3.998
 8097SOL    HW125190   4.690   6.530   3.953
 8097SOL    HW225191   4.811   6.474   4.046
 8098SOL     OW25192   2.160   6.834   3.881
 8098SOL    HW125193   2.061   6.841   3.896
 8098SOL    HW225194   2.189   6.739   3.894
 8099SOL     OW25195   4.292   0.506   3.968
 8099SOL    HW125196   4.197   0.479   3.979
 8099SOL    HW225197   4.345   0.480   4.049
 8100SOL     OW25198   5.925   0.131   0.142
 8100SOL    HW125199   5.885   0.044   0.172
 8100SOL    HW225200   5.985   0.166   0.215
 8101SOL     OW25201   2.036   0.040   3.697
 8101SOL    HW125202   2.080   7.007   3.772
 8101SOL    HW225203   1.982   0.116   3.733
 8102SOL     OW25204   0.621   5.114   4.327
 8102SOL    HW125205   0.585   5.036   4.276
 8102SOL    HW225206   0.547   5.180   4.343
 8103SOL     OW25207   4.334   0.567   1.201
 8103SOL    HW125208   4.340   0.478   1.248
 8103SOL    HW225209   4.403   0.629   1.239
 8104SOL     OW25210   2.839   0.171   6.151
 8104SOL    HW125211   2.910   0.164   6.081
 8104SOL    HW225212   2.880   0.163   6.241
 8105SOL     OW25213   0.826   2.314   3.476
 8105SOL    HW125214   0.764   2.287   3.549
 8105SOL    HW225215   0.819   2.412   3.460
 8106SOL     OW25216   1.941   6.334   2.718
 8106SOL    HW125217   2.030   6.372   2.744
 8106SOL    HW225218   1.938   6.237   2.739
 8107SOL     OW25219   0.408   6.052   4.837
 8107SOL    HW125220   0.335   6.014   4.895
 8107SOL    HW225221   0.497   6.022   4.871
 8108SOL     OW25222   6.360   3.096   5.136
 8108SOL    HW125223   6.408   3.184   5.126
 8108SOL    HW225224   6.376   3.060   5.228
 8109SOL     OW25225   2.205   3.918   4.154
 8109SOL    HW125226   2.138   3.940   4.225
 8109SOL    HW225227   2.254   4.001   4.128
 8110SOL     OW25228   2.947   6.312   0.531
 8110SOL    HW125229   2.905   6.402   0.526
 8110SOL    HW225230   2.881   6.242   0.505
 8111SOL     OW25231   3.757   0.871   4.429
 8111SOL    HW125232   3.807   0.869   4.343
 8111SOL    HW225233   3.692   0.947   4.428
 8112SOL     OW25234   2.404   2.271   4.654
 8112SOL    HW125235   2.359   2.247   4.568
 8112SOL    HW225236   2.335   2.282   4.726
 8113SOL     OW25237   3.424   3.124   1.216
 8113SOL    HW125238   3.360   3.182   1.164
 8113SOL    HW225239   3.517   3.137   1.182
 8114SOL     OW25240   2.308   3.984   1.846
 8114SOL    HW125241   2.362   3.962   1.765
 8114SOL    HW225242   2.261   3.901   1.878
 8115SOL     OW25243   3.529   0.070   0.493
 8115SOL    HW125244   3.600   0.124   0.448
 8115SOL    HW225245   3.522   6.997   0.450
 8116SOL     OW25246   4.574   6.122   5.181
 8116SOL    HW125247   4.626   6.044   5.215
 8116SOL    HW225248   4.480   6.094   5.162
 8117SOL     OW25249   1.859   1.343   4.285
 8117SOL    HW125250   1.911   1.344   4.199
 8117SOL    HW225251   1.914   1.296   4.355
 8118SOL     OW25252   5.796   3.151   5.860
 8118SOL    HW125253   5.868   3.086   5.836
 8118SOL    HW225254   5.805   3.175   5.957
 8119SOL     OW25255   6.401   6.179   4.987
 8119SOL    HW125256   6.341   6.212   5.059
 8119SOL    HW225257   6.346   6.150   4.908
 8120SOL     OW25258   2.606   4.696   0.056
 8120SOL    HW125259   2.577   4.761   7.002
 8120SOL    HW225260   2.574   4.604   0.031
 8121SOL     OW25261   0.380   4.961   1.406
 8121SOL    HW125262   0.426   4.941   1.319
 8121SOL    HW225263   0.290   5.000   1.388
 8122SOL     OW25264   1.683   5.737   2.233
 8122SOL    HW125265   1.696   5.665   2.302
 8122SOL    HW225266   1.772   5.767   2.199
 8123SOL     OW25267   6.843   0.105   7.013
 8123SOL    HW125268   6.747   0.132   7.012
 8123SOL    HW225269   6.900   0.185   0.018
 8124SOL     OW25270   6.803   6.215   0.858
 8124SOL    HW125271   6.707   6.191   0.871
 8124SOL    HW225272   6.824   6.216   0.760
 8125SOL     OW25273   1.274   1.008   3.643
 8125SOL    HW125274   1.350   0.966   3.693
 8125SOL    HW225275   1.189   0.989   3.691
 8126SOL     OW25276   5.805   5.071   2.647
 8126SOL    HW125277   5.766   4.983   2.674
 8126SOL    HW225278   5.884   5.092   2.704
 8127SOL     OW25279   3.147   6.335   6.820
 8127SOL    HW125280   3.081   6.260   6.829
 8127SOL    HW225281   3.099   6.423   6.826
 8128SOL     OW25282   2.885   2.819   1.083
 8128SOL    HW125283   2.933   2.904   1.063
 8128SOL    HW225284   2.825   2.833   1.162
 8129SOL     OW25285   4.368   0.806   5.663
 8129SOL    HW125286   4.305   0.876   5.629
 8129SOL    HW225287   4.321   0.750   5.731
 8130SOL     OW25288   6.870   4.108   6.876
 8130SOL    HW125289   6.907   4.015   6.882
 8130SOL    HW225290   6.929   4.171   6.927
 8131SOL     OW25291   3.781   1.682   0.704
 8131SOL    HW125292   3.828   1.728   0.629
 8131SOL    HW225293   3.752   1.591   0.674
 8132SOL     OW25294   5.517   6.316   6.458
 8132SOL    HW125295   5.561   6.314   6.548
 8132SOL    HW225296   5.481   6.408   6.441
 8133SOL     OW25297   2.849   4.993   1.654
 8133SOL    HW125298   2.856   4.907   1.704
 8133SOL    HW225299   2.753   5.020   1.648
 8134SOL     OW25300   1.046   2.373   5.247
 8134SOL    HW125301   1.138   2.411   5.248
 8134SOL    HW225302   1.036   2.306   5.320
 8135SOL     OW25303   1.913   5.833   0.935
 8135SOL    HW125304   1.844   5.822   0.864
 8135SOL    HW225305   1.907   5.756   0.999
 8136SOL     OW25306   4.993   5.090   2.971
 8136SOL    HW125307   5.072   5.088   3.032
 8136SOL    HW225308   5.017   5.135   2.886
 8137SOL     OW25309   2.848   0.911   4.698
 8137SOL    HW125310   2.793   0.828   4.704
 8137SOL    HW225311   2.908   0.905   4.618
 8138SOL     OW25312   5.571   2.492   0.404
 8138SOL    HW125313   5.566   2.442   0.491
 8138SOL    HW225314   5.609   2.583   0.420
 8139SOL     OW25315   1.675   1.550   4.411
 8139SOL    HW125316   1.705   1.460   4.380
 8139SOL    HW225317   1.681   1.555   4.511
 8140SOL     OW25318   4.444   6.968   0.731
 8140SOL    HW125319   4.461   0.050   0.743
 8140SOL    HW225320   4.365   6.941   0.786
 8141SOL     OW25321   4.535   6.950   5.008
 8141SOL    HW125322   4.577   6.913   4.925
 8141SOL    HW225323   4.440   6.975   4.989
 8142SOL     OW25324   1.757   5.257   6.998
 8142SOL    HW125325   1.674   5.210   0.013
 8142SOL    HW225326   1.835   5.195   7.006
 8143SOL     OW25327   6.528   4.914   0.216
 8143SOL    HW125328   6.447   4.948   0.266
 8143SOL    HW225329   6.499   4.848   0.148
 8144SOL     OW25330   0.499   6.377   6.202
 8144SOL    HW125331   0.415   6.393   6.150
 8144SOL    HW225332   0.490   6.294   6.257
 8145SOL     OW25333   5.763   5.363   0.540
 8145SOL    HW125334   5.753   5.264   0.554
 8145SOL    HW225335   5.688   5.395   0.482
 8146SOL     OW25336   5.682   0.585   5.535
 8146SOL    HW125337   5.753   0.519   5.561
 8146SOL    HW225338   5.687   0.665   5.595
 8147SOL     OW25339   6.371   0.902   1.837
 8147SOL    HW125340   6.455   0.891   1.783
 8147SOL    HW225341   6.381   0.853   1.924
 8148SOL     OW25342   5.446   4.993   0.936
 8148SOL    HW125343   5.351   5.023   0.945
 8148SOL    HW225344   5.477   5.008   0.842
 8149SOL     OW25345   1.983   6.574   3.242
 8149SOL    HW125346   1.894   6.555   3.201
 8149SOL    HW225347   1.985   6.540   3.336
 8150SOL     OW25348   2.027   3.522   0.429
 8150SOL    HW125349   2.001   3.504   0.523
 8150SOL    HW225350   1.960   3.481   0.367
 8151SOL     OW25351   6.010   4.964   3.235
 8151SOL    HW125352   6.007   5.054   3.277
 8151SOL    HW225353   5.930   4.911   3.264
 8152SOL     OW25354   6.258   3.044   3.200
 8152SOL    HW125355   6.281   3.038   3.297
 8152SOL    HW225356   6.177   2.989   3.181
 8153SOL     OW25357   1.072   1.781   3.898
 8153SOL    HW125358   1.094   1.695   3.851
 8153SOL    HW225359   1.140   1.850   3.876
 8154SOL     OW25360   3.610   6.036   2.367
 8154SOL    HW125361   3.624   6.024   2.268
 8154SOL    HW225362   3.618   5.947   2.413
 8155SOL     OW25363   1.453   3.059   2.006
 8155SOL    HW125364   1.389   3.105   2.068
 8155SOL    HW225365   1.525   3.014   2.059
 8156SOL     OW25366   4.459   5.964   0.619
 8156SOL    HW125367   4.483   5.916   0.703
 8156SOL    HW225368   4.414   5.901   0.556
 8157SOL     OW25369   6.791   4.709   5.940
 8157SOL    HW125370   6.835   4.644   5.877
 8157SOL    HW225371   6.837   4.705   6.029
 8158SOL     OW25372   4.735   4.034   0.420
 8158SOL    HW125373   4.700   3.989   0.338
 8158SOL    HW225374   4.756   4.130   0.399
 8159SOL     OW25375   2.419   5.291   3.214
 8159SOL    HW125376   2.456   5.198   3.218
 8159SOL    HW225377   2.394   5.312   3.120
 8160SOL     OW25378   5.175   0.661   3.861
 8160SOL    HW125379   5.241   0.586   3.852
 8160SOL    HW225380   5.178   0.698   3.954
 8161SOL     OW25381   6.090   2.943   6.589
 8161SOL    HW125382   6.072   3.040   6.574
 8161SOL    HW225383   6.063   2.891   6.508
 8162SOL     OW25384   6.117   6.969   6.608
 8162SOL    HW125385   6.107   6.951   6.706
 8162SOL    HW225386   6.027   6.964   6.564
 8163SOL     OW25387   2.630   4.700   5.105
 8163SOL    HW125388   2.625   4.664   5.198
 8163SOL    HW225389   2.720   4.681   5.067
 8164SOL     OW25390   4.996   2.417   0.289
 8164SOL    HW125391   5.084   2.458   0.266
 8164SOL    HW225392   4.964   2.452   0.377
 8165SOL     OW25393   0.309   3.858   5.963
 8165SOL    HW125394   0.382   3.874   5.896
 8165SOL    HW225395   0.240   3.797   5.924
 8166SOL     OW25396   1.133   0.683   3.731
 8166SOL    HW125397   1.153   0.586   3.748
 8166SOL    HW225398   1.180   0.712   3.647
 8167SOL     OW25399   0.016   0.623   3.749
 8167SOL    HW125400   0.087   0.694   3.749
 8167SOL    HW225401   6.945   0.663   3.777
 8168SOL     OW25402   2.759   1.564   1.789
 8168SOL    HW125403   2.745   1.549   1.691
 8168SOL    HW225404   2.852   1.596   1.805
 8169SOL     OW25405   4.956   1.896   0.374
 8169SOL    HW125406   4.969   1.995   0.373
 8169SOL    HW225407   4.859   1.875   0.372
 8170SOL     OW25408   1.352   5.286   1.979
 8170SOL    HW125409   1.255   5.309   1.981
 8170SOL    HW225410   1.368   5.202   2.032
 8171SOL     OW25411   1.811   1.963   6.094
 8171SOL    HW125412   1.860   2.015   6.024
 8171SOL    HW225413   1.844   1.991   6.184
 8172SOL     OW25414   0.225   1.810   2.475
 8172SOL    HW125415   0.296   1.868   2.434
 8172SOL    HW225416   0.135   1.845   2.449
 8173SOL     OW25417   5.418   2.254   1.825
 8173SOL    HW125418   5.465   2.169   1.847
 8173SOL    HW225419   5.404   2.260   1.727
 8174SOL     OW25420   6.639   0.999   2.455
 8174SOL    HW125421   6.723   0.945   2.450
 8174SOL    HW225422   6.560   0.940   2.443
 8175SOL     OW25423   0.534   3.252   5.925
 8175SOL    HW125424   0.580   3.171   5.888
 8175SOL    HW225425   0.580   3.281   6.009
 8176SOL     OW25426   2.285   5.133   1.440
 8176SOL    HW125427   2.201   5.088   1.411
 8176SOL    HW225428   2.264   5.199   1.513
 8177SOL     OW25429   3.566   0.050   3.607
 8177SOL    HW125430   3.548   0.136   3.559
 8177SOL    HW225431   3.478   0.006   3.630
 8178SOL     OW25432   3.107   0.095   0.558
 8178SOL    HW125433   3.056   0.177   0.531
 8178SOL    HW225434   3.135   0.104   0.654
 8179SOL     OW25435   4.741   1.417   4.215
 8179SOL    HW125436   4.819   1.376   4.261
 8179SOL    HW225437   4.773   1.489   4.153
 8180SOL     OW25438   6.253   1.012   5.630
 8180SOL    HW125439   6.205   1.025   5.544
 8180SOL    HW225440   6.220   1.079   5.697
 8181SOL     OW25441   1.072   1.640   0.537
 8181SOL    HW125442   1.049   1.730   0.498
 8181SOL    HW225443   1.028   1.568   0.483
 8182SOL     OW25444   3.014   3.381   5.590
 8182SOL    HW125445   3.014   3.313   5.664
 8182SOL    HW225446   2.993   3.336   5.503
 8183SOL     OW25447   6.363   2.624   4.882
 8183SOL    HW125448   6.401   2.532   4.872
 8183SOL    HW225449   6.270   2.618   4.918
 8184SOL     OW25450   6.354   0.337   0.509
 8184SOL    HW125451   6.304   0.419   0.537
 8184SOL    HW225452   6.366   0.277   0.589
 8185SOL     OW25453   1.937   0.170   6.698
 8185SOL    HW125454   1.959   0.145   6.604
 8185SOL    HW225455   1.948   0.090   6.757
 8186SOL     OW25456   3.509   4.558   5.422
 8186SOL    HW125457   3.460   4.607   5.350
 8186SOL    HW225458   3.496   4.459   5.410
 8187SOL     OW25459   2.625   1.546   4.975
 8187SOL    HW125460   2.573   1.628   4.950
 8187SOL    HW225461   2.575   1.465   4.944
 8188SOL     OW25462   5.266   2.989   3.373
 8188SOL    HW125463   5.349   3.042   3.356
 8188SOL    HW225464   5.217   3.028   3.451
 8189SOL     OW25465   5.091   5.439   3.179
 8189SOL    HW125466   5.171   5.498   3.184
 8189SOL    HW225467   5.072   5.417   3.083
 8190SOL     OW25468   5.200   4.417   4.279
 8190SOL    HW125469   5.265   4.368   4.338
 8190SOL    HW225470   5.110   4.374   4.286
 8191SOL     OW25471   3.742   6.149   1.875
 8191SOL    HW125472   3.684   6.121   1.798
 8191SOL    HW225473   3.696   6.127   1.961
 8192SOL     OW25474   3.195   5.231   0.721
 8192SOL    HW125475   3.147   5.146   0.701
 8192SOL    HW225476   3.160   5.271   0.806
 8193SOL     OW25477   6.448   5.864   5.598
 8193SOL    HW125478   6.515   5.798   5.631
 8193SOL    HW225479   6.423   5.926   5.672
 8194SOL     OW25480   5.065   2.376   1.059
 8194SOL    HW125481   5.076   2.460   1.006
 8194SOL    HW225482   5.108   2.387   1.149
 8195SOL     OW25483   1.357   0.108   3.358
 8195SOL    HW125484   1.265   0.147   3.354
 8195SOL    HW225485   1.391   0.096   3.265
 8196SOL     OW25486   4.231   5.914   5.990
 8196SOL    HW125487   4.227   5.942   6.085
 8196SOL    HW225488   4.234   5.814   5.984
 8197SOL     OW25489   4.591   1.748   0.142
 8197SOL    HW125490   4.535   1.669   0.118
 8197SOL    HW225491   4.681   1.740   0.100
 8198SOL     OW25492   2.927   6.517   2.823
 8198SOL    HW125493   3.000   6.480   2.879
 8198SOL    HW225494   2.840   6.476   2.850
 8199SOL     OW25495   5.703   2.843   6.046
 8199SOL    HW125496   5.743   2.911   6.107
 8199SOL    HW225497   5.736   2.752   6.071
 8200SOL     OW25498   5.637   5.110   1.688
 8200SOL    HW125499   5.737   5.115   1.677
 8200SOL    HW225500   5.615   5.050   1.765
 8201SOL     OW25501   5.557   0.750   4.136
 8201SOL    HW125502   5.578   0.846   4.153
 8201SOL    HW225503   5.629   0.710   4.079
 8202SOL     OW25504   0.472   5.815   4.055
 8202SOL    HW125505   0.538   5.801   4.129
 8202SOL    HW225506   0.391   5.759   4.070
 8203SOL     OW25507   4.091   2.784   6.813
 8203SOL    HW125508   4.171   2.843   6.803
 8203SOL    HW225509   4.108   2.695   6.770
 8204SOL     OW25510   3.454   5.018   6.777
 8204SOL    HW125511   3.412   5.063   6.855
 8204SOL    HW225512   3.388   4.956   6.734
 8205SOL     OW25513   0.601   4.735   0.754
 8205SOL    HW125514   0.675   4.757   0.818
 8205SOL    HW225515   0.521   4.791   0.774
 8206SOL     OW25516   4.955   2.120   6.430
 8206SOL    HW125517   5.001   2.032   6.439
 8206SOL    HW225518   4.875   2.122   6.490
 8207SOL     OW25519   3.002   3.712   3.792
 8207SOL    HW125520   3.083   3.690   3.737
 8207SOL    HW225521   2.943   3.632   3.798
 8208SOL     OW25522   1.653   0.240   1.331
 8208SOL    HW125523   1.714   0.271   1.405
 8208SOL    HW225524   1.706   0.186   1.266
 8209SOL     OW25525   0.455   1.417   5.308
 8209SOL    HW125526   0.550   1.391   5.294
 8209SOL    HW225527   0.401   1.335   5.329
 8210SOL     OW25528   2.147   1.229   1.586
 8210SOL    HW125529   2.100   1.214   1.499
 8210SOL    HW225530   2.081   1.261   1.654
 8211SOL     OW25531   3.889   4.168   1.666
 8211SOL    HW125532   3.815   4.234   1.680
 8211SOL    HW225533   3.904   4.156   1.568
 8212SOL     OW25534   2.164   1.681   1.780
 8212SOL    HW125535   2.207   1.714   1.865
 8212SOL    HW225536   2.234   1.643   1.720
 8213SOL     OW25537   0.024   4.345   2.586
 8213SOL    HW125538   0.028   4.343   2.486
 8213SOL    HW225539   6.992   4.263   2.618
 8214SOL     OW25540   6.303   5.462   5.160
 8214SOL    HW125541   6.401   5.478   5.169
 8214SOL    HW225542   6.286   5.364   5.152
 8215SOL     OW25543   2.572   6.180   6.471
 8215SOL    HW125544   2.487   6.224   6.499
 8215SOL    HW225545   2.567   6.156   6.374
 8216SOL     OW25546   5.165   5.148   3.806
 8216SOL    HW125547   5.204   5.213   3.870
 8216SOL    HW225548   5.239   5.104   3.754
 8217SOL     OW25549   1.774   3.599   0.269
 8217SOL    HW125550   1.702   3.663   0.297
 8217SOL    HW225551   1.747   3.506   0.294
 8218SOL     OW25552   0.016   0.126   5.383
 8218SOL    HW125553   0.099   0.091   5.338
 8218SOL    HW225554   7.001   0.208   5.335
 8219SOL     OW25555   3.927   3.504   0.356
 8219SOL    HW125556   3.903   3.529   0.262
 8219SOL    HW225557   3.920   3.585   0.414
 8220SOL     OW25558   2.869   3.453   3.803
 8220SOL    HW125559   2.773   3.480   3.800
 8220SOL    HW225560   2.897   3.441   3.898
 8221SOL     OW25561   5.994   6.445   3.448
 8221SOL    HW125562   5.916   6.382   3.454
 8221SOL    HW225563   5.962   6.539   3.461
 8222SOL     OW25564   5.512   1.612   1.166
 8222SOL    HW125565   5.473   1.595   1.257
 8222SOL    HW225566   5.549   1.527   1.129
 8223SOL     OW25567   0.831   4.077   5.259
 8223SOL    HW125568   0.763   4.136   5.216
 8223SOL    HW225569   0.894   4.133   5.313
 8224SOL     OW25570   5.497   1.679   2.269
 8224SOL    HW125571   5.495   1.609   2.341
 8224SOL    HW225572   5.406   1.687   2.228
 8225SOL     OW25573   3.200   1.606   1.413
 8225SOL    HW125574   3.241   1.515   1.417
 8225SOL    HW225575   3.101   1.598   1.406
 8226SOL     OW25576   3.549   6.534   0.446
 8226SOL    HW125577   3.518   6.495   0.533
 8226SOL    HW225578   3.512   6.481   0.370
 8227SOL     OW25579   0.350   1.305   2.489
 8227SOL    HW125580   0.290   1.298   2.569
 8227SOL    HW225581   0.299   1.287   2.406
 8228SOL     OW25582   6.662   1.968   6.242
 8228SOL    HW125583   6.587   1.902   6.234
 8228SOL    HW225584   6.666   2.025   6.160
 8229SOL     OW25585   4.449   3.423   0.693
 8229SOL    HW125586   4.497   3.433   0.605
 8229SOL    HW225587   4.513   3.443   0.767
 8230SOL     OW25588   3.730   0.280   5.002
 8230SOL    HW125589   3.804   0.234   4.953
 8230SOL    HW225590   3.716   0.371   4.964
 8231SOL     OW25591   3.290   3.346   1.086
 8231SOL    HW125592   3.311   3.384   0.996
 8231SOL    HW225593   3.193   3.359   1.106
 8232SOL     OW25594   4.203   2.373   1.477
 8232SOL    HW125595   4.138   2.318   1.424
 8232SOL    HW225596   4.240   2.446   1.419
 8233SOL     OW25597   0.667   6.550   5.921
 8233SOL    HW125598   0.748   6.582   5.872
 8233SOL    HW225599   0.695   6.488   5.994
 8234SOL     OW25600   2.702   3.503   6.630
 8234SOL    HW125601   2.786   3.452   6.615
 8234SOL    HW225602   2.665   3.534   6.542
 8235SOL     OW25603   0.813   2.567   0.253
 8235SOL    HW125604   0.847   2.529   0.167
 8235SOL    HW225605   0.885   2.564   0.322
 8236SOL     OW25606   0.891   4.444   0.645
 8236SOL    HW125607   0.882   4.500   0.728
 8236SOL    HW225608   0.887   4.347   0.670
 8237SOL     OW25609   4.920   6.486   5.483
 8237SOL    HW125610   4.946   6.438   5.567
 8237SOL    HW225611   4.955   6.580   5.486
 8238SOL     OW25612   0.619   5.212   6.241
 8238SOL    HW125613   0.683   5.206   6.317
 8238SOL    HW225614   0.581   5.122   6.221
 8239SOL     OW25615   0.196   1.112   5.709
 8239SOL    HW125616   0.187   1.016   5.734
 8239SOL    HW225617   0.293   1.137   5.707
 8240SOL     OW25618   3.687   3.808   2.329
 8240SOL    HW125619   3.639   3.807   2.416
 8240SOL    HW225620   3.765   3.871   2.335
 8241SOL     OW25621   3.675   6.352   5.750
 8241SOL    HW125622   3.685   6.253   5.739
 8241SOL    HW225623   3.651   6.373   5.844
 8242SOL     OW25624   0.367   4.256   6.389
 8242SOL    HW125625   0.320   4.198   6.323
 8242SOL    HW225626   0.300   4.288   6.457
 8243SOL     OW25627   0.269   3.090   0.673
 8243SOL    HW125628   0.280   3.101   0.772
 8243SOL    HW225629   0.172   3.084   0.651
 8244SOL     OW25630   0.246   0.990   4.258
 8244SOL    HW125631   0.185   0.961   4.184
 8244SOL    HW225632   0.331   1.025   4.220
 8245SOL     OW25633   4.091   1.995   2.215
 8245SOL    HW125634   4.011   1.999   2.156
 8245SOL    HW225635   4.100   2.081   2.265
 8246SOL     OW25636   1.154   3.421   5.565
 8246SOL    HW125637   1.168   3.490   5.495
 8246SOL    HW225638   1.123   3.465   5.650
 8247SOL     OW25639   1.763   0.725   2.801
 8247SOL    HW125640   1.710   0.794   2.851
 8247SOL    HW225641   1.711   0.640   2.798
 8248SOL     OW25642   0.071   4.902   4.875
 8248SOL    HW125643   0.110   4.992   4.892
 8248SOL    HW225644   7.008   4.911   4.814
 8249SOL     OW25645   1.909   2.499   5.743
 8249SOL    HW125646   1.914   2.519   5.840
 8249SOL    HW225647   1.834   2.551   5.702
 8250SOL     OW25648   2.804   3.164   1.381
 8250SOL    HW125649   2.728   3.133   1.438
 8250SOL    HW225650   2.875   3.094   1.377
 8251SOL     OW25651   4.862   3.169   4.628
 8251SOL    HW125652   4.932   3.178   4.698
 8251SOL    HW225653   4.794   3.241   4.639
 8252SOL     OW25654   3.538   1.525   5.723
 8252SOL    HW125655   3.469   1.485   5.782
 8252SOL    HW225656   3.543   1.474   5.637
 8253SOL     OW25657   4.836   5.574   6.004
 8253SOL    HW125658   4.821   5.476   5.994
 8253SOL    HW225659   4.784   5.623   5.934
 8254SOL     OW25660   4.474   4.405   5.276
 8254SOL    HW125661   4.454   4.433   5.182
 8254SOL    HW225662   4.489   4.306   5.279
 8255SOL     OW25663   1.789   6.948   5.265
 8255SOL    HW125664   1.811   6.905   5.177
 8255SOL    HW225665   1.741   6.883   5.323
 8256SOL     OW25666   0.014   6.098   1.997
 8256SOL    HW125667   0.062   6.160   1.935
 8256SOL    HW225668   0.019   6.135   2.090
 8257SOL     OW25669   5.295   4.237   2.748
 8257SOL    HW125670   5.234   4.169   2.708
 8257SOL    HW225671   5.331   4.203   2.834
 8258SOL     OW25672   5.219   2.954   1.285
 8258SOL    HW125673   5.208   2.956   1.186
 8258SOL    HW225674   5.308   2.916   1.308
 8259SOL     OW25675   3.944   1.685   4.667
 8259SOL    HW125676   3.928   1.688   4.766
 8259SOL    HW225677   4.011   1.615   4.646
 8260SOL     OW25678   2.136   6.850   0.926
 8260SOL    HW125679   2.190   6.914   0.980
 8260SOL    HW225680   2.138   6.878   0.830
 8261SOL     OW25681   5.376   6.795   1.797
 8261SOL    HW125682   5.436   6.867   1.832
 8261SOL    HW225683   5.414   6.706   1.821
 8262SOL     OW25684   0.868   2.448   0.026
 8262SOL    HW125685   0.777   2.406   0.016
 8262SOL    HW225686   0.938   2.379   0.015
 8263SOL     OW25687   0.447   2.762   6.315
 8263SOL    HW125688   0.547   2.759   6.313
 8263SOL    HW225689   0.414   2.718   6.399
 8264SOL     OW25690   1.951   5.868   1.588
 8264SOL    HW125691   1.942   5.844   1.491
 8264SOL    HW225692   2.023   5.937   1.598
 8265SOL     OW25693   6.354   0.638   1.035
 8265SOL    HW125694   6.384   0.588   0.954
 8265SOL    HW225695   6.302   0.719   1.006
 8266SOL     OW25696   2.404   1.188   4.299
 8266SOL    HW125697   2.367   1.097   4.316
 8266SOL    HW225698   2.442   1.225   4.384
 8267SOL     OW25699   1.924   3.458   1.241
 8267SOL    HW125700   1.865   3.489   1.316
 8267SOL    HW225701   1.988   3.532   1.217
 8268SOL     OW25702   2.267   6.529   6.041
 8268SOL    HW125703   2.193   6.464   6.023
 8268SOL    HW225704   2.282   6.586   5.961
 8269SOL     OW25705   4.330   1.288   2.009
 8269SOL    HW125706   4.401   1.280   2.079
 8269SOL    HW225707   4.365   1.341   1.932
 8270SOL     OW25708   3.247   6.219   4.861
 8270SOL    HW125709   3.241   6.319   4.853
 8270SOL    HW225710   3.322   6.196   4.923
 8271SOL     OW25711   0.334   6.791   3.129
 8271SOL    HW125712   0.338   6.787   3.229
 8271SOL    HW225713   0.379   6.711   3.090
 8272SOL     OW25714   6.658   1.673   3.007
 8272SOL    HW125715   6.559   1.677   2.993
 8272SOL    HW225716   6.704   1.682   2.919
 8273SOL     OW25717   2.265   1.053   1.218
 8273SOL    HW125718   2.232   0.961   1.199
 8273SOL    HW225719   2.190   1.109   1.254
 8274SOL     OW25720   4.385   5.281   4.257
 8274SOL    HW125721   4.381   5.379   4.236
 8274SOL    HW225722   4.317   5.233   4.202
 8275SOL     OW25723   5.867   1.004   4.537
 8275SOL    HW125724   5.944   0.953   4.574
 8275SOL    HW225725   5.845   0.970   4.446
 8276SOL     OW25726   0.432   2.210   4.270
 8276SOL    HW125727   0.477   2.248   4.189
 8276SOL    HW225728   0.501   2.188   4.339
 8277SOL     OW25729   0.865   6.359   6.388
 8277SOL    HW125730   0.860   6.458   6.381
 8277SOL    HW225731   0.779   6.324   6.425
 8278SOL     OW25732   3.198   0.935   6.475
 8278SOL    HW125733   3.259   1.014   6.469
 8278SOL    HW225734   3.251   0.854   6.499
 8279SOL     OW25735   1.052   6.659   4.558
 8279SOL    HW125736   0.977   6.648   4.624
 8279SOL    HW225737   1.015   6.675   4.467
 8280SOL     OW25738   2.641   2.577   0.698
 8280SOL    HW125739   2.636   2.676   0.684
 8280SOL    HW225740   2.618   2.529   0.614
 8281SOL     OW25741   2.584   4.316   1.650
 8281SOL    HW125742   2.632   4.401   1.629
 8281SOL    HW225743   2.514   4.299   1.581
 8282SOL     OW25744   4.680   3.909   0.177
 8282SOL    HW125745   4.728   3.827   0.210
 8282SOL    HW225746   4.605   3.881   0.117
 8283SOL     OW25747   1.275   5.024   5.380
 8283SOL    HW125748   1.203   5.056   5.319
 8283SOL    HW225749   1.362   5.063   5.353
 8284SOL     OW25750   0.852   3.601   1.363
 8284SOL    HW125751   0.867   3.552   1.277
 8284SOL    HW225752   0.902   3.555   1.436
 8285SOL     OW25753   3.357   4.097   4.913
 8285SOL    HW125754   3.387   4.057   5.000
 8285SOL    HW225755   3.260   4.119   4.918
 8286SOL     OW25756   5.347   1.675   5.078
 8286SOL    HW125757   5.267   1.670   5.017
 8286SOL    HW225758   5.317   1.696   5.171
 8287SOL     OW25759   1.137   4.622   4.578
 8287SOL    HW125760   1.052   4.656   4.537
 8287SOL    HW225761   1.174   4.692   4.639
 8288SOL     OW25762   2.770   2.195   2.232
 8288SOL    HW125763   2.750   2.115   2.174
 8288SOL    HW225764   2.821   2.262   2.179
 8289SOL     OW25765   0.379   6.513   6.464
 8289SOL    HW125766   0.345   6.604   6.440
 8289SOL    HW225767   0.421   6.471   6.383
 8290SOL     OW25768   5.207   1.659   0.927
 8290SOL    HW125769   5.169   1.736   0.875
 8290SOL    HW225770   5.137   1.589   0.938
 8291SOL     OW25771   4.261   5.558   4.797
 8291SOL    HW125772   4.351   5.563   4.754
 8291SOL    HW225773   4.253   5.473   4.849
 8292SOL     OW25774   3.188   6.421   6.243
 8292SOL    HW125775   3.103   6.425   6.191
 8292SOL    HW225776   3.180   6.478   6.325
 8293SOL     OW25777   1.675   5.441   0.642
 8293SOL    HW125778   1.655   5.346   0.620
 8293SOL    HW225779   1.591   5.495   0.635
 8294SOL     OW25780   5.612   3.919   5.477
 8294SOL    HW125781   5.696   3.916   5.532
 8294SOL    HW225782   5.599   3.831   5.432
 8295SOL     OW25783   4.762   5.026   1.598
 8295SOL    HW125784   4.847   5.010   1.648
 8295SOL    HW225785   4.756   4.962   1.521
 8296SOL     OW25786   1.828   4.847   6.908
 8296SOL    HW125787   1.923   4.845   6.940
 8296SOL    HW225788   1.815   4.927   6.849
 8297SOL     OW25789   0.060   3.152   2.793
 8297SOL    HW125790   0.025   3.241   2.823
 8297SOL    HW225791   0.058   3.088   2.870
 8298SOL     OW25792   6.347   1.875   0.695
 8298SOL    HW125793   6.261   1.843   0.736
 8298SOL    HW225794   6.391   1.799   0.647
 8299SOL     OW25795   0.678   2.250   2.543
 8299SOL    HW125796   0.728   2.318   2.597
 8299SOL    HW225797   0.693   2.159   2.582
 8300SOL     OW25798   0.125   5.615   3.843
 8300SOL    HW125799   0.049   5.668   3.806
 8300SOL    HW225800   0.184   5.584   3.768
 8301SOL     OW25801   3.842   1.419   0.402
 8301SOL    HW125802   3.785   1.458   0.330
 8301SOL    HW225803   3.784   1.389   0.478
 8302SOL     OW25804   5.803   0.010   6.271
 8302SOL    HW125805   5.797   0.110   6.269
 8302SOL    HW225806   5.892   6.999   6.308
 8303SOL     OW25807   5.785   0.787   3.930
 8303SOL    HW125808   5.776   0.832   3.841
 8303SOL    HW225809   5.849   0.837   3.987
 8304SOL     OW25810   5.531   3.175   1.173
 8304SOL    HW125811   5.557   3.251   1.114
 8304SOL    HW225812   5.487   3.103   1.118
 8305SOL     OW25813   4.692   4.424   3.772
 8305SOL    HW125814   4.641   4.432   3.686
 8305SOL    HW225815   4.724   4.514   3.801
 8306SOL     OW25816   5.327   1.709   4.420
 8306SOL    HW125817   5.411   1.659   4.436
 8306SOL    HW225818   5.309   1.770   4.498
 8307SOL     OW25819   3.317   5.083   1.663
 8307SOL    HW125820   3.229   5.107   1.622
 8307SOL    HW225821   3.313   4.989   1.697
 8308SOL     OW25822   1.992   5.305   0.682
 8308SOL    HW125823   2.039   5.311   0.594
 8308SOL    HW225824   1.989   5.395   0.724
 8309SOL     OW25825   6.674   5.786   3.253
 8309SOL    HW125826   6.646   5.737   3.171
 8309SOL    HW225827   6.639   5.739   3.334
 8310SOL     OW25828   0.779   5.708   1.459
 8310SOL    HW125829   0.877   5.731   1.457
 8310SOL    HW225830   0.768   5.610   1.444
 8311SOL     OW25831   0.274   2.439   5.873
 8311SOL    HW125832   0.250   2.535   5.860
 8311SOL    HW225833   0.360   2.420   5.826
 8312SOL     OW25834   4.398   0.303   0.284
 8312SOL    HW125835   4.412   0.210   0.248
 8312SOL    HW225836   4.314   0.306   0.338
 8313SOL     OW25837   5.201   6.908   6.982
 8313SOL    HW125838   5.251   6.941   6.902
 8313SOL    HW225839   5.222   6.811   6.998
 8314SOL     OW25840   5.595   0.037   0.214
 8314SOL    HW125841   5.535   0.066   0.288
 8314SOL    HW225842   5.590   0.103   0.139
 8315SOL     OW25843   4.109   3.217   1.578
 8315SOL    HW125844   4.031   3.168   1.617
 8315SOL    HW225845   4.180   3.228   1.648
 8316SOL     OW25846   1.526   2.128   2.111
 8316SOL    HW125847   1.581   2.205   2.078
 8316SOL    HW225848   1.586   2.051   2.131
 8317SOL     OW25849   1.157   2.491   2.303
 8317SOL    HW125850   1.247   2.536   2.305
 8317SOL    HW225851   1.095   2.545   2.246
 8318SOL     OW25852   4.152   1.681   5.796
 8318SOL    HW125853   4.184   1.694   5.890
 8318SOL    HW225854   4.082   1.750   5.775
 8319SOL     OW25855   1.477   1.731   0.795
 8319SOL    HW125856   1.446   1.683   0.713
 8319SOL    HW225857   1.492   1.666   0.869
 8320SOL     OW25858   3.236   3.783   2.439
 8320SOL    HW125859   3.208   3.811   2.347
 8320SOL    HW225860   3.205   3.690   2.457
 8321SOL     OW25861   6.510   6.882   6.440
 8321SOL    HW125862   6.479   6.828   6.362
 8321SOL    HW225863   6.451   6.865   6.519
 8322SOL     OW25864   6.133   0.118   0.780
 8322SOL    HW125865   6.116   0.043   0.844
 8322SOL    HW225866   6.066   0.190   0.795
 8323SOL     OW25867   5.313   5.362   1.738
 8323SOL    HW125868   5.271   5.284   1.692
 8323SOL    HW225869   5.412   5.360   1.724
 8324SOL     OW25870   6.136   6.625   1.566
 8324SOL    HW125871   6.115   6.696   1.634
 8324SOL    HW225872   6.175   6.545   1.612
 8325SOL     OW25873   2.037   3.480   4.936
 8325SOL    HW125874   2.066   3.399   4.885
 8325SOL    HW225875   2.033   3.558   4.874
 8326SOL     OW25876   4.633   3.600   5.863
 8326SOL    HW125877   4.693   3.589   5.943
 8326SOL    HW225878   4.663   3.537   5.791
 8327SOL     OW25879   7.013   0.410   5.719
 8327SOL    HW125880   6.928   0.365   5.691
 8327SOL    HW225881   0.048   0.437   5.638
 8328SOL     OW25882   2.490   5.742   6.597
 8328SOL    HW125883   2.416   5.685   6.561
 8328SOL    HW225884   2.544   5.689   6.663
 8329SOL     OW25885   0.840   2.941   5.692
 8329SOL    HW125886   0.809   2.909   5.603
 8329SOL    HW225887   0.893   3.025   5.681
 8330SOL     OW25888   2.782   1.319   6.256
 8330SOL    HW125889   2.849   1.355   6.191
 8330SOL    HW225890   2.690   1.332   6.220
 8331SOL     OW25891   3.293   0.674   1.311
 8331SOL    HW125892   3.266   0.600   1.372
 8331SOL    HW225893   3.380   0.651   1.268
 8332SOL     OW25894   5.380   5.360   2.574
 8332SOL    HW125895   5.448   5.420   2.530
 8332SOL    HW225896   5.290   5.405   2.571
 8333SOL     OW25897   0.450   5.006   6.207
 8333SOL    HW125898   0.381   4.957   6.260
 8333SOL    HW225899   0.405   5.064   6.139
 8334SOL     OW25900   3.695   1.356   4.344
 8334SOL    HW125901   3.664   1.301   4.267
 8334SOL    HW225902   3.765   1.421   4.312
 8335SOL     OW25903   5.234   1.018   0.324
 8335SOL    HW125904   5.315   1.039   0.268
 8335SOL    HW225905   5.215   0.920   0.320
 8336SOL     OW25906   0.601   4.797   3.342
 8336SOL    HW125907   0.632   4.821   3.434
 8336SOL    HW225908   0.526   4.732   3.348
 8337SOL     OW25909   1.763   6.051   3.383
 8337SOL    HW125910   1.705   6.063   3.464
 8337SOL    HW225911   1.857   6.037   3.411
 8338SOL     OW25912   3.906   5.423   1.857
 8338SOL    HW125913   3.837   5.361   1.895
 8338SOL    HW225914   3.960   5.375   1.788
 8339SOL     OW25915   6.762   0.539   1.562
 8339SOL    HW125916   6.692   0.552   1.632
 8339SOL    HW225917   6.764   0.444   1.533
 8340SOL     OW25918   5.155   3.235   0.962
 8340SOL    HW125919   5.107   3.224   1.049
 8340SOL    HW225920   5.089   3.233   0.886
 8341SOL     OW25921   2.976   6.682   0.120
 8341SOL    HW125922   2.973   6.781   0.106
 8341SOL    HW225923   3.058   6.658   0.171
 8342SOL     OW25924   4.520   6.558   0.640
 8342SOL    HW125925   4.531   6.501   0.559
 8342SOL    HW225926   4.597   6.622   0.646
 8343SOL     OW25927   0.572   5.560   4.630
 8343SOL    HW125928   0.501   5.630   4.632
 8343SOL    HW225929   0.544   5.486   4.569
 8344SOL     OW25930   5.398   6.295   5.227
 8344SOL    HW125931   5.340   6.214   5.218
 8344SOL    HW225932   5.355   6.360   5.289
 8345SOL     OW25933   4.083   1.845   2.593
 8345SOL    HW125934   4.066   1.822   2.497
 8345SOL    HW225935   4.180   1.866   2.605
 8346SOL     OW25936   3.951   4.717   0.227
 8346SOL    HW125937   3.877   4.650   0.216
 8346SOL    HW225938   3.935   4.770   0.310
 8347SOL     OW25939   3.997   6.138   3.976
 8347SOL    HW125940   3.972   6.177   3.887
 8347SOL    HW225941   4.078   6.183   4.011
 8348SOL     OW25942   2.055   1.182   1.329
 8348SOL    HW125943   1.994   1.109   1.361
 8348SOL    HW225944   2.007   1.270   1.332
 8349SOL     OW25945   6.585   0.163   1.668
 8349SOL    HW125946   6.534   0.142   1.584
 8349SOL    HW225947   6.531   0.135   1.747
 8350SOL     OW25948   3.339   6.743   6.035
 8350SOL    HW125949   3.303   6.672   5.974
 8350SOL    HW225950   3.392   6.700   6.108
 8351SOL     OW25951   6.054   5.156   4.895
 8351SOL    HW125952   6.017   5.097   4.965
 8351SOL    HW225953   5.981   5.188   4.835
 8352SOL     OW25954   0.149   0.064   3.702
 8352SOL    HW125955   0.082   0.073   3.629
 8352SOL    HW225956   0.110   0.010   3.777
 8353SOL     OW25957   0.244   3.413   1.398
 8353SOL    HW125958   0.332   3.424   1.445
 8353SOL    HW225959   0.198   3.502   1.394
 8354SOL     OW25960   4.191   0.001   5.332
 8354SOL    HW125961   4.100   0.029   5.301
 8354SOL    HW225962   4.215   6.930   5.290
 8355SOL     OW25963   3.001   0.809   6.023
 8355SOL    HW125964   2.998   0.877   6.096
 8355SOL    HW225965   3.034   0.722   6.060
 8356SOL     OW25966   0.672   6.906   1.402
 8356SOL    HW125967   0.670   6.837   1.329
 8356SOL    HW225968   0.579   6.921   1.436
 8357SOL     OW25969   3.572   6.865   4.940
 8357SOL    HW125970   3.669   6.887   4.929
 8357SOL    HW225971   3.555   6.773   4.905
 8358SOL     OW25972   1.623   3.995   4.301
 8358SOL    HW125973   1.704   4.044   4.269
 8358SOL    HW225974   1.551   4.000   4.233
 8359SOL     OW25975   2.650   0.707   5.075
 8359SOL    HW125976   2.633   0.613   5.102
 8359SOL    HW225977   2.748   0.727   5.081
 8360SOL     OW25978   3.788   6.288   0.695
 8360SOL    HW125979   3.710   6.229   0.715
 8360SOL    HW225980   3.759   6.383   0.697
 8361SOL     OW25981   2.984   0.076   2.467
 8361SOL    HW125982   2.966   0.173   2.449
 8361SOL    HW225983   3.059   0.044   2.409
 8362SOL     OW25984   3.990   1.678   1.248
 8362SOL    HW125985   4.058   1.743   1.213
 8362SOL    HW225986   3.914   1.671   1.183
 8363SOL     OW25987   5.475   3.295   6.583
 8363SOL    HW125988   5.416   3.366   6.621
 8363SOL    HW225989   5.436   3.205   6.605
 8364SOL     OW25990   0.804   2.594   3.505
 8364SOL    HW125991   0.739   2.666   3.481
 8364SOL    HW225992   0.897   2.628   3.495
 8365SOL     OW25993   1.662   2.938   2.113
 8365SOL    HW125994   1.664   2.929   2.212
 8365SOL    HW225995   1.708   2.860   2.071
 8366SOL     OW25996   1.805   5.594   1.495
 8366SOL    HW125997   1.809   5.674   1.435
 8366SOL    HW225998   1.720   5.595   1.546
 8367SOL     OW25999   4.516   5.777   4.458
 8367SOL    HW126000   4.609   5.759   4.490
 8367SOL    HW226001   4.519   5.802   4.361
 8368SOL     OW26002   1.654   6.539   6.633
 8368SOL    HW126003   1.717   6.514   6.707
 8368SOL    HW226004   1.571   6.484   6.641
 8369SOL     OW26005   0.943   6.826   6.295
 8369SOL    HW126006   0.995   6.760   6.241
 8369SOL    HW226007   0.995   6.910   6.305
 8370SOL     OW26008   3.142   1.210   6.184
 8370SOL    HW126009   3.189   1.175   6.103
 8370SOL    HW226010   3.071   1.274   6.157
 8371SOL     OW26011   2.220   4.537   0.489
 8371SOL    HW126012   2.317   4.558   0.498
 8371SOL    HW226013   2.172   4.564   0.573
 8372SOL     OW26014   1.733   4.785   1.727
 8372SOL    HW126015   1.778   4.779   1.816
 8372SOL    HW226016   1.639   4.817   1.739
 8373SOL     OW26017   1.833   0.253   4.348
 8373SOL    HW126018   1.769   0.296   4.284
 8373SOL    HW226019   1.794   0.255   4.440
 8374SOL     OW26020   0.192   1.006   5.214
 8374SOL    HW126021   0.263   0.941   5.238
 8374SOL    HW226022   0.216   1.097   5.247
 8375SOL     OW26023   3.171   6.735   5.212
 8375SOL    HW126024   3.101   6.664   5.206
 8375SOL    HW226025   3.259   6.692   5.232
 8376SOL     OW26026   0.599   1.358   4.224
 8376SOL    HW126027   0.698   1.347   4.215
 8376SOL    HW226028   0.579   1.450   4.258
 8377SOL     OW26029   5.355   5.807   0.778
 8377SOL    HW126030   5.335   5.896   0.737
 8377SOL    HW226031   5.395   5.747   0.709
 8378SOL     OW26032   4.737   5.145   2.840
 8378SOL    HW126033   4.811   5.108   2.896
 8378SOL    HW226034   4.755   5.241   2.820
 8379SOL     OW26035   5.431   3.279   1.426
 8379SOL    HW126036   5.479   3.231   1.353
 8379SOL    HW226037   5.350   3.228   1.453
 8380SOL     OW26038   0.337   0.473   2.763
 8380SOL    HW126039   0.432   0.489   2.739
 8380SOL    HW226040   0.278   0.501   2.687
 8381SOL     OW26041   7.014   3.214   4.897
 8381SOL    HW126042   0.079   3.235   4.842
 8381SOL    HW226043   6.958   3.147   4.848
 8382SOL     OW26044   2.564   6.855   2.882
 8382SOL    HW126045   2.593   6.945   2.915
 8382SOL    HW226046   2.486   6.823   2.937
 8383SOL     OW26047   2.642   0.036   6.006
 8383SOL    HW126048   2.713   0.093   6.047
 8383SOL    HW226049   2.613   6.983   6.071
 8384SOL     OW26050   6.569   0.901   1.398
 8384SOL    HW126051   6.513   0.828   1.358
 8384SOL    HW226052   6.564   0.896   1.497
 8385SOL     OW26053   5.555   2.401   1.060
 8385SOL    HW126054   5.630   2.335   1.055
 8385SOL    HW226055   5.591   2.491   1.086
 8386SOL     OW26056   2.159   5.675   1.990
 8386SOL    HW126057   2.153   5.770   1.960
 8386SOL    HW226058   2.066   5.640   2.008
 8387SOL     OW26059   1.280   1.154   1.564
 8387SOL    HW126060   1.256   1.094   1.640
 8387SOL    HW226061   1.380   1.157   1.554
 8388SOL     OW26062   1.874   6.294   0.206
 8388SOL    HW126063   1.791   6.311   0.259
 8388SOL    HW226064   1.906   6.201   0.223
 8389SOL     OW26065   0.070   3.257   3.179
 8389SOL    HW126066   0.015   3.175   3.167
 8389SOL    HW226067   0.049   3.323   3.107
 8390SOL     OW26068   4.589   1.202   0.062
 8390SOL    HW126069   4.632   1.112   0.055
 8390SOL    HW226070   4.553   1.228   6.988
 8391SOL     OW26071   6.197   4.968   0.801
 8391SOL    HW126072   6.234   4.952   0.893
 8391SOL    HW226073   6.267   4.945   0.733
 8392SOL     OW26074   6.442   4.413   5.045
 8392SOL    HW126075   6.518   4.454   5.096
 8392SOL    HW226076   6.424   4.321   5.081
 8393SOL     OW26077   0.516   6.487   2.580
 8393SOL    HW126078   0.449   6.417   2.606
 8393SOL    HW226079   0.491   6.574   2.620
 8394SOL     OW26080   6.281   2.837   2.151
 8394SOL    HW126081   6.324   2.855   2.239
 8394SOL    HW226082   6.199   2.895   2.142
 8395SOL     OW26083   1.867   6.567   4.962
 8395SOL    HW126084   1.952   6.571   5.014
 8395SOL    HW226085   1.868   6.487   4.903
 8396SOL     OW26086   4.631   5.332   2.436
 8396SOL    HW126087   4.573   5.254   2.462
 8396SOL    HW226088   4.583   5.387   2.368
 8397SOL     OW26089   2.277   0.161   2.803
 8397SOL    HW126090   2.227   0.078   2.828
 8397SOL    HW226091   2.227   0.210   2.731
 8398SOL     OW26092   4.185   1.781   6.441
 8398SOL    HW126093   4.115   1.794   6.371
 8398SOL    HW226094   4.170   1.695   6.489
 8399SOL     OW26095   5.819   5.810   0.036
 8399SOL    HW126096   5.735   5.774   0.077
 8399SOL    HW226097   5.859   5.742   6.991
 8400SOL     OW26098   1.763   1.339   4.690
 8400SOL    HW126099   1.683   1.399   4.685
 8400SOL    HW226100   1.739   1.255   4.739
 8401SOL     OW26101   2.518   1.376   6.222
 8401SOL    HW126102   2.434   1.369   6.167
 8401SOL    HW226103   2.517   1.461   6.274
 8402SOL     OW26104   4.030   1.637   5.272
 8402SOL    HW126105   3.966   1.560   5.262
 8402SOL    HW226106   4.112   1.606   5.321
 8403SOL     OW26107   1.112   2.293   4.616
 8403SOL    HW126108   1.046   2.232   4.661
 8403SOL    HW226109   1.151   2.355   4.685
 8404SOL     OW26110   4.653   0.076   5.689
 8404SOL    HW126111   4.608   0.157   5.727
 8404SOL    HW226112   4.634   7.013   5.746
 8405SOL     OW26113   2.119   0.637   5.571
 8405SOL    HW126114   2.170   0.680   5.645
 8405SOL    HW226115   2.128   0.538   5.576
 8406SOL     OW26116   5.381   0.238   0.468
 8406SOL    HW126117   5.347   0.183   0.544
 8406SOL    HW226118   5.321   0.227   0.389
 8407SOL     OW26119   3.649   6.394   3.762
 8407SOL    HW126120   3.676   6.433   3.674
 8407SOL    HW226121   3.679   6.299   3.768
 8408SOL     OW26122   5.827   3.976   2.015
 8408SOL    HW126123   5.851   4.073   2.010
 8408SOL    HW226124   5.846   3.941   2.107
 8409SOL     OW26125   5.471   2.572   3.239
 8409SOL    HW126126   5.501   2.485   3.279
 8409SOL    HW226127   5.472   2.643   3.310
 8410SOL     OW26128   5.195   1.034   1.922
 8410SOL    HW126129   5.193   1.134   1.922
 8410SOL    HW226130   5.150   1.000   1.840
 8411SOL     OW26131   0.550   4.667   0.223
 8411SOL    HW126132   0.505   4.734   0.282
 8411SOL    HW226133   0.624   4.623   0.273
 8412SOL     OW26134   3.152   1.196   1.455
 8412SOL    HW126135   3.120   1.227   1.366
 8412SOL    HW226136   3.182   1.101   1.449
 8413SOL     OW26137   4.522   5.376   6.656
 8413SOL    HW126138   4.606   5.359   6.604
 8413SOL    HW226139   4.537   5.450   6.721
 8414SOL     OW26140   3.370   4.903   3.478
 8414SOL    HW126141   3.415   4.959   3.548
 8414SOL    HW226142   3.421   4.909   3.393
 8415SOL     OW26143   6.987   6.203   4.171
 8415SOL    HW126144   6.970   6.219   4.074
 8415SOL    HW226145   0.021   6.280   4.209
 8416SOL     OW26146   5.157   3.931   2.412
 8416SOL    HW126147   5.122   4.008   2.465
 8416SOL    HW226148   5.201   3.965   2.329
 8417SOL     OW26149   1.616   4.216   5.524
 8417SOL    HW126150   1.634   4.119   5.539
 8417SOL    HW226151   1.684   4.271   5.572
 8418SOL     OW26152   5.936   5.079   0.773
 8418SOL    HW126153   6.017   5.036   0.813
 8418SOL    HW226154   5.956   5.104   0.678
 8419SOL     OW26155   5.542   6.785   2.073
 8419SOL    HW126156   5.544   6.870   2.022
 8419SOL    HW226157   5.449   6.767   2.105
 8420SOL     OW26158   4.077   0.163   0.458
 8420SOL    HW126159   4.170   0.128   0.452
 8420SOL    HW226160   4.025   0.136   0.377
 8421SOL     OW26161   1.444   5.405   6.935
 8421SOL    HW126162   1.465   5.319   6.982
 8421SOL    HW226163   1.352   5.399   6.896
 8422SOL     OW26164   3.805   1.362   1.180
 8422SOL    HW126165   3.782   1.441   1.236
 8422SOL    HW226166   3.755   1.366   1.093
 8423SOL     OW26167   3.298   4.585   5.589
 8423SOL    HW126168   3.310   4.602   5.687
 8423SOL    HW226169   3.385   4.602   5.541
 8424SOL     OW26170   2.605   1.943   2.670
 8424SOL    HW126171   2.593   2.011   2.599
 8424SOL    HW226172   2.699   1.910   2.669
 8425SOL     OW26173   5.122   5.129   6.068
 8425SOL    HW126174   5.045   5.127   6.132
 8425SOL    HW226175   5.177   5.210   6.084
 8426SOL     OW26176   3.545   3.774   3.421
 8426SOL    HW126177   3.589   3.684   3.430
 8426SOL    HW226178   3.461   3.764   3.368
 8427SOL     OW26179   3.716   4.128   4.526
 8427SOL    HW126180   3.789   4.131   4.595
 8427SOL    HW226181   3.637   4.179   4.560
 8428SOL     OW26182   0.700   5.154   1.313
 8428SOL    HW126183   0.680   5.062   1.347
 8428SOL    HW226184   0.615   5.199   1.285
 8429SOL     OW26185   1.392   5.579   4.224
 8429SOL    HW126186   1.366   5.629   4.141
 8429SOL    HW226187   1.456   5.506   4.200
 8430SOL     OW26188   3.821   5.192   3.413
 8430SOL    HW126189   3.754   5.257   3.379
 8430SOL    HW226190   3.776   5.105   3.433
 8431SOL     OW26191   2.892   4.644   0.623
 8431SOL    HW126192   2.847   4.628   0.711
 8431SOL    HW226193   2.989   4.664   0.638
 8432SOL     OW26194   5.604   6.919   6.051
 8432SOL    HW126195   5.526   6.940   6.111
 8432SOL    HW226196   5.591   6.829   6.010
 8433SOL     OW26197   5.314   2.297   0.447
 8433SOL    HW126198   5.326   2.205   0.411
 8433SOL    HW226199   5.393   2.353   0.423
 8434SOL     OW26200   2.875   6.745   5.038
 8434SOL    HW126201   2.876   6.805   5.118
 8434SOL    HW226202   2.783   6.740   5.000
 8435SOL     OW26203   6.452   0.882   2.128
 8435SOL    HW126204   6.501   0.968   2.114
 8435SOL    HW226205   6.366   0.900   2.174
 8436SOL     OW26206   3.700   6.833   3.559
 8436SOL    HW126207   3.628   6.903   3.562
 8436SOL    HW226208   3.788   6.875   3.580
 8437SOL     OW26209   2.115   0.629   4.436
 8437SOL    HW126210   2.053   0.665   4.367
 8437SOL    HW226211   2.195   0.589   4.392
 8438SOL     OW26212   2.459   4.455   2.404
 8438SOL    HW126213   2.491   4.451   2.499
 8438SOL    HW226214   2.518   4.516   2.351
 8439SOL     OW26215   6.894   5.091   2.736
 8439SOL    HW126216   6.924   5.035   2.658
 8439SOL    HW226217   6.808   5.137   2.712
 8440SOL     OW26218   1.518   2.274   3.735
 8440SOL    HW126219   1.451   2.348   3.737
 8440SOL    HW226220   1.515   2.223   3.821
 8441SOL     OW26221   6.292   6.475   0.705
 8441SOL    HW126222   6.197   6.447   0.691
 8441SOL    HW226223   6.329   6.510   0.620
 8442SOL     OW26224   3.439   1.696   4.926
 8442SOL    HW126225   3.360   1.752   4.950
 8442SOL    HW226226   3.508   1.753   4.883
 8443SOL     OW26227   2.397   4.699   3.761
 8443SOL    HW126228   2.344   4.638   3.701
 8443SOL    HW226229   2.347   4.712   3.847
 8444SOL     OW26230   2.533   6.168   4.133
 8444SOL    HW126231   2.536   6.238   4.205
 8444SOL    HW226232   2.519   6.212   4.045
 8445SOL     OW26233   4.017   6.495   0.942
 8445SOL    HW126234   4.115   6.475   0.939
 8445SOL    HW226235   3.977   6.455   1.025
 8446SOL     OW26236   4.483   4.534   6.717
 8446SOL    HW126237   4.393   4.553   6.679
 8446SOL    HW226238   4.494   4.583   6.804
 8447SOL     OW26239   4.609   1.394   2.138
 8447SOL    HW126240   4.632   1.446   2.055
 8447SOL    HW226241   4.553   1.451   2.198
 8448SOL     OW26242   4.254   5.927   4.206
 8448SOL    HW126243   4.333   5.877   4.171
 8448SOL    HW226244   4.273   6.025   4.200
 8449SOL     OW26245   6.795   2.875   3.618
 8449SOL    HW126246   6.807   2.778   3.601
 8449SOL    HW226247   6.795   2.925   3.532
 8450SOL     OW26248   0.438   6.447   1.348
 8450SOL    HW126249   0.521   6.397   1.371
 8450SOL    HW226250   0.433   6.461   1.249
 8451SOL     OW26251   4.322   1.684   0.429
 8451SOL    HW126252   4.272   1.625   0.367
 8451SOL    HW226253   4.347   1.769   0.382
 8452SOL     OW26254   5.826   1.600   2.563
 8452SOL    HW126255   5.903   1.592   2.501
 8452SOL    HW226256   5.837   1.681   2.621
 8453SOL     OW26257   0.202   4.318   6.612
 8453SOL    HW126258   0.109   4.286   6.594
 8453SOL    HW226259   0.221   4.312   6.710
 8454SOL     OW26260   6.852   6.609   1.730
 8454SOL    HW126261   6.884   6.549   1.803
 8454SOL    HW226262   6.807   6.555   1.659
 8455SOL     OW26263   6.170   2.625   1.993
 8455SOL    HW126264   6.073   2.646   1.993
 8455SOL    HW226265   6.220   2.698   2.039
 8456SOL     OW26266   3.911   5.757   3.125
 8456SOL    HW126267   3.979   5.710   3.069
 8456SOL    HW226268   3.915   5.855   3.108
 8457SOL     OW26269   6.552   6.836   4.636
 8457SOL    HW126270   6.612   6.855   4.714
 8457SOL    HW226271   6.457   6.848   4.663
 8458SOL     OW26272   3.325   1.481   6.741
 8458SOL    HW126273   3.299   1.563   6.690
 8458SOL    HW226274   3.265   1.405   6.716
 8459SOL     OW26275   2.774   5.600   2.089
 8459SOL    HW126276   2.736   5.691   2.070
 8459SOL    HW226277   2.700   5.533   2.093
 8460SOL     OW26278   4.192   4.226   5.347
 8460SOL    HW126279   4.219   4.304   5.290
 8460SOL    HW226280   4.231   4.142   5.309
 8461SOL     OW26281   0.489   4.016   4.293
 8461SOL    HW126282   0.421   3.948   4.264
 8461SOL    HW226283   0.534   4.054   4.212
 8462SOL     OW26284   2.815   2.886   6.440
 8462SOL    HW126285   2.718   2.904   6.459
 8462SOL    HW226286   2.852   2.958   6.382
 8463SOL     OW26287   6.675   0.286   1.310
 8463SOL    HW126288   6.661   0.251   1.217
 8463SOL    HW226289   6.637   0.378   1.317
 8464SOL     OW26290   5.740   3.244   4.511
 8464SOL    HW126291   5.795   3.162   4.498
 8464SOL    HW226292   5.724   3.258   4.609
 8465SOL     OW26293   0.932   2.869   0.777
 8465SOL    HW126294   1.014   2.811   0.774
 8465SOL    HW226295   0.894   2.878   0.685
 8466SOL     OW26296   0.019   6.935   3.900
 8466SOL    HW126297   0.046   6.839   3.894
 8466SOL    HW226298   6.940   6.944   3.873
 8467SOL     OW26299   4.351   0.078   0.475
 8467SOL    HW126300   4.398   7.007   0.461
 8467SOL    HW226301   4.398   0.130   0.547
 8468SOL     OW26302   3.660   2.423   6.780
 8468SOL    HW126303   3.642   2.343   6.723
 8468SOL    HW226304   3.573   2.463   6.810
 8469SOL     OW26305   3.544   2.077   6.702
 8469SOL    HW126306   3.479   2.076   6.627
 8469SOL    HW226307   3.509   2.135   6.775
 8470SOL     OW26308   1.402   3.737   6.821
 8470SOL    HW126309   1.332   3.770   6.884
 8470SOL    HW226310   1.417   3.805   6.750
 8471SOL     OW26311   3.023   1.163   3.625
 8471SOL    HW126312   2.994   1.143   3.719
 8471SOL    HW226313   3.095   1.099   3.599
 8472SOL     OW26314   6.929   0.993   4.630
 8472SOL    HW126315   6.859   0.934   4.668
 8472SOL    HW226316   7.002   0.937   4.590
 8473SOL     OW26317   6.526   5.977   6.489
 8473SOL    HW126318   6.560   6.070   6.502
 8473SOL    HW226319   6.444   5.979   6.431
 8474SOL     OW26320   3.489   2.867   1.649
 8474SOL    HW126321   3.451   2.905   1.564
 8474SOL    HW226322   3.419   2.870   1.720
 8475SOL     OW26323   0.059   2.458   3.452
 8475SOL    HW126324   0.035   2.548   3.414
 8475SOL    HW226325   0.134   2.419   3.400
 8476SOL     OW26326   6.929   2.214   1.108
 8476SOL    HW126327   6.842   2.186   1.066
 8476SOL    HW226328   6.911   2.263   1.192
 8477SOL     OW26329   4.705   6.274   1.004
 8477SOL    HW126330   4.676   6.368   0.989
 8477SOL    HW226331   4.805   6.270   1.008
 8478SOL     OW26332   1.241   6.589   5.842
 8478SOL    HW126333   1.255   6.675   5.794
 8478SOL    HW226334   1.153   6.550   5.816
 8479SOL     OW26335   0.619   2.468   1.418
 8479SOL    HW126336   0.712   2.430   1.418
 8479SOL    HW226337   0.562   2.417   1.353
 8480SOL     OW26338   4.881   1.301   0.172
 8480SOL    HW126339   4.825   1.372   0.213
 8480SOL    HW226340   4.839   1.212   0.187
 8481SOL     OW26341   3.929   2.182   3.817
 8481SOL    HW126342   4.009   2.238   3.841
 8481SOL    HW226343   3.959   2.098   3.772
 8482SOL     OW26344   4.199   5.684   1.755
 8482SOL    HW126345   4.225   5.743   1.678
 8482SOL    HW226346   4.114   5.718   1.796
 8483SOL     OW26347   4.455   6.211   2.566
 8483SOL    HW126348   4.364   6.171   2.571
 8483SOL    HW226349   4.511   6.161   2.500
 8484SOL     OW26350   0.788   5.954   3.362
 8484SOL    HW126351   0.808   5.906   3.448
 8484SOL    HW226352   0.722   5.901   3.309
 8485SOL     OW26353   3.474   3.249   0.200
 8485SOL    HW126354   3.418   3.315   0.150
 8485SOL    HW226355   3.428   3.160   0.200
 8486SOL     OW26356   3.827   0.817   3.030
 8486SOL    HW126357   3.843   0.747   2.960
 8486SOL    HW226358   3.915   0.858   3.056
 8487SOL     OW26359   5.629   1.823   5.968
 8487SOL    HW126360   5.558   1.892   5.961
 8487SOL    HW226361   5.598   1.739   5.923
 8488SOL     OW26362   5.882   5.616   6.889
 8488SOL    HW126363   5.787   5.593   6.866
 8488SOL    HW226364   5.920   5.546   6.949
 8489SOL     OW26365   6.241   1.663   1.097
 8489SOL    HW126366   6.188   1.739   1.135
 8489SOL    HW226367   6.257   1.595   1.168
 8490SOL     OW26368   4.383   6.645   3.964
 8490SOL    HW126369   4.472   6.657   3.919
 8490SOL    HW226370   4.310   6.650   3.896
 8491SOL     OW26371   2.185   6.098   0.397
 8491SOL    HW126372   2.146   6.189   0.380
 8491SOL    HW226373   2.176   6.042   0.314
 8492SOL     OW26374   4.723   4.099   6.457
 8492SOL    HW126375   4.644   4.039   6.442
 8492SOL    HW226376   4.753   4.136   6.370
 8493SOL     OW26377   2.448   2.738   6.009
 8493SOL    HW126378   2.445   2.779   5.918
 8493SOL    HW226379   2.442   2.639   6.001
 8494SOL     OW26380   3.149   5.583   1.103
 8494SOL    HW126381   3.173   5.573   1.200
 8494SOL    HW226382   3.231   5.609   1.051
 8495SOL     OW26383   6.632   4.898   2.246
 8495SOL    HW126384   6.588   4.825   2.298
 8495SOL    HW226385   6.575   4.924   2.169
 8496SOL     OW26386   0.918   2.052   1.973
 8496SOL    HW126387   1.005   2.017   2.008
 8496SOL    HW226388   0.868   2.098   2.046
 8497SOL     OW26389   5.989   0.900   3.546
 8497SOL    HW126390   5.918   0.843   3.587
 8497SOL    HW226391   5.987   0.889   3.447
 8498SOL     OW26392   0.486   6.604   2.962
 8498SOL    HW126393   0.440   6.519   2.938
 8498SOL    HW226394   0.570   6.584   3.012
 8499SOL     OW26395   1.995   4.338   6.485
 8499SOL    HW126396   2.003   4.368   6.389
 8499SOL    HW226397   2.037   4.407   6.544
 8500SOL     OW26398   2.008   6.597   5.345
 8500SOL    HW126399   2.058   6.584   5.259
 8500SOL    HW226400   1.912   6.575   5.331
 8501SOL     OW26401   0.655   1.656   0.066
 8501SOL    HW126402   0.691   1.625   6.994
 8501SOL    HW226403   0.565   1.697   0.053
 8502SOL     OW26404   1.692   4.286   1.347
 8502SOL    HW126405   1.597   4.256   1.351
 8502SOL    HW226406   1.715   4.335   1.430
 8503SOL     OW26407   2.036   0.016   4.389
 8503SOL    HW126408   2.059   6.986   4.303
 8503SOL    HW226409   1.969   0.088   4.372
 8504SOL     OW26410   2.306   5.244   2.505
 8504SOL    HW126411   2.386   5.190   2.532
 8504SOL    HW226412   2.274   5.297   2.583
 8505SOL     OW26413   4.916   3.418   3.678
 8505SOL    HW126414   4.867   3.333   3.660
 8505SOL    HW226415   4.923   3.471   3.593
 8506SOL     OW26416   6.782   1.525   6.630
 8506SOL    HW126417   6.808   1.433   6.660
 8506SOL    HW226418   6.695   1.550   6.672
 8507SOL     OW26419   3.400   0.982   5.699
 8507SOL    HW126420   3.500   0.985   5.701
 8507SOL    HW226421   3.369   0.902   5.751
 8508SOL     OW26422   6.063   1.998   5.071
 8508SOL    HW126423   6.099   1.945   5.148
 8508SOL    HW226424   5.967   1.974   5.056
 8509SOL     OW26425   4.263   1.481   3.278
 8509SOL    HW126426   4.232   1.576   3.276
 8509SOL    HW226427   4.361   1.477   3.297
 8510SOL     OW26428   5.859   3.872   3.502
 8510SOL    HW126429   5.828   3.846   3.410
 8510SOL    HW226430   5.792   3.935   3.543
 8511SOL     OW26431   6.824   4.008   1.334
 8511SOL    HW126432   6.819   3.909   1.346
 8511SOL    HW226433   6.917   4.034   1.309
 8512SOL     OW26434   3.722   2.007   1.610
 8512SOL    HW126435   3.674   2.014   1.697
 8512SOL    HW226436   3.808   2.057   1.614
 8513SOL     OW26437   4.994   3.922   1.414
 8513SOL    HW126438   4.987   3.924   1.314
 8513SOL    HW226439   5.090   3.931   1.441
 8514SOL     OW26440   2.319   2.371   3.588
 8514SOL    HW126441   2.352   2.312   3.514
 8514SOL    HW226442   2.347   2.465   3.570
 8515SOL     OW26443   5.676   1.772   0.851
 8515SOL    HW126444   5.763   1.779   0.803
 8515SOL    HW226445   5.617   1.706   0.804
 8516SOL     OW26446   6.584   1.929   1.348
 8516SOL    HW126447   6.580   1.949   1.250
 8516SOL    HW226448   6.632   1.841   1.361
 8517SOL     OW26449   1.565   3.210   6.182
 8517SOL    HW126450   1.603   3.301   6.195
 8517SOL    HW226451   1.585   3.153   6.262
 8518SOL     OW26452   4.890   3.863   0.585
 8518SOL    HW126453   4.842   3.922   0.520
 8518SOL    HW226454   4.954   3.918   0.639
 8519SOL     OW26455   1.376   4.245   1.444
 8519SOL    HW126456   1.444   4.228   1.515
 8519SOL    HW226457   1.348   4.158   1.403
 8520SOL     OW26458   3.242   3.037   0.194
 8520SOL    HW126459   3.171   3.044   0.264
 8520SOL    HW226460   3.303   2.962   0.217
 8521SOL     OW26461   1.906   5.480   5.945
 8521SOL    HW126462   1.814   5.518   5.936
 8521SOL    HW226463   1.968   5.551   5.978
 8522SOL     OW26464   1.261   6.274   2.060
 8522SOL    HW126465   1.186   6.315   2.008
 8522SOL    HW226466   1.255   6.174   2.054
 8523SOL     OW26467   1.667   6.623   7.006
 8523SOL    HW126468   1.643   6.707   6.957
 8523SOL    HW226469   1.584   6.577   0.022
 8524SOL     OW26470   0.297   2.598   4.878
 8524SOL    HW126471   0.353   2.531   4.927
 8524SOL    HW226472   0.260   2.555   4.796
 8525SOL     OW26473   6.341   4.126   2.674
 8525SOL    HW126474   6.366   4.098   2.582
 8525SOL    HW226475   6.257   4.180   2.671
 8526SOL     OW26476   3.918   5.911   6.153
 8526SOL    HW126477   3.914   5.811   6.144
 8526SOL    HW226478   4.007   5.938   6.188
 8527SOL     OW26479   2.997   0.978   6.240
 8527SOL    HW126480   3.057   1.050   6.206
 8527SOL    HW226481   3.002   0.974   6.340
 8528SOL     OW26482   4.006   1.231   6.221
 8528SOL    HW126483   3.977   1.182   6.302
 8528SOL    HW226484   4.097   1.198   6.192
 8529SOL     OW26485   0.843   0.829   0.966
 8529SOL    HW126486   0.903   0.870   1.035
 8529SOL    HW226487   0.859   0.875   0.878
 8530SOL     OW26488   3.640   3.983   5.377
 8530SOL    HW126489   3.581   3.913   5.417
 8530SOL    HW226490   3.648   4.061   5.439
 8531SOL     OW26491   6.435   5.188   2.423
 8531SOL    HW126492   6.391   5.125   2.359
 8531SOL    HW226493   6.532   5.168   2.428
 8532SOL     OW26494   4.186   4.839   4.415
 8532SOL    HW126495   4.248   4.914   4.439
 8532SOL    HW226496   4.240   4.757   4.395
 8533SOL     OW26497   1.262   0.031   6.776
 8533SOL    HW126498   1.192   6.984   6.743
 8533SOL    HW226499   1.237   0.064   6.867
 8534SOL     OW26500   6.538   2.920   3.752
 8534SOL    HW126501   6.618   2.860   3.740
 8534SOL    HW226502   6.518   2.966   3.665
 8535SOL     OW26503   6.500   1.662   4.481
 8535SOL    HW126504   6.548   1.726   4.540
 8535SOL    HW226505   6.479   1.706   4.394
 8536SOL     OW26506   6.653   2.700   4.763
 8536SOL    HW126507   6.632   2.611   4.805
 8536SOL    HW226508   6.618   2.702   4.670
 8537SOL     OW26509   5.302   1.478   2.129
 8537SOL    HW126510   5.281   1.436   2.041
 8537SOL    HW226511   5.272   1.573   2.129
 8538SOL     OW26512   0.576   1.016   6.753
 8538SOL    HW126513   0.547   1.048   6.843
 8538SOL    HW226514   0.662   0.966   6.761
 8539SOL     OW26515   5.363   0.877   2.354
 8539SOL    HW126516   5.368   0.830   2.266
 8539SOL    HW226517   5.291   0.835   2.410
 8540SOL     OW26518   4.598   0.416   6.856
 8540SOL    HW126519   4.638   0.332   6.820
 8540SOL    HW226520   4.604   0.488   6.786
 8541SOL     OW26521   2.586   1.510   4.432
 8541SOL    HW126522   2.684   1.528   4.440
 8541SOL    HW226523   2.563   1.425   4.479
 8542SOL     OW26524   3.610   4.792   6.380
 8542SOL    HW126525   3.646   4.865   6.322
 8542SOL    HW226526   3.510   4.788   6.372
 8543SOL     OW26527   3.307   0.686   0.823
 8543SOL    HW126528   3.214   0.700   0.789
 8543SOL    HW226529   3.306   0.615   0.894
 8544SOL     OW26530   5.348   3.191   4.856
 8544SOL    HW126531   5.254   3.157   4.853
 8544SOL    HW226532   5.349   3.290   4.843
 8545SOL     OW26533   4.861   6.709   5.005
 8545SOL    HW126534   4.937   6.692   4.942
 8545SOL    HW226535   4.781   6.657   4.975
 8546SOL     OW26536   6.787   1.227   3.499
 8546SOL    HW126537   6.884   1.204   3.489
 8546SOL    HW226538   6.773   1.324   3.481
 8547SOL     OW26539   1.388   6.718   6.345
 8547SOL    HW126540   1.370   6.730   6.248
 8547SOL    HW226541   1.486   6.722   6.362
 8548SOL     OW26542   5.857   3.456   5.461
 8548SOL    HW126543   5.886   3.442   5.366
 8548SOL    HW226544   5.821   3.370   5.498
 8549SOL     OW26545   1.068   2.953   4.378
 8549SOL    HW126546   1.065   2.862   4.336
 8549SOL    HW226547   1.096   2.944   4.473
 8550SOL     OW26548   1.761   4.771   0.325
 8550SOL    HW126549   1.689   4.770   0.395
 8550SOL    HW226550   1.721   4.793   0.236
 8551SOL     OW26551   3.221   3.420   6.486
 8551SOL    HW126552   3.284   3.462   6.551
 8551SOL    HW226553   3.202   3.485   6.412
 8552SOL     OW26554   2.464   0.421   3.695
 8552SOL    HW126555   2.545   0.364   3.686
 8552SOL    HW226556   2.383   0.363   3.706
 8553SOL     OW26557   4.230   4.157   6.630
 8553SOL    HW126558   4.142   4.194   6.601
 8553SOL    HW226559   4.299   4.177   6.560
 8554SOL     OW26560   1.114   4.635   0.543
 8554SOL    HW126561   1.179   4.706   0.517
 8554SOL    HW226562   1.163   4.556   0.579
 8555SOL     OW26563   1.860   1.490   3.461
 8555SOL    HW126564   1.953   1.459   3.445
 8555SOL    HW226565   1.861   1.583   3.498
 8556SOL     OW26566   1.588   6.044   4.771
 8556SOL    HW126567   1.497   6.036   4.732
 8556SOL    HW226568   1.643   5.964   4.743
 8557SOL     OW26569   5.679   6.688   3.181
 8557SOL    HW126570   5.755   6.747   3.207
 8557SOL    HW226571   5.605   6.743   3.143
 8558SOL     OW26572   2.645   4.679   2.981
 8558SOL    HW126573   2.624   4.661   3.077
 8558SOL    HW226574   2.572   4.735   2.941
 8559SOL     OW26575   1.261   0.141   2.719
 8559SOL    HW126576   1.329   0.068   2.728
 8559SOL    HW226577   1.170   0.100   2.715
 8560SOL     OW26578   6.817   6.208   1.681
 8560SOL    HW126579   6.731   6.209   1.732
 8560SOL    HW226580   6.892   6.234   1.742
 8561SOL     OW26581   2.803   0.388   2.654
 8561SOL    HW126582   2.873   0.348   2.712
 8561SOL    HW226583   2.724   0.413   2.710
 8562SOL     OW26584   4.238   6.139   5.437
 8562SOL    HW126585   4.297   6.205   5.483
 8562SOL    HW226586   4.293   6.076   5.383
 8563SOL     OW26587   1.752   4.603   6.812
 8563SOL    HW126588   1.836   4.551   6.822
 8563SOL    HW226589   1.769   4.698   6.838
 8564SOL     OW26590   2.877   0.991   5.335
 8564SOL    HW126591   2.877   0.935   5.418
 8564SOL    HW226592   2.898   1.086   5.359
 8565SOL     OW26593   3.543   5.785   1.197
 8565SOL    HW126594   3.640   5.806   1.186
 8565SOL    HW226595   3.505   5.756   1.110
 8566SOL     OW26596   1.938   0.317   1.182
 8566SOL    HW126597   1.911   0.223   1.202
 8566SOL    HW226598   1.856   0.370   1.159
 8567SOL     OW26599   0.201   2.800   2.687
 8567SOL    HW126600   0.242   2.748   2.611
 8567SOL    HW226601   0.261   2.876   2.711
 8568SOL     OW26602   5.308   1.262   6.638
 8568SOL    HW126603   5.397   1.247   6.681
 8568SOL    HW226604   5.242   1.197   6.675
 8569SOL     OW26605   5.086   0.975   6.087
 8569SOL    HW126606   5.103   0.948   5.992
 8569SOL    HW226607   5.152   1.046   6.114
 8570SOL     OW26608   1.648   1.901   5.172
 8570SOL    HW126609   1.704   1.926   5.094
 8570SOL    HW226610   1.707   1.875   5.249
 8571SOL     OW26611   1.463   5.856   5.195
 8571SOL    HW126612   1.466   5.942   5.145
 8571SOL    HW226613   1.370   5.840   5.227
 8572SOL     OW26614   2.952   4.558   6.459
 8572SOL    HW126615   2.924   4.533   6.366
 8572SOL    HW226616   2.908   4.644   6.485
 8573SOL     OW26617   3.152   5.994   6.146
 8573SOL    HW126618   3.105   5.922   6.197
 8573SOL    HW226619   3.237   5.957   6.106
 8574SOL     OW26620   6.782   5.988   6.005
 8574SOL    HW126621   6.858   5.938   6.046
 8574SOL    HW226622   6.708   5.996   6.072
 8575SOL     OW26623   2.414   2.728   4.521
 8575SOL    HW126624   2.317   2.702   4.524
 8575SOL    HW226625   2.458   2.700   4.607
 8576SOL     OW26626   1.364   5.296   6.095
 8576SOL    HW126627   1.285   5.353   6.072
 8576SOL    HW226628   1.393   5.245   6.014
 8577SOL     OW26629   0.334   6.806   4.720
 8577SOL    HW126630   0.284   6.755   4.790
 8577SOL    HW226631   0.308   6.773   4.629
 8578SOL     OW26632   5.525   6.984   3.894
 8578SOL    HW126633   5.618   0.003   3.898
 8578SOL    HW226634   5.520   6.897   3.943
 8579SOL     OW26635   1.602   0.168   2.460
 8579SOL    HW126636   1.693   0.132   2.439
 8579SOL    HW226637   1.543   0.159   2.379
 8580SOL     OW26638   1.863   6.210   2.079
 8580SOL    HW126639   1.788   6.243   2.022
 8580SOL    HW226640   1.826   6.163   2.160
 8581SOL     OW26641   3.323   3.976   1.898
 8581SOL    HW126642   3.291   3.998   1.990
 8581SOL    HW226643   3.343   3.878   1.892
 8582SOL     OW26644   4.445   4.603   3.272
 8582SOL    HW126645   4.438   4.548   3.189
 8582SOL    HW226646   4.462   4.698   3.247
 8583SOL     OW26647   5.788   0.497   4.003
 8583SOL    HW126648   5.864   0.462   3.949
 8583SOL    HW226649   5.755   0.583   3.962
 8584SOL     OW26650   1.405   4.497   5.517
 8584SOL    HW126651   1.394   4.442   5.434
 8584SOL    HW226652   1.377   4.591   5.499
 8585SOL     OW26653   0.662   6.107   6.047
 8585SOL    HW126654   0.744   6.160   6.068
 8585SOL    HW226655   0.586   6.169   6.027
 8586SOL     OW26656   2.589   6.632   2.357
 8586SOL    HW126657   2.676   6.592   2.327
 8586SOL    HW226658   2.605   6.690   2.437
 8587SOL     OW26659   1.288   6.787   4.027
 8587SOL    HW126660   1.206   6.812   4.078
 8587SOL    HW226661   1.264   6.719   3.957
 8588SOL     OW26662   2.779   1.212   0.303
 8588SOL    HW126663   2.771   1.303   0.262
 8588SOL    HW226664   2.816   1.221   0.396
 8589SOL     OW26665   4.797   3.106   5.331
 8589SOL    HW126666   4.757   3.195   5.307
 8589SOL    HW226667   4.756   3.073   5.416
 8590SOL     OW26668   6.854   6.221   4.456
 8590SOL    HW126669   6.779   6.284   4.439
 8590SOL    HW226670   6.819   6.138   4.499
 8591SOL     OW26671   0.705   3.902   0.319
 8591SOL    HW126672   0.677   3.806   0.315
 8591SOL    HW226673   0.801   3.910   0.292
 8592SOL     OW26674   6.870   3.027   6.355
 8592SOL    HW126675   6.895   3.096   6.286
 8592SOL    HW226676   6.797   2.969   6.318
 8593SOL     OW26677   2.402   0.345   1.099
 8593SOL    HW126678   2.435   0.439   1.111
 8593SOL    HW226679   2.480   0.282   1.097
 8594SOL     OW26680   4.398   2.275   5.331
 8594SOL    HW126681   4.473   2.336   5.359
 8594SOL    HW226682   4.424   2.180   5.349
 8595SOL     OW26683   0.517   2.583   3.206
 8595SOL    HW126684   0.612   2.557   3.224
 8595SOL    HW226685   0.479   2.524   3.135
 8596SOL     OW26686   0.846   5.658   3.418
 8596SOL    HW126687   0.826   5.691   3.510
 8596SOL    HW226688   0.796   5.573   3.402
 8597SOL     OW26689   4.117   1.568   1.449
 8597SOL    HW126690   4.162   1.642   1.498
 8597SOL    HW226691   4.054   1.606   1.381
 8598SOL     OW26692   6.028   6.924   0.964
 8598SOL    HW126693   6.080   6.852   1.011
 8598SOL    HW226694   5.945   6.884   0.925
 8599SOL     OW26695   1.086   2.910   4.651
 8599SOL    HW126696   1.062   2.996   4.696
 8599SOL    HW226697   1.005   2.853   4.641
 8600SOL     OW26698   5.071   5.275   4.820
 8600SOL    HW126699   5.004   5.222   4.768
 8600SOL    HW226700   5.025   5.327   4.892
 8601SOL     OW26701   0.836   1.111   4.900
 8601SOL    HW126702   0.923   1.134   4.856
 8601SOL    HW226703   0.846   1.024   4.949
 8602SOL     OW26704   2.722   5.308   2.422
 8602SOL    HW126705   2.631   5.284   2.388
 8602SOL    HW226706   2.732   5.276   2.516
 8603SOL     OW26707   4.034   5.756   0.527
 8603SOL    HW126708   4.017   5.668   0.572
 8603SOL    HW226709   3.996   5.755   0.435
 8604SOL     OW26710   0.195   2.368   5.166
 8604SOL    HW126711   0.228   2.441   5.226
 8604SOL    HW226712   0.150   2.297   5.220
 8605SOL     OW26713   3.080   6.116   4.084
 8605SOL    HW126714   3.064   6.080   4.176
 8605SOL    HW226715   3.033   6.203   4.074
 8606SOL     OW26716   1.424   3.843   6.125
 8606SOL    HW126717   1.445   3.913   6.056
 8606SOL    HW226718   1.509   3.818   6.173
 8607SOL     OW26719   3.506   6.065   0.917
 8607SOL    HW126720   3.518   6.043   0.820
 8607SOL    HW226721   3.567   6.141   0.941
 8608SOL     OW26722   4.033   5.205   2.713
 8608SOL    HW126723   3.944   5.165   2.693
 8608SOL    HW226724   4.090   5.202   2.631
 8609SOL     OW26725   4.915   0.826   2.634
 8609SOL    HW126726   4.868   0.792   2.715
 8609SOL    HW226727   5.003   0.778   2.624
 8610SOL     OW26728   1.663   2.491   2.966
 8610SOL    HW126729   1.596   2.425   2.999
 8610SOL    HW226730   1.656   2.500   2.867
 8611SOL     OW26731   2.831   1.737   4.730
 8611SOL    HW126732   2.889   1.816   4.748
 8611SOL    HW226733   2.868   1.657   4.777
 8612SOL     OW26734   3.377   2.992   1.441
 8612SOL    HW126735   3.383   3.045   1.356
 8612SOL    HW226736   3.287   3.005   1.483
 8613SOL     OW26737   2.306   1.859   1.404
 8613SOL    HW126738   2.342   1.947   1.433
 8613SOL    HW226739   2.325   1.790   1.473
 8614SOL     OW26740   0.963   2.605   2.145
 8614SOL    HW126741   0.906   2.523   2.138
 8614SOL    HW226742   0.992   2.633   2.054
 8615SOL     OW26743   4.520   1.624   5.502
 8615SOL    HW126744   4.482   1.626   5.594
 8615SOL    HW226745   4.609   1.579   5.503
 8616SOL     OW26746   3.074   4.709   1.814
 8616SOL    HW126747   3.069   4.721   1.715
 8616SOL    HW226748   3.014   4.635   1.842
 8617SOL     OW26749   6.561   1.102   6.877
 8617SOL    HW126750   6.575   1.028   6.812
 8617SOL    HW226751   6.650   1.138   6.907
 8618SOL     OW26752   6.039   5.604   0.374
 8618SOL    HW126753   6.073   5.537   0.440
 8618SOL    HW226754   6.105   5.678   0.365
 8619SOL     OW26755   3.686   4.955   1.922
 8619SOL    HW126756   3.763   4.923   1.978
 8619SOL    HW226757   3.615   4.885   1.921
 8620SOL     OW26758   1.770   0.613   3.907
 8620SOL    HW126759   1.767   0.650   3.814
 8620SOL    HW226760   1.682   0.572   3.930
 8621SOL     OW26761   5.761   1.589   2.831
 8621SOL    HW126762   5.792   1.598   2.736
 8621SOL    HW226763   5.719   1.675   2.861
 8622SOL     OW26764   5.312   3.275   0.456
 8622SOL    HW126765   5.274   3.309   0.542
 8622SOL    HW226766   5.364   3.192   0.475
 8623SOL     OW26767   1.161   3.540   4.273
 8623SOL    HW126768   1.123   3.466   4.328
 8623SOL    HW226769   1.155   3.516   4.176
 8624SOL     OW26770   1.372   3.762   4.700
 8624SOL    HW126771   1.450   3.792   4.645
 8624SOL    HW226772   1.290   3.810   4.671
 8625SOL     OW26773   4.299   0.413   5.691
 8625SOL    HW126774   4.272   0.330   5.740
 8625SOL    HW226775   4.355   0.388   5.612
 8626SOL     OW26776   3.726   3.265   5.290
 8626SOL    HW126777   3.723   3.359   5.326
 8626SOL    HW226778   3.735   3.201   5.366
 8627SOL     OW26779   0.867   1.299   3.495
 8627SOL    HW126780   0.772   1.281   3.470
 8627SOL    HW226781   0.890   1.249   3.578
 8628SOL     OW26782   6.861   6.191   0.611
 8628SOL    HW126783   6.945   6.229   0.574
 8628SOL    HW226784   6.820   6.128   0.544
 8629SOL     OW26785   1.234   5.446   5.244
 8629SOL    HW126786   1.259   5.381   5.172
 8629SOL    HW226787   1.146   5.488   5.221
 8630SOL     OW26788   5.242   4.111   3.648
 8630SOL    HW126789   5.280   4.105   3.740
 8630SOL    HW226790   5.234   4.207   3.621
 8631SOL     OW26791   1.248   4.888   6.217
 8631SOL    HW126792   1.301   4.807   6.243
 8631SOL    HW226793   1.154   4.861   6.197
 8632SOL     OW26794   3.731   5.590   4.211
 8632SOL    HW126795   3.634   5.602   4.230
 8632SOL    HW226796   3.780   5.674   4.234
 8633SOL     OW26797   4.859   1.675   5.779
 8633SOL    HW126798   4.886   1.580   5.761
 8633SOL    HW226799   4.841   1.721   5.693
 8634SOL     OW26800   5.229   3.518   0.701
 8634SOL    HW126801   5.275   3.598   0.664
 8634SOL    HW226802   5.289   3.473   0.768
 8635SOL     OW26803   5.306   4.383   6.515
 8635SOL    HW126804   5.237   4.399   6.444
 8635SOL    HW226805   5.369   4.312   6.484
 8636SOL     OW26806   4.961   5.705   1.100
 8636SOL    HW126807   4.973   5.632   1.166
 8636SOL    HW226808   4.996   5.676   1.011
 8637SOL     OW26809   2.116   0.773   0.509
 8637SOL    HW126810   2.046   0.812   0.569
 8637SOL    HW226811   2.074   0.703   0.451
 8638SOL     OW26812   2.339   3.095   6.085
 8638SOL    HW126813   2.254   3.043   6.087
 8638SOL    HW226814   2.348   3.148   6.169
 8639SOL     OW26815   5.496   2.848   1.309
 8639SOL    HW126816   5.552   2.767   1.294
 8639SOL    HW226817   5.432   2.830   1.383
 8640SOL     OW26818   4.452   3.920   0.367
 8640SOL    HW126819   4.411   3.855   0.303
 8640SOL    HW226820   4.398   3.924   0.450
 8641SOL     OW26821   5.057   4.643   4.343
 8641SOL    HW126822   5.121   4.697   4.398
 8641SOL    HW226823   5.092   4.550   4.333
 8642SOL     OW26824   2.298   6.300   2.981
 8642SOL    HW126825   2.258   6.391   2.992
 8642SOL    HW226826   2.318   6.284   2.885
 8643SOL     OW26827   2.729   0.017   6.531
 8643SOL    HW126828   2.734   0.108   6.488
 8643SOL    HW226829   2.633   7.005   6.538
 8644SOL     OW26830   5.226   2.003   5.299
 8644SOL    HW126831   5.294   2.043   5.361
 8644SOL    HW226832   5.198   2.072   5.231
 8645SOL     OW26833   4.508   4.658   1.262
 8645SOL    HW126834   4.472   4.746   1.292
 8645SOL    HW226835   4.522   4.599   1.342
 8646SOL     OW26836   6.849   1.096   1.463
 8646SOL    HW126837   6.948   1.081   1.459
 8646SOL    HW226838   6.807   1.065   1.378
 8647SOL     OW26839   2.999   5.907   6.369
 8647SOL    HW126840   3.024   5.885   6.463
 8647SOL    HW226841   2.950   5.830   6.328
 8648SOL     OW26842   6.246   0.695   3.405
 8648SOL    HW126843   6.327   0.741   3.368
 8648SOL    HW226844   6.164   0.732   3.361
 8649SOL     OW26845   5.519   5.322   5.790
 8649SOL    HW126846   5.572   5.362   5.715
 8649SOL    HW226847   5.500   5.226   5.769
 8650SOL     OW26848   2.470   5.129   4.839
 8650SOL    HW126849   2.383   5.103   4.880
 8650SOL    HW226850   2.541   5.132   4.910
 8651SOL     OW26851   3.252   0.068   0.032
 8651SOL    HW126852   3.233   0.064   0.131
 8651SOL    HW226853   3.324   0.136   0.015
 8652SOL     OW26854   1.781   4.169   4.074
 8652SOL    HW126855   1.864   4.220   4.049
 8652SOL    HW226856   1.712   4.233   4.107
 8653SOL     OW26857   5.784   0.693   6.327
 8653SOL    HW126858   5.761   0.636   6.248
 8653SOL    HW226859   5.869   0.660   6.369
 8654SOL     OW26860   1.271   5.058   1.692
 8654SOL    HW126861   1.306   5.152   1.689
 8654SOL    HW226862   1.221   5.039   1.608
 8655SOL     OW26863   6.590   1.589   3.985
 8655SOL    HW126864   6.591   1.688   3.996
 8655SOL    HW226865   6.656   1.563   3.914
 8656SOL     OW26866   6.478   0.470   0.859
 8656SOL    HW126867   6.427   0.384   0.864
 8656SOL    HW226868   6.553   0.468   0.925
 8657SOL     OW26869   5.346   4.532   0.629
 8657SOL    HW126870   5.423   4.467   0.631
 8657SOL    HW226871   5.334   4.566   0.536
 8658SOL     OW26872   5.051   6.581   0.384
 8658SOL    HW126873   5.082   6.493   0.349
 8658SOL    HW226874   4.953   6.592   0.365
 8659SOL     OW26875   4.822   2.027   2.380
 8659SOL    HW126876   4.776   1.941   2.403
 8659SOL    HW226877   4.805   2.050   2.285
 8660SOL     OW26878   6.446   4.520   1.727
 8660SOL    HW126879   6.525   4.522   1.789
 8660SOL    HW226880   6.455   4.592   1.659
 8661SOL     OW26881   5.615   4.022   0.938
 8661SOL    HW126882   5.520   3.992   0.927
 8661SOL    HW226883   5.675   3.943   0.941
 8662SOL     OW26884   4.505   5.858   1.172
 8662SOL    HW126885   4.431   5.849   1.238
 8662SOL    HW226886   4.589   5.886   1.219
 8663SOL     OW26887   3.543   5.871   1.514
 8663SOL    HW126888   3.493   5.828   1.589
 8663SOL    HW226889   3.562   5.803   1.443
 8664SOL     OW26890   1.453   6.088   0.946
 8664SOL    HW126891   1.455   6.143   0.863
 8664SOL    HW226892   1.542   6.091   0.991
 8665SOL     OW26893   5.285   6.384   4.635
 8665SOL    HW126894   5.231   6.458   4.597
 8665SOL    HW226895   5.370   6.420   4.674
 8666SOL     OW26896   5.123   1.751   4.045
 8666SOL    HW126897   5.200   1.701   4.005
 8666SOL    HW226898   5.080   1.695   4.115
 8667SOL     OW26899   4.342   2.437   3.193
 8667SOL    HW126900   4.345   2.407   3.098
 8667SOL    HW226901   4.414   2.505   3.209
 8668SOL     OW26902   5.142   3.620   3.178
 8668SOL    HW126903   5.124   3.604   3.081
 8668SOL    HW226904   5.126   3.717   3.200
 8669SOL     OW26905   1.526   6.222   6.903
 8669SOL    HW126906   1.579   6.154   6.853
 8669SOL    HW226907   1.474   6.279   6.838
 8670SOL     OW26908   3.953   4.008   5.012
 8670SOL    HW126909   4.052   3.993   5.006
 8670SOL    HW226910   3.917   3.963   5.094
 8671SOL     OW26911   4.974   1.317   3.007
 8671SOL    HW126912   5.065   1.291   3.039
 8671SOL    HW226913   4.978   1.343   2.911
 8672SOL     OW26914   1.896   4.960   4.433
 8672SOL    HW126915   1.953   5.042   4.431
 8672SOL    HW226916   1.821   4.969   4.367
 8673SOL     OW26917   5.944   2.831   0.392
 8673SOL    HW126918   5.969   2.921   0.427
 8673SOL    HW226919   6.025   2.786   0.355
 8674SOL     OW26920   6.018   6.003   3.639
 8674SOL    HW126921   5.957   6.076   3.609
 8674SOL    HW226922   5.971   5.915   3.629
 8675SOL     OW26923   2.796   2.325   4.048
 8675SOL    HW126924   2.833   2.308   4.140
 8675SOL    HW226925   2.696   2.328   4.054
 8676SOL     OW26926   4.443   0.464   2.331
 8676SOL    HW126927   4.378   0.529   2.369
 8676SOL    HW226928   4.467   0.491   2.238
 8677SOL     OW26929   2.276   5.803   5.831
 8677SOL    HW126930   2.177   5.798   5.844
 8677SOL    HW226931   2.307   5.722   5.783
 8678SOL     OW26932   6.711   0.500   0.991
 8678SOL    HW126933   6.688   0.595   1.008
 8678SOL    HW226934   6.811   0.490   0.985
 8679SOL     OW26935   0.255   2.360   3.278
 8679SOL    HW126936   0.195   2.287   3.244
 8679SOL    HW226937   0.320   2.385   3.206
 8680SOL     OW26938   1.197   3.713   1.072
 8680SOL    HW126939   1.180   3.654   1.151
 8680SOL    HW226940   1.205   3.808   1.103
 8681SOL     OW26941   5.479   5.174   0.057
 8681SOL    HW126942   5.547   5.214   7.012
 8681SOL    HW226943   5.453   5.241   0.127
 8682SOL     OW26944   5.033   6.674   2.423
 8682SOL    HW126945   5.102   6.603   2.408
 8682SOL    HW226946   5.062   6.733   2.499
 8683SOL     OW26947   1.354   2.085   3.152
 8683SOL    HW126948   1.324   2.128   3.067
 8683SOL    HW226949   1.286   2.102   3.224
 8684SOL     OW26950   6.666   3.072   5.288
 8684SOL    HW126951   6.675   2.984   5.335
 8684SOL    HW226952   6.667   3.056   5.189
 8685SOL     OW26953   0.209   1.576   5.872
 8685SOL    HW126954   0.157   1.641   5.927
 8685SOL    HW226955   0.280   1.625   5.821
 8686SOL     OW26956   0.431   1.903   2.328
 8686SOL    HW126957   0.514   1.937   2.283
 8686SOL    HW226958   0.430   1.803   2.322
 8687SOL     OW26959   4.517   5.203   1.768
 8687SOL    HW126960   4.570   5.281   1.801
 8687SOL    HW226961   4.553   5.118   1.809
 8688SOL     OW26962   2.452   5.356   0.035
 8688SOL    HW126963   2.437   5.414   0.116
 8688SOL    HW226964   2.403   5.394   6.973
 8689SOL     OW26965   3.939   4.119   1.402
 8689SOL    HW126966   3.980   4.050   1.343
 8689SOL    HW226967   3.878   4.177   1.348
 8690SOL     OW26968   1.538   3.501   3.100
 8690SOL    HW126969   1.523   3.579   3.161
 8690SOL    HW226970   1.541   3.533   3.006
 8691SOL     OW26971   3.185   1.806   5.982
 8691SOL    HW126972   3.088   1.787   5.968
 8691SOL    HW226973   3.226   1.837   5.896
 8692SOL     OW26974   2.598   1.825   4.589
 8692SOL    HW126975   2.671   1.772   4.632
 8692SOL    HW226976   2.512   1.772   4.591
 8693SOL     OW26977   5.998   0.922   0.313
 8693SOL    HW126978   6.084   0.948   0.269
 8693SOL    HW226979   5.932   0.893   0.243
 8694SOL     OW26980   4.635   0.922   5.273
 8694SOL    HW126981   4.542   0.900   5.246
 8694SOL    HW226982   4.685   0.837   5.293
 8695SOL     OW26983   4.203   3.022   5.778
 8695SOL    HW126984   4.116   2.975   5.763
 8695SOL    HW226985   4.199   3.073   5.864
 8696SOL     OW26986   2.027   5.108   6.829
 8696SOL    HW126987   2.104   5.100   6.893
 8696SOL    HW226988   2.049   5.177   6.759
 8697SOL     OW26989   6.815   2.402   6.385
 8697SOL    HW126990   6.770   2.492   6.388
 8697SOL    HW226991   6.747   2.330   6.399
 8698SOL     OW26992   5.372   6.398   5.599
 8698SOL    HW126993   5.415   6.488   5.587
 8698SOL    HW226994   5.438   6.326   5.580
 8699SOL     OW26995   2.009   2.255   5.301
 8699SOL    HW126996   2.020   2.337   5.245
 8699SOL    HW226997   1.916   2.251   5.337
 8700SOL     OW26998   0.584   1.225   4.512
 8700SOL    HW126999   0.532   1.170   4.578
 8700SOL    HW227000   0.522   1.284   4.462
 8701SOL     OW27001   0.614   1.670   0.831
 8701SOL    HW127002   0.658   1.686   0.743
 8701SOL    HW227003   0.684   1.664   0.903
 8702SOL     OW27004   5.583   5.379   1.730
 8702SOL    HW127005   5.642   5.441   1.678
 8702SOL    HW227006   5.627   5.290   1.740
 8703SOL     OW27007   2.688   5.128   6.547
 8703SOL    HW127008   2.627   5.207   6.557
 8703SOL    HW227009   2.723   5.102   6.637
 8704SOL     OW27010   0.415   3.724   3.246
 8704SOL    HW127011   0.422   3.635   3.289
 8704SOL    HW227012   0.489   3.736   3.180
 8705SOL     OW27013   5.343   1.460   6.184
 8705SOL    HW127014   5.260   1.425   6.226
 8705SOL    HW227015   5.340   1.560   6.179
 8706SOL     OW27016   5.225   2.029   6.702
 8706SOL    HW127017   5.242   2.090   6.624
 8706SOL    HW227018   5.154   1.963   6.678
 8707SOL     OW27019   6.780   1.727   6.450
 8707SOL    HW127020   6.799   1.656   6.518
 8707SOL    HW227021   6.686   1.718   6.418
 8708SOL     OW27022   4.645   2.109   2.756
 8708SOL    HW127023   4.605   2.197   2.783
 8708SOL    HW227024   4.743   2.110   2.774
 8709SOL     OW27025   0.021   6.782   6.957
 8709SOL    HW127026   0.011   6.839   0.023
 8709SOL    HW227027   6.958   6.795   6.898
 8710SOL     OW27028   2.169   3.289   3.998
 8710SOL    HW127029   2.190   3.209   3.941
 8710SOL    HW227030   2.196   3.270   4.093
 8711SOL     OW27031   1.591   6.706   3.270
 8711SOL    HW127032   1.643   6.640   3.216
 8711SOL    HW227033   1.516   6.659   3.316
 8712SOL     OW27034   4.100   2.259   4.830
 8712SOL    HW127035   4.165   2.308   4.889
 8712SOL    HW227036   4.025   2.321   4.805
 8713SOL     OW27037   6.626   3.108   3.941
 8713SOL    HW127038   6.602   3.029   3.885
 8713SOL    HW227039   6.546   3.138   3.993
 8714SOL     OW27040   0.722   0.865   6.028
 8714SOL    HW127041   0.771   0.786   5.992
 8714SOL    HW227042   0.781   0.946   6.024
 8715SOL     OW27043   4.676   0.306   0.738
 8715SOL    HW127044   4.675   0.404   0.719
 8715SOL    HW227045   4.743   0.286   0.809
 8716SOL     OW27046   6.842   6.858   1.793
 8716SOL    HW127047   6.850   6.760   1.772
 8716SOL    HW227048   6.779   6.901   1.729
 8717SOL     OW27049   3.569   3.292   4.086
 8717SOL    HW127050   3.664   3.283   4.058
 8717SOL    HW227051   3.517   3.213   4.053
 8718SOL     OW27052   1.364   3.968   5.089
 8718SOL    HW127053   1.370   4.028   5.009
 8718SOL    HW227054   1.435   3.898   5.084
 8719SOL     OW27055   3.607   0.327   6.648
 8719SOL    HW127056   3.606   0.385   6.566
 8719SOL    HW227057   3.701   0.304   6.672
 8720SOL     OW27058   6.824   5.378   5.836
 8720SOL    HW127059   6.822   5.398   5.738
 8720SOL    HW227060   6.731   5.367   5.869
 8721SOL     OW27061   6.583   3.184   2.242
 8721SOL    HW127062   6.583   3.284   2.231
 8721SOL    HW227063   6.607   3.160   2.336
 8722SOL     OW27064   3.996   1.487   0.027
 8722SOL    HW127065   3.900   1.473   0.050
 8722SOL    HW227066   4.009   1.579   7.007
 8723SOL     OW27067   5.556   5.772   0.953
 8723SOL    HW127068   5.554   5.685   1.003
 8723SOL    HW227069   5.479   5.775   0.889
 8724SOL     OW27070   4.849   0.044   5.293
 8724SOL    HW127071   4.823   0.139   5.311
 8724SOL    HW227072   4.862   0.032   5.194
 8725SOL     OW27073   1.923   5.980   6.082
 8725SOL    HW127074   2.012   5.990   6.038
 8725SOL    HW227075   1.851   5.982   6.012
 8726SOL     OW27076   6.635   0.852   2.950
 8726SOL    HW127077   6.703   0.859   2.876
 8726SOL    HW227078   6.632   0.939   3.000
 8727SOL     OW27079   6.571   6.146   2.646
 8727SOL    HW127080   6.497   6.092   2.607
 8727SOL    HW227081   6.540   6.192   2.729
 8728SOL     OW27082   6.259   0.482   2.309
 8728SOL    HW127083   6.235   0.388   2.331
 8728SOL    HW227084   6.352   0.485   2.273
 8729SOL     OW27085   4.269   6.161   4.882
 8729SOL    HW127086   4.238   6.212   4.962
 8729SOL    HW227087   4.271   6.063   4.904
 8730SOL     OW27088   6.770   3.867   2.342
 8730SOL    HW127089   6.746   3.772   2.320
 8730SOL    HW227090   6.748   3.926   2.264
 8731SOL     OW27091   2.151   2.634   2.521
 8731SOL    HW127092   2.237   2.637   2.469
 8731SOL    HW227093   2.126   2.538   2.538
 8732SOL     OW27094   6.378   5.186   1.531
 8732SOL    HW127095   6.333   5.158   1.615
 8732SOL    HW227096   6.319   5.248   1.479
 8733SOL     OW27097   1.480   5.138   1.237
 8733SOL    HW127098   1.393   5.089   1.232
 8733SOL    HW227099   1.556   5.074   1.232
 8734SOL     OW27100   1.617   4.028   1.913
 8734SOL    HW127101   1.711   4.050   1.939
 8734SOL    HW227102   1.555   4.052   1.988
 8735SOL     OW27103   1.311   2.462   0.845
 8735SOL    HW127104   1.358   2.500   0.924
 8735SOL    HW227105   1.361   2.383   0.811
 8736SOL     OW27106   0.376   5.850   6.613
 8736SOL    HW127107   0.334   5.759   6.606
 8736SOL    HW227108   0.475   5.841   6.606
 8737SOL     OW27109   1.800   6.089   6.588
 8737SOL    HW127110   1.899   6.099   6.575
 8737SOL    HW227111   1.780   6.084   6.685
 8738SOL     OW27112   2.326   5.570   4.721
 8738SOL    HW127113   2.392   5.645   4.719
 8738SOL    HW227114   2.370   5.486   4.690
 8739SOL     OW27115   5.512   5.371   6.449
 8739SOL    HW127116   5.529   5.308   6.373
 8739SOL    HW227117   5.504   5.319   6.534
 8740SOL     OW27118   5.067   0.965   4.498
 8740SOL    HW127119   5.078   1.006   4.588
 8740SOL    HW227120   4.984   1.000   4.454
 8741SOL     OW27121   2.754   1.342   2.633
 8741SOL    HW127122   2.676   1.329   2.694
 8741SOL    HW227123   2.825   1.393   2.680
 8742SOL     OW27124   5.974   6.243   1.357
 8742SOL    HW127125   6.025   6.160   1.378
 8742SOL    HW227126   5.956   6.248   1.259
 8743SOL     OW27127   1.126   6.943   2.397
 8743SOL    HW127128   1.104   6.951   2.494
 8743SOL    HW227129   1.042   6.948   2.343
 8744SOL     OW27130   3.366   2.710   6.103
 8744SOL    HW127131   3.364   2.615   6.072
 8744SOL    HW227132   3.272   2.740   6.123
 8745SOL     OW27133   5.957   2.557   6.704
 8745SOL    HW127134   5.975   2.528   6.610
 8745SOL    HW227135   5.945   2.476   6.762
 8746SOL     OW27136   4.791   4.883   4.551
 8746SOL    HW127137   4.708   4.852   4.504
 8746SOL    HW227138   4.810   4.823   4.628
 8747SOL     OW27139   0.617   3.049   3.103
 8747SOL    HW127140   0.580   3.004   3.022
 8747SOL    HW227141   0.562   3.026   3.183
 8748SOL     OW27142   6.396   1.368   5.136
 8748SOL    HW127143   6.351   1.454   5.110
 8748SOL    HW227144   6.492   1.371   5.108
 8749SOL     OW27145   2.681   0.853   5.681
 8749SOL    HW127146   2.768   0.827   5.640
 8749SOL    HW227147   2.691   0.939   5.730
 8750SOL     OW27148   3.501   3.729   5.494
 8750SOL    HW127149   3.510   3.716   5.593
 8750SOL    HW227150   3.405   3.743   5.472
 8751SOL     OW27151   5.773   0.939   2.085
 8751SOL    HW127152   5.870   0.928   2.065
 8751SOL    HW227153   5.757   0.929   2.183
 8752SOL     OW27154   2.844   2.803   0.610
 8752SOL    HW127155   2.870   2.784   0.705
 8752SOL    HW227156   2.878   2.894   0.584
 8753SOL     OW27157   3.980   2.088   5.788
 8753SOL    HW127158   3.935   2.115   5.703
 8753SOL    HW227159   4.076   2.117   5.786
 8754SOL     OW27160   1.930   3.429   5.745
 8754SOL    HW127161   1.919   3.457   5.649
 8754SOL    HW227162   1.841   3.402   5.782
 8755SOL     OW27163   1.971   0.562   0.871
 8755SOL    HW127164   2.069   0.562   0.890
 8755SOL    HW227165   1.935   0.470   0.883
 8756SOL     OW27166   0.957   3.132   3.553
 8756SOL    HW127167   0.972   3.212   3.495
 8756SOL    HW227168   0.910   3.161   3.637
 8757SOL     OW27169   3.845   5.616   6.312
 8757SOL    HW127170   3.769   5.641   6.252
 8757SOL    HW227171   3.811   5.604   6.405
 8758SOL     OW27172   5.180   5.771   2.204
 8758SOL    HW127173   5.229   5.806   2.284
 8758SOL    HW227174   5.174   5.843   2.135
 8759SOL     OW27175   4.656   2.449   0.385
 8759SOL    HW127176   4.717   2.529   0.383
 8759SOL    HW227177   4.708   2.367   0.408
 8760SOL     OW27178   2.224   1.036   4.675
 8760SOL    HW127179   2.198   0.987   4.758
 8760SOL    HW227180   2.262   1.125   4.700
 8761SOL     OW27181   6.010   1.867   2.042
 8761SOL    HW127182   6.015   1.771   2.015
 8761SOL    HW227183   6.099   1.896   2.079
 8762SOL     OW27184   1.764   3.924   2.595
 8762SOL    HW127185   1.686   3.896   2.539
 8762SOL    HW227186   1.821   3.987   2.542
 8763SOL     OW27187   0.064   6.814   5.937
 8763SOL    HW127188   0.161   6.829   5.958
 8763SOL    HW227189   0.032   6.886   5.874
 8764SOL     OW27190   4.895   0.487   4.625
 8764SOL    HW127191   4.937   0.522   4.709
 8764SOL    HW227192   4.911   0.551   4.550
 8765SOL     OW27193   5.251   6.388   3.418
 8765SOL    HW127194   5.175   6.379   3.354
 8765SOL    HW227195   5.336   6.404   3.367
 8766SOL     OW27196   4.811   4.186   3.611
 8766SOL    HW127197   4.785   4.257   3.677
 8766SOL    HW227198   4.753   4.194   3.530
 8767SOL     OW27199   5.142   5.796   2.596
 8767SOL    HW127200   5.177   5.855   2.523
 8767SOL    HW227201   5.156   5.840   2.685
 8768SOL     OW27202   1.327   1.945   0.496
 8768SOL    HW127203   1.326   2.016   0.566
 8768SOL    HW227204   1.410   1.890   0.506
 8769SOL     OW27205   0.384   0.678   4.230
 8769SOL    HW127206   0.291   0.699   4.200
 8769SOL    HW227207   0.446   0.680   4.151
 8770SOL     OW27208   4.935   4.428   2.533
 8770SOL    HW127209   4.939   4.373   2.449
 8770SOL    HW227210   4.867   4.389   2.595
 8771SOL     OW27211   0.944   1.292   6.601
 8771SOL    HW127212   0.900   1.205   6.580
 8771SOL    HW227213   0.921   1.359   6.530
 8772SOL     OW27214   5.150   0.668   6.077
 8772SOL    HW127215   5.090   0.683   5.999
 8772SOL    HW227216   5.117   0.721   6.155
 8773SOL     OW27217   4.693   2.678   3.301
 8773SOL    HW127218   4.686   2.590   3.348
 8773SOL    HW227219   4.712   2.750   3.367
 8774SOL     OW27220   0.896   0.913   0.331
 8774SOL    HW127221   0.887   1.006   0.365
 8774SOL    HW227222   0.806   0.877   0.306
 8775SOL     OW27223   5.781   0.102   5.014
 8775SOL    HW127224   5.764   0.171   5.084
 8775SOL    HW227225   5.695   0.077   4.970
 8776SOL     OW27226   3.314   2.972   6.520
 8776SOL    HW127227   3.228   2.990   6.471
 8776SOL    HW227228   3.353   2.886   6.489
 8777SOL     OW27229   0.235   4.045   1.952
 8777SOL    HW127230   0.300   3.973   1.925
 8777SOL    HW227231   0.211   4.099   1.872
 8778SOL     OW27232   5.638   2.524   4.927
 8778SOL    HW127233   5.606   2.525   5.022
 8778SOL    HW227234   5.737   2.538   4.925
 8779SOL     OW27235   2.360   5.331   2.944
 8779SOL    HW127236   2.289   5.354   2.878
 8779SOL    HW227237   2.434   5.281   2.898
 8780SOL     OW27238   0.760   6.343   2.304
 8780SOL    HW127239   0.795   6.403   2.377
 8780SOL    HW227240   0.835   6.319   2.242
 8781SOL     OW27241   5.198   1.264   3.129
 8781SOL    HW127242   5.166   1.279   3.222
 8781SOL    HW227243   5.240   1.174   3.122
 8782SOL     OW27244   6.378   6.234   1.108
 8782SOL    HW127245   6.295   6.197   1.149
 8782SOL    HW227246   6.403   6.319   1.157
 8783SOL     OW27247   6.332   4.282   3.427
 8783SOL    HW127248   6.330   4.202   3.368
 8783SOL    HW227249   6.352   4.255   3.521
 8784SOL     OW27250   6.232   4.030   6.197
 8784SOL    HW127251   6.216   4.060   6.103
 8784SOL    HW227252   6.152   4.052   6.253
 8785SOL     OW27253   5.672   3.657   6.933
 8785SOL    HW127254   5.650   3.606   0.000
 8785SOL    HW227255   5.596   3.718   6.910
 8786SOL     OW27256   2.041   0.065   0.093
 8786SOL    HW127257   2.112   0.077   0.162
 8786SOL    HW227258   1.960   0.119   0.118
 8787SOL     OW27259   3.443   2.088   1.497
 8787SOL    HW127260   3.523   2.029   1.485
 8787SOL    HW227261   3.456   2.145   1.579
 8788SOL     OW27262   6.856   1.839   5.968
 8788SOL    HW127263   6.785   1.853   6.036
 8788SOL    HW227264   6.938   1.803   6.012
 8789SOL     OW27265   6.366   0.143   4.737
 8789SOL    HW127266   6.328   0.216   4.681
 8789SOL    HW227267   6.461   0.163   4.761
 8790SOL     OW27268   0.692   0.204   6.676
 8790SOL    HW127269   0.768   0.220   6.739
 8790SOL    HW227270   0.608   0.242   6.716
 8791SOL     OW27271   5.123   0.144   4.390
 8791SOL    HW127272   5.159   0.210   4.455
 8791SOL    HW227273   5.035   0.109   4.422
 8792SOL     OW27274   2.618   6.577   3.004
 8792SOL    HW127275   2.582   6.523   2.928
 8792SOL    HW227276   2.678   6.649   2.968
 8793SOL     OW27277   1.389   4.142   3.470
 8793SOL    HW127278   1.449   4.221   3.484
 8793SOL    HW227279   1.298   4.173   3.442
 8794SOL     OW27280   4.516   6.848   2.051
 8794SOL    HW127281   4.433   6.804   2.016
 8794SOL    HW227282   4.529   6.824   2.147
 8795SOL     OW27283   1.521   5.326   5.649
 8795SOL    HW127284   1.619   5.307   5.646
 8795SOL    HW227285   1.496   5.384   5.572
 8796SOL     OW27286   3.744   2.091   4.717
 8796SOL    HW127287   3.711   2.095   4.622
 8796SOL    HW227288   3.844   2.086   4.717
 8797SOL     OW27289   6.673   6.854   0.020
 8797SOL    HW127290   6.671   6.937   0.075
 8797SOL    HW227291   6.735   6.787   0.062
 8798SOL     OW27292   5.262   5.820   5.655
 8798SOL    HW127293   5.245   5.737   5.708
 8798SOL    HW227294   5.198   5.891   5.684
 8799SOL     OW27295   2.872   4.842   3.670
 8799SOL    HW127296   2.945   4.878   3.728
 8799SOL    HW227297   2.824   4.769   3.719
 8800SOL     OW27298   6.537   3.523   5.554
 8800SOL    HW127299   6.518   3.615   5.589
 8800SOL    HW227300   6.630   3.520   5.518
 8801SOL     OW27301   0.275   1.809   5.123
 8801SOL    HW127302   0.360   1.844   5.162
 8801SOL    HW227303   0.263   1.714   5.151
 8802SOL     OW27304   1.847   6.610   0.217
 8802SOL    HW127305   1.823   6.520   0.251
 8802SOL    HW227306   1.798   6.629   0.133
 8803SOL     OW27307   6.530   6.116   6.800
 8803SOL    HW127308   6.477   6.199   6.816
 8803SOL    HW227309   6.473   6.036   6.818
 8804SOL     OW27310   2.384   6.586   2.184
 8804SOL    HW127311   2.445   6.641   2.241
 8804SOL    HW227312   2.362   6.636   2.101
 8805SOL     OW27313   2.743   6.552   4.310
 8805SOL    HW127314   2.820   6.578   4.252
 8805SOL    HW227315   2.760   6.583   4.404
 8806SOL     OW27316   2.991   5.887   2.236
 8806SOL    HW127317   3.077   5.840   2.214
 8806SOL    HW227318   2.948   5.918   2.152
 8807SOL     OW27319   5.352   0.453   0.103
 8807SOL    HW127320   5.290   0.528   0.080
 8807SOL    HW227321   5.300   0.371   0.125
 8808SOL     OW27322   5.855   2.895   6.955
 8808SOL    HW127323   5.870   2.992   6.935
 8808SOL    HW227324   5.935   2.843   6.925
 8809SOL     OW27325   5.217   5.645   3.556
 8809SOL    HW127326   5.187   5.670   3.648
 8809SOL    HW227327   5.140   5.652   3.493
 8810SOL     OW27328   5.751   1.081   5.403
 8810SOL    HW127329   5.661   1.096   5.441
 8810SOL    HW227330   5.777   1.159   5.345
 8811SOL     OW27331   2.884   0.528   3.018
 8811SOL    HW127332   2.843   0.618   3.004
 8811SOL    HW227333   2.827   0.476   3.082
 8812SOL     OW27334   1.653   0.417   0.926
 8812SOL    HW127335   1.681   0.448   1.017
 8812SOL    HW227336   1.735   0.393   0.873
 8813SOL     OW27337   2.505   4.661   1.564
 8813SOL    HW127338   2.579   4.596   1.581
 8813SOL    HW227339   2.501   4.682   1.467
 8814SOL     OW27340   5.571   6.693   1.473
 8814SOL    HW127341   5.612   6.665   1.386
 8814SOL    HW227342   5.605   6.634   1.546
 8815SOL     OW27343   5.800   6.883   0.816
 8815SOL    HW127344   5.761   6.969   0.848
 8815SOL    HW227345   5.770   6.866   0.722
 8816SOL     OW27346   0.823   6.799   0.391
 8816SOL    HW127347   0.906   6.840   0.427
 8816SOL    HW227348   0.799   6.843   0.304
 8817SOL     OW27349   0.613   5.155   4.010
 8817SOL    HW127350   0.623   5.219   4.087
 8817SOL    HW227351   0.527   5.105   4.018
 8818SOL     OW27352   0.597   4.489   4.744
 8818SOL    HW127353   0.515   4.537   4.713
 8818SOL    HW227354   0.600   4.488   4.844
 8819SOL     OW27355   5.669   5.328   5.172
 8819SOL    HW127356   5.733   5.366   5.238
 8819SOL    HW227357   5.662   5.229   5.186
 8820SOL     OW27358   2.416   1.113   5.093
 8820SOL    HW127359   2.323   1.098   5.127
 8820SOL    HW227360   2.483   1.083   5.162
 8821SOL     OW27361   1.724   6.158   1.016
 8821SOL    HW127362   1.791   6.084   1.013
 8821SOL    HW227363   1.756   6.234   0.959
 8822SOL     OW27364   0.678   0.284   4.981
 8822SOL    HW127365   0.653   0.222   4.907
 8822SOL    HW227366   0.615   0.362   4.982
 8823SOL     OW27367   2.403   1.072   2.024
 8823SOL    HW127368   2.435   1.131   2.098
 8823SOL    HW227369   2.311   1.099   1.997
 8824SOL     OW27370   1.065   1.907   0.444
 8824SOL    HW127371   1.016   1.984   0.483
 8824SOL    HW227372   1.162   1.915   0.465
 8825SOL     OW27373   2.616   1.174   1.530
 8825SOL    HW127374   2.540   1.229   1.496
 8825SOL    HW227375   2.596   1.141   1.622
 8826SOL     OW27376   6.464   3.506   0.401
 8826SOL    HW127377   6.434   3.564   0.325
 8826SOL    HW227378   6.559   3.527   0.423
 8827SOL     OW27379   4.065   1.717   2.316
 8827SOL    HW127380   4.080   1.806   2.274
 8827SOL    HW227381   3.998   1.665   2.262
 8828SOL     OW27382   4.718   6.088   5.516
 8828SOL    HW127383   4.639   6.051   5.467
 8828SOL    HW227384   4.706   6.187   5.529
 8829SOL     OW27385   5.433   2.891   0.741
 8829SOL    HW127386   5.515   2.837   0.758
 8829SOL    HW227387   5.360   2.831   0.708
 8830SOL     OW27388   1.277   1.563   2.732
 8830SOL    HW127389   1.234   1.647   2.765
 8830SOL    HW227390   1.320   1.515   2.809
 8831SOL     OW27391   3.741   2.085   4.007
 8831SOL    HW127392   3.803   2.119   3.937
 8831SOL    HW227393   3.791   2.072   4.093
 8832SOL     OW27394   0.133   5.937   2.983
 8832SOL    HW127395   0.034   5.948   2.972
 8832SOL    HW227396   0.153   5.841   3.005
 8833SOL     OW27397   2.553   5.077   5.877
 8833SOL    HW127398   2.479   5.130   5.836
 8833SOL    HW227399   2.517   5.024   5.954
 8834SOL     OW27400   5.368   3.849   4.769
 8834SOL    HW127401   5.320   3.770   4.807
 8834SOL    HW227402   5.393   3.911   4.843
 8835SOL     OW27403   5.061   1.009   5.778
 8835SOL    HW127404   5.154   1.021   5.813
 8835SOL    HW227405   5.051   0.918   5.738
 8836SOL     OW27406   5.454   2.844   0.273
 8836SOL    HW127407   5.548   2.822   0.249
 8836SOL    HW227408   5.404   2.870   0.190
 8837SOL     OW27409   0.007   6.154   2.263
 8837SOL    HW127410   6.981   6.109   2.342
 8837SOL    HW227411   0.101   6.180   2.285
 8838SOL     OW27412   1.863   5.378   3.401
 8838SOL    HW127413   1.892   5.461   3.449
 8838SOL    HW227414   1.936   5.310   3.405
 8839SOL     OW27415   6.038   5.168   2.799
 8839SOL    HW127416   6.122   5.168   2.745
 8839SOL    HW227417   6.039   5.090   2.861
 8840SOL     OW27418   6.999   2.158   2.190
 8840SOL    HW127419   6.974   2.251   2.215
 8840SOL    HW227420   6.994   2.146   2.091
 8841SOL     OW27421   0.798   0.972   5.308
 8841SOL    HW127422   0.716   0.940   5.261
 8841SOL    HW227423   0.844   0.894   5.351
 8842SOL     OW27424   3.358   3.203   2.232
 8842SOL    HW127425   3.392   3.111   2.210
 8842SOL    HW227426   3.360   3.217   2.331
 8843SOL     OW27427   1.692   3.303   5.181
 8843SOL    HW127428   1.750   3.235   5.138
 8843SOL    HW227429   1.658   3.268   5.269
 8844SOL     OW27430   6.995   1.868   6.259
 8844SOL    HW127431   6.907   1.845   6.301
 8844SOL    HW227432   0.025   1.937   6.316
 8845SOL     OW27433   3.901   3.636   0.606
 8845SOL    HW127434   3.841   3.693   0.663
 8845SOL    HW227435   3.991   3.629   0.648
 8846SOL     OW27436   3.628   5.347   4.163
 8846SOL    HW127437   3.682   5.419   4.208
 8846SOL    HW227438   3.689   5.283   4.117
 8847SOL     OW27439   2.503   0.733   3.155
 8847SOL    HW127440   2.416   0.772   3.126
 8847SOL    HW227441   2.534   0.778   3.239
 8848SOL     OW27442   2.696   1.730   2.042
 8848SOL    HW127443   2.662   1.642   2.008
 8848SOL    HW227444   2.790   1.743   2.012
 8849SOL     OW27445   3.013   6.275   3.485
 8849SOL    HW127446   3.018   6.358   3.430
 8849SOL    HW227447   3.105   6.239   3.500
 8850SOL     OW27448   0.684   1.933   0.154
 8850SOL    HW127449   0.723   1.881   0.078
 8850SOL    HW227450   0.747   2.006   0.180
 8851SOL     OW27451   1.294   4.274   2.783
 8851SOL    HW127452   1.242   4.296   2.700
 8851SOL    HW227453   1.248   4.201   2.833
 8852SOL     OW27454   6.192   2.897   5.108
 8852SOL    HW127455   6.262   2.968   5.096
 8852SOL    HW227456   6.231   2.820   5.157
 8853SOL     OW27457   2.702   0.843   1.187
 8853SOL    HW127458   2.632   0.911   1.211
 8853SOL    HW227459   2.687   0.759   1.239
 8854SOL     OW27460   3.027   2.708   5.767
 8854SOL    HW127461   3.094   2.694   5.694
 8854SOL    HW227462   2.975   2.791   5.747
 8855SOL     OW27463   0.191   5.468   1.538
 8855SOL    HW127464   0.151   5.438   1.625
 8855SOL    HW227465   0.257   5.542   1.555
 8856SOL     OW27466   0.293   6.682   6.199
 8856SOL    HW127467   0.210   6.699   6.252
 8856SOL    HW227468   0.283   6.598   6.146
 8857SOL     OW27469   6.557   1.842   4.046
 8857SOL    HW127470   6.485   1.853   3.978
 8857SOL    HW227471   6.516   1.821   4.135
 8858SOL     OW27472   0.853   3.504   5.285
 8858SOL    HW127473   0.823   3.542   5.198
 8858SOL    HW227474   0.853   3.404   5.280
 8859SOL     OW27475   0.223   0.348   4.071
 8859SOL    HW127476   0.217   0.428   4.131
 8859SOL    HW227477   0.153   0.354   4.001
 8860SOL     OW27478   6.751   2.485   2.632
 8860SOL    HW127479   6.810   2.450   2.704
 8860SOL    HW227480   6.692   2.557   2.669
 8861SOL     OW27481   4.323   1.328   5.993
 8861SOL    HW127482   4.271   1.351   5.911
 8861SOL    HW227483   4.318   1.230   6.010
 8862SOL     OW27484   5.316   0.430   3.848
 8862SOL    HW127485   5.352   0.343   3.883
 8862SOL    HW227486   5.361   0.452   3.762
 8863SOL     OW27487   2.176   5.065   4.213
 8863SOL    HW127488   2.091   5.092   4.169
 8863SOL    HW227489   2.233   5.014   4.148
 8864SOL     OW27490   2.700   4.885   6.392
 8864SOL    HW127491   2.737   4.834   6.470
 8864SOL    HW227492   2.679   4.979   6.420
 8865SOL     OW27493   2.969   0.427   5.472
 8865SOL    HW127494   3.007   0.411   5.563
 8865SOL    HW227495   2.938   0.341   5.433
 8866SOL     OW27496   4.871   0.152   2.859
 8866SOL    HW127497   4.846   0.055   2.869
 8866SOL    HW227498   4.958   0.169   2.905
 8867SOL     OW27499   5.881   4.809   2.782
 8867SOL    HW127500   5.962   4.770   2.824
 8867SOL    HW227501   5.807   4.813   2.849
 8868SOL     OW27502   6.586   2.719   1.426
 8868SOL    HW127503   6.501   2.771   1.422
 8868SOL    HW227504   6.647   2.759   1.495
 8869SOL     OW27505   4.049   5.557   5.134
 8869SOL    HW127506   4.015   5.508   5.214
 8869SOL    HW227507   4.106   5.496   5.079
 8870SOL     OW27508   2.924   0.386   0.742
 8870SOL    HW127509   2.870   0.373   0.658
 8870SOL    HW227510   3.008   0.333   0.736
 8871SOL     OW27511   2.131   1.410   3.674
 8871SOL    HW127512   2.193   1.364   3.738
 8871SOL    HW227513   2.037   1.380   3.691
 8872SOL     OW27514   1.378   4.418   4.922
 8872SOL    HW127515   1.283   4.430   4.892
 8872SOL    HW227516   1.402   4.491   4.986
 8873SOL     OW27517   0.489   6.510   2.017
 8873SOL    HW127518   0.520   6.557   1.935
 8873SOL    HW227519   0.440   6.574   2.076
 8874SOL     OW27520   1.781   6.530   2.865
 8874SOL    HW127521   1.829   6.466   2.806
 8874SOL    HW227522   1.682   6.515   2.858
 8875SOL     OW27523   0.223   3.808   5.217
 8875SOL    HW127524   0.145   3.785   5.159
 8875SOL    HW227525   0.296   3.849   5.161
 8876SOL     OW27526   2.231   6.465   5.492
 8876SOL    HW127527   2.209   6.374   5.527
 8876SOL    HW227528   2.146   6.516   5.478
 8877SOL     OW27529   3.208   2.160   4.134
 8877SOL    HW127530   3.306   2.151   4.117
 8877SOL    HW227531   3.167   2.219   4.065
 8878SOL     OW27532   6.319   5.036   0.352
 8878SOL    HW127533   6.240   4.989   0.312
 8878SOL    HW227534   6.305   5.135   0.346
 8879SOL     OW27535   4.914   4.533   2.938
 8879SOL    HW127536   4.818   4.509   2.919
 8879SOL    HW227537   4.925   4.632   2.932
 8880SOL     OW27538   4.673   6.569   4.836
 8880SOL    HW127539   4.603   6.505   4.867
 8880SOL    HW227540   4.698   6.549   4.741
 8881SOL     OW27541   5.044   6.394   3.823
 8881SOL    HW127542   5.078   6.323   3.884
 8881SOL    HW227543   5.071   6.484   3.858
 8882SOL     OW27544   5.356   0.650   1.106
 8882SOL    HW127545   5.323   0.715   1.037
 8882SOL    HW227546   5.338   0.687   1.197
 8883SOL     OW27547   1.647   6.193   6.264
 8883SOL    HW127548   1.659   6.132   6.342
 8883SOL    HW227549   1.712   6.269   6.270
 8884SOL     OW27550   6.746   4.337   5.150
 8884SOL    HW127551   6.827   4.284   5.125
 8884SOL    HW227552   6.766   4.395   5.229
 8885SOL     OW27553   5.872   4.494   1.804
 8885SOL    HW127554   5.898   4.417   1.745
 8885SOL    HW227555   5.917   4.485   1.893
 8886SOL     OW27556   2.724   6.136   4.604
 8886SOL    HW127557   2.767   6.053   4.567
 8886SOL    HW227558   2.749   6.215   4.548
 8887SOL     OW27559   3.795   0.347   0.377
 8887SOL    HW127560   3.744   0.390   0.303
 8887SOL    HW227561   3.812   0.414   0.449
 8888SOL     OW27562   2.058   1.660   5.674
 8888SOL    HW127563   1.996   1.593   5.632
 8888SOL    HW227564   2.149   1.620   5.681
 8889SOL     OW27565   6.451   0.095   0.068
 8889SOL    HW127566   6.477   0.162   0.138
 8889SOL    HW227567   6.412   0.142   7.006
 8890SOL     OW27568   6.986   5.980   5.327
 8890SOL    HW127569   7.016   6.043   5.255
 8890SOL    HW227570   0.028   5.991   5.408
 8891SOL     OW27571   4.122   3.156   6.589
 8891SOL    HW127572   4.078   3.078   6.544
 8891SOL    HW227573   4.081   3.170   6.679
 8892SOL     OW27574   3.715   5.511   2.568
 8892SOL    HW127575   3.622   5.483   2.592
 8892SOL    HW227576   3.729   5.605   2.598
 8893SOL     OW27577   0.877   5.530   4.217
 8893SOL    HW127578   0.876   5.432   4.239
 8893SOL    HW227579   0.955   5.573   4.263
 8894SOL     OW27580   3.262   2.413   6.653
 8894SOL    HW127581   3.336   2.421   6.586
 8894SOL    HW227582   3.193   2.349   6.619
 8895SOL     OW27583   6.378   2.887   2.406
 8895SOL    HW127584   6.462   2.938   2.425
 8895SOL    HW227585   6.306   2.917   2.468
 8896SOL     OW27586   2.432   3.098   5.614
 8896SOL    HW127587   2.509   3.113   5.675
 8896SOL    HW227588   2.418   3.179   5.557
 8897SOL     OW27589   2.182   2.951   3.239
 8897SOL    HW127590   2.203   2.972   3.143
 8897SOL    HW227591   2.229   2.867   3.265
 8898SOL     OW27592   4.882   3.515   2.473
 8898SOL    HW127593   4.890   3.566   2.387
 8898SOL    HW227594   4.871   3.418   2.453
 8899SOL     OW27595   1.688   5.156   1.865
 8899SOL    HW127596   1.647   5.238   1.826
 8899SOL    HW227597   1.622   5.112   1.927
 8900SOL     OW27598   5.734   2.836   2.754
 8900SOL    HW127599   5.695   2.842   2.662
 8900SOL    HW227600   5.764   2.742   2.772
 8901SOL     OW27601   1.557   0.848   4.903
 8901SOL    HW127602   1.556   0.784   4.980
 8901SOL    HW227603   1.539   0.941   4.937
 8902SOL     OW27604   1.177   6.412   0.368
 8902SOL    HW127605   1.175   6.356   0.285
 8902SOL    HW227606   1.173   6.509   0.342
 8903SOL     OW27607   0.445   1.630   4.370
 8903SOL    HW127608   0.391   1.667   4.445
 8903SOL    HW227609   0.536   1.673   4.370
 8904SOL     OW27610   6.478   0.951   4.728
 8904SOL    HW127611   6.531   0.981   4.807
 8904SOL    HW227612   6.449   1.031   4.675
 8905SOL     OW27613   2.130   3.874   3.303
 8905SOL    HW127614   2.055   3.884   3.237
 8905SOL    HW227615   2.099   3.820   3.381
 8906SOL     OW27616   0.600   6.218   0.053
 8906SOL    HW127617   0.659   6.175   7.000
 8906SOL    HW227618   0.513   6.169   0.057
 8907SOL     OW27619   2.816   2.639   5.345
 8907SOL    HW127620   2.871   2.722   5.337
 8907SOL    HW227621   2.730   2.660   5.391
 8908SOL     OW27622   1.068   5.038   6.767
 8908SOL    HW127623   1.067   5.135   6.789
 8908SOL    HW227624   1.077   5.025   6.669
 8909SOL     OW27625   2.258   1.256   5.712
 8909SOL    HW127626   2.199   1.209   5.646
 8909SOL    HW227627   2.270   1.351   5.683
 8910SOL     OW27628   0.619   3.038   5.788
 8910SOL    HW127629   0.694   2.977   5.764
 8910SOL    HW227630   0.560   3.051   5.708
 8911SOL     OW27631   4.730   2.488   4.593
 8911SOL    HW127632   4.737   2.481   4.493
 8911SOL    HW227633   4.817   2.520   4.630
 8912SOL     OW27634   3.400   3.433   6.727
 8912SOL    HW127635   3.312   3.402   6.765
 8912SOL    HW227636   3.469   3.362   6.741
 8913SOL     OW27637   4.373   5.538   5.831
 8913SOL    HW127638   4.374   5.464   5.763
 8913SOL    HW227639   4.329   5.619   5.792
 8914SOL     OW27640   4.244   6.566   4.874
 8914SOL    HW127641   4.323   6.609   4.917
 8914SOL    HW227642   4.190   6.636   4.828
 8915SOL     OW27643   1.085   2.491   4.095
 8915SOL    HW127644   1.018   2.419   4.113
 8915SOL    HW227645   1.147   2.461   4.023
 8916SOL     OW27646   6.552   3.032   1.072
 8916SOL    HW127647   6.627   2.981   1.115
 8916SOL    HW227648   6.589   3.110   1.023
 8917SOL     OW27649   6.271   3.330   0.292
 8917SOL    HW127650   6.312   3.255   0.241
 8917SOL    HW227651   6.343   3.393   0.323
 8918SOL     OW27652   0.051   4.021   1.225
 8918SOL    HW127653   0.033   4.087   1.152
 8918SOL    HW227654   0.144   4.035   1.261
 8919SOL     OW27655   3.996   4.004   0.547
 8919SOL    HW127656   4.003   4.094   0.504
 8919SOL    HW227657   3.901   3.973   0.544
 8920SOL     OW27658   0.308   1.325   6.694
 8920SOL    HW127659   0.402   1.330   6.725
 8920SOL    HW227660   0.286   1.406   6.640
 8921SOL     OW27661   2.078   1.993   1.976
 8921SOL    HW127662   2.109   2.011   1.883
 8921SOL    HW227663   2.133   1.920   2.016
 8922SOL     OW27664   4.366   4.903   1.317
 8922SOL    HW127665   4.276   4.909   1.361
 8922SOL    HW227666   4.427   4.970   1.357
 8923SOL     OW27667   2.104   2.084   6.639
 8923SOL    HW127668   2.008   2.057   6.632
 8923SOL    HW227669   2.122   2.120   6.731
 8924SOL     OW27670   3.993   5.825   5.673
 8924SOL    HW127671   3.980   5.762   5.597
 8924SOL    HW227672   4.007   5.773   5.758
 8925SOL     OW27673   0.990   1.183   3.212
 8925SOL    HW127674   0.962   1.089   3.228
 8925SOL    HW227675   0.983   1.234   3.298
 8926SOL     OW27676   6.716   2.896   6.121
 8926SOL    HW127677   6.747   2.945   6.040
 8926SOL    HW227678   6.620   2.870   6.110
 8927SOL     OW27679   0.152   0.826   4.530
 8927SOL    HW127680   0.246   0.794   4.533
 8927SOL    HW227681   0.144   0.901   4.465
 8928SOL     OW27682   1.351   6.714   6.071
 8928SOL    HW127683   1.312   6.667   5.992
 8928SOL    HW227684   1.437   6.759   6.044
 8929SOL     OW27685   5.833   1.746   4.794
 8929SOL    HW127686   5.825   1.772   4.698
 8929SOL    HW227687   5.777   1.807   4.850
 8930SOL     OW27688   2.007   3.033   4.788
 8930SOL    HW127689   1.977   3.092   4.713
 8930SOL    HW227690   2.038   3.089   4.865
 8931SOL     OW27691   2.664   3.097   0.863
 8931SOL    HW127692   2.683   3.131   0.771
 8931SOL    HW227693   2.568   3.070   0.868
 8932SOL     OW27694   6.278   1.527   1.325
 8932SOL    HW127695   6.272   1.584   1.406
 8932SOL    HW227696   6.342   1.452   1.342
 8933SOL     OW27697   2.166   2.777   6.398
 8933SOL    HW127698   2.196   2.690   6.437
 8933SOL    HW227699   2.150   2.765   6.300
 8934SOL     OW27700   3.139   5.232   4.371
 8934SOL    HW127701   3.055   5.281   4.390
 8934SOL    HW227702   3.195   5.284   4.306
 8935SOL     OW27703   0.548   4.467   0.678
 8935SOL    HW127704   0.557   4.559   0.716
 8935SOL    HW227705   0.584   4.466   0.585
 8936SOL     OW27706   1.235   3.191   2.129
 8936SOL    HW127707   1.156   3.224   2.078
 8936SOL    HW227708   1.204   3.146   2.213
 8937SOL     OW27709   0.512   0.083   5.830
 8937SOL    HW127710   0.589   0.090   5.767
 8937SOL    HW227711   0.427   0.076   5.778
 8938SOL     OW27712   0.201   6.454   0.928
 8938SOL    HW127713   0.155   6.367   0.947
 8938SOL    HW227714   0.133   6.527   0.923
 8939SOL     OW27715   5.480   4.061   4.130
 8939SOL    HW127716   5.571   4.033   4.160
 8939SOL    HW227717   5.414   4.047   4.204
 8940SOL     OW27718   0.392   0.696   2.046
 8940SOL    HW127719   0.477   0.745   2.027
 8940SOL    HW227720   0.355   0.659   1.961
 8941SOL     OW27721   5.762   2.504   5.326
 8941SOL    HW127722   5.695   2.564   5.281
 8941SOL    HW227723   5.719   2.458   5.404
 8942SOL     OW27724   6.353   5.450   5.895
 8942SOL    HW127725   6.409   5.446   5.812
 8942SOL    HW227726   6.390   5.387   5.963
 8943SOL     OW27727   3.696   5.546   6.869
 8943SOL    HW127728   3.763   5.546   6.794
 8943SOL    HW227729   3.622   5.483   6.848
 8944SOL     OW27730   5.746   5.427   5.634
 8944SOL    HW127731   5.752   5.525   5.652
 8944SOL    HW227732   5.807   5.378   5.697
 8945SOL     OW27733   1.265   1.002   2.974
 8945SOL    HW127734   1.216   0.926   3.017
 8945SOL    HW227735   1.312   1.055   3.045
 8946SOL     OW27736   2.931   1.746   5.032
 8946SOL    HW127737   2.948   1.648   5.030
 8946SOL    HW227738   2.835   1.764   5.011
 8947SOL     OW27739   2.071   3.019   6.142
 8947SOL    HW127740   2.022   3.099   6.177
 8947SOL    HW227741   2.025   2.936   6.174
 8948SOL     OW27742   5.922   5.907   4.973
 8948SOL    HW127743   5.860   5.843   5.018
 8948SOL    HW227744   5.960   5.970   5.041
 8949SOL     OW27745   2.683   6.124   0.512
 8949SOL    HW127746   2.761   6.066   0.489
 8949SOL    HW227747   2.600   6.068   0.513
 8950SOL     OW27748   4.880   4.097   6.682
 8950SOL    HW127749   4.962   4.113   6.626
 8950SOL    HW227750   4.798   4.118   6.628
 8951SOL     OW27751   1.627   1.484   5.162
 8951SOL    HW127752   1.624   1.385   5.150
 8951SOL    HW227753   1.695   1.523   5.100
 8952SOL     OW27754   1.486   5.917   2.280
 8952SOL    HW127755   1.561   5.851   2.270
 8952SOL    HW227756   1.412   5.877   2.333
 8953SOL     OW27757   1.497   3.995   0.091
 8953SOL    HW127758   1.569   3.926   0.086
 8953SOL    HW227759   1.522   4.074   0.034
 8954SOL     OW27760   0.740   6.875   4.417
 8954SOL    HW127761   0.682   6.910   4.490
 8954SOL    HW227762   0.747   6.943   4.344
 8955SOL     OW27763   0.021   5.356   2.580
 8955SOL    HW127764   7.009   5.367   2.676
 8955SOL    HW227765   6.956   5.343   2.523
 8956SOL     OW27766   1.882   1.410   6.645
 8956SOL    HW127767   1.920   1.420   6.553
 8956SOL    HW227768   1.916   1.484   6.703
 8957SOL     OW27769   2.496   4.417   0.951
 8957SOL    HW127770   2.419   4.354   0.952
 8957SOL    HW227771   2.474   4.495   0.892
 8958SOL     OW27772   0.283   1.726   4.587
 8958SOL    HW127773   0.186   1.750   4.592
 8958SOL    HW227774   0.296   1.634   4.622
 8959SOL     OW27775   1.641   4.439   2.343
 8959SOL    HW127776   1.557   4.462   2.392
 8959SOL    HW227777   1.635   4.345   2.310
 8960SOL     OW27778   4.502   5.153   2.601
 8960SOL    HW127779   4.515   5.060   2.568
 8960SOL    HW227780   4.526   5.158   2.698
 8961SOL     OW27781   2.761   0.844   3.806
 8961SOL    HW127782   2.740   0.759   3.854
 8961SOL    HW227783   2.791   0.823   3.713
 8962SOL     OW27784   6.870   5.613   2.738
 8962SOL    HW127785   6.967   5.634   2.723
 8962SOL    HW227786   6.831   5.577   2.653
 8963SOL     OW27787   3.870   6.640   4.521
 8963SOL    HW127788   3.839   6.556   4.566
 8963SOL    HW227789   3.891   6.621   4.425
 8964SOL     OW27790   5.172   3.828   2.867
 8964SOL    HW127791   5.248   3.872   2.915
 8964SOL    HW227792   5.164   3.733   2.897
 8965SOL     OW27793   2.784   4.586   0.405
 8965SOL    HW127794   2.823   4.601   0.496
 8965SOL    HW227795   2.757   4.673   0.365
 8966SOL     OW27796   0.163   4.285   0.482
 8966SOL    HW127797   0.222   4.301   0.562
 8966SOL    HW227798   0.130   4.373   0.447
 8967SOL     OW27799   4.408   0.143   1.225
 8967SOL    HW127800   4.491   0.179   1.182
 8967SOL    HW227801   4.408   0.043   1.219
 8968SOL     OW27802   4.429   5.372   2.843
 8968SOL    HW127803   4.341   5.405   2.877
 8968SOL    HW227804   4.459   5.429   2.767
 8969SOL     OW27805   6.290   1.164   4.421
 8969SOL    HW127806   6.282   1.164   4.521
 8969SOL    HW227807   6.293   1.258   4.388
 8970SOL     OW27808   2.536   3.078   0.172
 8970SOL    HW127809   2.511   3.038   0.084
 8970SOL    HW227810   2.460   3.069   0.236
 8971SOL     OW27811   6.233   5.259   1.258
 8971SOL    HW127812   6.228   5.336   1.195
 8971SOL    HW227813   6.189   5.179   1.216
 8972SOL     OW27814   5.266   4.055   0.190
 8972SOL    HW127815   5.238   3.982   0.253
 8972SOL    HW227816   5.275   4.017   0.098
 8973SOL     OW27817   0.308   3.050   2.718
 8973SOL    HW127818   0.366   3.115   2.767
 8973SOL    HW227819   0.212   3.071   2.737
 8974SOL     OW27820   1.126   4.444   4.843
 8974SOL    HW127821   1.099   4.529   4.798
 8974SOL    HW227822   1.103   4.367   4.785
 8975SOL     OW27823   1.792   6.396   5.806
 8975SOL    HW127824   1.816   6.475   5.749
 8975SOL    HW227825   1.765   6.427   5.897
 8976SOL     OW27826   0.115   5.424   5.644
 8976SOL    HW127827   0.016   5.425   5.627
 8976SOL    HW227828   0.161   5.481   5.576
 8977SOL     OW27829   6.656   3.181   6.764
 8977SOL    HW127830   6.683   3.209   6.672
 8977SOL    HW227831   6.735   3.188   6.825
 8978SOL     OW27832   5.619   6.478   3.522
 8978SOL    HW127833   5.577   6.402   3.571
 8978SOL    HW227834   5.584   6.480   3.428
 8979SOL     OW27835   1.140   3.876   4.621
 8979SOL    HW127836   1.125   3.845   4.527
 8979SOL    HW227837   1.092   3.815   4.684
 8980SOL     OW27838   3.786   2.683   5.497
 8980SOL    HW127839   3.810   2.765   5.444
 8980SOL    HW227840   3.858   2.665   5.564
 8981SOL     OW27841   3.787   0.878   6.022
 8981SOL    HW127842   3.714   0.925   6.071
 8981SOL    HW227843   3.751   0.840   5.937
 8982SOL     OW27844   0.825   1.845   1.838
 8982SOL    HW127845   0.906   1.800   1.800
 8982SOL    HW227846   0.847   1.940   1.860
 8983SOL     OW27847   1.123   5.738   6.368
 8983SOL    HW127848   1.078   5.691   6.292
 8983SOL    HW227849   1.110   5.685   6.452
 8984SOL     OW27850   6.412   6.732   3.852
 8984SOL    HW127851   6.338   6.730   3.919
 8984SOL    HW227852   6.375   6.748   3.760
 8985SOL     OW27853   2.649   2.010   0.934
 8985SOL    HW127854   2.747   2.020   0.954
 8985SOL    HW227855   2.596   2.045   1.011
 8986SOL     OW27856   4.240   5.245   1.846
 8986SOL    HW127857   4.193   5.167   1.887
 8986SOL    HW227858   4.331   5.218   1.816
 8987SOL     OW27859   5.453   6.880   1.003
 8987SOL    HW127860   5.428   6.811   0.936
 8987SOL    HW227861   5.456   6.838   1.094
 8988SOL     OW27862   1.170   3.771   6.232
 8988SOL    HW127863   1.170   3.673   6.214
 8988SOL    HW227864   1.250   3.813   6.187
 8989SOL     OW27865   5.079   4.148   2.047
 8989SOL    HW127866   5.074   4.064   2.100
 8989SOL    HW227867   4.987   4.179   2.023
 8990SOL     OW27868   1.863   5.668   2.856
 8990SOL    HW127869   1.815   5.580   2.860
 8990SOL    HW227870   1.930   5.666   2.783
 8991SOL     OW27871   1.795   1.954   6.857
 8991SOL    HW127872   1.701   1.934   6.882
 8991SOL    HW227873   1.858   1.901   6.915
 8992SOL     OW27874   6.515   1.968   0.242
 8992SOL    HW127875   6.420   1.936   0.235
 8992SOL    HW227876   6.567   1.934   0.164
 8993SOL     OW27877   4.562   2.417   2.174
 8993SOL    HW127878   4.464   2.401   2.179
 8993SOL    HW227879   4.609   2.331   2.154
 8994SOL     OW27880   1.379   5.126   4.883
 8994SOL    HW127881   1.459   5.153   4.936
 8994SOL    HW227882   1.376   5.026   4.876
 8995SOL     OW27883   0.631   2.332   0.026
 8995SOL    HW127884   0.599   2.320   0.120
 8995SOL    HW227885   0.553   2.350   6.982
 8996SOL     OW27886   6.391   5.241   1.005
 8996SOL    HW127887   6.465   5.264   0.942
 8996SOL    HW227888   6.303   5.254   0.959
 8997SOL     OW27889   4.738   0.919   6.362
 8997SOL    HW127890   4.737   0.962   6.271
 8997SOL    HW227891   4.804   0.966   6.421
 8998SOL     OW27892   6.894   3.985   5.049
 8998SOL    HW127893   6.882   4.004   5.146
 8998SOL    HW227894   6.931   3.893   5.037
 8999SOL     OW27895   4.839   6.244   6.927
 8999SOL    HW127896   4.910   6.192   6.879
 8999SOL    HW227897   4.879   6.289   7.007
 9000SOL     OW27898   2.725   3.707   0.538
 9000SOL    HW127899   2.801   3.771   0.530
 9000SOL    HW227900   2.640   3.758   0.548
 9001SOL     OW27901   1.109   5.175   2.605
 9001SOL    HW127902   1.100   5.195   2.508
 9001SOL    HW227903   1.200   5.200   2.637
 9002SOL     OW27904   0.482   5.209   5.298
 9002SOL    HW127905   0.394   5.243   5.331
 9002SOL    HW227906   0.528   5.159   5.372
 9003SOL     OW27907   4.886   2.712   1.325
 9003SOL    HW127908   4.800   2.683   1.366
 9003SOL    HW227909   4.871   2.794   1.270
 9004SOL     OW27910   4.386   6.468   1.333
 9004SOL    HW127911   4.465   6.435   1.280
 9004SOL    HW227912   4.349   6.550   1.289
 9005SOL     OW27913   5.107   2.453   4.288
 9005SOL    HW127914   5.120   2.365   4.334
 9005SOL    HW227915   5.145   2.526   4.345
 9006SOL     OW27916   2.860   6.564   0.511
 9006SOL    HW127917   2.770   6.529   0.535
 9006SOL    HW227918   2.898   6.615   0.588
 9007SOL     OW27919   3.883   0.858   4.198
 9007SOL    HW127920   3.897   0.953   4.168
 9007SOL    HW227921   3.890   0.797   4.120
 9008SOL     OW27922   0.998   5.882   2.999
 9008SOL    HW127923   0.898   5.879   2.991
 9008SOL    HW227924   1.023   5.929   3.083
 9009SOL     OW27925   3.160   1.257   0.222
 9009SOL    HW127926   3.074   1.296   0.190
 9009SOL    HW227927   3.182   1.176   0.168
 9010SOL     OW27928   1.748   6.592   3.899
 9010SOL    HW127929   1.768   6.628   3.808
 9010SOL    HW227930   1.728   6.494   3.893
 9011SOL     OW27931   4.904   2.474   1.521
 9011SOL    HW127932   4.997   2.504   1.502
 9011SOL    HW227933   4.848   2.553   1.549
 9012SOL     OW27934   2.939   4.242   1.488
 9012SOL    HW127935   2.896   4.235   1.398
 9012SOL    HW227936   2.891   4.183   1.553
 9013SOL     OW27937   6.899   6.388   5.396
 9013SOL    HW127938   6.842   6.466   5.421
 9013SOL    HW227939   6.841   6.309   5.377
 9014SOL     OW27940   6.838   1.865   0.489
 9014SOL    HW127941   6.776   1.943   0.496
 9014SOL    HW227942   6.790   1.788   0.446
 9015SOL     OW27943   5.430   2.035   1.344
 9015SOL    HW127944   5.524   2.025   1.312
 9015SOL    HW227945   5.372   2.063   1.267
 9016SOL     OW27946   0.638   6.756   6.631
 9016SOL    HW127947   0.650   6.853   6.610
 9016SOL    HW227948   0.708   6.702   6.583
 9017SOL     OW27949   4.430   2.007   2.225
 9017SOL    HW127950   4.526   2.016   2.253
 9017SOL    HW227951   4.403   2.088   2.172
 9018SOL     OW27952   3.858   1.819   6.530
 9018SOL    HW127953   3.776   1.768   6.555
 9018SOL    HW227954   3.842   1.868   6.444
 9019SOL     OW27955   0.988   7.010   2.159
 9019SOL    HW127956   0.990   0.074   2.098
 9019SOL    HW227957   0.895   6.974   2.164
 9020SOL     OW27958   0.774   3.617   1.742
 9020SOL    HW127959   0.853   3.556   1.745
 9020SOL    HW227960   0.770   3.670   1.827
 9021SOL     OW27961   6.720   0.651   4.187
 9021SOL    HW127962   6.664   0.568   4.179
 9021SOL    HW227963   6.664   0.731   4.168
 9022SOL     OW27964   2.962   1.824   0.167
 9022SOL    HW127965   2.926   1.821   0.260
 9022SOL    HW227966   2.887   1.822   0.102
 9023SOL     OW27967   2.921   3.404   2.316
 9023SOL    HW127968   3.008   3.449   2.297
 9023SOL    HW227969   2.933   3.339   2.391
 9024SOL     OW27970   0.518   4.862   4.982
 9024SOL    HW127971   0.578   4.837   4.905
 9024SOL    HW227972   0.428   4.822   4.968
 9025SOL     OW27973   0.968   5.205   0.128
 9025SOL    HW127974   0.873   5.229   0.112
 9025SOL    HW227975   0.976   5.106   0.143
 9026SOL     OW27976   4.314   3.300   1.115
 9026SOL    HW127977   4.287   3.225   1.176
 9026SOL    HW227978   4.310   3.269   1.020
 9027SOL     OW27979   0.946   2.441   4.399
 9027SOL    HW127980   0.881   2.513   4.424
 9027SOL    HW227981   1.037   2.464   4.434
 9028SOL     OW27982   2.749   3.599   5.799
 9028SOL    HW127983   2.737   3.511   5.753
 9028SOL    HW227984   2.843   3.630   5.789
 9029SOL     OW27985   3.292   5.977   4.716
 9029SOL    HW127986   3.273   6.061   4.765
 9029SOL    HW227987   3.247   5.900   4.761
 9030SOL     OW27988   1.906   2.083   3.316
 9030SOL    HW127989   1.999   2.117   3.306
 9030SOL    HW227990   1.895   1.999   3.263
 9031SOL     OW27991   4.120   5.956   4.674
 9031SOL    HW127992   4.218   5.948   4.658
 9031SOL    HW227993   4.088   5.878   4.728
 9032SOL     OW27994   4.251   3.752   0.187
 9032SOL    HW127995   4.200   3.773   0.270
 9032SOL    HW227996   4.195   3.695   0.127
 9033SOL     OW27997   0.971   4.088   3.811
 9033SOL    HW127998   0.881   4.095   3.854
 9033SOL    HW227999   1.035   4.047   3.875
 9034SOL     OW28000   3.008   0.085   5.727
 9034SOL    HW128001   3.023   0.088   5.825
 9034SOL    HW228002   2.925   0.032   5.708
 9035SOL     OW28003   1.312   4.962   5.959
 9035SOL    HW128004   1.357   4.877   5.933
 9035SOL    HW228005   1.298   4.964   6.058
 9036SOL     OW28006   1.938   1.086   6.030
 9036SOL    HW128007   1.856   1.104   6.085
 9036SOL    HW228008   1.984   1.172   6.009
 9037SOL     OW28009   1.770   3.936   5.265
 9037SOL    HW128010   1.850   3.949   5.206
 9037SOL    HW228011   1.773   4.002   5.340
 9038SOL     OW28012   4.506   6.916   5.860
 9038SOL    HW128013   4.446   6.878   5.789
 9038SOL    HW228014   4.502   6.859   5.941
 9039SOL     OW28015   3.069   4.884   4.914
 9039SOL    HW128016   3.062   4.885   5.014
 9039SOL    HW228017   3.080   4.789   4.882
 9040SOL     OW28018   3.134   1.728   2.721
 9040SOL    HW128019   3.143   1.644   2.773
 9040SOL    HW228020   3.133   1.807   2.783
 9041SOL     OW28021   1.128   2.319   1.558
 9041SOL    HW128022   1.078   2.390   1.609
 9041SOL    HW228023   1.105   2.229   1.595
 9042SOL     OW28024   2.836   0.372   4.014
 9042SOL    HW128025   2.754   0.317   4.027
 9042SOL    HW228026   2.889   0.375   4.098
 9043SOL     OW28027   1.133   0.813   6.922
 9043SOL    HW128028   1.037   0.803   6.899
 9043SOL    HW228029   1.189   0.781   6.845
 9044SOL     OW28030   5.945   1.117   0.933
 9044SOL    HW128031   5.878   1.190   0.918
 9044SOL    HW228032   5.935   1.080   1.025
 9045SOL     OW28033   2.138   1.504   2.778
 9045SOL    HW128034   2.115   1.511   2.875
 9045SOL    HW228035   2.216   1.563   2.758
 9046SOL     OW28036   3.615   3.935   3.822
 9046SOL    HW128037   3.669   3.994   3.882
 9046SOL    HW228038   3.610   3.975   3.731
 9047SOL     OW28039   1.267   2.996   5.502
 9047SOL    HW128040   1.318   2.914   5.477
 9047SOL    HW228041   1.170   2.982   5.482
 9048SOL     OW28042   5.797   2.708   6.406
 9048SOL    HW128043   5.734   2.632   6.391
 9048SOL    HW228044   5.782   2.746   6.497
 9049SOL     OW28045   3.697   6.699   6.055
 9049SOL    HW128046   3.637   6.644   6.114
 9049SOL    HW228047   3.791   6.696   6.090
 9050SOL     OW28048   0.286   3.194   0.261
 9050SOL    HW128049   0.264   3.222   0.354
 9050SOL    HW228050   0.347   3.114   0.263
 9051SOL     OW28051   4.221   5.955   0.983
 9051SOL    HW128052   4.291   6.024   0.998
 9051SOL    HW228053   4.140   5.997   0.942
 9052SOL     OW28054   2.203   2.472   4.154
 9052SOL    HW128055   2.294   2.479   4.112
 9052SOL    HW228056   2.159   2.561   4.154
 9053SOL     OW28057   2.085   1.544   3.069
 9053SOL    HW128058   2.150   1.486   3.118
 9053SOL    HW228059   2.117   1.639   3.070
 9054SOL     OW28060   2.155   6.002   2.837
 9054SOL    HW128061   2.127   5.990   2.932
 9054SOL    HW228062   2.230   6.069   2.832
 9055SOL     OW28063   5.907   3.080   4.007
 9055SOL    HW128064   5.930   2.985   4.031
 9055SOL    HW228065   5.857   3.122   4.082
 9056SOL     OW28066   0.766   0.976   2.389
 9056SOL    HW128067   0.676   0.962   2.347
 9056SOL    HW228068   0.772   1.069   2.425
 9057SOL     OW28069   5.865   5.036   5.790
 9057SOL    HW128070   5.938   4.971   5.808
 9057SOL    HW228071   5.903   5.118   5.746
 9058SOL     OW28072   2.737   1.828   3.087
 9058SOL    HW128073   2.816   1.821   3.025
 9058SOL    HW228074   2.657   1.857   3.035
 9059SOL     OW28075   1.234   2.017   4.522
 9059SOL    HW128076   1.284   2.075   4.587
 9059SOL    HW228077   1.247   2.052   4.429
 9060SOL     OW28078   6.019   2.965   3.427
 9060SOL    HW128079   6.103   2.986   3.476
 9060SOL    HW228080   5.942   3.014   3.469
 9061SOL     OW28081   2.299   5.415   1.980
 9061SOL    HW128082   2.243   5.343   2.021
 9061SOL    HW228083   2.258   5.504   2.000
 9062SOL     OW28084   1.923   5.915   1.881
 9062SOL    HW128085   1.832   5.955   1.895
 9062SOL    HW228086   1.930   5.878   1.789
 9063SOL     OW28087   1.633   6.953   2.906
 9063SOL    HW128088   1.579   6.972   2.824
 9063SOL    HW228089   1.707   6.889   2.884
 9064SOL     OW28090   6.696   2.083   5.436
 9064SOL    HW128091   6.742   2.026   5.368
 9064SOL    HW228092   6.693   2.033   5.523
 9065SOL     OW28093   3.209   6.910   5.604
 9065SOL    HW128094   3.277   6.975   5.641
 9065SOL    HW228095   3.128   6.960   5.576
 9066SOL     OW28096   5.020   6.000   0.596
 9066SOL    HW128097   4.953   6.009   0.523
 9066SOL    HW228098   4.990   5.932   0.662
 9067SOL     OW28099   6.299   0.911   4.310
 9067SOL    HW128100   6.330   0.922   4.215
 9067SOL    HW228101   6.293   1.001   4.353
 9068SOL     OW28102   2.301   6.610   4.879
 9068SOL    HW128103   2.242   6.625   4.800
 9068SOL    HW228104   2.394   6.637   4.858
 9069SOL     OW28105   1.819   3.135   1.985
 9069SOL    HW128106   1.822   3.114   1.887
 9069SOL    HW228107   1.751   3.076   2.030
 9070SOL     OW28108   1.678   4.068   4.999
 9070SOL    HW128109   1.730   3.987   4.972
 9070SOL    HW228110   1.612   4.091   4.928
 9071SOL     OW28111   5.301   0.054   1.462
 9071SOL    HW128112   5.219   0.110   1.466
 9071SOL    HW228113   5.369   0.098   1.403
 9072SOL     OW28114   0.324   1.414   2.044
 9072SOL    HW128115   0.246   1.394   2.103
 9072SOL    HW228116   0.353   1.509   2.058
 9073SOL     OW28117   3.364   6.825   2.547
 9073SOL    HW128118   3.304   6.745   2.539
 9073SOL    HW228119   3.456   6.801   2.516
 9074SOL     OW28120   2.111   1.420   1.940
 9074SOL    HW128121   2.070   1.500   1.896
 9074SOL    HW228122   2.186   1.450   1.998
 9075SOL     OW28123   1.115   1.146   2.647
 9075SOL    HW128124   1.079   1.203   2.721
 9075SOL    HW228125   1.088   1.185   2.559
 9076SOL     OW28126   5.966   2.136   5.281
 9076SOL    HW128127   6.005   2.226   5.264
 9076SOL    HW228128   5.992   2.074   5.208
 9077SOL     OW28129   4.970   0.125   0.360
 9077SOL    HW128130   4.907   0.170   0.423
 9077SOL    HW228131   4.922   0.054   0.309
 9078SOL     OW28132   4.518   3.826   6.193
 9078SOL    HW128133   4.502   3.894   6.122
 9078SOL    HW228134   4.471   3.741   6.170
 9079SOL     OW28135   3.021   0.395   4.197
 9079SOL    HW128136   3.110   0.421   4.160
 9079SOL    HW228137   2.989   0.466   4.260
 9080SOL     OW28138   4.848   2.631   0.076
 9080SOL    HW128139   4.948   2.638   0.069
 9080SOL    HW228140   4.807   2.681   7.015
 9081SOL     OW28141   3.392   6.249   2.437
 9081SOL    HW128142   3.301   6.224   2.405
 9081SOL    HW228143   3.461   6.201   2.382
 9082SOL     OW28144   2.266   0.551   5.942
 9082SOL    HW128145   2.279   0.648   5.923
 9082SOL    HW228146   2.278   0.535   6.040
 9083SOL     OW28147   2.925   6.213   6.070
 9083SOL    HW128148   2.855   6.212   5.998
 9083SOL    HW228149   3.015   6.225   6.029
 9084SOL     OW28150   3.027   3.929   4.385
 9084SOL    HW128151   3.009   3.972   4.473
 9084SOL    HW228152   3.031   3.999   4.314
 9085SOL     OW28153   2.473   6.055   1.398
 9085SOL    HW128154   2.507   6.045   1.491
 9085SOL    HW228155   2.444   6.150   1.384
 9086SOL     OW28156   1.078   4.473   0.303
 9086SOL    HW128157   1.116   4.561   0.276
 9086SOL    HW228158   1.145   4.401   0.289
 9087SOL     OW28159   4.674   2.633   1.550
 9087SOL    HW128160   4.607   2.578   1.501
 9087SOL    HW228161   4.628   2.688   1.620
 9088SOL     OW28162   6.741   6.512   0.827
 9088SOL    HW128163   6.768   6.483   0.919
 9088SOL    HW228164   6.653   6.560   0.831
 9089SOL     OW28165   5.138   5.619   5.173
 9089SOL    HW128166   5.148   5.676   5.091
 9089SOL    HW228167   5.042   5.592   5.183
 9090SOL     OW28168   0.031   1.392   3.861
 9090SOL    HW128169   6.961   1.347   3.886
 9090SOL    HW228170   0.060   1.362   3.770
 9091SOL     OW28171   3.322   4.582   0.053
 9091SOL    HW128172   3.347   4.486   0.042
 9091SOL    HW228173   3.239   4.589   0.109
 9092SOL     OW28174   6.718   1.027   0.230
 9092SOL    HW128175   6.772   1.076   0.298
 9092SOL    HW228176   6.686   0.941   0.270
 9093SOL     OW28177   1.180   6.312   5.347
 9093SOL    HW128178   1.161   6.402   5.385
 9093SOL    HW228179   1.279   6.302   5.332
 9094SOL     OW28180   6.841   4.892   2.945
 9094SOL    HW128181   6.848   4.943   3.031
 9094SOL    HW228182   6.867   4.951   2.869
 9095SOL     OW28183   5.259   4.249   5.764
 9095SOL    HW128184   5.265   4.164   5.711
 9095SOL    HW228185   5.280   4.327   5.705
 9096SOL     OW28186   6.057   4.678   2.295
 9096SOL    HW128187   6.084   4.774   2.294
 9096SOL    HW228188   5.966   4.669   2.335
 9097SOL     OW28189   1.417   1.845   1.098
 9097SOL    HW128190   1.442   1.755   1.063
 9097SOL    HW228191   1.487   1.877   1.162
 9098SOL     OW28192   3.433   1.388   4.839
 9098SOL    HW128193   3.459   1.480   4.870
 9098SOL    HW228194   3.467   1.373   4.747
 9099SOL     OW28195   3.366   3.028   5.720
 9099SOL    HW128196   3.336   3.059   5.629
 9099SOL    HW228197   3.429   2.951   5.709
 9100SOL     OW28198   0.297   3.065   3.538
 9100SOL    HW128199   0.225   3.029   3.598
 9100SOL    HW228200   0.258   3.133   3.476
 9101SOL     OW28201   2.576   2.470   2.069
 9101SOL    HW128202   2.540   2.537   2.005
 9101SOL    HW228203   2.668   2.444   2.042
 9102SOL     OW28204   3.269   6.103   1.666
 9102SOL    HW128205   3.350   6.085   1.609
 9102SOL    HW228206   3.188   6.068   1.620
 9103SOL     OW28207   6.379   2.991   6.557
 9103SOL    HW128208   6.383   3.042   6.471
 9103SOL    HW228209   6.284   2.965   6.577
 9104SOL     OW28210   0.320   5.786   2.073
 9104SOL    HW128211   0.244   5.727   2.100
 9104SOL    HW228212   0.309   5.814   1.978
 9105SOL     OW28213   0.594   1.453   6.321
 9105SOL    HW128214   0.590   1.546   6.357
 9105SOL    HW228215   0.547   1.449   6.233
 9106SOL     OW28216   6.120   4.072   1.179
 9106SOL    HW128217   6.083   3.987   1.217
 9106SOL    HW228218   6.206   4.094   1.225
 9107SOL     OW28219   2.720   0.488   6.802
 9107SOL    HW128220   2.689   0.575   6.762
 9107SOL    HW228221   2.640   0.433   6.825
 9108SOL     OW28222   5.123   4.721   4.972
 9108SOL    HW128223   5.093   4.639   4.922
 9108SOL    HW228224   5.135   4.797   4.908
 9109SOL     OW28225   6.257   3.422   3.261
 9109SOL    HW128226   6.355   3.418   3.281
 9109SOL    HW228227   6.206   3.434   3.346
 9110SOL     OW28228   2.030   4.727   4.272
 9110SOL    HW128229   1.973   4.767   4.344
 9110SOL    HW228230   1.975   4.717   4.189
 9111SOL     OW28231   5.279   2.729   0.475
 9111SOL    HW128232   5.317   2.669   0.545
 9111SOL    HW228233   5.352   2.764   0.417
 9112SOL     OW28234   1.645   5.856   2.926
 9112SOL    HW128235   1.672   5.951   2.943
 9112SOL    HW228236   1.725   5.801   2.903
 9113SOL     OW28237   4.831   2.696   2.550
 9113SOL    HW128238   4.829   2.784   2.501
 9113SOL    HW228239   4.786   2.626   2.494
 9114SOL     OW28240   0.294   5.510   3.641
 9114SOL    HW128241   0.287   5.508   3.542
 9114SOL    HW228242   0.337   5.425   3.673
 9115SOL     OW28243   6.520   5.582   4.520
 9115SOL    HW128244   6.571   5.579   4.606
 9115SOL    HW228245   6.468   5.497   4.509
 9116SOL     OW28246   0.496   0.109   2.724
 9116SOL    HW128247   0.568   0.175   2.744
 9116SOL    HW228248   0.474   0.057   2.806
 9117SOL     OW28249   3.541   2.791   5.733
 9117SOL    HW128250   3.481   2.712   5.724
 9117SOL    HW228251   3.542   2.842   5.647
 9118SOL     OW28252   6.775   3.659   6.901
 9118SOL    HW128253   6.829   3.743   6.895
 9118SOL    HW228254   6.750   3.629   6.808
 9119SOL     OW28255   3.792   0.955   2.344
 9119SOL    HW128256   3.871   0.895   2.332
 9119SOL    HW228257   3.797   1.001   2.433
 9120SOL     OW28258   6.764   1.923   5.721
 9120SOL    HW128259   6.731   2.017   5.715
 9120SOL    HW228260   6.778   1.898   5.817
 9121SOL     OW28261   3.471   6.326   4.652
 9121SOL    HW128262   3.411   6.401   4.624
 9121SOL    HW228263   3.436   6.239   4.617
 9122SOL     OW28264   2.398   4.328   2.115
 9122SOL    HW128265   2.413   4.293   2.023
 9122SOL    HW228266   2.412   4.427   2.117
 9123SOL     OW28267   1.935   0.877   4.586
 9123SOL    HW128268   1.968   0.892   4.493
 9123SOL    HW228269   2.005   0.827   4.638
 9124SOL     OW28270   4.176   5.430   6.985
 9124SOL    HW128271   4.183   5.340   0.013
 9124SOL    HW228272   4.082   5.444   6.953
 9125SOL     OW28273   4.420   4.676   0.884
 9125SOL    HW128274   4.429   4.746   0.955
 9125SOL    HW228275   4.374   4.596   0.922
 9126SOL     OW28276   5.837   3.957   1.393
 9126SOL    HW128277   5.881   4.045   1.376
 9126SOL    HW228278   5.828   3.942   1.491
 9127SOL     OW28279   6.465   1.799   6.135
 9127SOL    HW128280   6.537   1.730   6.127
 9127SOL    HW228281   6.416   1.805   6.048
 9128SOL     OW28282   6.328   2.139   5.167
 9128SOL    HW128283   6.360   2.083   5.243
 9128SOL    HW228284   6.254   2.092   5.119
 9129SOL     OW28285   6.694   2.237   0.155
 9129SOL    HW128286   6.598   2.258   0.136
 9129SOL    HW228287   6.737   2.198   0.072
 9130SOL     OW28288   1.478   4.252   6.751
 9130SOL    HW128289   1.575   4.242   6.775
 9130SOL    HW228290   1.461   4.209   6.662
 9131SOL     OW28291   5.574   3.263   6.288
 9131SOL    HW128292   5.540   3.286   6.197
 9131SOL    HW228293   5.499   3.222   6.341
 9132SOL     OW28294   0.993   5.331   4.532
 9132SOL    HW128295   0.921   5.338   4.600
 9132SOL    HW228296   0.953   5.307   4.443
 9133SOL     OW28297   3.795   6.793   1.167
 9133SOL    HW128298   3.700   6.762   1.164
 9133SOL    HW228299   3.839   6.773   1.079
 9134SOL     OW28300   3.880   5.449   1.160
 9134SOL    HW128301   3.826   5.424   1.240
 9134SOL    HW228302   3.878   5.548   1.148
 9135SOL     OW28303   0.465   0.325   1.401
 9135SOL    HW128304   0.433   0.411   1.363
 9135SOL    HW228305   0.532   0.284   1.339
 9136SOL     OW28306   4.690   6.163   5.935
 9136SOL    HW128307   4.592   6.145   5.947
 9136SOL    HW228308   4.729   6.097   5.870
 9137SOL     OW28309   3.866   0.258   6.791
 9137SOL    HW128310   3.917   0.344   6.797
 9137SOL    HW228311   3.921   0.190   6.743
 9138SOL     OW28312   0.352   4.559   6.587
 9138SOL    HW128313   0.431   4.545   6.526
 9138SOL    HW228314   0.319   4.470   6.618
 9139SOL     OW28315   1.402   1.201   2.561
 9139SOL    HW128316   1.466   1.160   2.497
 9139SOL    HW228317   1.349   1.130   2.606
 9140SOL     OW28318   0.968   3.583   2.170
 9140SOL    HW128319   1.017   3.670   2.175
 9140SOL    HW228320   0.873   3.599   2.143
 9141SOL     OW28321   6.184   6.465   1.342
 9141SOL    HW128322   6.156   6.518   1.422
 9141SOL    HW228323   6.137   6.377   1.341
 9142SOL     OW28324   0.786   4.007   1.248
 9142SOL    HW128325   0.756   3.942   1.317
 9142SOL    HW228326   0.719   4.012   1.175
 9143SOL     OW28327   6.465   3.347   0.663
 9143SOL    HW128328   6.417   3.339   0.750
 9143SOL    HW228329   6.435   3.430   0.615
 9144SOL     OW28330   3.159   5.391   5.054
 9144SOL    HW128331   3.256   5.368   5.041
 9144SOL    HW228332   3.115   5.397   4.964
 9145SOL     OW28333   0.646   6.243   6.570
 9145SOL    HW128334   0.726   6.187   6.592
 9145SOL    HW228335   0.625   6.303   6.647
 9146SOL     OW28336   5.163   3.547   2.911
 9146SOL    HW128337   5.080   3.512   2.869
 9146SOL    HW228338   5.231   3.474   2.915
 9147SOL     OW28339   6.903   0.686   5.532
 9147SOL    HW128340   6.988   0.727   5.498
 9147SOL    HW228341   6.825   0.736   5.495
 9148SOL     OW28342   5.443   6.607   2.445
 9148SOL    HW128343   5.518   6.614   2.511
 9148SOL    HW228344   5.363   6.566   2.489
 9149SOL     OW28345   5.344   4.000   2.195
 9149SOL    HW128346   5.382   4.065   2.129
 9149SOL    HW228347   5.341   3.909   2.154
 9150SOL     OW28348   3.760   4.669   0.682
 9150SOL    HW128349   3.663   4.685   0.697
 9150SOL    HW228350   3.812   4.743   0.726
 9151SOL     OW28351   1.931   4.367   3.672
 9151SOL    HW128352   2.028   4.351   3.652
 9151SOL    HW228353   1.876   4.293   3.632
 9152SOL     OW28354   2.249   4.182   4.626
 9152SOL    HW128355   2.254   4.206   4.529
 9152SOL    HW228356   2.310   4.242   4.678
 9153SOL     OW28357   0.208   2.746   6.790
 9153SOL    HW128358   0.218   2.751   6.691
 9153SOL    HW228359   0.114   2.719   6.813
 9154SOL     OW28360   4.914   4.372   4.385
 9154SOL    HW128361   4.880   4.455   4.342
 9154SOL    HW228362   4.947   4.394   4.477
 9155SOL     OW28363   2.508   5.046   2.461
 9155SOL    HW128364   2.552   5.003   2.382
 9155SOL    HW228365   2.548   5.009   2.545
 9156SOL     OW28366   6.686   1.692   1.436
 9156SOL    HW128367   6.676   1.707   1.534
 9156SOL    HW228368   6.758   1.624   1.420
 9157SOL     OW28369   3.163   4.137   0.015
 9157SOL    HW128370   3.232   4.196   0.057
 9157SOL    HW228371   3.117   4.188   6.958
 9158SOL     OW28372   6.707   3.967   3.984
 9158SOL    HW128373   6.802   3.996   3.994
 9158SOL    HW228374   6.670   4.000   3.898
 9159SOL     OW28375   2.242   0.203   3.593
 9159SOL    HW128376   2.285   0.136   3.532
 9159SOL    HW228377   2.151   0.171   3.618
 9160SOL     OW28378   0.432   6.245   5.922
 9160SOL    HW128379   0.455   6.342   5.913
 9160SOL    HW228380   0.336   6.236   5.947
 9161SOL     OW28381   6.365   4.696   3.097
 9161SOL    HW128382   6.306   4.616   3.107
 9161SOL    HW228383   6.460   4.665   3.089
 9162SOL     OW28384   3.649   6.962   2.832
 9162SOL    HW128385   3.580   6.997   2.769
 9162SOL    HW228386   3.625   6.987   2.925
 9163SOL     OW28387   6.709   3.227   2.964
 9163SOL    HW128388   6.730   3.303   2.902
 9163SOL    HW228389   6.612   3.227   2.986
 9164SOL     OW28390   1.716   0.631   6.592
 9164SOL    HW128391   1.764   0.718   6.598
 9164SOL    HW228392   1.730   0.579   6.677
 9165SOL     OW28393   4.800   2.213   5.861
 9165SOL    HW128394   4.750   2.244   5.942
 9165SOL    HW228395   4.735   2.194   5.787
 9166SOL     OW28396   4.635   5.649   1.057
 9166SOL    HW128397   4.729   5.636   1.089
 9166SOL    HW228398   4.601   5.738   1.087
 9167SOL     OW28399   1.585   2.282   6.223
 9167SOL    HW128400   1.585   2.255   6.319
 9167SOL    HW228401   1.680   2.294   6.192
 9168SOL     OW28402   6.991   6.178   6.758
 9168SOL    HW128403   6.936   6.118   6.699
 9168SOL    HW228404   0.070   6.148   6.755
 9169SOL     OW28405   6.797   6.363   6.293
 9169SOL    HW128406   6.710   6.348   6.248
 9169SOL    HW228407   6.833   6.452   6.268
 9170SOL     OW28408   1.974   0.273   6.286
 9170SOL    HW128409   1.881   0.241   6.267
 9170SOL    HW228410   1.972   0.341   6.360
 9171SOL     OW28411   3.219   5.818   0.443
 9171SOL    HW128412   3.204   5.827   0.541
 9171SOL    HW228413   3.177   5.734   0.410
 9172SOL     OW28414   4.578   1.635   3.889
 9172SOL    HW128415   4.583   1.652   3.988
 9172SOL    HW228416   4.495   1.677   3.852
 9173SOL     OW28417   5.956   3.035   4.508
 9173SOL    HW128418   6.020   3.031   4.431
 9173SOL    HW228419   6.000   2.996   4.589
 9174SOL     OW28420   0.769   5.780   0.035
 9174SOL    HW128421   0.848   5.842   0.038
 9174SOL    HW228422   0.790   5.698   0.088
 9175SOL     OW28423   1.257   0.067   0.064
 9175SOL    HW128424   1.275   6.988   0.038
 9175SOL    HW228425   1.337   0.123   0.044
 9176SOL     OW28426   2.483   6.845   1.779
 9176SOL    HW128427   2.552   6.774   1.768
 9176SOL    HW228428   2.457   6.880   1.689
 9177SOL     OW28429   1.393   2.511   3.726
 9177SOL    HW128430   1.368   2.592   3.779
 9177SOL    HW228431   1.451   2.538   3.649
 9178SOL     OW28432   1.900   5.574   6.282
 9178SOL    HW128433   1.824   5.510   6.290
 9178SOL    HW228434   1.959   5.546   6.206
 9179SOL     OW28435   1.576   5.707   4.830
 9179SOL    HW128436   1.592   5.623   4.881
 9179SOL    HW228437   1.663   5.752   4.811
 9180SOL     OW28438   6.483   2.712   3.380
 9180SOL    HW128439   6.414   2.642   3.364
 9180SOL    HW228440   6.534   2.728   3.295
 9181SOL     OW28441   4.725   2.926   3.780
 9181SOL    HW128442   4.678   2.863   3.842
 9181SOL    HW228443   4.807   2.961   3.823
 9182SOL     OW28444   3.537   0.316   3.510
 9182SOL    HW128445   3.505   0.363   3.592
 9182SOL    HW228446   3.507   0.367   3.429
 9183SOL     OW28447   4.909   4.367   6.740
 9183SOL    HW128448   4.972   4.380   6.817
 9183SOL    HW228449   4.909   4.271   6.713
 9184SOL     OW28450   3.731   2.053   0.635
 9184SOL    HW128451   3.797   1.987   0.600
 9184SOL    HW228452   3.765   2.092   0.720
 9185SOL     OW28453   6.965   6.672   5.359
 9185SOL    HW128454   6.867   6.655   5.366
 9185SOL    HW228455   7.011   6.589   5.326
 9186SOL     OW28456   5.105   0.845   5.391
 9186SOL    HW128457   5.110   0.767   5.453
 9186SOL    HW228458   5.047   0.822   5.313
 9187SOL     OW28459   5.030   1.880   0.104
 9187SOL    HW128460   5.033   1.885   0.204
 9187SOL    HW228461   4.984   1.795   0.076
 9188SOL     OW28462   1.602   0.438   1.880
 9188SOL    HW128463   1.566   0.413   1.790
 9188SOL    HW228464   1.577   0.367   1.946
 9189SOL     OW28465   2.508   6.848   3.344
 9189SOL    HW128466   2.475   6.898   3.424
 9189SOL    HW228467   2.517   6.751   3.367
 9190SOL     OW28468   0.146   3.414   5.265
 9190SOL    HW128469   0.109   3.503   5.238
 9190SOL    HW228470   0.168   3.416   5.363
 9191SOL     OW28471   5.710   0.238   6.577
 9191SOL    HW128472   5.798   0.236   6.623
 9191SOL    HW228473   5.661   0.322   6.601
 9192SOL     OW28474   6.161   3.355   5.617
 9192SOL    HW128475   6.167   3.355   5.517
 9192SOL    HW228476   6.215   3.432   5.653
 9193SOL     OW28477   3.774   3.655   3.991
 9193SOL    HW128478   3.678   3.634   4.011
 9193SOL    HW228479   3.831   3.577   4.018
 9194SOL     OW28480   3.985   6.111   2.193
 9194SOL    HW128481   3.985   6.162   2.107
 9194SOL    HW228482   3.953   6.018   2.177
 9195SOL     OW28483   1.688   2.848   3.557
 9195SOL    HW128484   1.654   2.877   3.468
 9195SOL    HW228485   1.787   2.846   3.556
 9196SOL     OW28486   5.685   0.383   3.601
 9196SOL    HW128487   5.595   0.418   3.627
 9196SOL    HW228488   5.750   0.459   3.594
 9197SOL     OW28489   3.641   5.477   0.126
 9197SOL    HW128490   3.649   5.532   0.209
 9197SOL    HW228491   3.628   5.538   0.047
 9198SOL     OW28492   5.721   4.647   6.453
 9198SOL    HW128493   5.819   4.669   6.454
 9198SOL    HW228494   5.709   4.549   6.463
 9199SOL     OW28495   0.164   2.679   6.231
 9199SOL    HW128496   0.188   2.723   6.317
 9199SOL    HW228497   0.120   2.745   6.170
 9200SOL     OW28498   2.235   5.637   6.523
 9200SOL    HW128499   2.220   5.713   6.459
 9200SOL    HW228500   2.222   5.550   6.476
 9201SOL     OW28501   0.328   3.490   0.905
 9201SOL    HW128502   0.414   3.446   0.934
 9201SOL    HW228503   0.334   3.516   0.809
 9202SOL     OW28504   1.644   5.984   3.856
 9202SOL    HW128505   1.661   6.029   3.944
 9202SOL    HW228506   1.713   5.912   3.843
 9203SOL     OW28507   5.343   2.489   6.427
 9203SOL    HW128508   5.313   2.483   6.522
 9203SOL    HW228509   5.288   2.558   6.379
 9204SOL     OW28510   5.052   3.677   3.692
 9204SOL    HW128511   5.020   3.583   3.706
 9204SOL    HW228512   4.994   3.723   3.625
 9205SOL     OW28513   5.189   4.510   2.555
 9205SOL    HW128514   5.193   4.584   2.622
 9205SOL    HW228515   5.094   4.494   2.530
 9206SOL     OW28516   3.270   0.240   3.807
 9206SOL    HW128517   3.335   0.315   3.795
 9206SOL    HW228518   3.261   0.220   3.905
 9207SOL     OW28519   3.601   5.835   6.048
 9207SOL    HW128520   3.657   5.911   6.016
 9207SOL    HW228521   3.570   5.853   6.141
 9208SOL     OW28522   5.505   4.390   2.057
 9208SOL    HW128523   5.589   4.378   2.003
 9208SOL    HW228524   5.528   4.395   2.154
 9209SOL     OW28525   4.115   0.365   2.005
 9209SOL    HW128526   4.184   0.293   2.008
 9209SOL    HW228527   4.127   0.419   1.921
 9210SOL     OW28528   0.852   0.828   1.334
 9210SOL    HW128529   0.909   0.898   1.291
 9210SOL    HW228530   0.793   0.871   1.403
 9211SOL     OW28531   5.433   3.263   6.044
 9211SOL    HW128532   5.440   3.245   5.946
 9211SOL    HW228533   5.378   3.192   6.087
 9212SOL     OW28534   5.111   3.867   5.278
 9212SOL    HW128535   5.021   3.864   5.234
 9212SOL    HW228536   5.141   3.773   5.298
 9213SOL     OW28537   5.154   5.555   4.352
 9213SOL    HW128538   5.200   5.502   4.280
 9213SOL    HW228539   5.222   5.609   4.401
 9214SOL     OW28540   0.340   2.672   5.563
 9214SOL    HW128541   0.406   2.600   5.586
 9214SOL    HW228542   0.294   2.649   5.478
 9215SOL     OW28543   0.816   4.915   2.872
 9215SOL    HW128544   0.795   4.892   2.967
 9215SOL    HW228545   0.908   4.883   2.850
 9216SOL     OW28546   2.779   6.951   4.652
 9216SOL    HW128547   2.842   6.907   4.716
 9216SOL    HW228548   2.714   6.884   4.618
 9217SOL     OW28549   5.692   1.649   6.888
 9217SOL    HW128550   5.731   1.602   6.967
 9217SOL    HW228551   5.692   1.748   6.904
 9218SOL     OW28552   3.879   1.516   6.736
 9218SOL    HW128553   3.837   1.461   6.808
 9218SOL    HW228554   3.815   1.588   6.708
 9219SOL     OW28555   4.241   3.450   5.822
 9219SOL    HW128556   4.212   3.423   5.730
 9219SOL    HW228557   4.269   3.546   5.821
 9220SOL     OW28558   1.701   6.153   2.953
 9220SOL    HW128559   1.786   6.160   2.901
 9220SOL    HW228560   1.705   6.214   3.032
 9221SOL     OW28561   2.704   0.090   4.988
 9221SOL    HW128562   2.751   0.094   4.900
 9221SOL    HW228563   2.738   0.163   5.048
 9222SOL     OW28564   2.394   4.698   4.924
 9222SOL    HW128565   2.461   4.729   4.991
 9222SOL    HW228566   2.418   4.606   4.893
 9223SOL     OW28567   1.052   2.748   3.972
 9223SOL    HW128568   1.145   2.732   3.938
 9223SOL    HW228569   1.018   2.665   4.016
 9224SOL     OW28570   1.568   3.713   3.321
 9224SOL    HW128571   1.643   3.778   3.319
 9224SOL    HW228572   1.482   3.759   3.296
 9225SOL     OW28573   4.251   5.658   6.036
 9225SOL    HW128574   4.298   5.679   6.122
 9225SOL    HW228575   4.301   5.585   5.988
 9226SOL     OW28576   0.943   0.593   1.220
 9226SOL    HW128577   0.907   0.663   1.281
 9226SOL    HW228578   1.001   0.637   1.150
 9227SOL     OW28579   1.659   5.963   1.556
 9227SOL    HW128580   1.692   5.987   1.647
 9227SOL    HW228581   1.722   5.999   1.487
 9228SOL     OW28582   1.932   1.852   0.067
 9228SOL    HW128583   1.992   1.930   0.082
 9228SOL    HW228584   1.952   1.780   0.134
 9229SOL     OW28585   0.694   4.798   5.982
 9229SOL    HW128586   0.779   4.820   5.934
 9229SOL    HW228587   0.704   4.821   6.079
 9230SOL     OW28588   4.949   3.510   2.742
 9230SOL    HW128589   4.932   3.414   2.765
 9230SOL    HW228590   4.922   3.527   2.647
 9231SOL     OW28591   0.440   3.949   5.058
 9231SOL    HW128592   0.528   3.940   5.105
 9231SOL    HW228593   0.421   4.046   5.043
 9232SOL     OW28594   2.552   5.581   1.007
 9232SOL    HW128595   2.544   5.679   0.993
 9232SOL    HW228596   2.642   5.559   1.046
 9233SOL     OW28597   0.461   6.934   0.903
 9233SOL    HW128598   0.494   6.951   0.810
 9233SOL    HW228599   0.361   6.942   0.905
 9234SOL     OW28600   1.667   5.831   0.768
 9234SOL    HW128601   1.604   5.765   0.727
 9234SOL    HW228602   1.687   5.903   0.702
 9235SOL     OW28603   2.298   2.686   2.943
 9235SOL    HW128604   2.264   2.614   2.883
 9235SOL    HW228605   2.344   2.644   3.022
 9236SOL     OW28606   2.673   3.617   6.350
 9236SOL    HW128607   2.627   3.705   6.362
 9236SOL    HW228608   2.771   3.632   6.337
 9237SOL     OW28609   0.967   5.599   2.660
 9237SOL    HW128610   0.894   5.592   2.727
 9237SOL    HW228611   1.016   5.686   2.672
 9238SOL     OW28612   2.742   2.410   5.987
 9238SOL    HW128613   2.835   2.412   6.025
 9238SOL    HW228614   2.728   2.491   5.931
 9239SOL     OW28615   6.764   4.373   6.940
 9239SOL    HW128616   6.717   4.423   6.867
 9239SOL    HW228617   6.768   4.276   6.917
 9240SOL     OW28618   4.983   2.536   2.254
 9240SOL    HW128619   4.962   2.533   2.156
 9240SOL    HW228620   4.899   2.520   2.307
 9241SOL     OW28621   0.383   5.875   0.933
 9241SOL    HW128622   0.481   5.859   0.919
 9241SOL    HW228623   0.362   5.972   0.920
 9242SOL     OW28624   2.092   3.183   1.788
 9242SOL    HW128625   1.994   3.165   1.783
 9242SOL    HW228626   2.109   3.282   1.789
 9243SOL     OW28627   0.292   0.586   1.793
 9243SOL    HW128628   0.361   0.586   1.721
 9243SOL    HW228629   0.250   0.496   1.799
 9244SOL     OW28630   2.853   6.617   6.391
 9244SOL    HW128631   2.754   6.611   6.391
 9244SOL    HW228632   2.890   6.562   6.316
 9245SOL     OW28633   0.549   4.254   3.667
 9245SOL    HW128634   0.587   4.288   3.582
 9245SOL    HW228635   0.549   4.154   3.666
 9246SOL     OW28636   5.468   0.560   3.669
 9246SOL    HW128637   5.497   0.635   3.728
 9246SOL    HW228638   5.444   0.596   3.579
 9247SOL     OW28639   3.583   5.193   2.445
 9247SOL    HW128640   3.500   5.232   2.482
 9247SOL    HW228641   3.608   5.240   2.360
 9248SOL     OW28642   2.873   2.249   5.078
 9248SOL    HW128643   2.814   2.201   5.013
 9248SOL    HW228644   2.969   2.237   5.051
 9249SOL     OW28645   4.838   5.426   1.685
 9249SOL    HW128646   4.845   5.368   1.604
 9249SOL    HW228647   4.809   5.518   1.658
 9250SOL     OW28648   0.043   2.954   3.596
 9250SOL    HW128649   0.098   2.872   3.580
 9250SOL    HW228650   6.971   2.929   3.636
 9251SOL     OW28651   4.197   1.954   1.936
 9251SOL    HW128652   4.160   1.981   2.025
 9251SOL    HW228653   4.124   1.918   1.878
 9252SOL     OW28654   5.785   0.696   4.423
 9252SOL    HW128655   5.711   0.716   4.487
 9252SOL    HW228656   5.822   0.781   4.386
 9253SOL     OW28657   5.382   5.453   5.457
 9253SOL    HW128658   5.288   5.453   5.491
 9253SOL    HW228659   5.382   5.435   5.359
 9254SOL     OW28660   4.522   4.910   2.495
 9254SOL    HW128661   4.437   4.863   2.519
 9254SOL    HW228662   4.566   4.862   2.419
 9255SOL     OW28663   5.179   3.492   0.105
 9255SOL    HW128664   5.123   3.570   0.075
 9255SOL    HW228665   5.132   3.444   0.180
 9256SOL     OW28666   2.199   6.982   1.995
 9256SOL    HW128667   2.213   0.020   1.912
 9256SOL    HW228668   2.197   6.885   1.970
 9257SOL     OW28669   5.895   5.357   3.736
 9257SOL    HW128670   5.977   5.414   3.724
 9257SOL    HW228671   5.840   5.361   3.653
 9258SOL     OW28672   3.990   3.493   1.587
 9258SOL    HW128673   4.014   3.513   1.492
 9258SOL    HW228674   4.074   3.475   1.639
 9259SOL     OW28675   2.169   1.220   0.666
 9259SOL    HW128676   2.175   1.171   0.579
 9259SOL    HW228677   2.075   1.251   0.680
 9260SOL     OW28678   6.592   2.861   5.819
 9260SOL    HW128679   6.670   2.921   5.837
 9260SOL    HW228680   6.600   2.777   5.873
 9261SOL     OW28681   4.448   1.366   6.585
 9261SOL    HW128682   4.403   1.454   6.605
 9261SOL    HW228683   4.457   1.314   6.670
 9262SOL     OW28684   0.841   6.098   4.703
 9262SOL    HW128685   0.772   6.064   4.767
 9262SOL    HW228686   0.811   6.082   4.609
 9263SOL     OW28687   3.162   5.340   2.369
 9263SOL    HW128688   3.151   5.414   2.434
 9263SOL    HW228689   3.074   5.316   2.329
 9264SOL     OW28690   4.826   3.681   0.209
 9264SOL    HW128691   4.750   3.617   0.195
 9264SOL    HW228692   4.867   3.664   0.299
 9265SOL     OW28693   4.162   2.470   0.402
 9265SOL    HW128694   4.148   2.523   0.319
 9265SOL    HW228695   4.226   2.517   0.462
 9266SOL     OW28696   0.561   6.119   1.190
 9266SOL    HW128697   0.603   6.193   1.243
 9266SOL    HW228698   0.609   6.109   1.103
 9267SOL     OW28699   0.610   2.075   4.470
 9267SOL    HW128700   0.703   2.050   4.443
 9267SOL    HW228701   0.544   2.012   4.428
 9268SOL     OW28702   0.963   6.945   2.704
 9268SOL    HW128703   0.934   0.010   2.755
 9268SOL    HW228704   0.915   6.942   2.616
 9269SOL     OW28705   4.472   6.924   6.309
 9269SOL    HW128706   4.496   0.002   6.286
 9269SOL    HW228707   4.536   6.862   6.264
 9270SOL     OW28708   3.974   0.037   5.876
 9270SOL    HW128709   3.962   6.987   5.802
 9270SOL    HW228710   3.885   0.069   5.907
 9271SOL     OW28711   6.025   0.529   0.471
 9271SOL    HW128712   6.049   0.442   0.429
 9271SOL    HW228713   6.090   0.549   0.545
 9272SOL     OW28714   0.857   6.625   6.495
 9272SOL    HW128715   0.947   6.668   6.490
 9272SOL    HW228716   0.797   6.666   6.425
 9273SOL     OW28717   6.510   6.145   3.360
 9273SOL    HW128718   6.496   6.210   3.434
 9273SOL    HW228719   6.486   6.053   3.391
 9274SOL     OW28720   6.709   2.515   0.068
 9274SOL    HW128721   6.697   2.420   0.098
 9274SOL    HW228722   6.718   2.517   6.985
 9275SOL     OW28723   6.535   0.556   0.420
 9275SOL    HW128724   6.473   0.633   0.432
 9275SOL    HW228725   6.488   0.471   0.441
 9276SOL     OW28726   1.632   4.787   0.089
 9276SOL    HW128727   1.576   4.723   0.036
 9276SOL    HW228728   1.685   4.844   0.026
 9277SOL     OW28729   4.401   5.339   2.243
 9277SOL    HW128730   4.397   5.370   2.148
 9277SOL    HW228731   4.405   5.239   2.245
 9278SOL     OW28732   1.879   0.653   5.930
 9278SOL    HW128733   1.879   0.595   5.848
 9278SOL    HW228734   1.919   0.603   6.006
 9279SOL     OW28735   3.632   6.840   1.700
 9279SOL    HW128736   3.658   6.849   1.603
 9279SOL    HW228737   3.703   6.879   1.757
 9280SOL     OW28738   2.519   1.282   2.730
 9280SOL    HW128739   2.442   1.266   2.792
 9280SOL    HW228740   2.486   1.284   2.636
 9281SOL     OW28741   3.027   4.700   6.822
 9281SOL    HW128742   2.993   4.786   6.861
 9281SOL    HW228743   3.127   4.703   6.818
 9282SOL     OW28744   4.864   1.181   3.722
 9282SOL    HW128745   4.875   1.093   3.675
 9282SOL    HW228746   4.923   1.249   3.679
 9283SOL     OW28747   5.243   0.257   5.004
 9283SOL    HW128748   5.240   0.185   5.073
 9283SOL    HW228749   5.221   0.219   4.914
 9284SOL     OW28750   2.416   3.486   5.326
 9284SOL    HW128751   2.462   3.398   5.316
 9284SOL    HW228752   2.481   3.560   5.306
 9285SOL     OW28753   5.034   3.626   1.404
 9285SOL    HW128754   4.977   3.707   1.417
 9285SOL    HW228755   5.083   3.632   1.318
 9286SOL     OW28756   5.510   5.055   0.681
 9286SOL    HW128757   5.584   5.061   0.614
 9286SOL    HW228758   5.439   4.994   0.647
 9287SOL     OW28759   3.854   4.713   6.211
 9287SOL    HW128760   3.813   4.804   6.217
 9287SOL    HW228761   3.785   4.647   6.182
 9288SOL     OW28762   4.454   1.496   2.356
 9288SOL    HW128763   4.429   1.593   2.357
 9288SOL    HW228764   4.477   1.467   2.449
 9289SOL     OW28765   4.751   0.596   0.685
 9289SOL    HW128766   4.836   0.585   0.634
 9289SOL    HW228767   4.680   0.631   0.624
 9290SOL     OW28768   5.909   1.077   3.771
 9290SOL    HW128769   5.960   1.124   3.699
 9290SOL    HW228770   5.857   1.002   3.731
 9291SOL     OW28771   1.284   5.712   5.939
 9291SOL    HW128772   1.335   5.780   5.887
 9291SOL    HW228773   1.315   5.713   6.035
 9292SOL     OW28774   1.967   1.600   6.833
 9292SOL    HW128775   2.040   1.565   6.892
 9292SOL    HW228776   1.891   1.632   6.889
 9293SOL     OW28777   5.784   3.816   6.427
 9293SOL    HW128778   5.820   3.731   6.387
 9293SOL    HW228779   5.711   3.852   6.369
 9294SOL     OW28780   5.112   1.347   6.256
 9294SOL    HW128781   5.052   1.277   6.219
 9294SOL    HW228782   5.058   1.424   6.289
 9295SOL     OW28783   6.017   0.437   5.046
 9295SOL    HW128784   5.937   0.431   5.105
 9295SOL    HW228785   6.020   0.357   4.986
 9296SOL     OW28786   1.959   4.939   0.243
 9296SOL    HW128787   1.906   4.867   0.289
 9296SOL    HW228788   1.994   4.904   0.156
 9297SOL     OW28789   0.585   6.906   3.581
 9297SOL    HW128790   0.513   6.907   3.651
 9297SOL    HW228791   0.544   6.912   3.490
 9298SOL     OW28792   1.480   6.335   6.051
 9298SOL    HW128793   1.439   6.324   6.142
 9298SOL    HW228794   1.558   6.396   6.057
 9299SOL     OW28795   0.947   1.833   4.438
 9299SOL    HW128796   1.018   1.817   4.369
 9299SOL    HW228797   0.947   1.930   4.464
 9300SOL     OW28798   6.982   5.046   5.281
 9300SOL    HW128799   0.040   5.112   5.289
 9300SOL    HW228800   6.953   5.017   5.372
 9301SOL     OW28801   6.433   4.906   4.934
 9301SOL    HW128802   6.336   4.884   4.922
 9301SOL    HW228803   6.455   4.905   5.032
 9302SOL     OW28804   2.143   3.249   4.359
 9302SOL    HW128805   2.187   3.197   4.286
 9302SOL    HW228806   2.200   3.245   4.441
 9303SOL     OW28807   2.877   3.735   0.988
 9303SOL    HW128808   2.938   3.757   1.065
 9303SOL    HW228809   2.825   3.653   1.009
 9304SOL     OW28810   4.175   5.318   0.529
 9304SOL    HW128811   4.139   5.279   0.445
 9304SOL    HW228812   4.223   5.248   0.581
 9305SOL     OW28813   3.651   0.953   0.595
 9305SOL    HW128814   3.682   0.885   0.529
 9305SOL    HW228815   3.557   0.932   0.624
 9306SOL     OW28816   1.227   4.321   5.711
 9306SOL    HW128817   1.182   4.254   5.653
 9306SOL    HW228818   1.272   4.390   5.654
 9307SOL     OW28819   1.291   3.488   0.728
 9307SOL    HW128820   1.198   3.520   0.747
 9307SOL    HW228821   1.287   3.395   0.692
 9308SOL     OW28822   1.310   3.796   2.113
 9308SOL    HW128823   1.320   3.699   2.133
 9308SOL    HW228824   1.228   3.832   2.157
 9309SOL     OW28825   3.771   6.114   5.710
 9309SOL    HW128826   3.757   6.038   5.773
 9309SOL    HW228827   3.869   6.121   5.688
 9310SOL     OW28828   5.943   6.643   5.401
 9310SOL    HW128829   5.853   6.665   5.362
 9310SOL    HW228830   5.939   6.658   5.500
 9311SOL     OW28831   5.427   4.640   1.565
 9311SOL    HW128832   5.411   4.547   1.599
 9311SOL    HW228833   5.434   4.639   1.466
 9312SOL     OW28834   1.737   2.145   0.952
 9312SOL    HW128835   1.835   2.153   0.939
 9312SOL    HW228836   1.709   2.049   0.946
 9313SOL     OW28837   6.942   0.316   1.405
 9313SOL    HW128838   6.861   0.298   1.348
 9313SOL    HW228839   6.932   0.269   1.493
 9314SOL     OW28840   6.680   3.673   0.522
 9314SOL    HW128841   6.608   3.726   0.567
 9314SOL    HW228842   6.733   3.624   0.592
 9315SOL     OW28843   6.281   0.088   5.455
 9315SOL    HW128844   6.226   0.005   5.443
 9315SOL    HW228845   6.266   0.150   5.378
 9316SOL     OW28846   5.646   0.285   5.376
 9316SOL    HW128847   5.691   0.315   5.460
 9316SOL    HW228848   5.622   0.188   5.384
 9317SOL     OW28849   4.136   5.339   2.968
 9317SOL    HW128850   4.104   5.279   2.894
 9317SOL    HW228851   4.127   5.291   3.056
 9318SOL     OW28852   5.286   0.018   0.214
 9318SOL    HW128853   5.279   6.959   0.278
 9318SOL    HW228854   5.236   7.011   0.130
 9319SOL     OW28855   2.551   2.729   1.282
 9319SOL    HW128856   2.625   2.776   1.331
 9319SOL    HW228857   2.464   2.775   1.300
 9320SOL     OW28858   4.184   0.339   5.309
 9320SOL    HW128859   4.135   0.266   5.261
 9320SOL    HW228860   4.218   0.406   5.243
 9321SOL     OW28861   0.971   1.195   5.533
 9321SOL    HW128862   0.878   1.230   5.530
 9321SOL    HW228863   1.032   1.258   5.484
 9322SOL     OW28864   0.046   4.497   0.087
 9322SOL    HW128865   0.093   4.508   7.016
 9322SOL    HW228866   6.976   4.548   0.085
 9323SOL     OW28867   1.982   1.160   5.029
 9323SOL    HW128868   1.931   1.132   5.111
 9323SOL    HW228869   2.025   1.080   4.988
 9324SOL     OW28870   2.116   3.942   2.535
 9324SOL    HW128871   2.121   3.874   2.609
 9324SOL    HW228872   2.128   3.897   2.447
 9325SOL     OW28873   0.054   0.008   0.727
 9325SOL    HW128874   0.022   6.932   0.705
 9325SOL    HW228875   0.148   0.019   0.694
 9326SOL     OW28876   3.132   5.038   6.757
 9326SOL    HW128877   3.198   4.970   6.790
 9326SOL    HW228878   3.096   5.009   6.669
 9327SOL     OW28879   4.305   6.634   2.596
 9327SOL    HW128880   4.310   6.725   2.553
 9327SOL    HW228881   4.373   6.574   2.554
 9328SOL     OW28882   1.853   0.838   4.963
 9328SOL    HW128883   1.768   0.857   4.913
 9328SOL    HW228884   1.871   0.740   4.961
 9329SOL     OW28885   6.723   5.291   1.078
 9329SOL    HW128886   6.737   5.216   1.144
 9329SOL    HW228887   6.799   5.356   1.084
 9330SOL     OW28888   0.242   0.166   5.988
 9330SOL    HW128889   0.303   0.159   5.909
 9330SOL    HW228890   0.249   0.083   6.042
 9331SOL     OW28891   1.921   1.408   6.160
 9331SOL    HW128892   1.909   1.506   6.143
 9331SOL    HW228893   1.965   1.366   6.080
 9332SOL     OW28894   4.331   5.507   0.397
 9332SOL    HW128895   4.296   5.450   0.472
 9332SOL    HW228896   4.390   5.452   0.338
 9333SOL     OW28897   3.749   5.385   6.470
 9333SOL    HW128898   3.848   5.385   6.481
 9333SOL    HW228899   3.725   5.341   6.383
 9334SOL     OW28900   5.063   6.704   4.196
 9334SOL    HW128901   5.016   6.787   4.165
 9334SOL    HW228902   5.121   6.726   4.274
 9335SOL     OW28903   1.635   1.711   0.103
 9335SOL    HW128904   1.592   1.775   0.039
 9335SOL    HW228905   1.617   1.741   0.197
 9336SOL     OW28906   5.433   6.779   4.115
 9336SOL    HW128907   5.348   6.832   4.111
 9336SOL    HW228908   5.440   6.721   4.033
 9337SOL     OW28909   4.889   1.146   6.130
 9337SOL    HW128910   4.790   1.129   6.121
 9337SOL    HW228911   4.939   1.065   6.102
 9338SOL     OW28912   6.482   6.563   0.891
 9338SOL    HW128913   6.405   6.537   0.833
 9338SOL    HW228914   6.455   6.552   0.987
 9339SOL     OW28915   5.932   5.868   0.303
 9339SOL    HW128916   5.898   5.848   0.211
 9339SOL    HW228917   5.856   5.903   0.359
 9340SOL     OW28918   3.854   4.835   2.916
 9340SOL    HW128919   3.855   4.738   2.942
 9340SOL    HW228920   3.784   4.850   2.847
 9341SOL     OW28921   6.334   4.182   0.600
 9341SOL    HW128922   6.428   4.153   0.618
 9341SOL    HW228923   6.329   4.226   0.511
 9342SOL     OW28924   2.125   0.658   4.709
 9342SOL    HW128925   2.112   0.643   4.611
 9342SOL    HW228926   2.221   0.682   4.727
 9343SOL     OW28927   4.824   4.010   1.871
 9343SOL    HW128928   4.896   3.963   1.922
 9343SOL    HW228929   4.797   4.093   1.919
 9344SOL     OW28930   5.427   5.279   0.324
 9344SOL    HW128931   5.336   5.243   0.342
 9344SOL    HW228932   5.448   5.350   0.391
 9345SOL     OW28933   0.105   4.843   2.090
 9345SOL    HW128934   0.095   4.896   2.005
 9345SOL    HW228935   0.179   4.883   2.145
 9346SOL     OW28936   4.989   0.087   2.234
 9346SOL    HW128937   5.008   0.180   2.268
 9346SOL    HW228938   5.002   0.085   2.135
 9347SOL     OW28939   2.716   6.038   0.189
 9347SOL    HW128940   2.742   6.041   0.285
 9347SOL    HW228941   2.643   6.105   0.172
 9348SOL     OW28942   2.610   5.807   2.459
 9348SOL    HW128943   2.680   5.737   2.445
 9348SOL    HW228944   2.537   5.794   2.392
 9349SOL     OW28945   6.628   5.233   2.767
 9349SOL    HW128946   6.571   5.301   2.720
 9349SOL    HW228947   6.612   5.143   2.727
 9350SOL     OW28948   6.965   1.667   4.337
 9350SOL    HW128949   6.989   1.585   4.286
 9350SOL    HW228950   6.928   1.736   4.274
 9351SOL     OW28951   2.602   0.274   6.232
 9351SOL    HW128952   2.675   0.230   6.179
 9351SOL    HW228953   2.634   0.292   6.325
 9352SOL     OW28954   2.863   2.956   5.614
 9352SOL    HW128955   2.926   3.032   5.601
 9352SOL    HW228956   2.814   2.939   5.529
 9353SOL     OW28957   2.024   4.202   0.979
 9353SOL    HW128958   1.996   4.237   1.069
 9353SOL    HW228959   2.122   4.185   0.979
 9354SOL     OW28960   6.646   1.925   7.014
 9354SOL    HW128961   6.682   2.012   6.979
 9354SOL    HW228962   6.605   1.873   6.939
 9355SOL     OW28963   6.555   2.074   4.591
 9355SOL    HW128964   6.526   2.084   4.496
 9355SOL    HW228965   6.579   1.979   4.609
 9356SOL     OW28966   4.336   5.792   1.522
 9356SOL    HW128967   4.432   5.786   1.495
 9356SOL    HW228968   4.279   5.809   1.441
 9357SOL     OW28969   3.377   3.229   6.396
 9357SOL    HW128970   3.304   3.296   6.409
 9357SOL    HW228971   3.363   3.153   6.459
 9358SOL     OW28972   6.728   3.635   2.220
 9358SOL    HW128973   6.641   3.620   2.172
 9358SOL    HW228974   6.795   3.673   2.155
 9359SOL     OW28975   1.414   3.416   5.829
 9359SOL    HW128976   1.386   3.351   5.758
 9359SOL    HW228977   1.512   3.436   5.819
 9360SOL     OW28978   1.337   0.047   5.961
 9360SOL    HW128979   1.407   7.004   6.001
 9360SOL    HW228980   1.247   0.020   5.994
 9361SOL     OW28981   1.984   6.014   3.542
 9361SOL    HW128982   1.960   5.917   3.548
 9361SOL    HW228983   2.062   6.033   3.602
 9362SOL     OW28984   1.257   2.215   2.226
 9362SOL    HW128985   1.315   2.227   2.146
 9362SOL    HW228986   1.244   2.303   2.271
 9363SOL     OW28987   3.956   5.810   1.787
 9363SOL    HW128988   3.895   5.731   1.779
 9363SOL    HW228989   3.924   5.883   1.726
 9364SOL     OW28990   4.538   3.089   5.993
 9364SOL    HW128991   4.464   3.024   6.009
 9364SOL    HW228992   4.513   3.152   5.920
 9365SOL     OW28993   2.705   1.892   4.991
 9365SOL    HW128994   2.682   1.965   5.055
 9365SOL    HW228995   2.623   1.838   4.971
 9366SOL     OW28996   3.155   0.530   0.027
 9366SOL    HW128997   3.103   0.484   6.971
 9366SOL    HW228998   3.200   0.611   7.005
 9367SOL     OW28999   6.853   6.249   3.004
 9367SOL    HW129000   6.944   6.231   3.043
 9367SOL    HW229001   6.860   6.253   2.904
 9368SOL     OW29002   2.701   1.770   4.138
 9368SOL    HW129003   2.739   1.846   4.191
 9368SOL    HW229004   2.709   1.790   4.040
 9369SOL     OW29005   6.995   0.462   5.292
 9369SOL    HW129006   6.913   0.406   5.279
 9369SOL    HW229007   0.025   0.435   5.376
 9370SOL     OW29008   4.274   0.076   2.056
 9370SOL    HW129009   4.291   0.119   2.145
 9370SOL    HW229010   4.311   0.134   1.984
 9371SOL     OW29011   1.982   5.012   0.703
 9371SOL    HW129012   1.976   5.112   0.706
 9371SOL    HW229013   2.057   4.986   0.642
 9372SOL     OW29014   5.351   5.927   2.799
 9372SOL    HW129015   5.423   5.863   2.827
 9372SOL    HW229016   5.325   5.984   2.877
 9373SOL     OW29017   4.182   2.179   2.833
 9373SOL    HW129018   4.226   2.105   2.884
 9373SOL    HW229019   4.084   2.179   2.852
 9374SOL     OW29020   0.713   2.923   0.934
 9374SOL    HW129021   0.787   2.911   0.869
 9374SOL    HW229022   0.738   2.881   1.022
 9375SOL     OW29023   6.162   1.726   3.164
 9375SOL    HW129024   6.129   1.646   3.213
 9375SOL    HW229025   6.156   1.806   3.223
 9376SOL     OW29026   2.784   4.286   0.970
 9376SOL    HW129027   2.704   4.343   0.947
 9376SOL    HW229028   2.867   4.338   0.953
 9377SOL     OW29029   1.937   5.533   3.888
 9377SOL    HW129030   1.855   5.557   3.836
 9377SOL    HW229031   2.018   5.547   3.831
 9378SOL     OW29032   1.259   0.972   5.078
 9378SOL    HW129033   1.298   1.025   5.002
 9378SOL    HW229034   1.188   1.026   5.122
 9379SOL     OW29035   4.520   6.335   4.949
 9379SOL    HW129036   4.448   6.267   4.958
 9379SOL    HW229037   4.524   6.391   5.032
 9380SOL     OW29038   5.739   4.756   4.856
 9380SOL    HW129039   5.702   4.827   4.916
 9380SOL    HW229040   5.663   4.700   4.820
 9381SOL     OW29041   3.189   2.944   5.904
 9381SOL    HW129042   3.155   2.850   5.895
 9381SOL    HW229043   3.257   2.962   5.833
 9382SOL     OW29044   3.490   0.704   3.396
 9382SOL    HW129045   3.444   0.717   3.307
 9382SOL    HW229046   3.423   0.716   3.469
 9383SOL     OW29047   1.914   6.042   4.605
 9383SOL    HW129048   2.000   6.019   4.561
 9383SOL    HW229049   1.930   6.113   4.674
 9384SOL     OW29050   2.997   6.771   1.469
 9384SOL    HW129051   2.938   6.850   1.482
 9384SOL    HW229052   3.029   6.738   1.558
 9385SOL     OW29053   3.758   0.867   2.677
 9385SOL    HW129054   3.708   0.826   2.601
 9385SOL    HW229055   3.754   0.967   2.669
 9386SOL     OW29056   2.170   6.257   5.247
 9386SOL    HW129057   2.206   6.164   5.241
 9386SOL    HW229058   2.101   6.261   5.319
 9387SOL     OW29059   2.531   1.591   0.044
 9387SOL    HW129060   2.442   1.575   0.088
 9387SOL    HW229061   2.597   1.523   0.077
 9388SOL     OW29062   1.851   5.035   2.719
 9388SOL    HW129063   1.864   4.950   2.770
 9388SOL    HW229064   1.756   5.041   2.688
 9389SOL     OW29065   1.681   6.629   4.747
 9389SOL    HW129066   1.718   6.695   4.682
 9389SOL    HW229067   1.733   6.633   4.833
 9390SOL     OW29068   4.317   5.130   4.784
 9390SOL    HW129069   4.246   5.063   4.760
 9390SOL    HW229070   4.375   5.147   4.704
 9391SOL     OW29071   2.299   1.318   4.734
 9391SOL    HW129072   2.339   1.328   4.825
 9391SOL    HW229073   2.199   1.326   4.741
 9392SOL     OW29074   6.988   0.790   4.918
 9392SOL    HW129075   6.986   0.780   5.017
 9392SOL    HW229076   6.909   0.744   4.878
 9393SOL     OW29077   2.725   6.917   5.407
 9393SOL    HW129078   2.718   6.968   5.493
 9393SOL    HW229079   2.814   6.934   5.365
 9394SOL     OW29080   0.395   1.661   2.075
 9394SOL    HW129081   0.430   1.630   2.163
 9394SOL    HW229082   0.337   1.741   2.089
 9395SOL     OW29083   2.768   1.563   0.691
 9395SOL    HW129084   2.834   1.638   0.694
 9395SOL    HW229085   2.799   1.494   0.625
 9396SOL     OW29086   2.084   5.430   4.126
 9396SOL    HW129087   2.069   5.493   4.049
 9396SOL    HW229088   2.109   5.340   4.092
 9397SOL     OW29089   3.557   6.957   0.189
 9397SOL    HW129090   3.653   6.971   0.165
 9397SOL    HW229091   3.511   6.906   0.116
 9398SOL     OW29092   0.046   1.421   4.966
 9398SOL    HW129093   0.058   1.405   5.064
 9398SOL    HW229094   0.130   1.397   4.917
 9399SOL     OW29095   0.097   1.754   6.043
 9399SOL    HW129096   0.069   1.758   6.139
 9399SOL    HW229097   0.124   1.846   6.013
 9400SOL     OW29098   4.362   1.226   2.328
 9400SOL    HW129099   4.372   1.320   2.296
 9400SOL    HW229100   4.281   1.219   2.386
 9401SOL     OW29101   5.707   6.944   3.499
 9401SOL    HW129102   5.706   0.008   3.560
 9401SOL    HW229103   5.613   6.920   3.474
 9402SOL     OW29104   1.162   4.611   3.837
 9402SOL    HW129105   1.181   4.618   3.739
 9402SOL    HW229106   1.103   4.687   3.865
 9403SOL     OW29107   6.380   1.634   3.004
 9403SOL    HW129108   6.335   1.586   2.928
 9403SOL    HW229109   6.320   1.706   3.038
 9404SOL     OW29110   1.480   3.069   6.698
 9404SOL    HW129111   1.482   3.023   6.787
 9404SOL    HW229112   1.397   3.042   6.648
 9405SOL     OW29113   1.576   5.324   2.561
 9405SOL    HW129114   1.575   5.348   2.464
 9405SOL    HW229115   1.662   5.354   2.601
 9406SOL     OW29116   6.811   3.027   5.897
 9406SOL    HW129117   6.803   3.123   5.922
 9406SOL    HW229118   6.895   3.014   5.844
 9407SOL     OW29119   2.592   5.069   3.235
 9407SOL    HW129120   2.563   5.065   3.331
 9407SOL    HW229121   2.685   5.035   3.228
 9408SOL     OW29122   4.597   2.018   6.507
 9408SOL    HW129123   4.638   2.105   6.532
 9408SOL    HW229124   4.658   1.943   6.534
 9409SOL     OW29125   6.172   4.905   6.360
 9409SOL    HW129126   6.238   4.924   6.287
 9409SOL    HW229127   6.102   4.977   6.361
 9410SOL     OW29128   3.127   6.897   2.093
 9410SOL    HW129129   3.139   6.923   2.188
 9410SOL    HW229130   3.207   6.924   2.040
 9411SOL     OW29131   3.417   3.328   1.978
 9411SOL    HW129132   3.371   3.416   1.969
 9411SOL    HW229133   3.380   3.278   2.056
 9412SOL     OW29134   6.719   2.801   1.698
 9412SOL    HW129135   6.763   2.723   1.652
 9412SOL    HW229136   6.620   2.787   1.699
 9413SOL     OW29137   3.598   6.138   3.912
 9413SOL    HW129138   3.644   6.084   3.842
 9413SOL    HW229139   3.501   6.112   3.916
 9414SOL     OW29140   2.897   0.581   3.320
 9414SOL    HW129141   2.807   0.541   3.303
 9414SOL    HW229142   2.915   0.653   3.254
 9415SOL     OW29143   3.184   6.602   2.100
 9415SOL    HW129144   3.093   6.644   2.106
 9415SOL    HW229145   3.219   6.587   2.193
 9416SOL     OW29146   0.434   2.460   0.975
 9416SOL    HW129147   0.474   2.402   0.904
 9416SOL    HW229148   0.488   2.544   0.983
 9417SOL     OW29149   4.088   0.104   6.177
 9417SOL    HW129150   4.060   0.067   6.088
 9417SOL    HW229151   4.124   0.197   6.165
 9418SOL     OW29152   3.856   6.266   1.103
 9418SOL    HW129153   3.803   6.229   1.179
 9418SOL    HW229154   3.949   6.287   1.133
 9419SOL     OW29155   3.780   5.537   5.823
 9419SOL    HW129156   3.743   5.534   5.916
 9419SOL    HW229157   3.875   5.569   5.826
 9420SOL     OW29158   6.547   3.364   5.786
 9420SOL    HW129159   6.544   3.426   5.707
 9420SOL    HW229160   6.504   3.277   5.761
 9421SOL     OW29161   2.134   6.946   4.627
 9421SOL    HW129162   2.117   6.989   4.538
 9421SOL    HW229163   2.224   6.972   4.660
 9422SOL     OW29164   4.394   5.693   3.401
 9422SOL    HW129165   4.418   5.782   3.362
 9422SOL    HW229166   4.476   5.636   3.407
 9423SOL     OW29167   3.908   0.689   3.995
 9423SOL    HW129168   3.967   0.614   3.967
 9423SOL    HW229169   3.823   0.653   4.033
 9424SOL     OW29170   5.053   0.744   4.733
 9424SOL    HW129171   5.137   0.730   4.784
 9424SOL    HW229172   5.069   0.726   4.636
 9425SOL     OW29173   6.378   3.232   6.715
 9425SOL    HW129174   6.470   3.196   6.733
 9425SOL    HW229175   6.339   3.187   6.635
 9426SOL     OW29176   3.472   2.220   6.924
 9426SOL    HW129177   3.511   2.192   7.012
 9426SOL    HW229178   3.490   2.317   6.909
 9427SOL     OW29179   3.235   5.380   3.436
 9427SOL    HW129180   3.173   5.443   3.388
 9427SOL    HW229181   3.182   5.325   3.501
 9428SOL     OW29182   6.040   0.835   1.501
 9428SOL    HW129183   6.134   0.801   1.495
 9428SOL    HW229184   5.995   0.823   1.412
 9429SOL     OW29185   2.092   3.515   2.245
 9429SOL    HW129186   2.144   3.483   2.166
 9429SOL    HW229187   2.104   3.451   2.322
 9430SOL     OW29188   0.341   3.957   2.384
 9430SOL    HW129189   0.408   3.900   2.431
 9430SOL    HW229190   0.294   4.015   2.451
 9431SOL     OW29191   6.092   4.154   1.495
 9431SOL    HW129192   6.139   4.242   1.486
 9431SOL    HW229193   6.001   4.170   1.535
 9432SOL     OW29194   4.326   0.471   3.121
 9432SOL    HW129195   4.253   0.450   3.056
 9432SOL    HW229196   4.299   0.549   3.177
 9433SOL     OW29197   2.531   5.185   2.789
 9433SOL    HW129198   2.591   5.207   2.712
 9433SOL    HW229199   2.546   5.090   2.818
 9434SOL     OW29200   5.366   5.292   3.045
 9434SOL    HW129201   5.420   5.337   3.116
 9434SOL    HW229202   5.338   5.359   2.977
 9435SOL     OW29203   0.496   2.869   4.567
 9435SOL    HW129204   0.547   2.807   4.627
 9435SOL    HW229205   0.448   2.816   4.497
 9436SOL     OW29206   1.263   2.869   1.668
 9436SOL    HW129207   1.291   2.844   1.761
 9436SOL    HW229208   1.163   2.869   1.662
 9437SOL     OW29209   2.597   5.821   3.051
 9437SOL    HW129210   2.547   5.737   3.031
 9437SOL    HW229211   2.690   5.799   3.080
 9438SOL     OW29212   0.021   0.469   1.689
 9438SOL    HW129213   6.943   0.435   1.683
 9438SOL    HW229214   0.020   0.568   1.700
 9439SOL     OW29215   0.515   3.312   1.510
 9439SOL    HW129216   0.452   3.236   1.492
 9439SOL    HW229217   0.568   3.292   1.593
 9440SOL     OW29218   4.113   4.990   3.534
 9440SOL    HW129219   4.149   4.954   3.448
 9440SOL    HW229220   4.093   5.088   3.524
 9441SOL     OW29221   0.913   3.347   4.903
 9441SOL    HW129222   0.930   3.446   4.901
 9441SOL    HW229223   0.845   3.327   4.975
 9442SOL     OW29224   4.325   3.233   0.358
 9442SOL    HW129225   4.259   3.211   0.287
 9442SOL    HW229226   4.418   3.228   0.320
 9443SOL     OW29227   1.890   5.519   0.790
 9443SOL    HW129228   1.813   5.493   0.732
 9443SOL    HW229229   1.861   5.522   0.885
 9444SOL     OW29230   1.360   3.526   6.387
 9444SOL    HW129231   1.416   3.595   6.435
 9444SOL    HW229232   1.278   3.508   6.441
 9445SOL     OW29233   5.466   3.273   3.504
 9445SOL    HW129234   5.496   3.206   3.435
 9445SOL    HW229235   5.454   3.362   3.461
 9446SOL     OW29236   6.242   5.996   4.336
 9446SOL    HW129237   6.254   5.935   4.414
 9446SOL    HW229238   6.210   6.085   4.368
 9447SOL     OW29239   5.938   3.546   4.951
 9447SOL    HW129240   5.926   3.448   4.936
 9447SOL    HW229241   5.932   3.594   4.864
 9448SOL     OW29242   6.822   6.826   6.799
 9448SOL    HW129243   6.764   6.845   6.878
 9448SOL    HW229244   6.833   6.910   6.745
 9449SOL     OW29245   6.951   6.219   0.187
 9449SOL    HW129246   6.916   6.158   0.258
 9449SOL    HW229247   6.881   6.233   0.118
 9450SOL     OW29248   2.714   5.433   5.052
 9450SOL    HW129249   2.620   5.465   5.039
 9450SOL    HW229250   2.732   5.423   5.150
 9451SOL     OW29251   4.256   6.745   6.031
 9451SOL    HW129252   4.254   6.795   5.944
 9451SOL    HW229253   4.349   6.713   6.049
 9452SOL     OW29254   2.079   4.156   0.038
 9452SOL    HW129255   1.985   4.143   0.071
 9452SOL    HW229256   2.107   4.077   7.001
 9453SOL     OW29257   1.911   4.518   3.348
 9453SOL    HW129258   1.920   4.425   3.384
 9453SOL    HW229259   1.833   4.563   3.391
 9454SOL     OW29260   3.123   3.092   6.948
 9454SOL    HW129261   3.156   3.114   0.024
 9454SOL    HW229262   3.028   3.059   6.954
 9455SOL     OW29263   2.982   1.901   3.332
 9455SOL    HW129264   3.024   1.851   3.408
 9455SOL    HW229265   2.899   1.947   3.365
 9456SOL     OW29266   1.439   3.507   0.948
 9456SOL    HW129267   1.483   3.422   0.975
 9456SOL    HW229268   1.370   3.489   0.878
 9457SOL     OW29269   2.174   3.758   5.061
 9457SOL    HW129270   2.152   3.723   4.970
 9457SOL    HW229271   2.230   3.840   5.053
 9458SOL     OW29272   1.560   3.349   6.652
 9458SOL    HW129273   1.539   3.255   6.679
 9458SOL    HW229274   1.649   3.352   6.606
 9459SOL     OW29275   5.074   4.539   3.209
 9459SOL    HW129276   5.033   4.517   3.121
 9459SOL    HW229277   5.173   4.553   3.197
 9460SOL     OW29278   0.393   2.767   3.936
 9460SOL    HW129279   0.440   2.688   3.975
 9460SOL    HW229280   0.389   2.840   4.004
 9461SOL     OW29281   6.413   1.447   2.219
 9461SOL    HW129282   6.377   1.403   2.301
 9461SOL    HW229283   6.419   1.381   2.145
 9462SOL     OW29284   2.107   3.656   3.105
 9462SOL    HW129285   2.143   3.741   3.144
 9462SOL    HW229286   2.021   3.675   3.058
 9463SOL     OW29287   0.266   0.742   1.488
 9463SOL    HW129288   0.197   0.755   1.559
 9463SOL    HW229289   0.326   0.666   1.514
 9464SOL     OW29290   6.512   0.488   1.240
 9464SOL    HW129291   6.452   0.551   1.288
 9464SOL    HW229292   6.553   0.535   1.161
 9465SOL     OW29293   1.555   5.193   2.983
 9465SOL    HW129294   1.625   5.128   3.013
 9465SOL    HW229295   1.484   5.200   3.053
 9466SOL     OW29296   4.581   4.847   5.671
 9466SOL    HW129297   4.606   4.828   5.766
 9466SOL    HW229298   4.640   4.794   5.610
 9467SOL     OW29299   1.374   3.164   1.534
 9467SOL    HW129300   1.415   3.186   1.622
 9467SOL    HW229301   1.329   3.075   1.539
 9468SOL     OW29302   5.664   2.864   5.773
 9468SOL    HW129303   5.674   2.908   5.863
 9468SOL    HW229304   5.749   2.815   5.752
 9469SOL     OW29305   6.539   5.887   1.834
 9469SOL    HW129306   6.639   5.874   1.833
 9469SOL    HW229307   6.518   5.979   1.800
 9470SOL     OW29308   4.441   3.729   5.443
 9470SOL    HW129309   4.392   3.747   5.528
 9470SOL    HW229310   4.406   3.788   5.371
 9471SOL     OW29311   6.742   2.446   4.615
 9471SOL    HW129312   6.704   2.429   4.706
 9471SOL    HW229313   6.724   2.540   4.588
 9472SOL     OW29314   5.756   4.009   5.015
 9472SOL    HW129315   5.840   3.956   5.009
 9472SOL    HW229316   5.723   4.010   5.110
 9473SOL     OW29317   3.023   5.562   6.158
 9473SOL    HW129318   3.031   5.513   6.072
 9473SOL    HW229319   3.030   5.498   6.234
 9474SOL     OW29320   0.165   2.903   0.014
 9474SOL    HW129321   0.186   2.849   6.949
 9474SOL    HW229322   0.231   2.882   0.086
 9475SOL     OW29323   3.717   3.079   6.523
 9475SOL    HW129324   3.682   3.119   6.607
 9475SOL    HW229325   3.643   3.032   6.475
 9476SOL     OW29326   3.109   4.103   4.864
 9476SOL    HW129327   3.097   4.017   4.913
 9476SOL    HW229328   3.024   4.156   4.867
 9477SOL     OW29329   0.182   3.346   1.773
 9477SOL    HW129330   0.104   3.322   1.715
 9477SOL    HW229331   0.191   3.279   1.846
 9478SOL     OW29332   5.398   3.326   6.992
 9478SOL    HW129333   5.313   3.372   0.001
 9478SOL    HW229334   5.412   3.247   0.036
 9479SOL     OW29335   4.267   6.260   0.018
 9479SOL    HW129336   4.266   6.227   0.112
 9479SOL    HW229337   4.353   6.309   0.001
 9480SOL     OW29338   4.477   3.727   1.049
 9480SOL    HW129339   4.492   3.811   0.998
 9480SOL    HW229340   4.498   3.742   1.146
 9481SOL     OW29341   5.181   3.575   2.318
 9481SOL    HW129342   5.181   3.525   2.405
 9481SOL    HW229343   5.105   3.640   2.316
 9482SOL     OW29344   6.644   0.627   3.134
 9482SOL    HW129345   6.544   0.630   3.135
 9482SOL    HW229346   6.675   0.533   3.154
 9483SOL     OW29347   1.035   1.754   1.686
 9483SOL    HW129348   1.032   1.654   1.694
 9483SOL    HW229349   1.103   1.779   1.617
 9484SOL     OW29350   3.097   1.450   3.911
 9484SOL    HW129351   3.143   1.516   3.851
 9484SOL    HW229352   3.031   1.398   3.858
 9485SOL     OW29353   0.215   0.268   1.601
 9485SOL    HW129354   0.145   0.324   1.646
 9485SOL    HW229355   0.223   0.294   1.505
 9486SOL     OW29356   2.845   6.141   0.999
 9486SOL    HW129357   2.788   6.123   1.079
 9486SOL    HW229358   2.787   6.175   0.925
 9487SOL     OW29359   3.667   3.527   3.546
 9487SOL    HW129360   3.765   3.517   3.557
 9487SOL    HW229361   3.623   3.532   3.636
 9488SOL     OW29362   1.577   6.499   0.655
 9488SOL    HW129363   1.549   6.544   0.571
 9488SOL    HW229364   1.606   6.568   0.721
 9489SOL     OW29365   4.331   4.411   1.657
 9489SOL    HW129366   4.411   4.428   1.600
 9489SOL    HW229367   4.352   4.338   1.722
 9490SOL     OW29368   6.920   5.459   1.064
 9490SOL    HW129369   6.952   5.553   1.053
 9490SOL    HW229370   6.995   5.395   1.046
 9491SOL     OW29371   6.408   4.806   3.988
 9491SOL    HW129372   6.397   4.846   4.079
 9491SOL    HW229373   6.496   4.835   3.950
 9492SOL     OW29374   3.450   3.023   2.734
 9492SOL    HW129375   3.465   3.018   2.833
 9492SOL    HW229376   3.536   3.003   2.687
 9493SOL     OW29377   3.744   5.145   4.042
 9493SOL    HW129378   3.703   5.062   4.078
 9493SOL    HW229379   3.832   5.123   3.998
 9494SOL     OW29380   4.645   4.954   1.854
 9494SOL    HW129381   4.682   4.949   1.762
 9494SOL    HW229382   4.655   4.866   1.899
 9495SOL     OW29383   6.541   1.820   3.367
 9495SOL    HW129384   6.557   1.721   3.367
 9495SOL    HW229385   6.627   1.868   3.383
 9496SOL     OW29386   6.079   4.779   1.316
 9496SOL    HW129387   6.089   4.851   1.247
 9496SOL    HW229388   5.988   4.738   1.308
 9497SOL     OW29389   5.756   5.951   6.796
 9497SOL    HW129390   5.747   5.930   6.893
 9497SOL    HW229391   5.665   5.970   6.758
 9498SOL     OW29392   4.941   6.965   4.673
 9498SOL    HW129393   4.913   7.011   4.589
 9498SOL    HW229394   5.035   6.931   4.664
 9499SOL     OW29395   1.732   4.985   6.262
 9499SOL    HW129396   1.662   5.040   6.308
 9499SOL    HW229397   1.756   5.028   6.175
 9500SOL     OW29398   5.867   0.604   0.875
 9500SOL    HW129399   5.903   0.690   0.841
 9500SOL    HW229400   5.778   0.619   0.918
 9501SOL     OW29401   3.031   1.265   5.057
 9501SOL    HW129402   3.029   1.340   4.992
 9501SOL    HW229403   3.019   1.301   5.150
 9502SOL     OW29404   6.442   2.476   5.530
 9502SOL    HW129405   6.474   2.411   5.461
 9502SOL    HW229406   6.351   2.508   5.506
 9503SOL     OW29407   0.441   1.541   1.522
 9503SOL    HW129408   0.523   1.578   1.567
 9503SOL    HW229409   0.372   1.613   1.515
 9504SOL     OW29410   6.784   2.347   1.315
 9504SOL    HW129411   6.702   2.327   1.368
 9504SOL    HW229412   6.761   2.407   1.239
 9505SOL     OW29413   5.364   5.103   3.470
 9505SOL    HW129414   5.358   5.126   3.567
 9505SOL    HW229415   5.329   5.011   3.455
 9506SOL     OW29416   0.648   2.373   6.038
 9506SOL    HW129417   0.704   2.296   6.069
 9506SOL    HW229418   0.683   2.406   5.951
 9507SOL     OW29419   0.972   2.229   3.175
 9507SOL    HW129420   1.015   2.152   3.222
 9507SOL    HW229421   1.013   2.238   3.084
 9508SOL     OW29422   6.591   3.284   0.955
 9508SOL    HW129423   6.677   3.332   0.970
 9508SOL    HW229424   6.515   3.337   0.994
 9509SOL     OW29425   0.657   0.818   4.608
 9509SOL    HW129426   0.739   0.868   4.582
 9509SOL    HW229427   0.677   0.720   4.608
 9510SOL     OW29428   1.593   3.514   2.294
 9510SOL    HW129429   1.669   3.478   2.239
 9510SOL    HW229430   1.628   3.546   2.382
 9511SOL     OW29431   0.573   1.084   0.750
 9511SOL    HW129432   0.488   1.033   0.735
 9511SOL    HW229433   0.584   1.153   0.678
 9512SOL     OW29434   5.428   1.759   1.389
 9512SOL    HW129435   5.474   1.715   1.466
 9512SOL    HW229436   5.430   1.858   1.402
 9513SOL     OW29437   1.664   3.366   5.915
 9513SOL    HW129438   1.614   3.286   5.951
 9513SOL    HW229439   1.661   3.440   5.982
 9514SOL     OW29440   1.712   4.692   6.301
 9514SOL    HW129441   1.688   4.679   6.205
 9514SOL    HW229442   1.723   4.790   6.320
 9515SOL     OW29443   1.472   6.279   1.513
 9515SOL    HW129444   1.377   6.254   1.491
 9515SOL    HW229445   1.530   6.262   1.434
 9516SOL     OW29446   5.246   4.090   5.391
 9516SOL    HW129447   5.198   4.004   5.370
 9516SOL    HW229448   5.178   4.160   5.413
 9517SOL     OW29449   1.254   4.721   0.994
 9517SOL    HW129450   1.318   4.742   1.068
 9517SOL    HW229451   1.231   4.623   0.997
 9518SOL     OW29452   1.552   1.928   6.944
 9518SOL    HW129453   1.485   1.937   6.871
 9518SOL    HW229454   1.537   2.000   7.012
 9519SOL     OW29455   3.676   4.139   4.049
 9519SOL    HW129456   3.589   4.163   4.008
 9519SOL    HW229457   3.661   4.101   4.141
 9520SOL     OW29458   0.806   1.507   3.339
 9520SOL    HW129459   0.883   1.560   3.305
 9520SOL    HW229460   0.839   1.436   3.400
 9521SOL     OW29461   5.247   5.108   1.593
 9521SOL    HW129462   5.322   5.043   1.601
 9521SOL    HW229463   5.257   5.160   1.508
 9522SOL     OW29464   3.927   5.142   1.473
 9522SOL    HW129465   3.841   5.131   1.423
 9522SOL    HW229466   3.990   5.198   1.419
 9523SOL     OW29467   2.663   5.035   4.646
 9523SOL    HW129468   2.581   5.052   4.700
 9523SOL    HW229469   2.683   4.937   4.646
 9524SOL     OW29470   3.004   3.200   0.791
 9524SOL    HW129471   3.072   3.137   0.754
 9524SOL    HW229472   2.920   3.193   0.738
 9525SOL     OW29473   2.275   2.234   6.036
 9525SOL    HW129474   2.304   2.329   6.043
 9525SOL    HW229475   2.310   2.194   5.951
 9526SOL     OW29476   6.461   4.718   0.917
 9526SOL    HW129477   6.493   4.695   1.009
 9526SOL    HW229478   6.430   4.813   0.916
 9527SOL     OW29479   0.352   1.388   4.437
 9527SOL    HW129480   0.381   1.472   4.391
 9527SOL    HW229481   0.269   1.354   4.394
 9528SOL     OW29482   6.624   1.317   1.069
 9528SOL    HW129483   6.634   1.415   1.086
 9528SOL    HW229484   6.664   1.294   0.980
 9529SOL     OW29485   6.543   3.578   6.479
 9529SOL    HW129486   6.536   3.672   6.510
 9529SOL    HW229487   6.460   3.528   6.505
 9530SOL     OW29488   1.836   2.939   2.808
 9530SOL    HW129489   1.828   3.036   2.785
 9530SOL    HW229490   1.878   2.929   2.898
 9531SOL     OW29491   5.059   5.232   2.717
 9531SOL    HW129492   4.971   5.256   2.677
 9531SOL    HW229493   5.110   5.174   2.654
 9532SOL     OW29494   0.312   5.942   1.536
 9532SOL    HW129495   0.394   5.957   1.480
 9532SOL    HW229496   0.305   6.015   1.604
 9533SOL     OW29497   0.345   6.001   5.285
 9533SOL    HW129498   0.331   5.993   5.384
 9533SOL    HW229499   0.442   6.012   5.266
 9534SOL     OW29500   0.110   4.352   5.220
 9534SOL    HW129501   0.093   4.379   5.125
 9534SOL    HW229502   0.154   4.263   5.222
 9535SOL     OW29503   1.856   0.878   6.610
 9535SOL    HW129504   1.909   0.903   6.529
 9535SOL    HW229505   1.906   0.904   6.692
 9536SOL     OW29506   2.797   4.165   6.199
 9536SOL    HW129507   2.823   4.182   6.104
 9536SOL    HW229508   2.875   4.130   6.249
 9537SOL     OW29509   2.719   0.126   4.458
 9537SOL    HW129510   2.741   0.057   4.528
 9537SOL    HW229511   2.623   0.116   4.432
 9538SOL     OW29512   5.407   0.982   3.517
 9538SOL    HW129513   5.352   0.939   3.589
 9538SOL    HW229514   5.368   1.071   3.494
 9539SOL     OW29515   3.474   3.635   4.773
 9539SOL    HW129516   3.475   3.723   4.726
 9539SOL    HW229517   3.535   3.571   4.725
 9540SOL     OW29518   6.212   4.309   4.095
 9540SOL    HW129519   6.183   4.214   4.110
 9540SOL    HW229520   6.311   4.312   4.081
 9541SOL     OW29521   3.198   0.357   5.951
 9541SOL    HW129522   3.285   0.307   5.945
 9541SOL    HW229523   3.208   0.447   5.909
 9542SOL     OW29524   4.888   4.013   4.770
 9542SOL    HW129525   4.981   3.990   4.741
 9542SOL    HW229526   4.827   4.009   4.691
 9543SOL     OW29527   3.398   6.985   5.934
 9543SOL    HW129528   3.367   6.890   5.939
 9543SOL    HW229529   3.459   7.005   6.010
 9544SOL     OW29530   0.003   2.224   3.063
 9544SOL    HW129531   0.092   2.183   3.085
 9544SOL    HW229532   6.950   2.184   3.123
 9545SOL     OW29533   5.801   5.468   4.528
 9545SOL    HW129534   5.782   5.496   4.622
 9545SOL    HW229535   5.871   5.528   4.489
 9546SOL     OW29536   3.925   1.879   5.311
 9546SOL    HW129537   3.826   1.872   5.308
 9546SOL    HW229538   3.965   1.788   5.324
 9547SOL     OW29539   2.351   6.107   4.379
 9547SOL    HW129540   2.436   6.094   4.430
 9547SOL    HW229541   2.363   6.074   4.285
 9548SOL     OW29542   6.157   5.403   6.301
 9548SOL    HW129543   6.100   5.354   6.235
 9548SOL    HW229544   6.100   5.442   6.373
 9549SOL     OW29545   2.458   3.228   1.140
 9549SOL    HW129546   2.375   3.271   1.175
 9549SOL    HW229547   2.439   3.189   1.049
 9550SOL     OW29548   0.208   1.250   0.106
 9550SOL    HW129549   0.191   1.247   0.204
 9550SOL    HW229550   0.292   1.302   0.088
 9551SOL     OW29551   5.544   1.861   4.869
 9551SOL    HW129552   5.486   1.907   4.801
 9551SOL    HW229553   5.488   1.828   4.944
 9552SOL     OW29554   1.543   6.752   4.115
 9552SOL    HW129555   1.454   6.748   4.069
 9552SOL    HW229556   1.612   6.710   4.056
 9553SOL     OW29557   6.414   3.095   6.277
 9553SOL    HW129558   6.482   3.160   6.311
 9553SOL    HW229559   6.347   3.144   6.221
 9554SOL     OW29560   2.045   6.564   1.903
 9554SOL    HW129561   1.992   6.636   1.949
 9554SOL    HW229562   1.982   6.504   1.854
 9555SOL     OW29563   1.087   0.592   3.113
 9555SOL    HW129564   1.058   0.686   3.091
 9555SOL    HW229565   1.059   0.531   3.039
 9556SOL     OW29566   1.665   3.487   1.595
 9556SOL    HW129567   1.754   3.479   1.639
 9556SOL    HW229568   1.633   3.582   1.603
 9557SOL     OW29569   0.286   6.172   2.380
 9557SOL    HW129570   0.304   6.250   2.321
 9557SOL    HW229571   0.286   6.201   2.476
 9558SOL     OW29572   6.045   6.228   4.845
 9558SOL    HW129573   5.953   6.199   4.868
 9558SOL    HW229574   6.042   6.291   4.767
 9559SOL     OW29575   0.440   4.382   0.984
 9559SOL    HW129576   0.494   4.328   0.919
 9559SOL    HW229577   0.423   4.473   0.946
 9560SOL     OW29578   1.634   1.299   3.057
 9560SOL    HW129579   1.668   1.266   2.969
 9560SOL    HW229580   1.711   1.331   3.112
 9561SOL     OW29581   1.675   0.337   0.634
 9561SOL    HW129582   1.761   0.326   0.684
 9561SOL    HW229583   1.603   0.365   0.698
 9562SOL     OW29584   3.133   0.152   5.296
 9562SOL    HW129585   3.144   0.212   5.216
 9562SOL    HW229586   3.206   0.084   5.296
 9563SOL     OW29587   6.193   5.722   0.701
 9563SOL    HW129588   6.137   5.783   0.644
 9563SOL    HW229589   6.286   5.759   0.708
 9564SOL     OW29590   2.881   0.115   0.862
 9564SOL    HW129591   2.893   0.209   0.829
 9564SOL    HW229592   2.806   0.072   0.812
 9565SOL     OW29593   3.895   0.137   4.828
 9565SOL    HW129594   3.852   0.058   4.873
 9565SOL    HW229595   3.931   0.108   4.740
 9566SOL     OW29596   2.050   5.180   0.158
 9566SOL    HW129597   2.125   5.154   0.096
 9566SOL    HW229598   2.016   5.100   0.206
 9567SOL     OW29599   5.260   4.964   0.642
 9567SOL    HW129600   5.195   5.032   0.608
 9567SOL    HW229601   5.251   4.879   0.589
 9568SOL     OW29602   4.196   2.347   6.822
 9568SOL    HW129603   4.237   2.259   6.798
 9568SOL    HW229604   4.146   2.338   6.908
 9569SOL     OW29605   0.552   1.458   2.538
 9569SOL    HW129606   0.532   1.520   2.614
 9569SOL    HW229607   0.473   1.399   2.522
 9570SOL     OW29608   0.627   3.121   2.060
 9570SOL    HW129609   0.684   3.049   2.021
 9570SOL    HW229610   0.603   3.187   1.989
 9571SOL     OW29611   3.924   4.463   5.996
 9571SOL    HW129612   3.847   4.509   5.951
 9571SOL    HW229613   3.911   4.364   5.991
 9572SOL     OW29614   1.814   4.691   1.958
 9572SOL    HW129615   1.718   4.684   1.983
 9572SOL    HW229616   1.870   4.645   2.027
 9573SOL     OW29617   0.189   1.817   6.647
 9573SOL    HW129618   0.199   1.732   6.596
 9573SOL    HW229619   0.100   1.859   6.626
 9574SOL     OW29620   4.002   3.263   3.618
 9574SOL    HW129621   3.923   3.243   3.675
 9574SOL    HW229622   4.064   3.325   3.668
 9575SOL     OW29623   0.328   1.147   1.367
 9575SOL    HW129624   0.287   1.211   1.301
 9575SOL    HW229625   0.349   1.061   1.321
 9576SOL     OW29626   2.251   0.066   1.727
 9576SOL    HW129627   2.329   0.026   1.680
 9576SOL    HW229628   2.251   0.165   1.715
 9577SOL     OW29629   1.319   0.527   6.310
 9577SOL    HW129630   1.304   0.429   6.300
 9577SOL    HW229631   1.416   0.547   6.298
 9578SOL     OW29632   0.710   3.732   3.800
 9578SOL    HW129633   0.779   3.759   3.867
 9578SOL    HW229634   0.624   3.714   3.846
 9579SOL     OW29635   1.429   4.918   2.810
 9579SOL    HW129636   1.415   4.834   2.862
 9579SOL    HW229637   1.368   4.989   2.845
 9580SOL     OW29638   4.068   3.349   0.550
 9580SOL    HW129639   4.004   3.379   0.479
 9580SOL    HW229640   4.143   3.298   0.508
 9581SOL     OW29641   0.570   5.474   6.295
 9581SOL    HW129642   0.614   5.544   6.238
 9581SOL    HW229643   0.567   5.387   6.245
 9582SOL     OW29644   4.561   5.337   5.980
 9582SOL    HW129645   4.553   5.434   5.955
 9582SOL    HW229646   4.469   5.298   5.990
 9583SOL     OW29647   3.975   4.697   1.374
 9583SOL    HW129648   3.975   4.600   1.353
 9583SOL    HW229649   3.899   4.719   1.435
 9584SOL     OW29650   6.866   6.021   0.381
 9584SOL    HW129651   6.831   5.929   0.361
 9584SOL    HW229652   6.952   6.013   0.432
 9585SOL     OW29653   6.325   0.638   4.418
 9585SOL    HW129654   6.350   0.646   4.515
 9585SOL    HW229655   6.330   0.729   4.376
 9586SOL     OW29656   6.130   4.422   2.667
 9586SOL    HW129657   6.067   4.449   2.740
 9586SOL    HW229658   6.084   4.358   2.606
 9587SOL     OW29659   0.204   1.141   1.999
 9587SOL    HW129660   0.162   1.112   1.913
 9587SOL    HW229661   0.291   1.186   1.980
 9588SOL     OW29662   0.539   1.809   1.905
 9588SOL    HW129663   0.634   1.782   1.920
 9588SOL    HW229664   0.480   1.756   1.965
 9589SOL     OW29665   2.354   5.267   6.037
 9589SOL    HW129666   2.318   5.345   6.088
 9589SOL    HW229667   2.356   5.288   5.940
 9590SOL     OW29668   6.732   3.379   1.863
 9590SOL    HW129669   6.770   3.456   1.812
 9590SOL    HW229670   6.656   3.339   1.812
 9591SOL     OW29671   3.478   6.170   6.264
 9591SOL    HW129672   3.388   6.191   6.302
 9591SOL    HW229673   3.470   6.150   6.167
 9592SOL     OW29674   3.403   4.291   0.804
 9592SOL    HW129675   3.417   4.381   0.761
 9592SOL    HW229676   3.372   4.226   0.735
 9593SOL     OW29677   0.206   1.156   4.964
 9593SOL    HW129678   0.212   1.086   5.035
 9593SOL    HW229679   0.186   1.113   4.876
 9594SOL     OW29680   1.215   6.096   3.031
 9594SOL    HW129681   1.270   6.030   2.979
 9594SOL    HW229682   1.205   6.063   3.125
 9595SOL     OW29683   1.665   4.541   5.472
 9595SOL    HW129684   1.580   4.492   5.493
 9595SOL    HW229685   1.742   4.492   5.511
 9596SOL     OW29686   0.291   5.745   0.208
 9596SOL    HW129687   0.338   5.737   0.121
 9596SOL    HW229688   0.216   5.810   0.200
 9597SOL     OW29689   0.630   4.662   1.130
 9597SOL    HW129690   0.626   4.658   1.030
 9597SOL    HW229691   0.543   4.634   1.168
 9598SOL     OW29692   1.673   3.335   4.494
 9598SOL    HW129693   1.613   3.298   4.423
 9598SOL    HW229694   1.619   3.360   4.574
 9599SOL     OW29695   4.056   0.174   5.089
 9599SOL    HW129696   4.003   0.164   5.005
 9599SOL    HW229697   3.998   0.152   5.168
 9600SOL     OW29698   1.935   7.004   6.887
 9600SOL    HW129699   1.954   6.908   6.864
 9600SOL    HW229700   1.973   0.008   6.978
 9601SOL     OW29701   6.293   3.780   1.251
 9601SOL    HW129702   6.309   3.851   1.320
 9601SOL    HW229703   6.349   3.699   1.274
 9602SOL     OW29704   6.895   5.385   6.611
 9602SOL    HW129705   6.811   5.433   6.637
 9602SOL    HW229706   6.943   5.438   6.540
 9603SOL     OW29707   3.989   1.535   4.944
 9603SOL    HW129708   3.956   1.629   4.956
 9603SOL    HW229709   3.924   1.484   4.889
 9604SOL     OW29710   3.913   0.870   6.922
 9604SOL    HW129711   3.879   0.805   6.853
 9604SOL    HW229712   3.994   0.916   6.886
 9605SOL     OW29713   0.275   5.141   3.973
 9605SOL    HW129714   0.262   5.042   3.970
 9605SOL    HW229715   0.232   5.178   4.056
 9606SOL     OW29716   2.036   6.206   6.196
 9606SOL    HW129717   2.058   6.253   6.111
 9606SOL    HW229718   1.979   6.126   6.177
 9607SOL     OW29719   1.587   1.579   0.987
 9607SOL    HW129720   1.671   1.572   0.933
 9607SOL    HW229721   1.606   1.554   1.082
 9608SOL     OW29722   6.872   6.332   2.110
 9608SOL    HW129723   6.944   6.296   2.169
 9608SOL    HW229724   6.807   6.259   2.089
 9609SOL     OW29725   2.078   3.723   6.295
 9609SOL    HW129726   2.161   3.687   6.252
 9609SOL    HW229727   2.078   3.699   6.392
 9610SOL     OW29728   1.913   5.177   4.132
 9610SOL    HW129729   1.934   5.266   4.093
 9610SOL    HW229730   1.822   5.179   4.173
 9611SOL     OW29731   0.316   6.852   6.907
 9611SOL    HW129732   0.222   6.884   6.919
 9611SOL    HW229733   0.333   6.774   6.966
 9612SOL     OW29734   0.571   3.463   1.960
 9612SOL    HW129735   0.501   3.447   2.030
 9612SOL    HW229736   0.649   3.511   2.001
 9613SOL     OW29737   4.492   6.278   3.925
 9613SOL    HW129738   4.560   6.344   3.957
 9613SOL    HW229739   4.463   6.301   3.833
 9614SOL     OW29740   4.048   2.107   0.994
 9614SOL    HW129741   4.074   2.178   1.060
 9614SOL    HW229742   3.968   2.137   0.943
 9615SOL     OW29743   0.591   6.685   1.253
 9615SOL    HW129744   0.532   6.703   1.332
 9615SOL    HW229745   0.534   6.680   1.170
 9616SOL     OW29746   4.756   3.509   1.096
 9616SOL    HW129747   4.740   3.501   1.194
 9616SOL    HW229748   4.854   3.507   1.078
 9617SOL     OW29749   1.706   3.477   4.082
 9617SOL    HW129750   1.636   3.480   4.010
 9617SOL    HW229751   1.797   3.474   4.039
 9618SOL     OW29752   3.902   6.765   5.778
 9618SOL    HW129753   3.915   6.715   5.864
 9618SOL    HW229754   3.806   6.790   5.768
 9619SOL     OW29755   0.577   0.037   0.445
 9619SOL    HW129756   0.585   0.010   0.541
 9619SOL    HW229757   0.661   0.084   0.417
 9620SOL     OW29758   5.024   2.856   0.141
 9620SOL    HW129759   4.948   2.905   0.099
 9620SOL    HW229760   5.047   2.899   0.229
 9621SOL     OW29761   1.429   0.915   2.772
 9621SOL    HW129762   1.363   0.965   2.828
 9621SOL    HW229763   1.381   0.857   2.707
 9622SOL     OW29764   5.508   0.819   0.092
 9622SOL    HW129765   5.471   0.902   0.132
 9622SOL    HW229766   5.456   0.795   0.010
 9623SOL     OW29767   4.137   4.986   5.258
 9623SOL    HW129768   4.189   5.072   5.257
 9623SOL    HW229769   4.164   4.930   5.179
 9624SOL     OW29770   6.142   4.471   3.815
 9624SOL    HW129771   6.042   4.466   3.803
 9624SOL    HW229772   6.170   4.567   3.822
 9625SOL     OW29773   5.184   5.419   6.924
 9625SOL    HW129774   5.228   5.414   6.835
 9625SOL    HW229775   5.099   5.471   6.917
 9626SOL     OW29776   2.265   6.438   0.271
 9626SOL    HW129777   2.353   6.476   0.244
 9626SOL    HW229778   2.192   6.480   0.217
 9627SOL     OW29779   6.852   3.958   3.623
 9627SOL    HW129780   6.819   4.008   3.703
 9627SOL    HW229781   6.919   3.890   3.653
 9628SOL     OW29782   6.818   4.682   0.127
 9628SOL    HW129783   6.825   4.782   0.121
 9628SOL    HW229784   6.778   4.646   0.043
 9629SOL     OW29785   0.097   6.508   3.011
 9629SOL    HW129786   0.033   6.573   3.053
 9629SOL    HW229787   0.134   6.548   2.927
 9630SOL     OW29788   6.181   6.345   5.078
 9630SOL    HW129789   6.150   6.336   4.983
 9630SOL    HW229790   6.137   6.425   5.119
 9631SOL     OW29791   5.861   1.151   6.881
 9631SOL    HW129792   5.938   1.092   6.906
 9631SOL    HW229793   5.818   1.116   6.798
 9632SOL     OW29794   2.347   4.932   2.151
 9632SOL    HW129795   2.341   4.833   2.161
 9632SOL    HW229796   2.288   4.976   2.218
 9633SOL     OW29797   5.041   5.163   6.849
 9633SOL    HW129798   5.093   5.243   6.880
 9633SOL    HW229799   4.949   5.167   6.888
 9634SOL     OW29800   0.826   6.628   4.330
 9634SOL    HW129801   0.762   6.588   4.265
 9634SOL    HW229802   0.794   6.718   4.358
 9635SOL     OW29803   2.559   4.581   5.353
 9635SOL    HW129804   2.498   4.595   5.432
 9635SOL    HW229805   2.654   4.588   5.384
 9636SOL     OW29806   4.329   1.475   6.232
 9636SOL    HW129807   4.309   1.561   6.184
 9636SOL    HW229808   4.322   1.399   6.167
 9637SOL     OW29809   2.915   2.454   6.983
 9637SOL    HW129810   2.922   2.397   6.901
 9637SOL    HW229811   2.821   2.455   7.015
 9638SOL     OW29812   0.193   3.897   6.430
 9638SOL    HW129813   0.123   3.953   6.475
 9638SOL    HW229814   0.232   3.949   6.353
 9639SOL     OW29815   4.694   1.844   1.955
 9639SOL    HW129816   4.673   1.941   1.947
 9639SOL    HW229817   4.728   1.824   2.047
 9640SOL     OW29818   3.026   1.226   2.969
 9640SOL    HW129819   2.996   1.162   2.899
 9640SOL    HW229820   2.993   1.195   3.058
 9641SOL     OW29821   5.480   5.504   1.120
 9641SOL    HW129822   5.438   5.418   1.092
 9641SOL    HW229823   5.408   5.570   1.142
 9642SOL     OW29824   2.023   5.781   4.957
 9642SOL    HW129825   1.949   5.793   4.891
 9642SOL    HW229826   2.087   5.712   4.923
 9643SOL     OW29827   5.975   4.905   3.930
 9643SOL    HW129828   5.969   5.004   3.924
 9643SOL    HW229829   5.993   4.878   4.024
 9644SOL     OW29830   0.374   4.609   4.680
 9644SOL    HW129831   0.347   4.514   4.696
 9644SOL    HW229832   0.351   4.664   4.760
 9645SOL     OW29833   3.041   4.806   3.910
 9645SOL    HW129834   3.122   4.841   3.864
 9645SOL    HW229835   3.051   4.818   4.009
 9646SOL     OW29836   2.650   4.609   2.233
 9646SOL    HW129837   2.698   4.610   2.146
 9646SOL    HW229838   2.706   4.654   2.303
 9647SOL     OW29839   1.043   5.269   1.995
 9647SOL    HW129840   0.972   5.224   2.049
 9647SOL    HW229841   1.005   5.347   1.947
 9648SOL     OW29842   3.549   2.306   0.294
 9648SOL    HW129843   3.463   2.295   0.343
 9648SOL    HW229844   3.563   2.228   0.232
 9649SOL     OW29845   2.224   4.571   6.893
 9649SOL    HW129846   2.287   4.647   6.882
 9649SOL    HW229847   2.270   4.496   6.941
 9650SOL     OW29848   4.439   4.484   3.011
 9650SOL    HW129849   4.387   4.530   2.940
 9650SOL    HW229850   4.507   4.423   2.970
 9651SOL     OW29851   5.870   1.430   0.555
 9651SOL    HW129852   5.786   1.381   0.533
 9651SOL    HW229853   5.870   1.454   0.653
 9652SOL     OW29854   2.286   4.224   0.917
 9652SOL    HW129855   2.279   4.240   0.818
 9652SOL    HW229856   2.331   4.136   0.933
 9653SOL     OW29857   4.252   5.242   5.235
 9653SOL    HW129858   4.265   5.239   5.136
 9653SOL    HW229859   4.339   5.223   5.281
 9654SOL     OW29860   3.486   3.514   2.373
 9654SOL    HW129861   3.484   3.561   2.461
 9654SOL    HW229862   3.524   3.575   2.303
 9655SOL     OW29863   0.020   1.558   0.363
 9655SOL    HW129864   6.949   1.595   0.330
 9655SOL    HW229865   0.076   1.530   0.285
 9656SOL     OW29866   4.719   1.930   0.910
 9656SOL    HW129867   4.640   1.885   0.952
 9656SOL    HW229868   4.720   2.026   0.936
 9657SOL     OW29869   6.195   2.844   3.666
 9657SOL    HW129870   6.232   2.824   3.756
 9657SOL    HW229871   6.143   2.766   3.633
 9658SOL     OW29872   5.686   2.207   2.478
 9658SOL    HW129873   5.696   2.173   2.384
 9658SOL    HW229874   5.745   2.287   2.491
 9659SOL     OW29875   6.798   3.030   0.353
 9659SOL    HW129876   6.759   3.028   0.445
 9659SOL    HW229877   6.786   3.121   0.313
 9660SOL     OW29878   0.537   6.972   1.978
 9660SOL    HW129879   0.455   0.006   1.951
 9660SOL    HW229880   0.604   6.975   1.905
 9661SOL     OW29881   3.259   6.307   1.423
 9661SOL    HW129882   3.160   6.312   1.436
 9661SOL    HW229883   3.285   6.213   1.400
 9662SOL     OW29884   4.317   2.877   5.335
 9662SOL    HW129885   4.251   2.815   5.376
 9662SOL    HW229886   4.409   2.840   5.347
 9663SOL     OW29887   6.425   6.970   3.410
 9663SOL    HW129888   6.465   0.041   3.440
 9663SOL    HW229889   6.407   6.974   3.312
 9664SOL     OW29890   5.331   6.187   4.385
 9664SOL    HW129891   5.422   6.177   4.426
 9664SOL    HW229892   5.280   6.257   4.435
 9665SOL     OW29893   5.668   6.363   6.726
 9665SOL    HW129894   5.642   6.295   6.796
 9665SOL    HW229895   5.765   6.353   6.705
 9666SOL     OW29896   6.939   3.843   2.744
 9666SOL    HW129897   6.932   3.773   2.673
 9666SOL    HW229898   6.866   3.830   2.811
 9667SOL     OW29899   4.071   3.599   6.012
 9667SOL    HW129900   4.122   3.531   5.960
 9667SOL    HW229901   4.042   3.560   6.099
 9668SOL     OW29902   6.693   0.559   6.116
 9668SOL    HW129903   6.705   0.561   6.215
 9668SOL    HW229904   6.689   0.464   6.085
 9669SOL     OW29905   1.833   0.130   2.967
 9669SOL    HW129906   1.865   0.131   2.873
 9669SOL    HW229907   1.746   0.081   2.972
 9670SOL     OW29908   6.293   4.573   6.852
 9670SOL    HW129909   6.343   4.591   6.767
 9670SOL    HW229910   6.220   4.507   6.835
 9671SOL     OW29911   6.466   4.651   0.044
 9671SOL    HW129912   6.406   4.602   6.997
 9671SOL    HW229913   6.534   4.704   7.008
 9672SOL     OW29914   1.572   5.387   3.710
 9672SOL    HW129915   1.647   5.350   3.656
 9672SOL    HW229916   1.564   5.485   3.693
 9673SOL     OW29917   5.031   3.497   1.049
 9673SOL    HW129918   5.117   3.542   1.073
 9673SOL    HW229919   5.018   3.501   0.949
 9674SOL     OW29920   2.319   6.520   2.647
 9674SOL    HW129921   2.318   6.607   2.598
 9674SOL    HW229922   2.264   6.453   2.598
 9675SOL     OW29923   5.686   2.750   0.474
 9675SOL    HW129924   5.670   2.713   0.566
 9675SOL    HW229925   5.783   2.771   0.463
 9676SOL     OW29926   1.704   3.962   5.552
 9676SOL    HW129927   1.632   3.893   5.559
 9676SOL    HW229928   1.751   3.970   5.640
 9677SOL     OW29929   0.249   5.927   5.032
 9677SOL    HW129930   0.302   5.924   5.116
 9677SOL    HW229931   0.152   5.933   5.054
 9678SOL     OW29932   3.238   4.049   3.205
 9678SOL    HW129933   3.325   4.097   3.187
 9678SOL    HW229934   3.195   4.026   3.118
 9679SOL     OW29935   2.669   1.569   3.442
 9679SOL    HW129936   2.733   1.624   3.496
 9679SOL    HW229937   2.647   1.618   3.358
 9680SOL     OW29938   4.360   1.008   2.942
 9680SOL    HW129939   4.431   0.997   3.010
 9680SOL    HW229940   4.312   1.094   2.956
 9681SOL     OW29941   3.258   1.933   0.477
 9681SOL    HW129942   3.329   1.906   0.542
 9681SOL    HW229943   3.281   1.895   0.387
 9682SOL     OW29944   5.004   4.688   3.601
 9682SOL    HW129945   5.006   4.616   3.671
 9682SOL    HW229946   4.994   4.777   3.645
 9683SOL     OW29947   2.652   5.332   0.608
 9683SOL    HW129948   2.629   5.281   0.691
 9683SOL    HW229949   2.639   5.430   0.624
 9684SOL     OW29950   0.386   3.605   6.119
 9684SOL    HW129951   0.348   3.561   6.038
 9684SOL    HW229952   0.317   3.664   6.161
 9685SOL     OW29953   3.386   4.855   1.131
 9685SOL    HW129954   3.467   4.904   1.098
 9685SOL    HW229955   3.378   4.867   1.230
 9686SOL     OW29956   6.581   1.830   6.764
 9686SOL    HW129957   6.553   1.735   6.767
 9686SOL    HW229958   6.578   1.862   6.669
 9687SOL     OW29959   1.600   0.784   4.291
 9687SOL    HW129960   1.504   0.763   4.310
 9687SOL    HW229961   1.659   0.724   4.344
 9688SOL     OW29962   0.918   3.139   2.627
 9688SOL    HW129963   0.987   3.072   2.653
 9688SOL    HW229964   0.962   3.225   2.602
 9689SOL     OW29965   0.894   4.733   6.373
 9689SOL    HW129966   0.977   4.748   6.427
 9689SOL    HW229967   0.910   4.763   6.279
 9690SOL     OW29968   5.477   5.237   6.735
 9690SOL    HW129969   5.545   5.266   6.802
 9690SOL    HW229970   5.450   5.143   6.755
 9691SOL     OW29971   2.924   5.567   0.816
 9691SOL    HW129972   2.828   5.563   0.790
 9691SOL    HW229973   2.961   5.474   0.822
 9692SOL     OW29974   3.375   5.234   3.022
 9692SOL    HW129975   3.431   5.257   2.942
 9692SOL    HW229976   3.336   5.143   3.010
 9693SOL     OW29977   6.137   4.820   1.818
 9693SOL    HW129978   6.133   4.758   1.740
 9693SOL    HW229979   6.094   4.907   1.794
 9694SOL     OW29980   2.407   0.775   0.958
 9694SOL    HW129981   2.380   0.835   0.883
 9694SOL    HW229982   2.356   0.799   1.040
 9695SOL     OW29983   6.840   3.050   2.623
 9695SOL    HW129984   6.883   3.064   2.713
 9695SOL    HW229985   6.897   2.989   2.568
 9696SOL     OW29986   5.253   3.635   1.143
 9696SOL    HW129987   5.265   3.729   1.112
 9696SOL    HW229988   5.336   3.605   1.191
 9697SOL     OW29989   0.440   5.374   0.119
 9697SOL    HW129990   0.500   5.400   0.194
 9697SOL    HW229991   0.417   5.454   0.064
 9698SOL     OW29992   4.531   1.759   5.990
 9698SOL    HW129993   4.565   1.703   6.066
 9698SOL    HW229994   4.607   1.806   5.947
 9699SOL     OW29995   6.925   4.858   6.817
 9699SOL    HW129996   6.881   4.914   6.747
 9699SOL    HW229997   0.007   4.876   6.817
 9700SOL     OW29998   4.673   5.693   5.112
 9700SOL    HW129999   4.595   5.648   5.155
 9700SOL    HW230000   4.659   5.696   5.013
 9701SOL     OW30001   4.582   5.114   5.634
 9701SOL    HW130002   4.590   5.016   5.652
 9701SOL    HW230003   4.667   5.160   5.662
 9702SOL     OW30004   4.585   0.451   6.568
 9702SOL    HW130005   4.671   0.400   6.573
 9702SOL    HW230006   4.596   0.531   6.509
 9703SOL     OW30007   4.664   4.190   3.385
 9703SOL    HW130008   4.629   4.123   3.319
 9703SOL    HW230009   4.735   4.245   3.340
 9704SOL     OW30010   3.496   0.798   2.821
 9704SOL    HW130011   3.595   0.805   2.808
 9704SOL    HW230012   3.455   0.889   2.817
 9705SOL     OW30013   5.498   4.589   5.812
 9705SOL    HW130014   5.414   4.618   5.858
 9705SOL    HW230015   5.546   4.523   5.869
 9706SOL     OW30016   1.523   3.340   0.505
 9706SOL    HW130017   1.551   3.373   0.415
 9706SOL    HW230018   1.425   3.358   0.518
 9707SOL     OW30019   6.973   4.866   2.599
 9707SOL    HW130020   6.932   4.775   2.590
 9707SOL    HW230021   0.035   4.873   2.537
 9708SOL     OW30022   1.601   1.967   3.081
 9708SOL    HW130023   1.513   2.007   3.108
 9708SOL    HW230024   1.610   1.876   3.121
 9709SOL     OW30025   5.471   6.041   3.347
 9709SOL    HW130026   5.441   6.114   3.286
 9709SOL    HW230027   5.524   5.974   3.295
 9710SOL     OW30028   0.103   1.064   1.516
 9710SOL    HW130029   0.195   1.082   1.482
 9710SOL    HW230030   0.100   1.083   1.614
 9711SOL     OW30031   2.760   5.367   5.916
 9711SOL    HW130032   2.670   5.402   5.944
 9711SOL    HW230033   2.772   5.383   5.818
 9712SOL     OW30034   5.591   3.635   6.666
 9712SOL    HW130035   5.627   3.586   6.586
 9712SOL    HW230036   5.625   3.593   6.750
 9713SOL     OW30037   0.836   4.458   3.555
 9713SOL    HW130038   0.770   4.422   3.489
 9713SOL    HW230039   0.884   4.382   3.599
 9714SOL     OW30040   3.664   6.561   6.472
 9714SOL    HW130041   3.631   6.625   6.541
 9714SOL    HW230042   3.615   6.475   6.479
 9715SOL     OW30043   5.583   3.883   6.242
 9715SOL    HW130044   5.538   3.795   6.251
 9715SOL    HW230045   5.525   3.944   6.187
 9716SOL     OW30046   3.977   3.941   6.835
 9716SOL    HW130047   3.887   3.947   6.879
 9716SOL    HW230048   4.004   4.032   6.802
 9717SOL     OW30049   5.656   6.601   6.449
 9717SOL    HW130050   5.636   6.697   6.428
 9717SOL    HW230051   5.753   6.583   6.434
 9718SOL     OW30052   4.772   2.706   0.354
 9718SOL    HW130053   4.690   2.763   0.359
 9718SOL    HW230054   4.815   2.716   0.264
 9719SOL     OW30055   6.291   1.455   5.796
 9719SOL    HW130056   6.381   1.414   5.810
 9719SOL    HW230057   6.243   1.406   5.723
 9720SOL     OW30058   0.236   5.158   2.571
 9720SOL    HW130059   0.158   5.218   2.590
 9720SOL    HW230060   0.203   5.069   2.541
 9721SOL     OW30061   6.916   1.511   1.125
 9721SOL    HW130062   6.903   1.437   1.059
 9721SOL    HW230063   6.827   1.546   1.154
 9722SOL     OW30064   6.047   1.178   4.209
 9722SOL    HW130065   6.056   1.128   4.123
 9722SOL    HW230066   6.118   1.147   4.273
 9723SOL     OW30067   2.039   6.721   2.446
 9723SOL    HW130068   2.102   6.672   2.387
 9723SOL    HW230069   1.945   6.691   2.426
 9724SOL     OW30070   1.821   4.534   0.490
 9724SOL    HW130071   1.819   4.618   0.436
 9724SOL    HW230072   1.742   4.532   0.551
 9725SOL     OW30073   3.996   5.095   6.389
 9725SOL    HW130074   4.012   5.188   6.423
 9725SOL    HW230075   4.072   5.068   6.329
 9726SOL     OW30076   5.114   1.205   4.694
 9726SOL    HW130077   5.046   1.235   4.761
 9726SOL    HW230078   5.130   1.279   4.628
 9727SOL     OW30079   1.357   3.687   5.841
 9727SOL    HW130080   1.416   3.713   5.917
 9727SOL    HW230081   1.373   3.591   5.818
 9728SOL     OW30082   0.190   0.851   5.749
 9728SOL    HW130083   0.128   0.808   5.814
 9728SOL    HW230084   0.281   0.810   5.756
 9729SOL     OW30085   0.699   3.887   4.058
 9729SOL    HW130086   0.682   3.985   4.064
 9729SOL    HW230087   0.714   3.850   4.150
 9730SOL     OW30088   0.936   3.805   3.951
 9730SOL    HW130089   0.856   3.857   3.980
 9730SOL    HW230090   1.009   3.816   4.018
 9731SOL     OW30091   4.909   4.539   1.060
 9731SOL    HW130092   4.918   4.509   1.156
 9731SOL    HW230093   4.812   4.546   1.036
 9732SOL     OW30094   6.370   5.518   3.020
 9732SOL    HW130095   6.395   5.613   3.038
 9732SOL    HW230096   6.394   5.462   3.099
 9733SOL     OW30097   6.011   5.083   0.488
 9733SOL    HW130098   6.044   5.023   0.415
 9733SOL    HW230099   6.040   5.177   0.469
 9734SOL     OW30100   6.684   1.643   1.713
 9734SOL    HW130101   6.589   1.667   1.732
 9734SOL    HW230102   6.734   1.633   1.799
 9735SOL     OW30103   1.951   4.368   3.962
 9735SOL    HW130104   1.939   4.369   3.863
 9735SOL    HW230105   2.021   4.434   3.988
 9736SOL     OW30106   6.464   1.106   6.482
 9736SOL    HW130107   6.395   1.082   6.413
 9736SOL    HW230108   6.420   1.150   6.559
 9737SOL     OW30109   5.283   2.573   3.667
 9737SOL    HW130110   5.231   2.544   3.587
 9737SOL    HW230111   5.317   2.492   3.715
 9738SOL     OW30112   1.408   0.397   1.369
 9738SOL    HW130113   1.498   0.354   1.362
 9738SOL    HW230114   1.392   0.455   1.289
 9739SOL     OW30115   5.788   4.874   2.107
 9739SOL    HW130116   5.786   4.837   2.200
 9739SOL    HW230117   5.820   4.968   2.108
 9740SOL     OW30118   6.484   1.488   3.219
 9740SOL    HW130119   6.582   1.470   3.210
 9740SOL    HW230120   6.453   1.540   3.140
 9741SOL     OW30121   3.456   1.066   2.896
 9741SOL    HW130122   3.443   1.165   2.896
 9741SOL    HW230123   3.430   1.029   2.985
 9742SOL     OW30124   4.437   0.219   0.819
 9742SOL    HW130125   4.527   0.253   0.792
 9742SOL    HW230126   4.368   0.289   0.801
 9743SOL     OW30127   0.113   1.973   5.393
 9743SOL    HW130128   0.034   2.012   5.345
 9743SOL    HW230129   0.121   1.876   5.372
 9744SOL     OW30130   0.698   6.776   2.831
 9744SOL    HW130131   0.729   6.682   2.821
 9744SOL    HW230132   0.771   6.832   2.871
 9745SOL     OW30133   5.354   3.623   5.866
 9745SOL    HW130134   5.291   3.546   5.863
 9745SOL    HW230135   5.445   3.592   5.894
 9746SOL     OW30136   6.575   0.424   5.349
 9746SOL    HW130137   6.581   0.503   5.288
 9746SOL    HW230138   6.656   0.420   5.407
 9747SOL     OW30139   2.091   0.805   1.502
 9747SOL    HW130140   2.127   0.810   1.595
 9747SOL    HW230141   2.159   0.763   1.442
 9748SOL     OW30142   0.316   1.391   3.162
 9748SOL    HW130143   0.327   1.490   3.164
 9748SOL    HW230144   0.219   1.368   3.151
 9749SOL     OW30145   2.473   1.314   4.931
 9749SOL    HW130146   2.530   1.266   4.864
 9749SOL    HW230147   2.431   1.247   4.994
 9750SOL     OW30148   5.403   4.434   3.600
 9750SOL    HW130149   5.356   4.389   3.524
 9750SOL    HW230150   5.472   4.372   3.638
 9751SOL     OW30151   1.031   0.943   1.144
 9751SOL    HW130152   1.110   0.924   1.085
 9751SOL    HW230153   1.011   1.041   1.140
 9752SOL     OW30154   4.598   1.842   5.326
 9752SOL    HW130155   4.553   1.758   5.357
 9752SOL    HW230156   4.586   1.851   5.227
 9753SOL     OW30157   6.147   6.012   5.626
 9753SOL    HW130158   6.196   5.927   5.644
 9753SOL    HW230159   6.122   6.055   5.712
 9754SOL     OW30160   0.724   1.264   6.076
 9754SOL    HW130161   0.810   1.305   6.048
 9754SOL    HW230162   0.740   1.198   6.149
 9755SOL     OW30163   3.691   3.157   4.431
 9755SOL    HW130164   3.631   3.107   4.368
 9755SOL    HW230165   3.677   3.255   4.418
 9756SOL     OW30166   6.478   3.863   0.621
 9756SOL    HW130167   6.477   3.915   0.536
 9756SOL    HW230168   6.387   3.824   0.637
 9757SOL     OW30169   5.682   3.759   3.936
 9757SOL    HW130170   5.601   3.756   3.879
 9757SOL    HW230171   5.655   3.750   4.032
 9758SOL     OW30172   1.989   6.333   6.817
 9758SOL    HW130173   2.021   6.398   6.748
 9758SOL    HW230174   1.891   6.345   6.832
 9759SOL     OW30175   1.706   0.079   0.006
 9759SOL    HW130176   1.679   0.157   6.964
 9759SOL    HW230177   1.775   0.025   6.974
 9760SOL     OW30178   4.446   2.469   4.974
 9760SOL    HW130179   4.492   2.516   5.049
 9760SOL    HW230180   4.349   2.457   4.996
 9761SOL     OW30181   5.659   1.362   2.983
 9761SOL    HW130182   5.574   1.314   2.958
 9761SOL    HW230183   5.694   1.410   2.903
 9762SOL     OW30184   3.149   1.051   4.663
 9762SOL    HW130185   3.115   0.989   4.592
 9762SOL    HW230186   3.197   0.997   4.733
 9763SOL     OW30187   5.291   2.041   1.958
 9763SOL    HW130188   5.265   2.115   1.896
 9763SOL    HW230189   5.349   2.078   2.031
 9764SOL     OW30190   7.009   2.870   2.484
 9764SOL    HW130191   0.070   2.908   2.433
 9764SOL    HW230192   0.014   2.776   2.512
 9765SOL     OW30193   6.751   1.527   3.794
 9765SOL    HW130194   6.779   1.437   3.827
 9765SOL    HW230195   6.781   1.539   3.699
 9766SOL     OW30196   2.644   0.107   2.969
 9766SOL    HW130197   2.632   0.116   2.871
 9766SOL    HW230198   2.585   0.173   3.016
 9767SOL     OW30199   4.943   0.919   4.935
 9767SOL    HW130200   4.964   0.893   4.840
 9767SOL    HW230201   4.884   1.000   4.934
 9768SOL     OW30202   5.587   1.804   2.848
 9768SOL    HW130203   5.496   1.763   2.843
 9768SOL    HW230204   5.606   1.854   2.764
 9769SOL     OW30205   3.413   1.014   3.183
 9769SOL    HW130206   3.385   0.989   3.275
 9769SOL    HW230207   3.451   1.106   3.183
 9770SOL     OW30208   5.317   7.002   6.740
 9770SOL    HW130209   5.263   0.070   6.743
 9770SOL    HW230210   5.389   7.012   6.671
 9771SOL     OW30211   2.738   5.707   0.422
 9771SOL    HW130212   2.712   5.694   0.517
 9771SOL    HW230213   2.726   5.621   0.372
 9772SOL     OW30214   1.231   6.032   2.694
 9772SOL    HW130215   1.226   6.130   2.678
 9772SOL    HW230216   1.288   6.015   2.775
 9773SOL     OW30217   5.960   5.279   4.412
 9773SOL    HW130218   5.895   5.352   4.431
 9773SOL    HW230219   6.024   5.270   4.489
 9774SOL     OW30220   0.319   4.944   2.207
 9774SOL    HW130221   0.374   4.861   2.203
 9774SOL    HW230222   0.369   5.020   2.166
 9775SOL     OW30223   2.207   0.662   3.217
 9775SOL    HW130224   2.216   0.567   3.246
 9775SOL    HW230225   2.197   0.720   3.298
 9776SOL     OW30226   1.432   4.456   4.402
 9776SOL    HW130227   1.365   4.390   4.367
 9776SOL    HW230228   1.446   4.440   4.500
 9777SOL     OW30229   5.976   5.062   6.256
 9777SOL    HW130230   5.979   5.148   6.206
 9777SOL    HW230231   5.919   4.996   6.207
 9778SOL     OW30232   0.345   0.692   3.613
 9778SOL    HW130233   0.434   0.716   3.576
 9778SOL    HW230234   0.348   0.599   3.650
 9779SOL     OW30235   1.693   1.502   5.438
 9779SOL    HW130236   1.670   1.472   5.346
 9779SOL    HW230237   1.609   1.515   5.491
 9780SOL     OW30238   2.918   1.646   1.378
 9780SOL    HW130239   2.889   1.558   1.415
 9780SOL    HW230240   2.856   1.718   1.410
 9781SOL     OW30241   1.987   3.986   4.333
 9781SOL    HW130242   1.923   3.977   4.257
 9781SOL    HW230243   1.952   3.937   4.413
 9782SOL     OW30244   6.683   1.025   1.188
 9782SOL    HW130245   6.623   1.099   1.157
 9782SOL    HW230246   6.641   0.979   1.266
 9783SOL     OW30247   4.501   2.176   3.371
 9783SOL    HW130248   4.527   2.087   3.410
 9783SOL    HW230249   4.473   2.163   3.275
 9784SOL     OW30250   4.259   1.261   4.296
 9784SOL    HW130251   4.181   1.260   4.358
 9784SOL    HW230252   4.344   1.251   4.350
 9785SOL     OW30253   1.068   3.360   5.923
 9785SOL    HW130254   1.041   3.451   5.891
 9785SOL    HW230255   1.136   3.369   5.996
 9786SOL     OW30256   2.292   4.227   6.802
 9786SOL    HW130257   2.202   4.201   6.768
 9786SOL    HW230258   2.356   4.232   6.725
 9787SOL     OW30259   4.614   3.984   1.701
 9787SOL    HW130260   4.684   3.978   1.773
 9787SOL    HW230261   4.528   4.016   1.740
 9788SOL     OW30262   0.599   0.268   3.657
 9788SOL    HW130263   0.558   0.191   3.706
 9788SOL    HW230264   0.688   0.289   3.695
 9789SOL     OW30265   1.248   5.320   0.598
 9789SOL    HW130266   1.227   5.320   0.696
 9789SOL    HW230267   1.347   5.334   0.586
 9790SOL     OW30268   5.917   4.276   6.232
 9790SOL    HW130269   5.957   4.205   6.289
 9790SOL    HW230270   5.909   4.243   6.138
 9791SOL     OW30271   0.692   0.578   2.996
 9791SOL    HW130272   0.786   0.594   2.966
 9791SOL    HW230273   0.690   0.505   3.065
 9792SOL     OW30274   4.980   5.317   1.285
 9792SOL    HW130275   5.015   5.403   1.323
 9792SOL    HW230276   4.896   5.291   1.334
 9793SOL     OW30277   4.710   5.811   3.827
 9793SOL    HW130278   4.761   5.794   3.742
 9793SOL    HW230279   4.772   5.848   3.896
 9794SOL     OW30280   6.692   4.424   1.078
 9794SOL    HW130281   6.739   4.406   0.992
 9794SOL    HW230282   6.759   4.438   1.150
 9795SOL     OW30283   2.229   1.771   4.597
 9795SOL    HW130284   2.216   1.869   4.613
 9795SOL    HW230285   2.197   1.748   4.504
 9796SOL     OW30286   4.080   2.334   1.108
 9796SOL    HW130287   4.147   2.397   1.069
 9796SOL    HW230288   4.011   2.386   1.159
 9797SOL     OW30289   2.429   4.958   6.383
 9797SOL    HW130290   2.333   4.970   6.408
 9797SOL    HW230291   2.438   4.965   6.283
 9798SOL     OW30292   2.894   0.299   1.273
 9798SOL    HW130293   2.841   0.299   1.358
 9798SOL    HW230294   2.990   0.283   1.294
 9799SOL     OW30295   3.901   4.051   3.858
 9799SOL    HW130296   3.878   4.082   3.766
 9799SOL    HW230297   3.876   4.121   3.924
 9800SOL     OW30298   3.642   6.560   4.390
 9800SOL    HW130299   3.602   6.472   4.364
 9800SOL    HW230300   3.726   6.544   4.442
 9801SOL     OW30301   4.636   3.754   0.464
 9801SOL    HW130302   4.581   3.834   0.437
 9801SOL    HW230303   4.716   3.785   0.515
 9802SOL     OW30304   0.813   3.176   1.438
 9802SOL    HW130305   0.881   3.103   1.446
 9802SOL    HW230306   0.804   3.224   1.525
 9803SOL     OW30307   0.189   2.497   6.608
 9803SOL    HW130308   0.248   2.496   6.689
 9803SOL    HW230309   0.185   2.590   6.571
 9804SOL     OW30310   0.941   6.571   3.401
 9804SOL    HW130311   0.916   6.641   3.334
 9804SOL    HW230312   0.960   6.485   3.355
 9805SOL     OW30313   1.138   0.701   5.084
 9805SOL    HW130314   1.190   0.649   5.152
 9805SOL    HW230315   1.168   0.797   5.086
 9806SOL     OW30316   1.894   1.130   0.625
 9806SOL    HW130317   1.815   1.168   0.674
 9806SOL    HW230318   1.864   1.054   0.568
 9807SOL     OW30319   2.283   3.123   0.298
 9807SOL    HW130320   2.255   3.143   0.392
 9807SOL    HW230321   2.219   3.058   0.257
 9808SOL     OW30322   4.537   0.618   5.572
 9808SOL    HW130323   4.482   0.687   5.619
 9808SOL    HW230324   4.633   0.630   5.597
 9809SOL     OW30325   0.430   2.012   0.067
 9809SOL    HW130326   0.392   2.062   0.145
 9809SOL    HW230327   0.523   1.982   0.088
 9810SOL     OW30328   2.160   2.844   3.535
 9810SOL    HW130329   2.178   2.936   3.502
 9810SOL    HW230330   2.245   2.791   3.533
 9811SOL     OW30331   5.640   5.071   3.954
 9811SOL    HW130332   5.734   5.105   3.959
 9811SOL    HW230333   5.638   4.974   3.978
 9812SOL     OW30334   3.692   1.938   5.873
 9812SOL    HW130335   3.619   1.962   5.808
 9812SOL    HW230336   3.754   2.016   5.883
 9813SOL     OW30337   5.722   0.466   6.959
 9813SOL    HW130338   5.673   0.523   0.009
 9813SOL    HW230339   5.814   0.446   6.993
 9814SOL     OW30340   0.746   0.453   0.688
 9814SOL    HW130341   0.822   0.407   0.643
 9814SOL    HW230342   0.677   0.386   0.714
 9815SOL     OW30343   5.730   4.030   3.119
 9815SOL    HW130344   5.722   3.969   3.198
 9815SOL    HW230345   5.675   4.112   3.135
 9816SOL     OW30346   6.713   1.257   6.184
 9816SOL    HW130347   6.745   1.182   6.243
 9816SOL    HW230348   6.632   1.298   6.224
 9817SOL     OW30349   2.311   6.066   2.446
 9817SOL    HW130350   2.401   6.036   2.476
 9817SOL    HW230351   2.311   6.078   2.347
 9818SOL     OW30352   1.385   0.694   4.735
 9818SOL    HW130353   1.309   0.649   4.782
 9818SOL    HW230354   1.439   0.746   4.801
 9819SOL     OW30355   4.938   3.013   3.915
 9819SOL    HW130356   5.035   3.006   3.891
 9819SOL    HW230357   4.911   3.109   3.915
 9820SOL     OW30358   4.554   3.344   6.153
 9820SOL    HW130359   4.504   3.329   6.238
 9820SOL    HW230360   4.555   3.260   6.099
 9821SOL     OW30361   4.989   0.341   0.719
 9821SOL    HW130362   4.965   0.370   0.627
 9821SOL    HW230363   5.016   0.421   0.773
 9822SOL     OW30364   2.711   5.871   3.410
 9822SOL    HW130365   2.724   5.822   3.496
 9822SOL    HW230366   2.613   5.883   3.393
 9823SOL     OW30367   2.770   0.300   1.532
 9823SOL    HW130368   2.856   0.315   1.582
 9823SOL    HW230369   2.694   0.303   1.596
 9824SOL     OW30370   1.749   5.688   4.294
 9824SOL    HW130371   1.793   5.777   4.303
 9824SOL    HW230372   1.731   5.669   4.197
 9825SOL     OW30373   5.362   6.370   4.118
 9825SOL    HW130374   5.444   6.334   4.162
 9825SOL    HW230375   5.298   6.403   4.187
 9826SOL     OW30376   4.032   5.823   5.090
 9826SOL    HW130377   3.950   5.857   5.137
 9826SOL    HW230378   4.043   5.725   5.109
 9827SOL     OW30379   1.838   3.562   3.692
 9827SOL    HW130380   1.748   3.530   3.663
 9827SOL    HW230381   1.905   3.488   3.684
 9828SOL     OW30382   3.143   2.529   5.392
 9828SOL    HW130383   3.185   2.477   5.318
 9828SOL    HW230384   3.045   2.513   5.393
 9829SOL     OW30385   4.748   5.913   6.636
 9829SOL    HW130386   4.729   5.826   6.592
 9829SOL    HW230387   4.668   5.972   6.629
 9830SOL     OW30388   5.225   1.312   1.857
 9830SOL    HW130389   5.192   1.407   1.856
 9830SOL    HW230390   5.194   1.266   1.774
 9831SOL     OW30391   1.079   4.825   2.924
 9831SOL    HW130392   1.143   4.895   2.956
 9831SOL    HW230393   1.063   4.759   2.996
 9832SOL     OW30394   5.153   5.511   2.572
 9832SOL    HW130395   5.175   5.601   2.609
 9832SOL    HW230396   5.073   5.518   2.513
 9833SOL     OW30397   3.502   3.707   3.901
 9833SOL    HW130398   3.405   3.723   3.921
 9833SOL    HW230399   3.545   3.794   3.876
 9834SOL     OW30400   2.284   4.465   5.151
 9834SOL    HW130401   2.214   4.465   5.223
 9834SOL    HW230402   2.292   4.557   5.113
 9835SOL     OW30403   3.681   3.469   4.288
 9835SOL    HW130404   3.635   3.396   4.238
 9835SOL    HW230405   3.615   3.540   4.313
 9836SOL     OW30406   0.405   4.140   3.907
 9836SOL    HW130407   0.437   4.062   3.854
 9836SOL    HW230408   0.481   4.205   3.919
 9837SOL     OW30409   4.286   0.660   2.449
 9837SOL    HW130410   4.207   0.636   2.392
 9837SOL    HW230411   4.277   0.755   2.479
 9838SOL     OW30412   1.759   6.889   0.270
 9838SOL    HW130413   1.682   6.928   0.219
 9838SOL    HW230414   1.761   6.790   0.257
 9839SOL     OW30415   5.014   6.776   3.538
 9839SOL    HW130416   4.965   6.690   3.527
 9839SOL    HW230417   5.091   6.763   3.601
 9840SOL     OW30418   5.530   2.011   0.767
 9840SOL    HW130419   5.521   2.043   0.861
 9840SOL    HW230420   5.554   1.914   0.767
 9841SOL     OW30421   1.012   4.229   4.564
 9841SOL    HW130422   1.099   4.224   4.514
 9841SOL    HW230423   0.947   4.166   4.523
 9842SOL     OW30424   3.311   3.528   1.268
 9842SOL    HW130425   3.399   3.530   1.316
 9842SOL    HW230426   3.308   3.447   1.208
 9843SOL     OW30427   6.484   0.011   2.326
 9843SOL    HW130428   6.444   6.952   2.271
 9843SOL    HW230429   6.513   6.991   2.414
 9844SOL     OW30430   5.904   1.236   3.343
 9844SOL    HW130431   5.884   1.318   3.289
 9844SOL    HW230432   5.844   1.161   3.315
 9845SOL     OW30433   1.482   1.715   3.911
 9845SOL    HW130434   1.477   1.616   3.900
 9845SOL    HW230435   1.571   1.748   3.879
 9846SOL     OW30436   3.681   2.535   1.374
 9846SOL    HW130437   3.676   2.449   1.323
 9846SOL    HW230438   3.683   2.515   1.472
 9847SOL     OW30439   3.773   3.217   2.594
 9847SOL    HW130440   3.852   3.232   2.534
 9847SOL    HW230441   3.794   3.146   2.660
 9848SOL     OW30442   4.368   4.518   5.993
 9848SOL    HW130443   4.401   4.606   6.028
 9848SOL    HW230444   4.394   4.509   5.897
 9849SOL     OW30445   1.046   0.245   6.597
 9849SOL    HW130446   1.055   0.228   6.696
 9849SOL    HW230447   1.119   0.197   6.549
 9850SOL     OW30448   6.759   0.750   3.802
 9850SOL    HW130449   6.741   0.653   3.818
 9850SOL    HW230450   6.687   0.788   3.744
 9851SOL     OW30451   1.743   0.450   4.168
 9851SOL    HW130452   1.799   0.531   4.179
 9851SOL    HW230453   1.761   0.408   4.079
 9852SOL     OW30454   2.392   1.581   4.720
 9852SOL    HW130455   2.377   1.486   4.747
 9852SOL    HW230456   2.318   1.611   4.660
 9853SOL     OW30457   6.237   3.373   5.354
 9853SOL    HW130458   6.333   3.350   5.345
 9853SOL    HW230459   6.181   3.296   5.325
 9854SOL     OW30460   0.398   6.126   4.423
 9854SOL    HW130461   0.418   6.174   4.338
 9854SOL    HW230462   0.318   6.067   4.409
 9855SOL     OW30463   2.223   3.380   1.213
 9855SOL    HW130464   2.143   3.440   1.217
 9855SOL    HW230465   2.287   3.404   1.285
 9856SOL     OW30466   5.172   4.446   3.752
 9856SOL    HW130467   5.188   4.491   3.839
 9856SOL    HW230468   5.245   4.471   3.688
 9857SOL     OW30469   4.913   2.573   3.031
 9857SOL    HW130470   4.914   2.582   3.130
 9857SOL    HW230471   4.977   2.502   3.003
 9858SOL     OW30472   0.474   6.692   1.515
 9858SOL    HW130473   0.446   6.606   1.471
 9858SOL    HW230474   0.394   6.750   1.527
 9859SOL     OW30475   6.553   5.645   3.511
 9859SOL    HW130476   6.463   5.686   3.498
 9859SOL    HW230477   6.567   5.626   3.608
 9860SOL     OW30478   2.597   2.037   4.759
 9860SOL    HW130479   2.598   1.957   4.699
 9860SOL    HW230480   2.526   2.100   4.729
 9861SOL     OW30481   2.728   0.231   3.441
 9861SOL    HW130482   2.765   0.313   3.396
 9861SOL    HW230483   2.683   0.174   3.373
 9862SOL     OW30484   2.506   3.385   6.977
 9862SOL    HW130485   2.578   3.323   6.947
 9862SOL    HW230486   2.515   3.473   6.931
 9863SOL     OW30487   2.685   6.375   1.296
 9863SOL    HW130488   2.743   6.434   1.241
 9863SOL    HW230489   2.686   6.406   1.391
 9864SOL     OW30490   3.304   0.406   4.489
 9864SOL    HW130491   3.208   0.426   4.473
 9864SOL    HW230492   3.350   0.388   4.401
 9865SOL     OW30493   1.299   6.427   4.474
 9865SOL    HW130494   1.307   6.339   4.428
 9865SOL    HW230495   1.374   6.486   4.445
 9866SOL     OW30496   6.101   4.476   5.954
 9866SOL    HW130497   6.012   4.512   5.982
 9866SOL    HW230498   6.173   4.530   5.997
 9867SOL     OW30499   6.926   1.882   1.903
 9867SOL    HW130500   6.881   1.800   1.867
 9867SOL    HW230501   7.007   1.902   1.848
 9868SOL     OW30502   0.108   3.180   4.538
 9868SOL    HW130503   0.156   3.180   4.450
 9868SOL    HW230504   0.056   3.096   4.547
 9869SOL     OW30505   0.033   2.317   1.505
 9869SOL    HW130506   0.042   2.405   1.552
 9869SOL    HW230507   7.007   2.332   1.415
 9870SOL     OW30508   4.248   5.752   2.780
 9870SOL    HW130509   4.171   5.764   2.717
 9870SOL    HW230510   4.321   5.701   2.734
 9871SOL     OW30511   6.521   4.342   5.735
 9871SOL    HW130512   6.526   4.315   5.639
 9871SOL    HW230513   6.604   4.392   5.760
 9872SOL     OW30514   3.234   5.345   4.620
 9872SOL    HW130515   3.175   5.346   4.701
 9872SOL    HW230516   3.179   5.359   4.538
 9873SOL     OW30517   2.305   2.663   0.728
 9873SOL    HW130518   2.260   2.582   0.765
 9873SOL    HW230519   2.374   2.696   0.793
 9874SOL     OW30520   0.004   2.999   5.704
 9874SOL    HW130521   0.006   2.996   5.605
 9874SOL    HW230522   7.004   2.907   5.741
 9875SOL     OW30523   6.244   6.004   2.968
 9875SOL    HW130524   6.257   6.092   2.924
 9875SOL    HW230525   6.229   6.017   3.066
 9876SOL     OW30526   5.414   0.206   3.932
 9876SOL    HW130527   5.490   0.237   3.989
 9876SOL    HW230528   5.427   0.110   3.907
 9877SOL     OW30529   0.077   4.436   4.264
 9877SOL    HW130530   0.066   4.462   4.360
 9877SOL    HW230531   7.004   4.426   4.221
 9878SOL     OW30532   3.072   3.196   5.792
 9878SOL    HW130533   3.140   3.127   5.818
 9878SOL    HW230534   2.993   3.190   5.852
 9879SOL     OW30535   5.875   4.839   5.560
 9879SOL    HW130536   5.877   4.924   5.614
 9879SOL    HW230537   5.963   4.826   5.516
 9880SOL     OW30538   2.706   0.941   0.913
 9880SOL    HW130539   2.696   0.906   1.006
 9880SOL    HW230540   2.802   0.960   0.894
 9881SOL     OW30541   6.977   2.045   4.605
 9881SOL    HW130542   6.989   1.946   4.600
 9881SOL    HW230543   6.933   2.068   4.692
 9882SOL     OW30544   3.111   3.726   5.900
 9882SOL    HW130545   3.083   3.674   5.819
 9882SOL    HW230546   3.211   3.725   5.907
 9883SOL     OW30547   0.827   6.556   1.381
 9883SOL    HW130548   0.769   6.611   1.320
 9883SOL    HW230549   0.822   6.593   1.474
 9884SOL     OW30550   4.298   1.567   0.839
 9884SOL    HW130551   4.318   1.579   0.936
 9884SOL    HW230552   4.230   1.494   0.828
 9885SOL     OW30553   0.547   3.352   4.755
 9885SOL    HW130554   0.619   3.284   4.752
 9885SOL    HW230555   0.573   3.425   4.818
 9886SOL     OW30556   0.688   6.212   1.659
 9886SOL    HW130557   0.623   6.219   1.736
 9886SOL    HW230558   0.682   6.121   1.619
 9887SOL     OW30559   3.503   0.340   0.269
 9887SOL    HW130560   3.448   0.281   0.210
 9887SOL    HW230561   3.556   0.403   0.212
 9888SOL     OW30562   5.729   5.206   3.289
 9888SOL    HW130563   5.743   5.166   3.379
 9888SOL    HW230564   5.814   5.248   3.257
 9889SOL     OW30565   0.334   4.668   1.755
 9889SOL    HW130566   0.316   4.580   1.710
 9889SOL    HW230567   0.304   4.663   1.850
 9890SOL     OW30568   0.441   2.822   0.849
 9890SOL    HW130569   0.442   2.908   0.899
 9890SOL    HW230570   0.511   2.761   0.887
 9891SOL     OW30571   5.882   4.580   1.240
 9891SOL    HW130572   5.808   4.543   1.184
 9891SOL    HW230573   5.957   4.610   1.182
 9892SOL     OW30574   1.369   5.406   3.256
 9892SOL    HW130575   1.416   5.323   3.225
 9892SOL    HW230576   1.270   5.392   3.252
 9893SOL     OW30577   6.533   6.778   2.179
 9893SOL    HW130578   6.489   6.746   2.095
 9893SOL    HW230579   6.602   6.847   2.156
 9894SOL     OW30580   2.836   1.642   6.238
 9894SOL    HW130581   2.776   1.606   6.309
 9894SOL    HW230582   2.907   1.699   6.280
 9895SOL     OW30583   6.166   2.503   5.466
 9895SOL    HW130584   6.130   2.481   5.557
 9895SOL    HW230585   6.115   2.452   5.397
 9896SOL     OW30586   5.003   1.869   0.921
 9896SOL    HW130587   4.994   1.814   1.004
 9896SOL    HW230588   4.920   1.924   0.907
 9897SOL     OW30589   4.791   0.682   2.846
 9897SOL    HW130590   4.772   0.605   2.786
 9897SOL    HW230591   4.710   0.702   2.902
 9898SOL     OW30592   6.899   4.762   5.305
 9898SOL    HW130593   6.881   4.666   5.328
 9898SOL    HW230594   6.862   4.782   5.215
 9899SOL     OW30595   6.741   5.547   2.484
 9899SOL    HW130596   6.658   5.518   2.532
 9899SOL    HW230597   6.724   5.632   2.436
 9900SOL     OW30598   1.619   2.525   2.689
 9900SOL    HW130599   1.632   2.610   2.639
 9900SOL    HW230600   1.522   2.502   2.691
 9901SOL     OW30601   1.974   1.154   0.050
 9901SOL    HW130602   2.046   1.220   0.031
 9901SOL    HW230603   2.007   1.086   0.116
 9902SOL     OW30604   4.121   3.976   1.261
 9902SOL    HW130605   4.184   3.919   1.314
 9902SOL    HW230606   4.116   3.942   1.167
 9903SOL     OW30607   5.010   6.775   2.175
 9903SOL    HW130608   5.021   6.725   2.261
 9903SOL    HW230609   4.937   6.842   2.185
 9904SOL     OW30610   0.318   4.053   6.729
 9904SOL    HW130611   0.297   3.968   6.778
 9904SOL    HW230612   0.295   4.131   6.787
 9905SOL     OW30613   1.390   6.410   6.755
 9905SOL    HW130614   1.351   6.428   6.664
 9905SOL    HW230615   1.340   6.463   6.824
 9906SOL     OW30616   2.058   3.346   6.883
 9906SOL    HW130617   2.087   3.442   6.880
 9906SOL    HW230618   2.089   3.305   6.969
 9907SOL     OW30619   1.469   0.496   3.612
 9907SOL    HW130620   1.453   0.593   3.597
 9907SOL    HW230621   1.383   0.446   3.607
 9908SOL     OW30622   0.609   3.452   5.736
 9908SOL    HW130623   0.704   3.458   5.706
 9908SOL    HW230624   0.602   3.388   5.812
 9909SOL     OW30625   3.347   0.385   3.289
 9909SOL    HW130626   3.307   0.477   3.298
 9909SOL    HW230627   3.337   0.354   3.195
 9910SOL     OW30628   1.582   5.225   1.489
 9910SOL    HW130629   1.498   5.252   1.537
 9910SOL    HW230630   1.558   5.188   1.399
 9911SOL     OW30631   4.284   5.942   2.411
 9911SOL    HW130632   4.289   5.962   2.508
 9911SOL    HW230633   4.356   5.877   2.386
 9912SOL     OW30634   3.906   0.718   1.176
 9912SOL    HW130635   3.863   0.627   1.181
 9912SOL    HW230636   3.877   0.772   1.255
 9913SOL     OW30637   6.288   3.863   1.836
 9913SOL    HW130638   6.243   3.807   1.906
 9913SOL    HW230639   6.275   3.821   1.746
 9914SOL     OW30640   0.895   0.758   5.478
 9914SOL    HW130641   0.991   0.770   5.504
 9914SOL    HW230642   0.838   0.760   5.559
 9915SOL     OW30643   4.837   2.864   4.210
 9915SOL    HW130644   4.908   2.843   4.142
 9915SOL    HW230645   4.753   2.892   4.163
 9916SOL     OW30646   1.770   2.320   3.300
 9916SOL    HW130647   1.813   2.230   3.296
 9916SOL    HW230648   1.680   2.311   3.345
 9917SOL     OW30649   3.274   3.651   4.575
 9917SOL    HW130650   3.326   3.630   4.658
 9917SOL    HW230651   3.234   3.742   4.583
 9918SOL     OW30652   0.909   2.125   1.641
 9918SOL    HW130653   0.838   2.118   1.712
 9918SOL    HW230654   0.992   2.079   1.672
 9919SOL     OW30655   2.559   5.866   0.994
 9919SOL    HW130656   2.583   5.910   1.081
 9919SOL    HW230657   2.467   5.892   0.967
 9920SOL     OW30658   3.250   0.206   2.759
 9920SOL    HW130659   3.171   0.189   2.818
 9920SOL    HW230660   3.224   0.271   2.687
 9921SOL     OW30661   4.707   6.563   4.575
 9921SOL    HW130662   4.691   6.503   4.496
 9921SOL    HW230663   4.674   6.655   4.554
 9922SOL     OW30664   4.769   4.638   0.793
 9922SOL    HW130665   4.707   4.560   0.799
 9922SOL    HW230666   4.716   4.721   0.776
 9923SOL     OW30667   0.007   3.302   6.670
 9923SOL    HW130668   0.061   3.218   6.661
 9923SOL    HW230669   6.972   3.300   6.756
 9924SOL     OW30670   5.036   2.077   3.651
 9924SOL    HW130671   5.010   2.028   3.734
 9924SOL    HW230672   4.971   2.056   3.578
 9925SOL     OW30673   1.610   4.345   4.168
 9925SOL    HW130674   1.510   4.336   4.172
 9925SOL    HW230675   1.640   4.415   4.233
 9926SOL     OW30676   3.457   2.492   0.631
 9926SOL    HW130677   3.388   2.468   0.562
 9926SOL    HW230678   3.426   2.572   0.683
 9927SOL     OW30679   0.932   2.137   0.592
 9927SOL    HW130680   0.845   2.122   0.639
 9927SOL    HW230681   0.997   2.181   0.655
 9928SOL     OW30682   5.301   3.835   2.620
 9928SOL    HW130683   5.242   3.853   2.541
 9928SOL    HW230684   5.247   3.841   2.704
 9929SOL     OW30685   3.650   4.194   4.964
 9929SOL    HW130686   3.575   4.236   4.913
 9929SOL    HW230687   3.736   4.209   4.915
 9930SOL     OW30688   0.589   0.236   6.042
 9930SOL    HW130689   0.566   0.169   5.971
 9930SOL    HW230690   0.551   0.206   6.129
 9931SOL     OW30691   6.887   5.375   4.726
 9931SOL    HW130692   6.861   5.367   4.629
 9931SOL    HW230693   6.985   5.397   4.732
 9932SOL     OW30694   1.525   1.298   6.915
 9932SOL    HW130695   1.481   1.210   6.931
 9932SOL    HW230696   1.624   1.284   6.906
 9933SOL     OW30697   1.457   1.247   4.396
 9933SOL    HW130698   1.451   1.321   4.329
 9933SOL    HW230699   1.487   1.163   4.351
 9934SOL     OW30700   6.113   1.594   6.755
 9934SOL    HW130701   6.120   1.506   6.802
 9934SOL    HW230702   6.138   1.667   6.819
 9935SOL     OW30703   2.355   0.819   0.601
 9935SOL    HW130704   2.265   0.785   0.574
 9935SOL    HW230705   2.418   0.811   0.524
 9936SOL     OW30706   6.966   5.371   0.085
 9936SOL    HW130707   6.959   5.315   0.003
 9936SOL    HW230708   6.884   5.428   0.094
 9937SOL     OW30709   1.423   0.872   3.353
 9937SOL    HW130710   1.489   0.856   3.279
 9937SOL    HW230711   1.472   0.902   3.435
 9938SOL     OW30712   6.002   0.370   3.918
 9938SOL    HW130713   6.051   0.318   3.988
 9938SOL    HW230714   6.052   0.364   3.832
 9939SOL     OW30715   2.325   2.468   1.069
 9939SOL    HW130716   2.292   2.560   1.048
 9939SOL    HW230717   2.405   2.474   1.129
 9940SOL     OW30718   0.773   0.820   4.010
 9940SOL    HW130719   0.811   0.754   3.945
 9940SOL    HW230720   0.680   0.793   4.034
 9941SOL     OW30721   3.082   5.628   5.859
 9941SOL    HW130722   3.182   5.637   5.853
 9941SOL    HW230723   3.046   5.702   5.916
 9942SOL     OW30724   4.743   5.680   1.629
 9942SOL    HW130725   4.666   5.619   1.612
 9942SOL    HW230726   4.711   5.764   1.673
 9943SOL     OW30727   0.993   4.089   6.500
 9943SOL    HW130728   0.931   4.133   6.435
 9943SOL    HW230729   0.944   4.016   6.547
 9944SOL     OW30730   0.328   5.596   6.558
 9944SOL    HW130731   0.278   5.605   6.472
 9944SOL    HW230732   0.265   5.563   6.629
 9945SOL     OW30733   5.294   4.260   6.748
 9945SOL    HW130734   5.271   4.164   6.733
 9945SOL    HW230735   5.292   4.310   6.661
 9946SOL     OW30736   5.900   0.355   2.991
 9946SOL    HW130737   5.822   0.301   2.960
 9946SOL    HW230738   5.935   0.316   3.076
 9947SOL     OW30739   2.257   1.539   4.157
 9947SOL    HW130740   2.305   1.470   4.102
 9947SOL    HW230741   2.319   1.614   4.177
 9948SOL     OW30742   6.775   5.697   5.588
 9948SOL    HW130743   6.835   5.768   5.624
 9948SOL    HW230744   6.743   5.723   5.496
 9949SOL     OW30745   6.950   5.006   4.300
 9949SOL    HW130746   6.858   5.009   4.261
 9949SOL    HW230747   6.953   4.940   4.374
 9950SOL     OW30748   6.881   6.125   5.772
 9950SOL    HW130749   6.890   6.084   5.863
 9950SOL    HW230750   6.937   6.073   5.707
 9951SOL     OW30751   2.070   2.379   2.474
 9951SOL    HW130752   2.073   2.357   2.376
 9951SOL    HW230753   1.982   2.352   2.512
 9952SOL     OW30754   1.564   3.734   0.370
 9952SOL    HW130755   1.465   3.744   0.379
 9952SOL    HW230756   1.598   3.677   0.445
 9953SOL     OW30757   5.249   3.008   3.877
 9953SOL    HW130758   5.295   3.095   3.863
 9953SOL    HW230759   5.314   2.933   3.865
 9954SOL     OW30760   1.536   7.005   5.051
 9954SOL    HW130761   1.497   6.985   4.961
 9954SOL    HW230762   1.630   6.972   5.056
 9955SOL     OW30763   4.037   3.732   6.696
 9955SOL    HW130764   3.974   3.717   6.620
 9955SOL    HW230765   4.008   3.813   6.748
 9956SOL     OW30766   0.514   3.726   2.548
 9956SOL    HW130767   0.416   3.704   2.549
 9956SOL    HW230768   0.533   3.793   2.619
 9957SOL     OW30769   5.942   7.001   1.791
 9957SOL    HW130770   5.853   0.013   1.754
 9957SOL    HW230771   5.967   0.046   1.866
 9958SOL     OW30772   3.366   6.263   5.688
 9958SOL    HW130773   3.399   6.344   5.736
 9958SOL    HW230774   3.361   6.187   5.752
 9959SOL     OW30775   4.104   3.425   2.302
 9959SOL    HW130776   4.091   3.492   2.229
 9959SOL    HW230777   4.106   3.333   2.263
 9960SOL     OW30778   0.682   6.318   1.352
 9960SOL    HW130779   0.732   6.337   1.267
 9960SOL    HW230780   0.734   6.354   1.429
 9961SOL     OW30781   2.307   4.410   3.160
 9961SOL    HW130782   2.347   4.501   3.156
 9961SOL    HW230783   2.324   4.362   3.074
 9962SOL     OW30784   3.690   0.528   2.306
 9962SOL    HW130785   3.674   0.603   2.370
 9962SOL    HW230786   3.622   0.532   2.232
 9963SOL     OW30787   2.741   3.120   6.314
 9963SOL    HW130788   2.661   3.151   6.365
 9963SOL    HW230789   2.711   3.071   6.232
 9964SOL     OW30790   4.226   5.109   5.792
 9964SOL    HW130791   4.236   5.119   5.891
 9964SOL    HW230792   4.256   5.018   5.765
 9965SOL     OW30793   3.339   4.947   4.961
 9965SOL    HW130794   3.244   4.939   4.930
 9965SOL    HW230795   3.394   4.989   4.888
 9966SOL     OW30796   2.178   4.843   1.786
 9966SOL    HW130797   2.229   4.925   1.760
 9966SOL    HW230798   2.093   4.838   1.733
 9967SOL     OW30799   6.033   4.988   2.442
 9967SOL    HW130800   5.952   5.035   2.405
 9967SOL    HW230801   6.066   5.038   2.522
 9968SOL     OW30802   3.902   5.898   6.476
 9968SOL    HW130803   3.901   5.953   6.392
 9968SOL    HW230804   3.820   5.840   6.478
 9969SOL     OW30805   1.435   3.225   3.640
 9969SOL    HW130806   1.486   3.152   3.686
 9969SOL    HW230807   1.477   3.243   3.551
 9970SOL     OW30808   0.202   4.586   2.391
 9970SOL    HW130809   0.122   4.528   2.371
 9970SOL    HW230810   0.231   4.571   2.485
 9971SOL     OW30811   2.490   3.845   0.542
 9971SOL    HW130812   2.519   3.895   0.623
 9971SOL    HW230813   2.394   3.863   0.523
 9972SOL     OW30814   3.404   4.721   0.893
 9972SOL    HW130815   3.496   4.686   0.912
 9972SOL    HW230816   3.372   4.774   0.971
 9973SOL     OW30817   3.997   2.026   4.788
 9973SOL    HW130818   4.045   2.103   4.832
 9973SOL    HW230819   4.016   1.942   4.838
 9974SOL     OW30820   6.474   2.981   2.824
 9974SOL    HW130821   6.470   3.045   2.901
 9974SOL    HW230822   6.387   2.931   2.819
 9975SOL     OW30823   0.148   4.608   6.863
 9975SOL    HW130824   0.088   4.565   6.796
 9975SOL    HW230825   0.207   4.675   6.817
 9976SOL     OW30826   0.210   4.962   5.134
 9976SOL    HW130827   0.263   4.937   5.215
 9976SOL    HW230828   0.114   4.973   5.159
 9977SOL     OW30829   6.623   5.251   5.973
 9977SOL    HW130830   6.588   5.301   6.052
 9977SOL    HW230831   6.559   5.179   5.947
 9978SOL     OW30832   6.299   1.635   5.050
 9978SOL    HW130833   6.297   1.696   5.130
 9978SOL    HW230834   6.211   1.587   5.043
 9979SOL     OW30835   6.422   4.193   5.975
 9979SOL    HW130836   6.330   4.180   5.939
 9979SOL    HW230837   6.472   4.258   5.916
 9980SOL     OW30838   1.446   0.841   0.154
 9980SOL    HW130839   1.355   0.832   0.196
 9980SOL    HW230840   1.439   0.899   0.073
 9981SOL     OW30841   2.974   1.836   0.464
 9981SOL    HW130842   2.913   1.864   0.538
 9981SOL    HW230843   3.069   1.843   0.495
 9982SOL     OW30844   0.782   1.934   3.828
 9982SOL    HW130845   0.877   1.903   3.828
 9982SOL    HW230846   0.749   1.940   3.734
 9983SOL     OW30847   1.014   0.807   1.727
 9983SOL    HW130848   1.045   0.751   1.649
 9983SOL    HW230849   1.088   0.869   1.754
 9984SOL     OW30850   0.377   0.236   0.353
 9984SOL    HW130851   0.371   0.316   0.412
 9984SOL    HW230852   0.455   0.180   0.380
 9985SOL     OW30853   3.567   0.150   1.457
 9985SOL    HW130854   3.537   0.066   1.412
 9985SOL    HW230855   3.664   0.143   1.480
 9986SOL     OW30856   5.172   4.596   6.882
 9986SOL    HW130857   5.268   4.583   6.860
 9986SOL    HW230858   5.136   4.514   6.926
 9987SOL     OW30859   6.262   1.898   2.142
 9987SOL    HW130860   6.333   1.965   2.119
 9987SOL    HW230861   6.288   1.809   2.105
 9988SOL     OW30862   0.219   4.829   4.522
 9988SOL    HW130863   0.237   4.914   4.571
 9988SOL    HW230864   0.257   4.752   4.574
 9989SOL     OW30865   5.728   3.780   3.273
 9989SOL    HW130866   5.657   3.711   3.260
 9989SOL    HW230867   5.805   3.760   3.213
 9990SOL     OW30868   2.490   0.651   3.478
 9990SOL    HW130869   2.547   0.624   3.400
 9990SOL    HW230870   2.499   0.585   3.552
 9991SOL     OW30871   1.499   3.068   4.412
 9991SOL    HW130872   1.456   2.979   4.426
 9991SOL    HW230873   1.598   3.058   4.423
 9992SOL     OW30874   3.555   3.659   0.848
 9992SOL    HW130875   3.598   3.719   0.781
 9992SOL    HW230876   3.577   3.690   0.940
 9993SOL     OW30877   3.792   6.289   3.053
 9993SOL    HW130878   3.793   6.389   3.058
 9993SOL    HW230879   3.716   6.260   2.995
 9994SOL     OW30880   0.144   3.834   3.361
 9994SOL    HW130881   0.217   3.765   3.358
 9994SOL    HW230882   0.072   3.808   3.297
 9995SOL     OW30883   3.060   0.164   3.637
 9995SOL    HW130884   3.127   0.183   3.709
 9995SOL    HW230885   3.003   0.245   3.622
 9996SOL     OW30886   2.985   3.071   1.023
 9996SOL    HW130887   2.993   3.115   0.934
 9996SOL    HW230888   2.957   3.139   1.091
 9997SOL     OW30889   5.131   1.338   1.185
 9997SOL    HW130890   5.213   1.395   1.184
 9997SOL    HW230891   5.155   1.244   1.209
 9998SOL     OW30892   5.072   4.119   2.632
 9998SOL    HW130893   5.075   4.209   2.588
 9998SOL    HW230894   4.981   4.079   2.621
 9999SOL     OW30895   6.720   5.699   5.297
 9999SOL    HW130896   6.714   5.611   5.248
 9999SOL    HW230897   6.728   5.773   5.231
10000SOL     OW30898   6.156   2.257   6.657
10000SOL    HW130899   6.210   2.218   6.732
10000SOL    HW230900   6.060   2.263   6.685
10001SOL     OW30901   4.204   0.491   1.467
10001SOL    HW130902   4.116   0.469   1.510
10001SOL    HW230903   4.211   0.440   1.381
10002SOL     OW30904   1.227   1.147   2.015
10002SOL    HW130905   1.204   1.148   2.113
10002SOL    HW230906   1.320   1.182   2.002
10003SOL     OW30907   3.026   2.018   2.289
10003SOL    HW130908   2.971   1.935   2.294
10003SOL    HW230909   3.027   2.051   2.194
10004SOL     OW30910   5.519   3.031   5.028
10004SOL    HW130911   5.505   3.106   4.963
10004SOL    HW230912   5.453   2.958   5.009
10005SOL     OW30913   3.716   5.554   2.995
10005SOL    HW130914   3.776   5.602   2.932
10005SOL    HW230915   3.750   5.565   3.088
10006SOL     OW30916   5.536   1.344   5.398
10006SOL    HW130917   5.522   1.245   5.402
10006SOL    HW230918   5.498   1.386   5.481
10007SOL     OW30919   0.840   3.310   4.281
10007SOL    HW130920   0.915   3.289   4.218
10007SOL    HW230921   0.799   3.225   4.314
10008SOL     OW30922   3.913   1.369   3.078
10008SOL    HW130923   3.886   1.316   3.159
10008SOL    HW230924   3.844   1.359   3.007
10009SOL     OW30925   2.119   4.189   1.618
10009SOL    HW130926   2.089   4.096   1.594
10009SOL    HW230927   2.092   4.210   1.711
10010SOL     OW30928   1.868   6.072   0.353
10010SOL    HW130929   1.840   5.981   0.322
10010SOL    HW230930   1.900   6.067   0.448
10011SOL     OW30931   0.866   3.393   6.647
10011SOL    HW130932   0.931   3.441   6.588
10011SOL    HW230933   0.912   3.363   6.731
10012SOL     OW30934   5.192   6.395   2.094
10012SOL    HW130935   5.181   6.428   2.000
10012SOL    HW230936   5.290   6.388   2.115
10013SOL     OW30937   2.103   1.677   4.375
10013SOL    HW130938   2.121   1.636   4.285
10013SOL    HW230939   2.064   1.608   4.436
10014SOL     OW30940   0.366   1.836   1.448
10014SOL    HW130941   0.391   1.850   1.353
10014SOL    HW230942   0.438   1.873   1.507
10015SOL     OW30943   4.206   4.873   0.054
10015SOL    HW130944   4.181   4.804   7.001
10015SOL    HW230945   4.133   4.881   0.121
10016SOL     OW30946   1.598   0.362   4.836
10016SOL    HW130947   1.506   0.338   4.865
10016SOL    HW230948   1.641   0.419   4.905
10017SOL     OW30949   1.986   1.484   2.546
10017SOL    HW130950   1.954   1.575   2.523
10017SOL    HW230951   2.043   1.488   2.629
10018SOL     OW30952   6.522   4.614   5.982
10018SOL    HW130953   6.601   4.675   5.974
10018SOL    HW230954   6.472   4.613   5.895
10019SOL     OW30955   0.461   2.046   3.182
10019SOL    HW130956   0.454   1.954   3.144
10019SOL    HW230957   0.553   2.060   3.220
10020SOL     OW30958   0.625   0.937   1.539
10020SOL    HW130959   0.592   0.850   1.502
10020SOL    HW230960   0.559   1.009   1.520
10021SOL     OW30961   1.136   1.876   2.507
10021SOL    HW130962   1.222   1.869   2.558
10021SOL    HW230963   1.093   1.786   2.503
10022SOL     OW30964   3.966   0.003   1.145
10022SOL    HW130965   3.983   6.987   1.052
10022SOL    HW230966   3.894   6.964   1.187
10023SOL     OW30967   2.301   4.875   5.204
10023SOL    HW130968   2.287   4.800   5.269
10023SOL    HW230969   2.392   4.915   5.220
10024SOL     OW30970   1.616   6.282   1.948
10024SOL    HW130971   1.610   6.315   1.854
10024SOL    HW230972   1.527   6.249   1.978
10025SOL     OW30973   2.209   2.092   1.733
10025SOL    HW130974   2.292   2.079   1.679
10025SOL    HW230975   2.128   2.083   1.674
10026SOL     OW30976   4.295   6.273   2.950
10026SOL    HW130977   4.227   6.337   2.984
10026SOL    HW230978   4.257   6.180   2.950
10027SOL     OW30979   1.136   3.809   5.101
10027SOL    HW130980   1.065   3.873   5.069
10027SOL    HW230981   1.223   3.856   5.106
10028SOL     OW30982   0.981   1.282   2.281
10028SOL    HW130983   0.896   1.276   2.332
10028SOL    HW230984   0.962   1.302   2.185
10029SOL     OW30985   2.452   1.708   4.245
10029SOL    HW130986   2.467   1.631   4.307
10029SOL    HW230987   2.539   1.736   4.205
10030SOL     OW30988   2.044   0.324   4.586
10030SOL    HW130989   2.056   0.405   4.529
10030SOL    HW230990   2.031   0.352   4.681
10031SOL     OW30991   5.828   4.668   3.940
10031SOL    HW130992   5.775   4.686   4.023
10031SOL    HW230993   5.890   4.745   3.923
10032SOL     OW30994   3.759   0.380   5.273
10032SOL    HW130995   3.821   0.405   5.199
10032SOL    HW230996   3.674   0.345   5.235
10033SOL     OW30997   4.530   1.694   4.146
10033SOL    HW130998   4.459   1.746   4.192
10033SOL    HW230999   4.509   1.596   4.151
10034SOL     OW31000   3.936   0.300   4.196
10034SOL    HW131001   3.869   0.238   4.236
10034SOL    HW231002   3.907   0.395   4.212
10035SOL     OW31003   0.300   4.581   2.652
10035SOL    HW131004   0.384   4.615   2.693
10035SOL    HW231005   0.249   4.526   2.719
10036SOL     OW31006   5.931   0.447   1.211
10036SOL    HW131007   5.947   0.519   1.144
10036SOL    HW231008   6.019   0.409   1.241
10037SOL     OW31009   5.927   1.526   1.005
10037SOL    HW131010   5.836   1.493   0.978
10037SOL    HW231011   5.924   1.625   1.017
10038SOL     OW31012   4.445   1.120   6.399
10038SOL    HW131013   4.463   1.047   6.465
10038SOL    HW231014   4.450   1.209   6.444
10039SOL     OW31015   4.251   7.012   4.967
10039SOL    HW131016   4.199   6.960   4.899
10039SOL    HW231017   4.190   0.058   5.015
10040SOL     OW31018   4.451   5.688   6.253
10040SOL    HW131019   4.515   5.731   6.189
10040SOL    HW231020   4.427   5.753   6.324
10041SOL     OW31021   4.352   5.862   6.453
10041SOL    HW131022   4.428   5.894   6.508
10041SOL    HW231023   4.293   5.803   6.508
10042SOL     OW31024   1.429   2.021   4.935
10042SOL    HW131025   1.501   2.076   4.892
10042SOL    HW231026   1.428   1.930   4.893
10043SOL     OW31027   0.309   2.530   4.242
10043SOL    HW131028   0.223   2.571   4.211
10043SOL    HW231029   0.291   2.442   4.284
10044SOL     OW31030   2.842   1.487   4.824
10044SOL    HW131031   2.821   1.399   4.782
10044SOL    HW231032   2.759   1.526   4.863
10045SOL     OW31033   4.763   0.071   3.457
10045SOL    HW131034   4.827   0.033   3.391
10045SOL    HW231035   4.680   0.101   3.410
10046SOL     OW31036   1.995   3.695   1.489
10046SOL    HW131037   1.995   3.702   1.389
10046SOL    HW231038   2.049   3.615   1.517
10047SOL     OW31039   6.619   3.785   5.184
10047SOL    HW131040   6.572   3.821   5.103
10047SOL    HW231041   6.551   3.771   5.257
10048SOL     OW31042   5.983   1.203   2.812
10048SOL    HW131043   5.998   1.154   2.726
10048SOL    HW231044   6.070   1.216   2.858
10049SOL     OW31045   0.057   0.244   6.658
10049SOL    HW131046   6.988   0.278   6.698
10049SOL    HW231047   0.108   0.193   6.726
10050SOL     OW31048   6.023   3.284   4.300
10050SOL    HW131049   5.957   3.325   4.363
10050SOL    HW231050   5.991   3.194   4.272
10051SOL     OW31051   4.969   2.413   4.993
10051SOL    HW131052   5.048   2.459   4.953
10051SOL    HW231053   4.888   2.470   4.983
10052SOL     OW31054   2.295   1.822   2.836
10052SOL    HW131055   2.345   1.894   2.884
10052SOL    HW231056   2.299   1.838   2.737
10053SOL     OW31057   2.976   5.779   2.487
10053SOL    HW131058   3.031   5.696   2.492
10053SOL    HW231059   2.955   5.800   2.391
10054SOL     OW31060   5.430   5.714   6.254
10054SOL    HW131061   5.361   5.746   6.189
10054SOL    HW231062   5.481   5.638   6.214
10055SOL     OW31063   5.885   2.335   4.724
10055SOL    HW131064   5.808   2.272   4.719
10055SOL    HW231065   5.965   2.289   4.764
10056SOL     OW31066   5.568   4.252   3.215
10056SOL    HW131067   5.632   4.329   3.222
10056SOL    HW231068   5.586   4.187   3.288
10057SOL     OW31069   4.095   1.852   5.025
10057SOL    HW131070   4.010   1.831   5.072
10057SOL    HW231071   4.171   1.806   5.071
10058SOL     OW31072   0.400   3.583   4.356
10058SOL    HW131073   0.310   3.553   4.324
10058SOL    HW231074   0.442   3.510   4.410
10059SOL     OW31075   6.162   0.027   1.665
10059SOL    HW131076   6.234   0.051   1.731
10059SOL    HW231077   6.080   7.014   1.714
10060SOL     OW31078   1.392   2.144   1.391
10060SOL    HW131079   1.419   2.158   1.296
10060SOL    HW231080   1.321   2.210   1.416
10061SOL     OW31081   4.228   1.373   3.693
10061SOL    HW131082   4.314   1.423   3.692
10061SOL    HW231083   4.199   1.355   3.599
10062SOL     OW31084   5.820   0.062   4.464
10062SOL    HW131085   5.761   0.060   4.384
10062SOL    HW231086   5.905   0.110   4.441
10063SOL     OW31087   2.312   0.878   3.758
10063SOL    HW131088   2.306   0.811   3.684
10063SOL    HW231089   2.364   0.958   3.727
10064SOL     OW31090   4.789   6.722   0.126
10064SOL    HW131091   4.879   6.683   0.111
10064SOL    HW231092   4.720   6.650   0.123
10065SOL     OW31093   2.057   0.454   2.402
10065SOL    HW131094   2.061   0.437   2.303
10065SOL    HW231095   1.996   0.531   2.421
10066SOL     OW31096   0.498   2.554   4.067
10066SOL    HW131097   0.426   2.550   4.136
10066SOL    HW231098   0.542   2.464   4.060
10067SOL     OW31099   7.005   4.067   5.392
10067SOL    HW131100   6.969   3.977   5.368
10067SOL    HW231101   0.073   4.084   5.340
10068SOL     OW31102   0.412   3.301   3.132
10068SOL    HW131103   0.446   3.331   3.042
10068SOL    HW231104   0.323   3.258   3.122
10069SOL     OW31105   2.280   4.927   2.625
10069SOL    HW131106   2.330   4.947   2.541
10069SOL    HW231107   2.280   4.828   2.641
10070SOL     OW31108   6.628   6.177   4.701
10070SOL    HW131109   6.617   6.084   4.736
10070SOL    HW231110   6.724   6.204   4.707
10071SOL     OW31111   6.280   5.810   4.517
10071SOL    HW131112   6.234   5.834   4.603
10071SOL    HW231113   6.252   5.719   4.488
10072SOL     OW31114   6.842   6.625   3.969
10072SOL    HW131115   6.934   6.636   4.007
10072SOL    HW231116   6.844   6.640   3.871
10073SOL     OW31117   5.936   4.500   5.214
10073SOL    HW131118   5.896   4.590   5.229
10073SOL    HW231119   6.006   4.505   5.142
10074SOL     OW31120   2.172   0.790   5.354
10074SOL    HW131121   2.213   0.708   5.315
10074SOL    HW231122   2.141   0.771   5.448
10075SOL     OW31123   2.008   2.705   2.793
10075SOL    HW131124   1.936   2.772   2.775
10075SOL    HW231125   2.041   2.668   2.707
10076SOL     OW31126   6.883   0.724   4.394
10076SOL    HW131127   6.837   0.678   4.319
10076SOL    HW231128   6.942   0.659   4.442
10077SOL     OW31129   3.963   2.812   5.940
10077SOL    HW131130   4.006   2.832   6.027
10077SOL    HW231131   3.940   2.714   5.935
10078SOL     OW31132   0.360   5.986   3.404
10078SOL    HW131133   0.393   5.959   3.313
10078SOL    HW231134   0.357   6.085   3.410
10079SOL     OW31135   5.826   3.564   4.103
10079SOL    HW131136   5.826   3.639   4.169
10079SOL    HW231137   5.793   3.480   4.147
10080SOL     OW31138   4.155   0.544   5.498
10080SOL    HW131139   4.167   0.451   5.464
10080SOL    HW231140   4.224   0.564   5.568
10081SOL     OW31141   6.671   0.582   0.688
10081SOL    HW131142   6.632   0.541   0.606
10081SOL    HW231143   6.610   0.567   0.765
10082SOL     OW31144   0.569   5.337   1.608
10082SOL    HW131145   0.515   5.422   1.604
10082SOL    HW231146   0.617   5.325   1.522
10083SOL     OW31147   3.717   0.709   3.703
10083SOL    HW131148   3.737   0.628   3.647
10083SOL    HW231149   3.750   0.694   3.796
10084SOL     OW31150   1.915   0.945   5.777
10084SOL    HW131151   1.923   0.988   5.867
10084SOL    HW231152   2.006   0.940   5.735
10085SOL     OW31153   2.362   5.467   0.804
10085SOL    HW131154   2.318   5.513   0.882
10085SOL    HW231155   2.354   5.526   0.723
10086SOL     OW31156   4.806   5.800   2.607
10086SOL    HW131157   4.823   5.896   2.588
10086SOL    HW231158   4.721   5.791   2.660
10087SOL     OW31159   6.809   6.898   4.523
10087SOL    HW131160   6.865   6.837   4.579
10087SOL    HW231161   6.713   6.875   4.535
10088SOL     OW31162   6.405   0.344   2.010
10088SOL    HW131163   6.361   0.265   2.053
10088SOL    HW231164   6.346   0.380   1.938
10089SOL     OW31165   2.894   1.880   2.595
10089SOL    HW131166   2.926   1.793   2.634
10089SOL    HW231167   2.896   1.873   2.495
10090SOL     OW31168   1.434   4.872   1.784
10090SOL    HW131169   1.363   4.933   1.748
10090SOL    HW231170   1.398   4.779   1.789
10091SOL     OW31171   0.037   4.671   6.477
10091SOL    HW131172   0.104   4.637   6.411
10091SOL    HW231173   0.016   4.600   6.544
10092SOL     OW31174   2.192   2.642   5.741
10092SOL    HW131175   2.133   2.703   5.793
10092SOL    HW231176   2.150   2.621   5.653
10093SOL     OW31177   6.026   3.199   5.209
10093SOL    HW131178   5.977   3.284   5.189
10093SOL    HW231179   6.024   3.139   5.129
10094SOL     OW31180   3.358   5.607   1.594
10094SOL    HW131181   3.276   5.551   1.606
10094SOL    HW231182   3.427   5.581   1.661
10095SOL     OW31183   5.697   2.255   5.181
10095SOL    HW131184   5.698   2.348   5.216
10095SOL    HW231185   5.765   2.200   5.230
10096SOL     OW31186   4.490   5.144   3.006
10096SOL    HW131187   4.429   5.194   2.945
10096SOL    HW231188   4.581   5.140   2.966
10097SOL     OW31189   0.691   1.313   0.015
10097SOL    HW131190   0.715   1.297   0.111
10097SOL    HW231191   0.685   1.411   7.015
10098SOL     OW31192   2.886   0.254   5.130
10098SOL    HW131193   2.901   0.353   5.129
10098SOL    HW231194   2.953   0.210   5.070
10099SOL     OW31195   0.542   4.938   1.159
10099SOL    HW131196   0.571   5.022   1.114
10099SOL    HW231197   0.606   4.865   1.138
10100SOL     OW31198   4.803   6.222   5.089
10100SOL    HW131199   4.714   6.191   5.122
10100SOL    HW231200   4.818   6.317   5.117
10101SOL     OW31201   6.175   3.974   2.255
10101SOL    HW131202   6.208   3.886   2.292
10101SOL    HW231203   6.252   4.023   2.214
10102SOL     OW31204   0.536   1.249   2.208
10102SOL    HW131205   0.507   1.167   2.258
10102SOL    HW231206   0.475   1.263   2.130
10103SOL     OW31207   3.237   0.532   5.745
10103SOL    HW131208   3.293   0.453   5.722
10103SOL    HW231209   3.235   0.595   5.667
10104SOL     OW31210   2.047   1.690   4.814
10104SOL    HW131211   2.139   1.712   4.847
10104SOL    HW231212   2.046   1.691   4.714
10105SOL     OW31213   1.625   0.997   6.911
10105SOL    HW131214   1.681   1.080   6.904
10105SOL    HW231215   1.627   0.964   7.005
10106SOL     OW31216   3.785   5.981   0.462
10106SOL    HW131217   3.822   6.071   0.438
10106SOL    HW231218   3.804   5.916   0.388
10107SOL     OW31219   5.867   1.599   5.617
10107SOL    HW131220   5.808   1.613   5.537
10107SOL    HW231221   5.949   1.656   5.609
10108SOL     OW31222   6.274   0.475   0.199
10108SOL    HW131223   6.324   0.544   0.251
10108SOL    HW231224   6.287   0.492   0.101
10109SOL     OW31225   5.699   0.972   0.572
10109SOL    HW131226   5.714   1.040   0.500
10109SOL    HW231227   5.744   0.887   0.547
10110SOL     OW31228   4.656   4.520   4.655
10110SOL    HW131229   4.660   4.431   4.609
10110SOL    HW231230   4.618   4.508   4.747
10111SOL     OW31231   5.921   3.933   3.938
10111SOL    HW131232   5.875   3.846   3.921
10111SOL    HW231233   6.015   3.929   3.903
10112SOL     OW31234   5.691   3.990   3.742
10112SOL    HW131235   5.611   3.930   3.748
10112SOL    HW231236   5.762   3.956   3.804
10113SOL     OW31237   4.502   6.800   6.557
10113SOL    HW131238   4.497   6.861   6.478
10113SOL    HW231239   4.522   6.707   6.527
10114SOL     OW31240   4.480   2.458   1.440
10114SOL    HW131241   4.432   2.376   1.471
10114SOL    HW231242   4.433   2.496   1.359
10115SOL     OW31243   3.732   0.678   4.922
10115SOL    HW131244   3.678   0.606   4.879
10115SOL    HW231245   3.719   0.764   4.873
10116SOL     OW31246   0.488   6.816   0.311
10116SOL    HW131247   0.515   6.898   0.362
10116SOL    HW231248   0.549   6.741   0.334
10117SOL     OW31249   6.997   6.347   6.047
10117SOL    HW131250   6.958   6.412   5.981
10117SOL    HW231251   6.933   6.334   6.122
10118SOL     OW31252   2.383   4.259   2.951
10118SOL    HW131253   2.360   4.184   3.013
10118SOL    HW231254   2.322   4.256   2.872
10119SOL     OW31255   6.809   5.679   4.895
10119SOL    HW131256   6.885   5.699   4.833
10119SOL    HW231257   6.803   5.580   4.910
10120SOL     OW31258   2.223   3.066   4.188
10120SOL    HW131259   2.248   3.031   4.098
10120SOL    HW231260   2.126   3.053   4.203
10121SOL     OW31261   5.964   3.704   6.859
10121SOL    HW131262   5.873   3.710   6.900
10121SOL    HW231263   6.028   3.758   6.914
10122SOL     OW31264   5.630   3.237   2.519
10122SOL    HW131265   5.572   3.159   2.496
10122SOL    HW231266   5.623   3.256   2.617
10123SOL     OW31267   5.805   5.784   0.788
10123SOL    HW131268   5.724   5.749   0.835
10123SOL    HW231269   5.788   5.787   0.690
10124SOL     OW31270   1.372   4.472   0.464
10124SOL    HW131271   1.327   4.467   0.553
10124SOL    HW231272   1.444   4.403   0.459
10125SOL     OW31273   1.446   1.314   1.900
10125SOL    HW131274   1.417   1.350   1.989
10125SOL    HW231275   1.417   1.377   1.828
10126SOL     OW31276   6.506   0.248   0.267
10126SOL    HW131277   6.434   0.243   0.336
10126SOL    HW231278   6.560   0.331   0.279
10127SOL     OW31279   2.368   3.829   0.045
10127SOL    HW131280   2.374   3.758   0.115
10127SOL    HW231281   2.454   3.831   7.009
10128SOL     OW31282   3.269   1.124   6.809
10128SOL    HW131283   3.367   1.130   6.790
10128SOL    HW231284   3.220   1.184   6.746
10129SOL     OW31285   6.347   1.469   2.713
10129SOL    HW131286   6.336   1.392   2.776
10129SOL    HW231287   6.432   1.456   2.661
10130SOL     OW31288   1.237   2.225   1.023
10130SOL    HW131289   1.330   2.205   0.994
10130SOL    HW231290   1.238   2.305   1.083
10131SOL     OW31291   1.820   6.745   4.536
10131SOL    HW131292   1.844   6.653   4.504
10131SOL    HW231293   1.904   6.795   4.558
10132SOL     OW31294   3.438   0.438   3.750
10132SOL    HW131295   3.390   0.522   3.775
10132SOL    HW231296   3.509   0.418   3.818
10133SOL     OW31297   4.132   6.193   0.694
10133SOL    HW131298   4.144   6.287   0.662
10133SOL    HW231299   4.042   6.184   0.738
10134SOL     OW31300   6.316   0.394   2.690
10134SOL    HW131301   6.305   0.364   2.595
10134SOL    HW231302   6.227   0.423   2.726
10135SOL     OW31303   4.889   3.513   3.424
10135SOL    HW131304   4.826   3.489   3.350
10135SOL    HW231305   4.932   3.601   3.405
10136SOL     OW31306   5.064   1.824   2.660
10136SOL    HW131307   5.049   1.906   2.605
10136SOL    HW231308   5.045   1.843   2.756
10137SOL     OW31309   0.363   3.794   4.188
10137SOL    HW131310   0.266   3.817   4.196
10137SOL    HW231311   0.380   3.706   4.233
10138SOL     OW31312   5.373   3.669   0.540
10138SOL    HW131313   5.425   3.623   0.468
10138SOL    HW231314   5.436   3.720   0.599
10139SOL     OW31315   3.144   3.568   3.191
10139SOL    HW131316   3.052   3.531   3.204
10139SOL    HW231317   3.212   3.501   3.223
10140SOL     OW31318   0.012   6.544   0.069
10140SOL    HW131319   7.012   6.631   0.024
10140SOL    HW231320   0.089   6.497   0.025
10141SOL     OW31321   4.233   1.043   5.849
10141SOL    HW131322   4.215   1.043   5.750
10141SOL    HW231323   4.147   1.030   5.898
10142SOL     OW31324   6.443   6.955   5.629
10142SOL    HW131325   6.379   7.002   5.569
10142SOL    HW231326   6.475   0.002   5.700
10143SOL     OW31327   5.416   1.752   0.352
10143SOL    HW131328   5.338   1.807   0.382
10143SOL    HW231329   5.465   1.718   0.432
10144SOL     OW31330   3.843   0.090   6.280
10144SOL    HW131331   3.853   0.063   6.376
10144SOL    HW231332   3.933   0.102   6.239
10145SOL     OW31333   3.128   5.488   2.890
10145SOL    HW131334   3.225   5.485   2.912
10145SOL    HW231335   3.097   5.583   2.887
10146SOL     OW31336   4.758   4.079   5.041
10146SOL    HW131337   4.809   4.067   4.956
10146SOL    HW231338   4.778   4.004   5.103
10147SOL     OW31339   5.055   4.485   6.426
10147SOL    HW131340   5.106   4.568   6.402
10147SOL    HW231341   5.006   4.499   6.512
10148SOL     OW31342   4.859   4.986   6.415
10148SOL    HW131343   4.947   5.002   6.460
10148SOL    HW231344   4.785   4.997   6.481
10149SOL     OW31345   5.587   3.999   1.854
10149SOL    HW131346   5.536   4.079   1.885
10149SOL    HW231347   5.674   3.994   1.903
10150SOL     OW31348   3.688   3.200   1.102
10150SOL    HW131349   3.704   3.297   1.119
10150SOL    HW231350   3.722   3.147   1.180
10151SOL     OW31351   0.713   5.745   0.340
10151SOL    HW131352   0.747   5.668   0.286
10151SOL    HW231353   0.782   5.817   0.345
10152SOL     OW31354   6.710   6.627   4.225
10152SOL    HW131355   6.696   6.529   4.236
10152SOL    HW231356   6.741   6.647   4.132
10153SOL     OW31357   4.441   5.947   3.317
10153SOL    HW131358   4.458   6.038   3.355
10153SOL    HW231359   4.440   5.952   3.217
10154SOL     OW31360   3.795   5.954   4.593
10154SOL    HW131361   3.758   5.900   4.668
10154SOL    HW231362   3.822   5.893   4.519
10155SOL     OW31363   4.223   2.309   6.428
10155SOL    HW131364   4.302   2.358   6.466
10155SOL    HW231365   4.245   2.212   6.419
10156SOL     OW31366   4.972   0.673   2.273
10156SOL    HW131367   5.031   0.725   2.211
10156SOL    HW231368   4.879   0.710   2.269
10157SOL     OW31369   6.955   2.476   0.363
10157SOL    HW131370   6.862   2.448   0.386
10157SOL    HW231371   0.004   2.409   0.401
10158SOL     OW31372   6.437   5.839   0.793
10158SOL    HW131373   6.533   5.858   0.770
10158SOL    HW231374   6.418   5.871   0.886
10159SOL     OW31375   2.816   2.532   1.067
10159SOL    HW131376   2.784   2.627   1.060
10159SOL    HW231377   2.848   2.515   1.160
10160SOL     OW31378   1.401   2.799   2.252
10160SOL    HW131379   1.310   2.807   2.293
10160SOL    HW231380   1.468   2.844   2.311
10161SOL     OW31381   3.719   4.004   0.537
10161SOL    HW131382   3.702   4.054   0.452
10161SOL    HW231383   3.651   4.031   0.605
10162SOL     OW31384   3.877   4.903   0.748
10162SOL    HW131385   3.819   4.968   0.797
10162SOL    HW231386   3.954   4.876   0.806
10163SOL     OW31387   6.783   3.752   0.277
10163SOL    HW131388   6.775   3.686   0.202
10163SOL    HW231389   6.748   3.710   0.361
10164SOL     OW31390   6.205   3.577   4.667
10164SOL    HW131391   6.157   3.492   4.648
10164SOL    HW231392   6.243   3.574   4.760
10165SOL     OW31393   6.545   1.226   3.624
10165SOL    HW131394   6.496   1.311   3.608
10165SOL    HW231395   6.629   1.225   3.570
10166SOL     OW31396   3.179   2.018   1.630
10166SOL    HW131397   3.156   2.092   1.694
10166SOL    HW231398   3.248   2.049   1.566
10167SOL     OW31399   0.967   4.939   0.146
10167SOL    HW131400   0.947   4.909   0.053
10167SOL    HW231401   1.032   4.877   0.189
10168SOL     OW31402   6.041   2.407   6.445
10168SOL    HW131403   6.013   2.332   6.386
10168SOL    HW231404   6.108   2.373   6.512
10169SOL     OW31405   0.362   4.116   3.362
10169SOL    HW131406   0.297   4.041   3.349
10169SOL    HW231407   0.325   4.183   3.425
10170SOL     OW31408   6.559   5.988   6.142
10170SOL    HW131409   6.506   6.010   6.224
10170SOL    HW231410   6.561   5.889   6.129
10171SOL     OW31411   0.793   2.519   4.823
10171SOL    HW131412   0.874   2.552   4.871
10171SOL    HW231413   0.815   2.434   4.775
10172SOL     OW31414   0.924   5.457   4.956
10172SOL    HW131415   1.012   5.485   4.916
10172SOL    HW231416   0.926   5.472   5.054
10173SOL     OW31417   1.888   2.297   0.648
10173SOL    HW131418   1.903   2.199   0.652
10173SOL    HW231419   1.945   2.343   0.717
10174SOL     OW31420   5.156   5.251   3.354
10174SOL    HW131421   5.223   5.191   3.312
10174SOL    HW231422   5.114   5.309   3.284
10175SOL     OW31423   5.305   2.953   3.026
10175SOL    HW131424   5.268   2.863   3.046
10175SOL    HW231425   5.273   3.018   3.095
10176SOL     OW31426   0.493   3.011   5.288
10176SOL    HW131427   0.469   2.921   5.252
10176SOL    HW231428   0.490   3.078   5.214
10177SOL     OW31429   1.865   0.724   1.242
10177SOL    HW131430   1.889   0.770   1.156
10177SOL    HW231431   1.946   0.679   1.279
10178SOL     OW31432   0.079   0.619   6.992
10178SOL    HW131433   0.179   0.617   6.988
10178SOL    HW231434   0.042   0.614   6.899
10179SOL     OW31435   0.534   2.617   6.791
10179SOL    HW131436   0.499   2.556   6.863
10179SOL    HW231437   0.493   2.707   6.802
10180SOL     OW31438   4.153   0.257   6.491
10180SOL    HW131439   4.206   0.282   6.571
10180SOL    HW231440   4.213   0.254   6.411
10181SOL     OW31441   6.557   3.365   1.459
10181SOL    HW131442   6.518   3.279   1.425
10181SOL    HW231443   6.489   3.412   1.515
10182SOL     OW31444   4.191   1.198   0.772
10182SOL    HW131445   4.270   1.222   0.716
10182SOL    HW231446   4.178   1.099   0.770
10183SOL     OW31447   6.564   2.663   5.991
10183SOL    HW131448   6.604   2.591   6.047
10183SOL    HW231449   6.494   2.712   6.044
10184SOL     OW31450   4.559   1.411   6.353
10184SOL    HW131451   4.524   1.409   6.447
10184SOL    HW231452   4.482   1.411   6.289
10185SOL     OW31453   5.957   6.143   3.013
10185SOL    HW131454   5.927   6.238   3.020
10185SOL    HW231455   6.056   6.140   2.998
10186SOL     OW31456   5.096   3.951   4.535
10186SOL    HW131457   5.131   3.858   4.526
10186SOL    HW231458   4.998   3.952   4.518
10187SOL     OW31459   1.487   3.934   6.627
10187SOL    HW131460   1.407   3.960   6.572
10187SOL    HW231461   1.552   4.011   6.630
10188SOL     OW31462   3.732   4.376   6.759
10188SOL    HW131463   3.697   4.300   6.705
10188SOL    HW231464   3.656   4.434   6.788
10189SOL     OW31465   6.967   1.566   6.948
10189SOL    HW131466   0.009   1.489   6.920
10189SOL    HW231467   6.947   1.623   6.869
10190SOL     OW31468   3.752   3.446   1.200
10190SOL    HW131469   3.848   3.452   1.175
10190SOL    HW231470   3.740   3.472   1.296
10191SOL     OW31471   4.650   5.660   6.570
10191SOL    HW131472   4.605   5.613   6.495
10191SOL    HW231473   4.613   5.626   6.657
10192SOL     OW31474   4.157   0.986   5.598
10192SOL    HW131475   4.132   0.926   5.522
10192SOL    HW231476   4.135   1.081   5.575
10193SOL     OW31477   3.782   3.340   2.174
10193SOL    HW131478   3.754   3.435   2.183
10193SOL    HW231479   3.752   3.288   2.254
10194SOL     OW31480   4.786   0.658   5.620
10194SOL    HW131481   4.838   0.575   5.639
10194SOL    HW231482   4.846   0.726   5.577
10195SOL     OW31483   6.936   6.550   0.580
10195SOL    HW131484   6.886   6.508   0.656
10195SOL    HW231485   6.887   6.531   0.495
10196SOL     OW31486   3.490   2.104   4.080
10196SOL    HW131487   3.588   2.103   4.061
10196SOL    HW231488   3.440   2.109   3.993
10197SOL     OW31489   5.705   2.112   4.702
10197SOL    HW131490   5.634   2.046   4.726
10197SOL    HW231491   5.795   2.068   4.709
10198SOL     OW31492   3.540   6.647   2.202
10198SOL    HW131493   3.594   6.563   2.191
10198SOL    HW231494   3.469   6.632   2.270
10199SOL     OW31495   1.049   2.360   0.767
10199SOL    HW131496   0.973   2.425   0.762
10199SOL    HW231497   1.106   2.382   0.846
10200SOL     OW31498   4.693   3.356   5.267
10200SOL    HW131499   4.604   3.313   5.283
10200SOL    HW231500   4.678   3.448   5.229
10201SOL     OW31501   1.375   5.497   0.191
10201SOL    HW131502   1.398   5.519   0.097
10201SOL    HW231503   1.445   5.436   0.229
10202SOL     OW31504   2.941   4.496   0.170
10202SOL    HW131505   2.877   4.553   0.221
10202SOL    HW231506   2.979   4.426   0.231
10203SOL     OW31507   6.432   3.085   1.995
10203SOL    HW131508   6.497   3.123   1.929
10203SOL    HW231509   6.450   3.125   2.085
10204SOL     OW31510   4.070   5.365   6.460
10204SOL    HW131511   4.150   5.342   6.516
10204SOL    HW231512   4.095   5.435   6.394
10205SOL     OW31513   2.502   0.738   2.343
10205SOL    HW131514   2.572   0.777   2.404
10205SOL    HW231515   2.509   0.782   2.253
10206SOL     OW31516   6.778   0.172   6.463
10206SOL    HW131517   6.843   0.196   6.391
10206SOL    HW231518   6.688   0.156   6.422
10207SOL     OW31519   1.036   1.912   0.179
10207SOL    HW131520   1.074   1.940   0.268
10207SOL    HW231521   0.972   1.836   0.193
10208SOL     OW31522   6.537   5.686   3.793
10208SOL    HW131523   6.629   5.678   3.832
10208SOL    HW231524   6.473   5.630   3.845
10209SOL     OW31525   0.076   6.725   6.364
10209SOL    HW131526   0.045   6.633   6.384
10209SOL    HW231527   0.109   6.768   6.448
10210SOL     OW31528   4.754   6.334   0.582
10210SOL    HW131529   4.801   6.361   0.666
10210SOL    HW231530   4.725   6.238   0.589
10211SOL     OW31531   3.969   6.183   4.599
10211SOL    HW131532   4.029   6.111   4.633
10211SOL    HW231533   3.876   6.147   4.588
10212SOL     OW31534   6.867   6.788   5.624
10212SOL    HW131535   6.796   6.726   5.659
10212SOL    HW231536   6.914   6.744   5.548
10213SOL     OW31537   5.209   3.224   2.189
10213SOL    HW131538   5.184   3.147   2.248
10213SOL    HW231539   5.182   3.310   2.232
10214SOL     OW31540   0.657   1.653   1.655
10214SOL    HW131541   0.634   1.745   1.623
10214SOL    HW231542   0.752   1.652   1.686
10215SOL     OW31543   3.564   2.847   3.939
10215SOL    HW131544   3.626   2.888   4.006
10215SOL    HW231545   3.469   2.866   3.965
10216SOL     OW31546   0.705   1.357   0.644
10216SOL    HW131547   0.625   1.371   0.703
10216SOL    HW231548   0.683   1.387   0.551
10217SOL     OW31549   1.688   2.412   3.905
10217SOL    HW131550   1.619   2.381   3.840
10217SOL    HW231551   1.710   2.508   3.888
10218SOL     OW31552   1.442   0.810   1.532
10218SOL    HW131553   1.487   0.740   1.475
10218SOL    HW231554   1.414   0.769   1.618
10219SOL     OW31555   0.416   2.150   2.479
10219SOL    HW131556   0.459   2.126   2.392
10219SOL    HW231557   0.481   2.199   2.536
10220SOL     OW31558   3.957   1.377   1.832
10220SOL    HW131559   3.955   1.285   1.870
10220SOL    HW231560   3.965   1.372   1.732
10221SOL     OW31561   1.815   3.548   4.544
10221SOL    HW131562   1.896   3.550   4.486
10221SOL    HW231563   1.757   3.471   4.518
10222SOL     OW31564   3.017   3.805   5.471
10222SOL    HW131565   3.099   3.814   5.414
10222SOL    HW231566   2.936   3.802   5.412
10223SOL     OW31567   2.609   5.161   0.295
10223SOL    HW131568   2.681   5.112   0.344
10223SOL    HW231569   2.558   5.098   0.237
10224SOL     OW31570   6.389   1.944   5.374
10224SOL    HW131571   6.316   1.878   5.358
10224SOL    HW231572   6.438   1.920   5.458
10225SOL     OW31573   2.065   5.683   6.052
10225SOL    HW131574   1.987   5.732   6.092
10225SOL    HW231575   2.147   5.739   6.059
10226SOL     OW31576   1.962   0.552   6.159
10226SOL    HW131577   2.043   0.587   6.206
10226SOL    HW231578   1.960   0.452   6.166
10227SOL     OW31579   4.818   4.291   0.358
10227SOL    HW131580   4.832   4.334   0.447
10227SOL    HW231581   4.816   4.362   0.287
10228SOL     OW31582   1.552   5.751   1.980
10228SOL    HW131583   1.574   5.734   2.076
10228SOL    HW231584   1.610   5.694   1.922
10229SOL     OW31585   1.900   1.916   4.490
10229SOL    HW131586   1.902   1.816   4.483
10229SOL    HW231587   1.963   1.955   4.423
10230SOL     OW31588   6.341   6.753   3.575
10230SOL    HW131589   6.368   6.677   3.516
10230SOL    HW231590   6.366   6.839   3.531
10231SOL     OW31591   6.129   5.014   5.610
10231SOL    HW131592   6.118   4.946   5.538
10231SOL    HW231593   6.177   4.974   5.688
10232SOL     OW31594   2.834   2.001   4.260
10232SOL    HW131595   2.792   2.049   4.337
10232SOL    HW231596   2.925   2.040   4.242
10233SOL     OW31597   4.364   3.704   5.851
10233SOL    HW131598   4.372   3.779   5.916
10233SOL    HW231599   4.451   3.653   5.850
10234SOL     OW31600   6.386   0.672   6.798
10234SOL    HW131601   6.477   0.701   6.769
10234SOL    HW231602   6.322   0.683   6.722
10235SOL     OW31603   3.496   2.246   0.791
10235SOL    HW131604   3.517   2.325   0.732
10235SOL    HW231605   3.557   2.170   0.767
10236SOL     OW31606   1.641   1.012   1.571
10236SOL    HW131607   1.568   0.943   1.571
10236SOL    HW231608   1.601   1.103   1.575
10237SOL     OW31609   6.950   4.209   6.630
10237SOL    HW131610   6.929   4.172   6.720
10237SOL    HW231611   6.959   4.134   6.564
10238SOL     OW31612   3.878   4.001   2.290
10238SOL    HW131613   3.968   4.043   2.275
10238SOL    HW231614   3.820   4.062   2.343
10239SOL     OW31615   2.217   3.547   5.532
10239SOL    HW131616   2.297   3.495   5.504
10239SOL    HW231617   2.186   3.604   5.456
10240SOL     OW31618   1.945   4.546   2.857
10240SOL    HW131619   1.870   4.483   2.837
10240SOL    HW231620   1.986   4.521   2.945
10241SOL     OW31621   6.776   6.557   2.798
10241SOL    HW131622   6.777   6.501   2.881
10241SOL    HW231623   6.688   6.548   2.752
10242SOL     OW31624   0.234   1.348   1.597
10242SOL    HW131625   0.299   1.416   1.562
10242SOL    HW231626   0.156   1.341   1.535
10243SOL     OW31627   2.010   4.896   1.992
10243SOL    HW131628   1.928   4.840   1.985
10243SOL    HW231629   2.070   4.878   1.913
10244SOL     OW31630   1.613   4.295   0.424
10244SOL    HW131631   1.663   4.369   0.380
10244SOL    HW231632   1.666   4.263   0.504
10245SOL     OW31633   3.321   5.085   0.475
10245SOL    HW131634   3.259   5.050   0.545
10245SOL    HW231635   3.398   5.131   0.518
10246SOL     OW31636   3.337   3.405   3.293
10246SOL    HW131637   3.327   3.404   3.392
10246SOL    HW231638   3.425   3.446   3.269
10247SOL     OW31639   6.721   4.401   5.894
10247SOL    HW131640   6.817   4.418   5.913
10247SOL    HW231641   6.664   4.456   5.956
10248SOL     OW31642   1.513   6.956   3.150
10248SOL    HW131643   1.539   6.868   3.190
10248SOL    HW231644   1.551   6.963   3.058
10249SOL     OW31645   2.433   6.836   6.776
10249SOL    HW131646   2.447   6.858   6.679
10249SOL    HW231647   2.516   6.794   6.813
10250SOL     OW31648   6.016   3.318   1.838
10250SOL    HW131649   5.921   3.332   1.812
10250SOL    HW231650   6.045   3.226   1.814
10251SOL     OW31651   2.489   1.298   4.551
10251SOL    HW131652   2.545   1.234   4.604
10251SOL    HW231653   2.402   1.314   4.597
10252SOL     OW31654   4.234   4.932   6.720
10252SOL    HW131655   4.193   4.863   6.780
10252SOL    HW231656   4.165   5.000   6.695
10253SOL     OW31657   2.833   6.966   0.456
10253SOL    HW131658   2.800   6.891   0.398
10253SOL    HW231659   2.932   6.974   0.446
10254SOL     OW31660   4.895   0.809   5.198
10254SOL    HW131661   4.886   0.848   5.106
10254SOL    HW231662   4.931   0.716   5.192
10255SOL     OW31663   1.768   6.404   0.893
10255SOL    HW131664   1.669   6.398   0.877
10255SOL    HW231665   1.814   6.425   0.807
10256SOL     OW31666   5.462   1.089   1.611
10256SOL    HW131667   5.541   1.035   1.582
10256SOL    HW231668   5.477   1.123   1.704
10257SOL     OW31669   2.218   4.748   4.717
10257SOL    HW131670   2.265   4.785   4.637
10257SOL    HW231671   2.280   4.747   4.795
10258SOL     OW31672   3.439   0.867   3.972
10258SOL    HW131673   3.439   0.855   4.071
10258SOL    HW231674   3.491   0.949   3.948
10259SOL     OW31675   0.763   4.542   3.135
10259SOL    HW131676   0.713   4.626   3.156
10259SOL    HW231677   0.703   4.480   3.085
10260SOL     OW31678   1.070   1.094   4.018
10260SOL    HW131679   1.107   1.002   4.035
10260SOL    HW231680   1.039   1.133   4.105
10261SOL     OW31681   0.243   5.406   3.394
10261SOL    HW131682   0.305   5.418   3.317
10261SOL    HW231683   0.149   5.403   3.361
10262SOL     OW31684   2.133   6.979   5.352
10262SOL    HW131685   2.202   6.930   5.297
10262SOL    HW231686   2.088   0.031   5.294
10263SOL     OW31687   5.313   0.771   6.871
10263SOL    HW131688   5.349   0.864   6.884
10263SOL    HW231689   5.363   0.725   6.799
10264SOL     OW31690   5.906   0.783   6.855
10264SOL    HW131691   5.959   0.867   6.867
10264SOL    HW231692   5.842   0.773   6.932
10265SOL     OW31693   2.097   2.329   2.099
10265SOL    HW131694   2.173   2.374   2.053
10265SOL    HW231695   2.108   2.230   2.094
10266SOL     OW31696   3.895   3.105   3.915
10266SOL    HW131697   3.954   3.175   3.955
10266SOL    HW231698   3.823   3.150   3.861
10267SOL     OW31699   5.895   2.295   6.812
10267SOL    HW131700   5.912   2.198   6.828
10267SOL    HW231701   5.867   2.338   6.898
10268SOL     OW31702   6.071   5.806   2.346
10268SOL    HW131703   6.171   5.805   2.337
10268SOL    HW231704   6.031   5.853   2.268
10269SOL     OW31705   0.687   3.257   6.914
10269SOL    HW131706   0.776   3.297   6.936
10269SOL    HW231707   0.617   3.329   6.913
10270SOL     OW31708   3.698   5.015   3.068
10270SOL    HW131709   3.739   4.951   3.004
10270SOL    HW231710   3.688   5.105   3.025
10271SOL     OW31711   3.351   2.555   5.685
10271SOL    HW131712   3.381   2.550   5.590
10271SOL    HW231713   3.257   2.524   5.693
10272SOL     OW31714   0.820   1.334   4.648
10272SOL    HW131715   0.887   1.267   4.681
10272SOL    HW231716   0.753   1.287   4.591
10273SOL     OW31717   2.877   5.909   2.716
10273SOL    HW131718   2.932   5.979   2.761
10273SOL    HW231719   2.918   5.885   2.628
10274SOL     OW31720   0.319   5.705   4.919
10274SOL    HW131721   0.317   5.799   4.954
10274SOL    HW231722   0.322   5.707   4.819
10275SOL     OW31723   0.267   6.768   1.692
10275SOL    HW131724   0.189   6.767   1.630
10275SOL    HW231725   0.291   6.863   1.714
10276SOL     OW31726   5.681   5.052   5.363
10276SOL    HW131727   5.654   5.137   5.406
10276SOL    HW231728   5.775   5.029   5.390
10277SOL     OW31729   2.008   5.252   3.699
10277SOL    HW131730   1.918   5.231   3.736
10277SOL    HW231731   2.013   5.222   3.604
10278SOL     OW31732   0.062   1.807   4.954
10278SOL    HW131733   0.009   1.729   4.988
10278SOL    HW231734   0.146   1.816   5.008
10279SOL     OW31735   3.128   5.210   3.612
10279SOL    HW131736   3.205   5.189   3.671
10279SOL    HW231737   3.043   5.203   3.664
10280SOL     OW31738   0.347   3.110   0.965
10280SOL    HW131739   0.404   3.179   1.010
10280SOL    HW231740   0.251   3.128   0.985
10281SOL     OW31741   6.093   1.621   2.402
10281SOL    HW131742   6.137   1.533   2.388
10281SOL    HW231743   6.131   1.665   2.483
10282SOL     OW31744   5.166   4.154   4.701
10282SOL    HW131745   5.149   4.090   4.626
10282SOL    HW231746   5.162   4.105   4.788
10283SOL     OW31747   0.965   2.975   0.441
10283SOL    HW131748   1.031   2.911   0.401
10283SOL    HW231749   0.898   3.001   0.371
10284SOL     OW31750   4.825   2.894   5.107
10284SOL    HW131751   4.907   2.886   5.050
10284SOL    HW231752   4.829   2.979   5.159
10285SOL     OW31753   5.827   0.303   2.378
10285SOL    HW131754   5.840   0.325   2.281
10285SOL    HW231755   5.731   0.282   2.395
10286SOL     OW31756   3.115   1.961   3.822
10286SOL    HW131757   3.133   1.895   3.894
10286SOL    HW231758   3.043   2.024   3.852
10287SOL     OW31759   1.837   0.071   1.208
10287SOL    HW131760   1.880   7.005   1.246
10287SOL    HW231761   1.797   0.049   1.119
10288SOL     OW31762   4.554   6.773   3.404
10288SOL    HW131763   4.600   6.836   3.468
10288SOL    HW231764   4.503   6.826   3.337
10289SOL     OW31765   1.607   6.535   1.199
10289SOL    HW131766   1.704   6.535   1.176
10289SOL    HW231767   1.554   6.504   1.119
10290SOL     OW31768   3.356   4.131   2.199
10290SOL    HW131769   3.442   4.150   2.152
10290SOL    HW231770   3.282   4.181   2.155
10291SOL     OW31771   3.975   1.630   3.021
10291SOL    HW131772   3.924   1.634   2.935
10291SOL    HW231773   3.970   1.537   3.058
10292SOL     OW31774   1.465   0.657   5.047
10292SOL    HW131775   1.405   0.581   5.071
10292SOL    HW231776   1.505   0.696   5.130
10293SOL     OW31777   2.237   4.088   3.096
10293SOL    HW131778   2.143   4.116   3.081
10293SOL    HW231779   2.251   4.064   3.192
10294SOL     OW31780   5.227   2.711   3.120
10294SOL    HW131781   5.170   2.643   3.073
10294SOL    HW231782   5.311   2.669   3.152
10295SOL     OW31783   6.243   4.604   6.158
10295SOL    HW131784   6.340   4.587   6.173
10295SOL    HW231785   6.220   4.698   6.183
10296SOL     OW31786   4.874   1.846   0.676
10296SOL    HW131787   4.802   1.901   0.718
10296SOL    HW231788   4.948   1.832   0.741
10297SOL     OW31789   2.012   6.528   6.648
10297SOL    HW131790   2.032   6.476   6.565
10297SOL    HW231791   1.986   6.621   6.623
10298SOL     OW31792   3.093   4.497   1.388
10298SOL    HW131793   3.182   4.490   1.346
10298SOL    HW231794   3.066   4.408   1.426
10299SOL     OW31795   4.838   5.384   3.263
10299SOL    HW131796   4.825   5.433   3.350
10299SOL    HW231797   4.930   5.402   3.229
10300SOL     OW31798   1.107   3.829   3.622
10300SOL    HW131799   1.081   3.765   3.694
10300SOL    HW231800   1.082   3.922   3.650
10301SOL     OW31801   5.325   2.876   4.645
10301SOL    HW131802   5.296   2.958   4.595
10301SOL    HW231803   5.274   2.797   4.613
10302SOL     OW31804   2.526   6.410   4.276
10302SOL    HW131805   2.446   6.456   4.237
10302SOL    HW231806   2.602   6.475   4.284
10303SOL     OW31807   1.835   6.324   2.464
10303SOL    HW131808   1.895   6.340   2.542
10303SOL    HW231809   1.783   6.407   2.444
10304SOL     OW31810   5.521   0.023   1.920
10304SOL    HW131811   5.530   0.078   2.003
10304SOL    HW231812   5.481   0.080   1.847
10305SOL     OW31813   0.669   4.387   6.654
10305SOL    HW131814   0.766   4.367   6.643
10305SOL    HW231815   0.620   4.302   6.673
10306SOL     OW31816   4.832   0.106   6.194
10306SOL    HW131817   4.813   0.009   6.181
10306SOL    HW231818   4.774   0.160   6.133
10307SOL     OW31819   2.959   2.147   5.492
10307SOL    HW131820   3.038   2.156   5.431
10307SOL    HW231821   2.948   2.232   5.544
10308SOL     OW31822   2.564   4.875   3.633
10308SOL    HW131823   2.499   4.814   3.678
10308SOL    HW231824   2.657   4.855   3.665
10309SOL     OW31825   6.860   1.607   5.039
10309SOL    HW131826   6.899   1.521   5.007
10309SOL    HW231827   6.907   1.637   5.122
10310SOL     OW31828   3.312   4.042   1.572
10310SOL    HW131829   3.295   4.001   1.482
10310SOL    HW231830   3.229   4.035   1.627
10311SOL     OW31831   0.392   6.336   0.643
10311SOL    HW131832   0.384   6.429   0.608
10311SOL    HW231833   0.375   6.271   0.569
10312SOL     OW31834   3.140   6.198   2.298
10312SOL    HW131835   3.116   6.252   2.217
10312SOL    HW231836   3.065   6.135   2.318
10313SOL     OW31837   4.822   6.753   1.547
10313SOL    HW131838   4.769   6.668   1.552
10313SOL    HW231839   4.766   6.825   1.506
10314SOL     OW31840   6.354   0.605   1.731
10314SOL    HW131841   6.277   0.618   1.793
10314SOL    HW231842   6.418   0.682   1.741
10315SOL     OW31843   5.590   5.969   4.717
10315SOL    HW131844   5.566   5.908   4.792
10315SOL    HW231845   5.506   6.001   4.672
10316SOL     OW31846   6.815   2.541   4.306
10316SOL    HW131847   6.870   2.535   4.390
10316SOL    HW231848   6.844   2.468   4.243
10317SOL     OW31849   3.613   5.479   5.119
10317SOL    HW131850   3.567   5.441   5.039
10317SOL    HW231851   3.610   5.413   5.194
10318SOL     OW31852   5.146   6.038   6.005
10318SOL    HW131853   5.228   6.093   6.021
10318SOL    HW231854   5.151   5.954   6.059
10319SOL     OW31855   1.775   2.235   5.748
10319SOL    HW131856   1.808   2.328   5.731
10319SOL    HW231857   1.685   2.238   5.791
10320SOL     OW31858   0.374   0.483   3.196
10320SOL    HW131859   0.368   0.579   3.223
10320SOL    HW231860   0.434   0.434   3.259
10321SOL     OW31861   3.761   1.120   2.589
10321SOL    HW131862   3.695   1.194   2.607
10321SOL    HW231863   3.853   1.150   2.615
10322SOL     OW31864   6.334   5.921   6.320
10322SOL    HW131865   6.332   5.826   6.288
10322SOL    HW231866   6.258   5.972   6.279
10323SOL     OW31867   6.229   3.755   5.715
10323SOL    HW131868   6.179   3.752   5.628
10323SOL    HW231869   6.324   3.782   5.697
10324SOL     OW31870   3.206   3.074   2.663
10324SOL    HW131871   3.183   2.994   2.608
10324SOL    HW231872   3.299   3.066   2.698
10325SOL     OW31873   0.079   3.796   2.968
10325SOL    HW131874   0.051   3.829   2.878
10325SOL    HW231875   7.014   3.788   3.027
10326SOL     OW31876   4.385   3.486   0.222
10326SOL    HW131877   4.317   3.558   0.213
10326SOL    HW231878   4.342   3.402   0.255
10327SOL     OW31879   2.720   2.358   1.748
10327SOL    HW131880   2.799   2.385   1.803
10327SOL    HW231881   2.733   2.390   1.654
10328SOL     OW31882   5.948   2.379   1.548
10328SOL    HW131883   5.923   2.458   1.605
10328SOL    HW231884   6.041   2.391   1.514
10329SOL     OW31885   3.140   0.540   3.584
10329SOL    HW131886   3.154   0.606   3.510
10329SOL    HW231887   3.224   0.489   3.600
10330SOL     OW31888   4.142   6.886   2.231
10330SOL    HW131889   4.061   6.906   2.285
10330SOL    HW231890   4.145   6.946   2.151
10331SOL     OW31891   0.033   1.437   4.687
10331SOL    HW131892   0.016   1.400   4.778
10331SOL    HW231893   0.129   1.464   4.680
10332SOL     OW31894   6.134   0.878   1.200
10332SOL    HW131895   6.113   0.975   1.194
10332SOL    HW231896   6.052   0.824   1.183
10333SOL     OW31897   6.465   4.561   4.809
10333SOL    HW131898   6.384   4.619   4.817
10333SOL    HW231899   6.458   4.486   4.875
10334SOL     OW31900   3.828   6.185   3.717
10334SOL    HW131901   3.764   6.125   3.667
10334SOL    HW231902   3.899   6.216   3.655
10335SOL     OW31903   2.550   4.221   6.687
10335SOL    HW131904   2.618   4.263   6.627
10335SOL    HW231905   2.574   4.126   6.704
10336SOL     OW31906   6.198   6.968   2.807
10336SOL    HW131907   6.107   6.957   2.846
10336SOL    HW231908   6.259   7.008   2.876
10337SOL     OW31909   6.976   6.551   5.857
10337SOL    HW131910   7.007   6.637   5.897
10337SOL    HW231911   6.887   6.564   5.812
10338SOL     OW31912   2.616   6.297   1.799
10338SOL    HW131913   2.584   6.387   1.770
10338SOL    HW231914   2.614   6.291   1.898
10339SOL     OW31915   2.922   5.473   0.093
10339SOL    HW131916   2.923   5.487   0.192
10339SOL    HW231917   2.882   5.384   0.071
10340SOL     OW31918   1.275   5.687   1.046
10340SOL    HW131919   1.371   5.681   1.076
10340SOL    HW231920   1.217   5.704   1.125
10341SOL     OW31921   2.064   3.490   1.795
10341SOL    HW131922   2.114   3.464   1.878
10341SOL    HW231923   2.113   3.562   1.746
10342SOL     OW31924   0.926   6.830   5.092
10342SOL    HW131925   0.829   6.806   5.097
10342SOL    HW231926   0.980   6.763   5.143
10343SOL     OW31927   2.946   5.032   0.166
10343SOL    HW131928   2.901   5.107   0.119
10343SOL    HW231929   2.987   5.065   0.251
10344SOL     OW31930   4.073   4.632   1.662
10344SOL    HW131931   4.140   4.703   1.684
10344SOL    HW231932   3.981   4.666   1.684
10345SOL     OW31933   1.779   1.243   6.852
10345SOL    HW131934   1.832   1.264   6.935
10345SOL    HW231935   1.812   1.298   6.776
10346SOL     OW31936   5.897   0.108   1.260
10346SOL    HW131937   5.959   0.034   1.286
10346SOL    HW231938   5.804   0.072   1.251
10347SOL     OW31939   5.395   2.318   2.434
10347SOL    HW131940   5.486   2.277   2.439
10347SOL    HW231941   5.395   2.406   2.481
10348SOL     OW31942   6.438   1.442   0.359
10348SOL    HW131943   6.409   1.509   0.427
10348SOL    HW231944   6.473   1.489   0.278
10349SOL     OW31945   6.692   1.287   1.570
10349SOL    HW131946   6.741   1.367   1.534
10349SOL    HW231947   6.736   1.204   1.537
10350SOL     OW31948   2.265   6.033   5.599
10350SOL    HW131949   2.244   5.949   5.649
10350SOL    HW231950   2.348   6.020   5.546
10351SOL     OW31951   4.724   5.382   6.186
10351SOL    HW131952   4.664   5.387   6.266
10351SOL    HW231953   4.671   5.356   6.106
10352SOL     OW31954   5.121   2.104   6.989
10352SOL    HW131955   5.079   2.025   0.017
10352SOL    HW231956   5.136   2.084   6.892
10353SOL     OW31957   6.628   2.460   5.751
10353SOL    HW131958   6.570   2.477   5.671
10353SOL    HW231959   6.586   2.500   5.832
10354SOL     OW31960   5.916   2.047   2.308
10354SOL    HW131961   5.936   2.133   2.261
10354SOL    HW231962   6.001   2.005   2.339
10355SOL     OW31963   2.140   0.467   2.104
10355SOL    HW131964   2.202   0.453   2.027
10355SOL    HW231965   2.046   0.457   2.074
10356SOL     OW31966   6.775   4.123   5.780
10356SOL    HW131967   6.820   4.132   5.691
10356SOL    HW231968   6.735   4.211   5.806
10357SOL     OW31969   3.029   2.732   6.481
10357SOL    HW131970   2.938   2.773   6.486
10357SOL    HW231971   3.091   2.793   6.431
10358SOL     OW31972   6.088   3.682   3.842
10358SOL    HW131973   6.024   3.633   3.901
10358SOL    HW231974   6.179   3.682   3.884
10359SOL     OW31975   6.243   1.312   1.749
10359SOL    HW131976   6.186   1.394   1.754
10359SOL    HW231977   6.313   1.324   1.678
10360SOL     OW31978   4.544   5.445   1.460
10360SOL    HW131979   4.486   5.513   1.415
10360SOL    HW231980   4.487   5.375   1.502
10361SOL     OW31981   2.687   1.214   3.002
10361SOL    HW131982   2.755   1.197   3.073
10361SOL    HW231983   2.721   1.178   2.915
10362SOL     OW31984   0.670   5.533   3.789
10362SOL    HW131985   0.603   5.509   3.859
10362SOL    HW231986   0.755   5.562   3.831
10363SOL     OW31987   4.459   2.687   0.745
10363SOL    HW131988   4.525   2.616   0.769
10363SOL    HW231989   4.408   2.715   0.826
10364SOL     OW31990   3.403   3.729   1.825
10364SOL    HW131991   3.476   3.673   1.864
10364SOL    HW231992   3.435   3.770   1.739
10365SOL     OW31993   5.109   4.364   5.468
10365SOL    HW131994   5.055   4.427   5.413
10365SOL    HW231995   5.048   4.308   5.524
10366SOL     OW31996   4.182   0.239   4.358
10366SOL    HW131997   4.130   0.282   4.284
10366SOL    HW231998   4.130   0.161   4.394
10367SOL     OW31999   7.002   1.903   2.370
10367SOL    HW132000   6.937   1.828   2.363
10367SOL    HW232001   6.971   1.979   2.312
10368SOL     OW32002   2.367   1.074   2.479
10368SOL    HW132003   2.388   1.052   2.575
10368SOL    HW232004   2.295   1.013   2.446
10369SOL     OW32005   3.155   1.436   5.650
10369SOL    HW132006   3.061   1.405   5.666
10369SOL    HW232007   3.177   1.426   5.553
10370SOL     OW32008   5.619   1.195   5.114
10370SOL    HW132009   5.626   1.144   5.029
10370SOL    HW232010   5.542   1.258   5.109
10371SOL     OW32011   2.318   6.026   4.703
10371SOL    HW132012   2.267   6.026   4.788
10371SOL    HW232013   2.361   5.937   4.689
10372SOL     OW32014   1.860   0.858   0.477
10372SOL    HW132015   1.773   0.871   0.430
10372SOL    HW232016   1.849   0.790   0.549
10373SOL     OW32017   1.750   6.500   5.341
10373SOL    HW132018   1.759   6.401   5.338
10373SOL    HW232019   1.657   6.526   5.316
10374SOL     OW32020   2.627   1.258   3.386
10374SOL    HW132021   2.651   1.348   3.349
10374SOL    HW232022   2.527   1.252   3.394
10375SOL     OW32023   2.471   1.998   6.344
10375SOL    HW132024   2.514   1.987   6.254
10375SOL    HW232025   2.510   1.932   6.408
10376SOL     OW32026   1.098   5.685   3.702
10376SOL    HW132027   1.125   5.722   3.791
10376SOL    HW232028   1.042   5.604   3.715
10377SOL     OW32029   6.256   0.896   3.625
10377SOL    HW132030   6.299   0.888   3.535
10377SOL    HW232031   6.158   0.913   3.614
10378SOL     OW32032   5.727   6.681   5.259
10378SOL    HW132033   5.770   6.755   5.207
10378SOL    HW232034   5.697   6.609   5.197
10379SOL     OW32035   3.517   6.680   4.086
10379SOL    HW132036   3.520   6.713   4.180
10379SOL    HW232037   3.438   6.721   4.039
10380SOL     OW32038   0.651   2.160   5.198
10380SOL    HW132039   0.627   2.250   5.160
10380SOL    HW232040   0.568   2.115   5.229
10381SOL     OW32041   4.112   4.764   0.800
10381SOL    HW132042   4.192   4.788   0.855
10381SOL    HW232043   4.139   4.706   0.724
10382SOL     OW32044   2.214   4.737   1.023
10382SOL    HW132045   2.194   4.689   0.938
10382SOL    HW232046   2.167   4.825   1.025
10383SOL     OW32047   0.615   4.011   1.028
10383SOL    HW132048   0.611   4.096   0.975
10383SOL    HW232049   0.598   3.933   0.968
10384SOL     OW32050   6.975   0.422   1.085
10384SOL    HW132051   7.014   0.468   1.166
10384SOL    HW232052   7.009   0.467   1.003
10385SOL     OW32053   3.927   6.335   5.586
10385SOL    HW132054   3.973   6.247   5.596
10385SOL    HW232055   3.841   6.334   5.637
10386SOL     OW32056   6.574   1.847   5.151
10386SOL    HW132057   6.502   1.875   5.214
10386SOL    HW232058   6.625   1.770   5.192
10387SOL     OW32059   4.811   1.645   2.216
10387SOL    HW132060   4.761   1.680   2.295
10387SOL    HW232061   4.864   1.564   2.243
10388SOL     OW32062   2.049   5.686   2.320
10388SOL    HW132063   2.001   5.609   2.277
10388SOL    HW232064   2.022   5.771   2.275
10389SOL     OW32065   6.838   6.268   1.336
10389SOL    HW132066   6.793   6.204   1.399
10389SOL    HW232067   6.917   6.309   1.381
10390SOL     OW32068   1.924   2.552   1.230
10390SOL    HW132069   1.876   2.640   1.235
10390SOL    HW232070   1.932   2.513   1.321
10391SOL     OW32071   0.295   6.396   4.012
10391SOL    HW132072   0.272   6.356   3.923
10391SOL    HW232073   0.286   6.495   4.007
10392SOL     OW32074   6.814   4.206   6.293
10392SOL    HW132075   6.772   4.221   6.382
10392SOL    HW232076   6.746   4.170   6.229
10393SOL     OW32077   2.820   2.309   2.680
10393SOL    HW132078   2.777   2.386   2.633
10393SOL    HW232079   2.812   2.322   2.779
10394SOL     OW32080   2.178   6.010   4.956
10394SOL    HW132081   2.111   5.936   4.965
10394SOL    HW232082   2.201   6.045   5.047
10395SOL     OW32083   6.982   1.028   3.533
10395SOL    HW132084   6.886   1.001   3.524
10395SOL    HW232085   0.019   0.950   3.566
10396SOL     OW32086   3.141   1.012   4.042
10396SOL    HW132087   3.095   1.043   3.958
10396SOL    HW232088   3.138   0.913   4.047
10397SOL     OW32089   2.854   1.580   4.500
10397SOL    HW132090   2.859   1.643   4.577
10397SOL    HW232091   2.936   1.588   4.444
10398SOL     OW32092   5.021   2.232   0.510
10398SOL    HW132093   5.056   2.303   0.571
10398SOL    HW232094   5.035   2.259   0.415
10399SOL     OW32095   4.362   1.602   4.427
10399SOL    HW132096   4.338   1.641   4.338
10399SOL    HW232097   4.333   1.665   4.500
10400SOL     OW32098   4.123   5.590   0.226
10400SOL    HW132099   4.140   5.549   0.136
10400SOL    HW232100   4.205   5.584   0.282
10401SOL     OW32101   0.134   6.887   2.325
10401SOL    HW132102   0.164   6.951   2.255
10401SOL    HW232103   0.080   6.935   2.393
10402SOL     OW32104   0.383   2.165   5.968
10402SOL    HW132105   0.441   2.135   5.891
10402SOL    HW232106   0.387   2.264   5.975
10403SOL     OW32107   4.253   1.227   3.033
10403SOL    HW132108   4.320   1.301   3.034
10403SOL    HW232109   4.175   1.252   3.090
10404SOL     OW32110   6.993   0.109   4.541
10404SOL    HW132111   6.950   0.030   4.496
10404SOL    HW232112   6.927   0.151   4.603
10405SOL     OW32113   1.320   5.733   4.728
10405SOL    HW132114   1.401   5.721   4.786
10405SOL    HW232115   1.349   5.741   4.632
10406SOL     OW32116   2.127   3.209   5.337
10406SOL    HW132117   2.091   3.273   5.270
10406SOL    HW232118   2.073   3.214   5.421
10407SOL     OW32119   2.319   0.815   6.440
10407SOL    HW132120   2.341   0.901   6.394
10407SOL    HW232121   2.316   0.829   6.538
10408SOL     OW32122   4.266   6.010   2.005
10408SOL    HW132123   4.270   6.056   2.094
10408SOL    HW232124   4.218   6.068   1.940
10409SOL     OW32125   0.952   3.912   0.755
10409SOL    HW132126   0.905   3.997   0.731
10409SOL    HW232127   0.936   3.844   0.684
10410SOL     OW32128   5.686   2.386   1.355
10410SOL    HW132129   5.602   2.331   1.349
10410SOL    HW232130   5.766   2.326   1.348
10411SOL     OW32131   3.729   5.756   4.778
10411SOL    HW132132   3.686   5.685   4.724
10411SOL    HW232133   3.795   5.715   4.841
10412SOL     OW32134   6.756   0.903   0.839
10412SOL    HW132135   6.782   0.827   0.779
10412SOL    HW232136   6.822   0.912   0.913
10413SOL     OW32137   0.040   1.591   1.617
10413SOL    HW132138   0.076   1.675   1.658
10413SOL    HW232139   0.038   1.519   1.687
10414SOL     OW32140   3.698   5.850   5.727
10414SOL    HW132141   3.750   5.780   5.776
10414SOL    HW232142   3.732   5.857   5.633
10415SOL     OW32143   1.628   4.355   3.866
10415SOL    HW132144   1.702   4.298   3.900
10415SOL    HW232145   1.558   4.366   3.937
10416SOL     OW32146   5.978   0.264   5.393
10416SOL    HW132147   6.030   0.277   5.477
10416SOL    HW232148   5.922   0.182   5.400
10417SOL     OW32149   4.592   5.569   4.837
10417SOL    HW132150   4.549   5.530   4.755
10417SOL    HW232151   4.691   5.555   4.833
10418SOL     OW32152   6.030   3.998   5.741
10418SOL    HW132153   6.081   3.920   5.779
10418SOL    HW232154   6.057   4.082   5.789
10419SOL     OW32155   3.368   0.034   5.289
10419SOL    HW132156   3.411   0.064   5.203
10419SOL    HW232157   3.410   6.965   5.319
10420SOL     OW32158   0.004   3.887   3.996
10420SOL    HW132159   0.051   3.975   3.999
10420SOL    HW232160   0.050   3.826   3.932
10421SOL     OW32161   1.908   3.184   4.545
10421SOL    HW132162   1.822   3.232   4.531
10421SOL    HW232163   1.978   3.222   4.485
10422SOL     OW32164   6.908   3.474   4.921
10422SOL    HW132165   6.844   3.493   4.846
10422SOL    HW232166   6.922   3.375   4.928
10423SOL     OW32167   4.635   5.358   5.014
10423SOL    HW132168   4.723   5.359   5.061
10423SOL    HW232169   4.637   5.422   4.938
10424SOL     OW32170   3.929   3.119   0.320
10424SOL    HW132171   3.978   3.063   0.253
10424SOL    HW232172   3.965   3.100   0.412
10425SOL     OW32173   0.859   5.845   2.460
10425SOL    HW132174   0.837   5.910   2.532
10425SOL    HW232175   0.951   5.865   2.425
10426SOL     OW32176   5.381   4.532   6.063
10426SOL    HW132177   5.474   4.499   6.048
10426SOL    HW232178   5.321   4.454   6.083
10427SOL     OW32179   5.147   0.736   0.318
10427SOL    HW132180   5.169   0.698   0.228
10427SOL    HW232181   5.208   0.695   0.387
10428SOL     OW32182   3.103   1.420   4.204
10428SOL    HW132183   3.099   1.431   4.105
10428SOL    HW232184   3.087   1.509   4.248
10429SOL     OW32185   0.975   3.756   2.936
10429SOL    HW132186   0.947   3.837   2.885
10429SOL    HW232187   0.943   3.673   2.889
10430SOL     OW32188   3.516   6.603   4.873
10430SOL    HW132189   3.575   6.531   4.910
10430SOL    HW232190   3.424   6.566   4.860
10431SOL     OW32191   2.858   6.699   4.533
10431SOL    HW132192   2.856   6.784   4.480
10431SOL    HW232193   2.937   6.700   4.595
10432SOL     OW32194   6.671   1.435   5.126
10432SOL    HW132195   6.729   1.513   5.100
10432SOL    HW232196   6.700   1.354   5.077
10433SOL     OW32197   0.422   6.696   2.705
10433SOL    HW132198   0.454   6.671   2.796
10433SOL    HW232199   0.469   6.779   2.674
10434SOL     OW32200   3.348   6.450   4.016
10434SOL    HW132201   3.410   6.519   4.054
10434SOL    HW232202   3.374   6.360   4.050
10435SOL     OW32203   1.972   2.232   6.153
10435SOL    HW132204   1.955   2.148   6.205
10435SOL    HW232205   2.068   2.235   6.125
10436SOL     OW32206   6.471   3.732   4.537
10436SOL    HW132207   6.420   3.770   4.614
10436SOL    HW232208   6.488   3.635   4.553
10437SOL     OW32209   6.308   4.827   5.836
10437SOL    HW132210   6.357   4.751   5.792
10437SOL    HW232211   6.371   4.903   5.850
10438SOL     OW32212   0.927   6.396   5.993
10438SOL    HW132213   0.913   6.345   6.078
10438SOL    HW232214   0.960   6.488   6.014
10439SOL     OW32215   5.350   1.231   4.951
10439SOL    HW132216   5.277   1.188   5.004
10439SOL    HW232217   5.400   1.160   4.901
10440SOL     OW32218   0.247   0.257   0.127
10440SOL    HW132219   0.286   0.234   0.216
10440SOL    HW232220   0.292   0.204   0.055
10441SOL     OW32221   2.818   1.407   1.467
10441SOL    HW132222   2.798   1.368   1.378
10441SOL    HW232223   2.780   1.349   1.539
10442SOL     OW32224   4.440   6.697   5.020
10442SOL    HW132225   4.491   6.620   5.058
10442SOL    HW232226   4.482   6.783   5.051
10443SOL     OW32227   5.151   2.403   3.028
10443SOL    HW132228   5.167   2.396   3.126
10443SOL    HW232229   5.134   2.311   2.991
10444SOL     OW32230   4.035   5.837   2.385
10444SOL    HW132231   4.117   5.892   2.372
10444SOL    HW232232   3.987   5.827   2.298
10445SOL     OW32233   0.662   3.492   3.112
10445SOL    HW132234   0.686   3.515   3.207
10445SOL    HW232235   0.648   3.576   3.060
10446SOL     OW32236   2.242   3.268   6.278
10446SOL    HW132237   2.154   3.276   6.231
10446SOL    HW232238   2.238   3.193   6.344
10447SOL     OW32239   0.374   0.302   2.971
10447SOL    HW132240   0.358   0.362   2.893
10447SOL    HW232241   0.348   0.349   3.056
10448SOL     OW32242   4.023   0.798   2.235
10448SOL    HW132243   4.001   0.719   2.292
10448SOL    HW232244   3.963   0.799   2.155
10449SOL     OW32245   1.710   5.387   6.269
10449SOL    HW132246   1.665   5.448   6.203
10449SOL    HW232247   1.651   5.308   6.286
10450SOL     OW32248   6.913   1.864   0.082
10450SOL    HW132249   6.947   1.774   0.056
10450SOL    HW232250   6.814   1.868   0.065
10451SOL     OW32251   2.443   6.009   3.185
10451SOL    HW132252   2.410   6.088   3.133
10451SOL    HW232253   2.502   5.953   3.127
10452SOL     OW32254   6.218   2.914   2.879
10452SOL    HW132255   6.185   2.990   2.935
10452SOL    HW232256   6.267   2.848   2.937
10453SOL     OW32257   5.936   6.299   1.630
10453SOL    HW132258   5.965   6.392   1.654
10453SOL    HW232259   5.948   6.285   1.531
10454SOL     OW32260   5.849   2.222   0.200
10454SOL    HW132261   5.779   2.154   0.178
10454SOL    HW232262   5.901   2.192   0.280
10455SOL     OW32263   0.017   6.350   3.379
10455SOL    HW132264   0.022   6.306   3.468
10455SOL    HW232265   6.983   6.436   3.387
10456SOL     OW32266   1.164   5.052   0.881
10456SOL    HW132267   1.232   4.979   0.889
10456SOL    HW232268   1.207   5.134   0.844
10457SOL     OW32269   4.023   2.952   0.104
10457SOL    HW132270   3.992   2.930   0.011
10457SOL    HW232271   4.078   2.877   0.139
10458SOL     OW32272   6.346   0.289   5.806
10458SOL    HW132273   6.433   0.241   5.819
10458SOL    HW232274   6.287   0.273   5.886
10459SOL     OW32275   4.799   5.917   1.217
10459SOL    HW132276   4.767   5.975   1.142
10459SOL    HW232277   4.866   5.851   1.181
10460SOL     OW32278   1.511   4.222   1.671
10460SOL    HW132279   1.504   4.317   1.701
10460SOL    HW232280   1.568   4.171   1.735
10461SOL     OW32281   5.937   4.934   5.061
10461SOL    HW132282   5.914   4.854   5.117
10461SOL    HW232283   5.854   4.978   5.029
10462SOL     OW32284   5.533   2.417   3.019
10462SOL    HW132285   5.502   2.482   3.090
10462SOL    HW232286   5.463   2.410   2.948
10463SOL     OW32287   4.284   2.423   5.906
10463SOL    HW132288   4.253   2.473   5.987
10463SOL    HW232289   4.295   2.327   5.929
10464SOL     OW32290   6.376   6.480   2.357
10464SOL    HW132291   6.469   6.466   2.324
10464SOL    HW232292   6.314   6.421   2.307
10465SOL     OW32293   5.756   5.585   1.109
10465SOL    HW132294   5.744   5.672   1.157
10465SOL    HW232295   5.667   5.544   1.091
10466SOL     OW32296   4.488   4.754   5.371
10466SOL    HW132297   4.577   4.743   5.416
10466SOL    HW232298   4.496   4.824   5.300
10467SOL     OW32299   2.374   1.955   0.261
10467SOL    HW132300   2.437   2.016   0.211
10467SOL    HW232301   2.328   2.006   0.333
10468SOL     OW32302   3.768   4.927   3.416
10468SOL    HW132303   3.680   4.930   3.368
10468SOL    HW232304   3.753   4.918   3.514
10469SOL     OW32305   3.798   4.247   5.722
10469SOL    HW132306   3.881   4.276   5.674
10469SOL    HW232307   3.762   4.323   5.776
10470SOL     OW32308   1.553   1.981   3.499
10470SOL    HW132309   1.645   1.948   3.475
10470SOL    HW232310   1.546   2.079   3.478
10471SOL     OW32311   2.284   0.243   0.470
10471SOL    HW132312   2.371   0.225   0.517
10471SOL    HW232313   2.278   0.186   0.388
10472SOL     OW32314   2.870   5.945   0.424
10472SOL    HW132315   2.930   5.931   0.345
10472SOL    HW232316   2.817   5.862   0.441
10473SOL     OW32317   6.083   7.003   6.283
10473SOL    HW132318   6.096   6.934   6.355
10473SOL    HW232319   6.124   6.969   6.198
10474SOL     OW32320   4.359   1.488   4.127
10474SOL    HW132321   4.300   1.495   4.046
10474SOL    HW232322   4.332   1.409   4.182
10475SOL     OW32323   4.179   6.323   1.444
10475SOL    HW132324   4.268   6.366   1.427
10475SOL    HW232325   4.109   6.393   1.454
10476SOL     OW32326   6.335   6.264   6.566
10476SOL    HW132327   6.403   6.289   6.634
10476SOL    HW232328   6.263   6.209   6.610
10477SOL     OW32329   6.935   1.257   4.527
10477SOL    HW132330   6.982   1.325   4.584
10477SOL    HW232331   6.939   1.168   4.572
10478SOL     OW32332   6.341   0.743   0.720
10478SOL    HW132333   6.269   0.798   0.679
10478SOL    HW232334   6.429   0.789   0.709
10479SOL     OW32335   0.022   1.456   2.452
10479SOL    HW132336   0.029   1.495   2.543
10479SOL    HW232337   6.967   1.385   2.451
10480SOL     OW32338   0.956   0.527   2.217
10480SOL    HW132339   0.917   0.481   2.297
10480SOL    HW232340   0.913   0.616   2.205
10481SOL     OW32341   2.026   5.987   4.020
10481SOL    HW132342   2.027   6.049   3.942
10481SOL    HW232343   2.116   5.944   4.030
10482SOL     OW32344   6.652   5.108   4.452
10482SOL    HW132345   6.627   5.087   4.547
10482SOL    HW232346   6.682   5.025   4.406
10483SOL     OW32347   6.354   5.371   0.180
10483SOL    HW132348   6.317   5.345   0.269
10483SOL    HW232349   6.345   5.294   0.116
10484SOL     OW32350   5.598   1.755   1.666
10484SOL    HW132351   5.593   1.660   1.636
10484SOL    HW232352   5.521   1.775   1.727
10485SOL     OW32353   3.232   4.162   0.631
10485SOL    HW132354   3.200   4.087   0.689
10485SOL    HW232355   3.265   4.125   0.544
10486SOL     OW32356   0.126   0.636   0.385
10486SOL    HW132357   0.192   0.585   0.330
10486SOL    HW232358   0.037   0.636   0.339
10487SOL     OW32359   4.659   0.716   1.180
10487SOL    HW132360   4.712   0.650   1.127
10487SOL    HW232361   4.719   0.759   1.248
10488SOL     OW32362   3.350   1.115   6.384
10488SOL    HW132363   3.421   1.178   6.354
10488SOL    HW232364   3.265   1.134   6.335
10489SOL     OW32365   0.841   6.778   5.404
10489SOL    HW132366   0.937   6.784   5.429
10489SOL    HW232367   0.805   6.689   5.432
10490SOL     OW32368   5.719   1.471   1.356
10490SOL    HW132369   5.654   1.470   1.280
10490SOL    HW232370   5.797   1.412   1.335
10491SOL     OW32371   2.089   2.646   0.241
10491SOL    HW132372   2.140   2.620   0.323
10491SOL    HW232373   2.067   2.565   0.188
10492SOL     OW32374   5.806   4.651   6.154
10492SOL    HW132375   5.902   4.645   6.180
10492SOL    HW232376   5.748   4.627   6.232
10493SOL     OW32377   3.247   0.738   2.410
10493SOL    HW132378   3.247   0.834   2.437
10493SOL    HW232379   3.201   0.683   2.480
10494SOL     OW32380   5.430   4.122   6.174
10494SOL    HW132381   5.341   4.081   6.156
10494SOL    HW232382   5.466   4.165   6.091
10495SOL     OW32383   1.544   6.861   6.954
10495SOL    HW132384   1.587   6.951   6.943
10495SOL    HW232385   1.447   6.873   6.973
10496SOL     OW32386   0.284   4.024   6.223
10496SOL    HW132387   0.379   3.998   6.201
10496SOL    HW232388   0.230   4.023   6.139
10497SOL     OW32389   1.835   6.896   1.818
10497SOL    HW132390   1.792   6.981   1.845
10497SOL    HW232391   1.814   6.877   1.722
10498SOL     OW32392   3.386   5.398   0.651
10498SOL    HW132393   3.296   5.356   0.641
10498SOL    HW232394   3.409   5.407   0.748
10499SOL     OW32395   3.656   0.073   2.371
10499SOL    HW132396   3.569   0.122   2.364
10499SOL    HW232397   3.642   7.003   2.419
10500SOL     OW32398   5.973   1.657   6.525
10500SOL    HW132399   5.901   1.592   6.500
10500SOL    HW232400   6.002   1.640   6.619
10501SOL     OW32401   2.088   5.619   2.611
10501SOL    HW132402   2.050   5.634   2.520
10501SOL    HW232403   2.155   5.690   2.632
10502SOL     OW32404   2.399   0.347   1.518
10502SOL    HW132405   2.455   0.337   1.601
10502SOL    HW232406   2.384   0.445   1.500
10503SOL     OW32407   4.444   2.523   0.541
10503SOL    HW132408   4.448   2.581   0.622
10503SOL    HW232409   4.534   2.521   0.498
10504SOL     OW32410   0.709   2.262   5.525
10504SOL    HW132411   0.808   2.260   5.542
10504SOL    HW232412   0.679   2.357   5.516
10505SOL     OW32413   5.736   5.087   0.528
10505SOL    HW132414   5.817   5.033   0.553
10505SOL    HW232415   5.734   5.099   0.429
10506SOL     OW32416   0.312   4.336   0.704
10506SOL    HW132417   0.396   4.371   0.662
10506SOL    HW232418   0.278   4.404   0.769
10507SOL     OW32419   2.059   6.798   0.189
10507SOL    HW132420   2.000   6.718   0.189
10507SOL    HW232421   2.004   6.879   0.167
10508SOL     OW32422   6.025   6.544   4.735
10508SOL    HW132423   5.965   6.625   4.737
10508SOL    HW232424   6.015   6.498   4.647
10509SOL     OW32425   1.160   5.354   4.186
10509SOL    HW132426   1.143   5.370   4.089
10509SOL    HW232427   1.075   5.369   4.238
10510SOL     OW32428   4.417   6.104   5.951
10510SOL    HW132429   4.349   6.176   5.937
10510SOL    HW232430   4.371   6.016   5.962
10511SOL     OW32431   4.072   1.292   2.412
10511SOL    HW132432   4.042   1.200   2.436
10511SOL    HW232433   4.069   1.304   2.313
10512SOL     OW32434   4.180   0.370   6.114
10512SOL    HW132435   4.128   0.446   6.153
10512SOL    HW232436   4.278   0.393   6.115
10513SOL     OW32437   6.096   2.697   4.568
10513SOL    HW132438   6.100   2.779   4.624
10513SOL    HW232439   6.007   2.653   4.579
10514SOL     OW32440   0.553   3.988   0.620
10514SOL    HW132441   0.513   3.946   0.538
10514SOL    HW232442   0.479   4.018   0.680
10515SOL     OW32443   0.771   3.352   2.907
10515SOL    HW132444   0.824   3.276   2.944
10515SOL    HW232445   0.696   3.373   2.970
10516SOL     OW32446   3.901   1.160   0.243
10516SOL    HW132447   3.991   1.158   0.198
10516SOL    HW232448   3.892   1.244   0.295
10517SOL     OW32449   1.031   2.368   2.503
10517SOL    HW132450   1.092   2.362   2.582
10517SOL    HW232451   1.078   2.415   2.428
10518SOL     OW32452   0.856   5.896   6.424
10518SOL    HW132453   0.791   5.897   6.349
10518SOL    HW232454   0.895   5.804   6.433
10519SOL     OW32455   2.366   3.381   0.202
10519SOL    HW132456   2.422   3.372   0.120
10519SOL    HW232457   2.322   3.293   0.222
10520SOL     OW32458   0.725   2.743   6.286
10520SOL    HW132459   0.773   2.715   6.368
10520SOL    HW232460   0.746   2.839   6.266
10521SOL     OW32461   6.571   6.534   2.634
10521SOL    HW132462   6.487   6.574   2.597
10521SOL    HW232463   6.600   6.457   2.576
10522SOL     OW32464   0.383   0.390   5.645
10522SOL    HW132465   0.450   0.385   5.571
10522SOL    HW232466   0.421   0.442   5.721
10523SOL     OW32467   0.019   4.899   3.763
10523SOL    HW132468   0.091   4.837   3.793
10523SOL    HW232469   0.052   4.952   3.684
10524SOL     OW32470   1.763   0.560   5.000
10524SOL    HW132471   1.679   0.601   5.037
10524SOL    HW232472   1.836   0.566   5.067
10525SOL     OW32473   3.681   6.093   6.678
10525SOL    HW132474   3.653   6.128   6.767
10525SOL    HW232475   3.655   6.158   6.606
10526SOL     OW32476   1.442   0.081   3.787
10526SOL    HW132477   1.412   0.072   3.881
10526SOL    HW232478   1.510   0.154   3.780
10527SOL     OW32479   0.451   1.759   4.850
10527SOL    HW132480   0.433   1.768   4.752
10527SOL    HW232481   0.365   1.753   4.900
10528SOL     OW32482   1.589   3.502   6.178
10528SOL    HW132483   1.557   3.494   6.273
10528SOL    HW232484   1.642   3.587   6.167
10529SOL     OW32485   3.277   5.494   3.783
10529SOL    HW132486   3.296   5.565   3.716
10529SOL    HW232487   3.310   5.406   3.748
10530SOL     OW32488   2.063   0.047   6.502
10530SOL    HW132489   2.104   6.999   6.566
10530SOL    HW232490   2.085   0.019   6.408
10531SOL     OW32491   1.465   2.927   3.943
10531SOL    HW132492   1.548   2.961   3.900
10531SOL    HW232493   1.420   3.001   3.993
10532SOL     OW32494   1.210   5.780   5.269
10532SOL    HW132495   1.189   5.760   5.173
10532SOL    HW232496   1.149   5.852   5.302
10533SOL     OW32497   2.914   0.779   5.122
10533SOL    HW132498   2.882   0.828   5.203
10533SOL    HW232499   2.960   0.843   5.061
10534SOL     OW32500   0.068   5.831   1.438
10534SOL    HW132501   0.146   5.877   1.481
10534SOL    HW232502   0.071   5.733   1.460
10535SOL     OW32503   0.881   1.984   1.361
10535SOL    HW132504   0.965   1.930   1.364
10535SOL    HW232505   0.838   1.986   1.451
10536SOL     OW32506   3.887   0.649   2.801
10536SOL    HW132507   3.966   0.639   2.740
10536SOL    HW232508   3.845   0.738   2.787
10537SOL     OW32509   3.930   5.436   4.136
10537SOL    HW132510   3.858   5.505   4.145
10537SOL    HW232511   3.940   5.410   4.040
10538SOL     OW32512   5.152   2.146   0.890
10538SOL    HW132513   5.116   2.190   0.972
10538SOL    HW232514   5.126   2.049   0.891
10539SOL     OW32515   0.652   4.314   0.034
10539SOL    HW132516   0.705   4.237   7.015
10539SOL    HW232517   0.701   4.399   0.019
10540SOL     OW32518   1.875   2.313   5.006
10540SOL    HW132519   1.928   2.397   5.004
10540SOL    HW232520   1.787   2.331   5.050
10541SOL     OW32521   3.650   4.123   2.419
10541SOL    HW132522   3.559   4.120   2.378
10541SOL    HW232523   3.646   4.087   2.512
10542SOL     OW32524   6.762   0.175   5.634
10542SOL    HW132525   6.745   0.102   5.568
10542SOL    HW232526   6.764   0.263   5.587
10543SOL     OW32527   0.405   0.779   4.967
10543SOL    HW132528   0.355   0.849   4.916
10543SOL    HW232529   0.343   0.732   5.030
10544SOL     OW32530   2.540   6.582   1.723
10544SOL    HW132531   2.576   6.614   1.635
10544SOL    HW232532   2.441   6.572   1.717
10545SOL     OW32533   6.569   1.119   2.090
10545SOL    HW132534   6.604   1.162   2.173
10545SOL    HW232535   6.481   1.160   2.065
10546SOL     OW32536   1.990   0.979   6.817
10546SOL    HW132537   2.010   0.907   6.884
10546SOL    HW232538   1.970   1.065   6.865
10547SOL     OW32539   5.404   2.623   2.474
10547SOL    HW132540   5.306   2.645   2.470
10547SOL    HW232541   5.442   2.622   2.382
10548SOL     OW32542   5.658   4.556   4.505
10548SOL    HW132543   5.757   4.545   4.513
10548SOL    HW232544   5.617   4.468   4.480
10549SOL     OW32545   0.020   6.955   1.956
10549SOL    HW132546   0.077   6.876   1.976
10549SOL    HW232547   6.961   6.928   1.895
10550SOL     OW32548   4.249   6.252   4.040
10550SOL    HW132549   4.334   6.273   3.992
10550SOL    HW232550   4.270   6.205   4.126
10551SOL     OW32551   1.172   2.530   5.780
10551SOL    HW132552   1.163   2.582   5.695
10551SOL    HW232553   1.236   2.576   5.841
10552SOL     OW32554   3.169   1.537   6.357
10552SOL    HW132555   3.090   1.509   6.411
10552SOL    HW232556   3.139   1.561   6.265
10553SOL     OW32557   0.735   4.540   1.858
10553SOL    HW132558   0.770   4.632   1.839
10553SOL    HW232559   0.778   4.475   1.796
10554SOL     OW32560   5.692   5.089   0.243
10554SOL    HW132561   5.602   5.130   0.236
10554SOL    HW232562   5.686   4.991   0.222
10555SOL     OW32563   1.867   2.762   0.512
10555SOL    HW132564   1.806   2.683   0.512
10555SOL    HW232565   1.912   2.769   0.423
10556SOL     OW32566   2.159   1.963   5.684
10556SOL    HW132567   2.157   1.863   5.676
10556SOL    HW232568   2.178   2.003   5.594
10557SOL     OW32569   2.285   2.676   3.263
10557SOL    HW132570   2.188   2.653   3.251
10557SOL    HW232571   2.312   2.658   3.357
10558SOL     OW32572   3.393   1.292   3.627
10558SOL    HW132573   3.326   1.253   3.691
10558SOL    HW232574   3.482   1.299   3.672
10559SOL     OW32575   5.318   0.379   1.123
10559SOL    HW132576   5.340   0.477   1.125
10559SOL    HW232577   5.318   0.347   1.028
10560SOL     OW32578   3.404   6.273   2.714
10560SOL    HW132579   3.352   6.357   2.724
10560SOL    HW232580   3.388   6.233   2.624
10561SOL     OW32581   2.974   3.990   0.833
10561SOL    HW132582   2.923   4.051   0.772
10561SOL    HW232583   3.012   3.914   0.780
10562SOL     OW32584   4.513   5.368   0.088
10562SOL    HW132585   4.591   5.335   0.140
10562SOL    HW232586   4.437   5.303   0.097
10563SOL     OW32587   0.758   1.613   3.601
10563SOL    HW132588   0.744   1.570   3.512
10563SOL    HW232589   0.669   1.634   3.642
10564SOL     OW32590   6.044   5.971   1.754
10564SOL    HW132591   6.013   5.949   1.846
10564SOL    HW232592   6.105   5.900   1.721
10565SOL     OW32593   0.480   0.538   5.862
10565SOL    HW132594   0.566   0.510   5.905
10565SOL    HW232595   0.404   0.517   5.924
10566SOL     OW32596   3.676   2.159   0.105
10566SOL    HW132597   3.669   2.060   0.117
10566SOL    HW232598   3.767   2.182   0.070
10567SOL     OW32599   3.177   1.618   4.624
10567SOL    HW132600   3.214   1.595   4.534
10567SOL    HW232601   3.129   1.538   4.661
10568SOL     OW32602   6.189   3.089   1.835
10568SOL    HW132603   6.230   3.157   1.773
10568SOL    HW232604   6.258   3.061   1.903
10569SOL     OW32605   5.347   1.785   1.832
10569SOL    HW132606   5.387   1.716   1.892
10569SOL    HW232607   5.334   1.870   1.883
10570SOL     OW32608   1.572   5.111   3.607
10570SOL    HW132609   1.517   5.051   3.665
10570SOL    HW232610   1.524   5.198   3.594
10571SOL     OW32611   0.199   4.529   5.602
10571SOL    HW132612   0.144   4.611   5.584
10571SOL    HW232613   0.254   4.507   5.522
10572SOL     OW32614   0.157   4.354   3.206
10572SOL    HW132615   0.073   4.367   3.152
10572SOL    HW232616   0.133   4.328   3.299
10573SOL     OW32617   4.566   0.309   4.967
10573SOL    HW132618   4.529   0.292   5.058
10573SOL    HW232619   4.591   0.222   4.924
10574SOL     OW32620   1.818   1.623   3.955
10574SOL    HW132621   1.758   1.552   3.992
10574SOL    HW232622   1.771   1.670   3.880
10575SOL     OW32623   6.976   1.000   3.039
10575SOL    HW132624   6.883   0.972   3.065
10575SOL    HW232625   0.003   0.928   2.986
10576SOL     OW32626   6.953   6.082   5.020
10576SOL    HW132627   6.890   6.151   5.055
10576SOL    HW232628   6.990   6.113   4.932
10577SOL     OW32629   2.129   3.572   0.152
10577SOL    HW132630   2.079   3.642   0.202
10577SOL    HW232631   2.192   3.525   0.214
10578SOL     OW32632   5.701   1.876   3.091
10578SOL    HW132633   5.671   1.866   2.996
10578SOL    HW232634   5.797   1.904   3.093
10579SOL     OW32635   4.071   2.431   1.721
10579SOL    HW132636   3.999   2.366   1.747
10579SOL    HW232637   4.101   2.413   1.628
10580SOL     OW32638   6.282   0.161   6.872
10580SOL    HW132639   6.195   0.129   6.909
10580SOL    HW232640   6.281   0.152   6.773
10581SOL     OW32641   6.897   6.633   3.174
10581SOL    HW132642   6.932   6.655   3.265
10581SOL    HW232643   6.800   6.609   3.181
10582SOL     OW32644   5.781   5.332   6.547
10582SOL    HW132645   5.716   5.397   6.507
10582SOL    HW232646   5.758   5.239   6.518
10583SOL     OW32647   3.805   1.257   4.595
10583SOL    HW132648   3.890   1.236   4.547
10583SOL    HW232649   3.738   1.293   4.530
10584SOL     OW32650   6.733   6.675   1.451
10584SOL    HW132651   6.700   6.745   1.514
10584SOL    HW232652   6.743   6.588   1.499
10585SOL     OW32653   2.327   2.254   5.701
10585SOL    HW132654   2.384   2.200   5.639
10585SOL    HW232655   2.240   2.275   5.656
10586SOL     OW32656   6.408   5.058   5.206
10586SOL    HW132657   6.431   4.961   5.218
10586SOL    HW232658   6.455   5.112   5.276
10587SOL     OW32659   6.316   4.569   0.277
10587SOL    HW132660   6.258   4.534   0.204
10587SOL    HW232661   6.404   4.597   0.239
10588SOL     OW32662   0.599   3.313   3.863
10588SOL    HW132663   0.523   3.251   3.885
10588SOL    HW232664   0.605   3.384   3.933
10589SOL     OW32665   5.550   1.852   4.020
10589SOL    HW132666   5.537   1.943   4.058
10589SOL    HW232667   5.513   1.784   4.084
10590SOL     OW32668   0.557   0.427   1.904
10590SOL    HW132669   0.571   0.369   1.824
10590SOL    HW232670   0.646   0.449   1.945
10591SOL     OW32671   0.850   1.646   6.628
10591SOL    HW132672   0.871   1.743   6.623
10591SOL    HW232673   0.883   1.600   6.545
10592SOL     OW32674   5.861   4.177   1.626
10592SOL    HW132675   5.825   4.086   1.649
10592SOL    HW232676   5.795   4.225   1.569
10593SOL     OW32677   2.329   5.611   0.578
10593SOL    HW132678   2.246   5.637   0.625
10593SOL    HW232679   2.354   5.681   0.511
10594SOL     OW32680   4.694   0.100   2.189
10594SOL    HW132681   4.647   0.012   2.179
10594SOL    HW232682   4.787   0.084   2.221
10595SOL     OW32683   4.006   6.852   6.487
10595SOL    HW132684   4.089   6.874   6.435
10595SOL    HW232685   3.992   6.753   6.488
10596SOL     OW32686   4.609   0.080   0.273
10596SOL    HW132687   4.645   0.131   0.195
10596SOL    HW232688   4.596   0.143   0.350
10597SOL     OW32689   3.618   0.812   5.148
10597SOL    HW132690   3.648   0.756   5.070
10597SOL    HW232691   3.697   0.856   5.190
10598SOL     OW32692   2.910   2.502   0.664
10598SOL    HW132693   2.823   2.547   0.687
10598SOL    HW232694   2.892   2.415   0.618
10599SOL     OW32695   5.554   2.486   5.706
10599SOL    HW132696   5.578   2.576   5.743
10599SOL    HW232697   5.613   2.416   5.747
10600SOL     OW32698   2.186   2.138   0.705
10600SOL    HW132699   2.282   2.123   0.729
10600SOL    HW232700   2.134   2.159   0.787
10601SOL     OW32701   1.456   4.597   5.165
10601SOL    HW132702   1.445   4.669   5.234
10601SOL    HW232703   1.554   4.579   5.151
10602SOL     OW32704   3.896   1.581   2.138
10602SOL    HW132705   3.839   1.647   2.090
10602SOL    HW232706   3.841   1.529   2.203
10603SOL     OW32707   3.193   5.910   3.291
10603SOL    HW132708   3.173   5.947   3.200
10603SOL    HW232709   3.124   5.941   3.356
10604SOL     OW32710   5.968   5.259   5.685
10604SOL    HW132711   6.001   5.333   5.744
10604SOL    HW232712   6.047   5.210   5.647
10605SOL     OW32713   1.264   5.871   0.307
10605SOL    HW132714   1.354   5.828   0.313
10605SOL    HW232715   1.270   5.966   0.337
10606SOL     OW32716   6.947   0.567   2.606
10606SOL    HW132717   6.990   0.560   2.696
10606SOL    HW232718   6.872   0.501   2.600
10607SOL     OW32719   4.173   4.759   5.425
10607SOL    HW132720   4.087   4.730   5.468
10607SOL    HW232721   4.158   4.846   5.378
10608SOL     OW32722   5.075   2.424   5.485
10608SOL    HW132723   5.024   2.338   5.485
10608SOL    HW232724   5.141   2.423   5.560
10609SOL     OW32725   2.689   6.751   0.311
10609SOL    HW132726   2.740   6.673   0.347
10609SOL    HW232727   2.706   6.760   0.213
10610SOL     OW32728   1.496   2.529   5.609
10610SOL    HW132729   1.464   2.453   5.667
10610SOL    HW232730   1.437   2.608   5.624
10611SOL     OW32731   4.004   3.884   5.952
10611SOL    HW132732   4.030   3.940   6.030
10611SOL    HW232733   4.024   3.788   5.972
10612SOL     OW32734   3.035   0.951   4.950
10612SOL    HW132735   3.006   0.954   4.855
10612SOL    HW232736   3.135   0.943   4.954
10613SOL     OW32737   6.195   0.097   4.947
10613SOL    HW132738   6.102   0.128   4.926
10613SOL    HW232739   6.257   0.127   4.874
10614SOL     OW32740   6.143   2.121   3.917
10614SOL    HW132741   6.192   2.170   3.845
10614SOL    HW232742   6.060   2.080   3.878
10615SOL     OW32743   3.489   6.523   5.618
10615SOL    HW132744   3.471   6.492   5.525
10615SOL    HW232745   3.574   6.482   5.651
10616SOL     OW32746   2.652   5.871   0.727
10616SOL    HW132747   2.734   5.928   0.735
10616SOL    HW232748   2.597   5.880   0.811
10617SOL     OW32749   2.115   2.514   1.710
10617SOL    HW132750   2.179   2.572   1.660
10617SOL    HW232751   2.022   2.546   1.694
10618SOL     OW32752   0.457   3.859   6.561
10618SOL    HW132753   0.372   3.891   6.519
10618SOL    HW232754   0.456   3.879   6.659
10619SOL     OW32755   0.223   4.236   2.179
10619SOL    HW132756   0.186   4.158   2.130
10619SOL    HW232757   0.319   4.249   2.153
10620SOL     OW32758   1.545   5.472   4.974
10620SOL    HW132759   1.461   5.520   4.999
10620SOL    HW232760   1.545   5.380   5.013
10621SOL     OW32761   1.441   6.178   2.296
10621SOL    HW132762   1.476   6.087   2.275
10621SOL    HW232763   1.392   6.215   2.216
10622SOL     OW32764   5.016   1.728   1.183
10622SOL    HW132765   4.994   1.823   1.203
10622SOL    HW232766   5.082   1.694   1.250
10623SOL     OW32767   0.310   4.854   5.370
10623SOL    HW132768   0.226   4.828   5.417
10623SOL    HW232769   0.389   4.812   5.416
10624SOL     OW32770   0.256   2.865   4.887
10624SOL    HW132771   0.290   2.771   4.880
10624SOL    HW232772   0.331   2.926   4.910
10625SOL     OW32773   0.595   4.151   0.385
10625SOL    HW132774   0.502   4.158   0.348
10625SOL    HW232775   0.635   4.064   0.358
10626SOL     OW32776   2.667   3.532   0.990
10626SOL    HW132777   2.666   3.527   0.890
10626SOL    HW232778   2.707   3.448   1.028
10627SOL     OW32779   5.260   6.792   0.373
10627SOL    HW132780   5.192   6.720   0.362
10627SOL    HW232781   5.339   6.772   0.315
10628SOL     OW32782   4.541   6.142   0.173
10628SOL    HW132783   4.480   6.188   0.237
10628SOL    HW232784   4.528   6.179   0.081
10629SOL     OW32785   2.564   4.964   5.206
10629SOL    HW132786   2.635   4.898   5.182
10629SOL    HW232787   2.577   5.048   5.153
10630SOL     OW32788   6.566   1.080   3.853
10630SOL    HW132789   6.545   1.143   3.778
10630SOL    HW232790   6.497   1.090   3.925
10631SOL     OW32791   2.567   4.632   4.642
10631SOL    HW132792   2.570   4.695   4.719
10631SOL    HW232793   2.500   4.559   4.662
10632SOL     OW32794   5.920   2.013   3.800
10632SOL    HW132795   5.869   1.928   3.815
10632SOL    HW232796   5.861   2.091   3.820
10633SOL     OW32797   2.623   3.378   1.316
10633SOL    HW132798   2.572   3.318   1.254
10633SOL    HW232799   2.694   3.326   1.363
10634SOL     OW32800   2.918   5.962   0.812
10634SOL    HW132801   2.965   6.022   0.747
10634SOL    HW232802   2.896   6.013   0.895
10635SOL     OW32803   3.561   1.989   0.967
10635SOL    HW132804   3.580   1.894   0.944
10635SOL    HW232805   3.469   1.997   1.006
10636SOL     OW32806   0.985   1.491   1.614
10636SOL    HW132807   0.926   1.417   1.645
10636SOL    HW232808   0.945   1.533   1.532
10637SOL     OW32809   2.491   4.229   5.760
10637SOL    HW132810   2.554   4.150   5.760
10637SOL    HW232811   2.412   4.208   5.703
10638SOL     OW32812   6.948   5.448   3.292
10638SOL    HW132813   6.985   5.427   3.201
10638SOL    HW232814   6.865   5.395   3.308
10639SOL     OW32815   1.083   3.324   3.036
10639SOL    HW132816   1.032   3.242   3.063
10639SOL    HW232817   1.044   3.404   3.082
10640SOL     OW32818   3.618   0.105   5.403
10640SOL    HW132819   3.575   0.015   5.411
10640SOL    HW232820   3.678   0.120   5.481
10641SOL     OW32821   2.998   1.921   1.252
10641SOL    HW132822   2.999   1.821   1.245
10641SOL    HW232823   3.088   1.953   1.282
10642SOL     OW32824   6.915   3.230   1.961
10642SOL    HW132825   6.930   3.172   1.882
10642SOL    HW232826   6.831   3.283   1.948
10643SOL     OW32827   2.009   4.887   5.249
10643SOL    HW132828   2.098   4.869   5.207
10643SOL    HW232829   2.003   4.840   5.337
10644SOL     OW32830   5.547   2.826   3.145
10644SOL    HW132831   5.525   2.731   3.169
10644SOL    HW232832   5.491   2.854   3.067
10645SOL     OW32833   1.264   1.890   5.114
10645SOL    HW132834   1.317   1.806   5.127
10645SOL    HW232835   1.308   1.947   5.044
10646SOL     OW32836   6.907   0.748   6.593
10646SOL    HW132837   6.967   0.769   6.516
10646SOL    HW232838   6.839   0.820   6.604
10647SOL     OW32839   2.905   5.346   5.661
10647SOL    HW132840   2.874   5.251   5.666
10647SOL    HW232841   3.004   5.349   5.676
10648SOL     OW32842   5.052   4.537   5.972
10648SOL    HW132843   5.141   4.492   5.983
10648SOL    HW232844   5.059   4.632   6.004
10649SOL     OW32845   7.006   4.074   3.092
10649SOL    HW132846   6.961   4.101   3.177
10649SOL    HW232847   0.086   4.053   3.111
10650SOL     OW32848   1.160   5.998   3.599
10650SOL    HW132849   1.124   6.080   3.643
10650SOL    HW232850   1.085   5.933   3.586
10651SOL     OW32851   4.538   6.594   6.333
10651SOL    HW132852   4.598   6.515   6.328
10651SOL    HW232853   4.448   6.567   6.368
10652SOL     OW32854   3.521   6.504   6.216
10652SOL    HW132855   3.463   6.572   6.261
10652SOL    HW232856   3.583   6.463   6.283
10653SOL     OW32857   4.818   4.065   3.840
10653SOL    HW132858   4.840   3.968   3.853
10653SOL    HW232859   4.811   4.084   3.743
10654SOL     OW32860   4.602   1.040   0.754
10654SOL    HW132861   4.640   1.111   0.812
10654SOL    HW232862   4.552   0.974   0.810
10655SOL     OW32863   2.726   5.421   0.351
10655SOL    HW132864   2.707   5.343   0.292
10655SOL    HW232865   2.705   5.398   0.446
10656SOL     OW32866   6.484   2.041   1.998
10656SOL    HW132867   6.582   2.058   2.010
10656SOL    HW232868   6.464   2.029   1.901
10657SOL     OW32869   6.450   0.794   6.191
10657SOL    HW132870   6.501   0.823   6.110
10657SOL    HW232871   6.397   0.712   6.170
10658SOL     OW32872   6.208   4.223   5.192
10658SOL    HW132873   6.119   4.178   5.202
10658SOL    HW232874   6.197   4.309   5.142
10659SOL     OW32875   6.784   6.057   1.151
10659SOL    HW132876   6.786   6.148   1.193
10659SOL    HW232877   6.860   6.002   1.188
10660SOL     OW32878   5.379   3.667   0.007
10660SOL    HW132879   5.287   3.642   0.038
10660SOL    HW232880   5.447   3.615   0.059
10661SOL     OW32881   0.093   6.587   2.242
10661SOL    HW132882   0.069   6.684   2.252
10661SOL    HW232883   0.045   6.534   2.311
10662SOL     OW32884   5.394   0.682   3.437
10662SOL    HW132885   5.375   0.768   3.484
10662SOL    HW232886   5.317   0.660   3.377
10663SOL     OW32887   0.776   0.689   1.806
10663SOL    HW132888   0.859   0.744   1.795
10663SOL    HW232889   0.756   0.640   1.721
10664SOL     OW32890   0.994   4.838   4.989
10664SOL    HW132891   1.029   4.785   4.912
10664SOL    HW232892   1.068   4.894   5.027
10665SOL     OW32893   0.988   1.202   1.028
10665SOL    HW132894   1.047   1.237   0.956
10665SOL    HW232895   1.010   1.247   1.115
10666SOL     OW32896   2.831   4.220   0.652
10666SOL    HW132897   2.841   4.214   0.553
10666SOL    HW232898   2.737   4.245   0.675
10667SOL     OW32899   3.948   3.192   5.157
10667SOL    HW132900   3.910   3.168   5.068
10667SOL    HW232901   3.873   3.216   5.219
10668SOL     OW32902   1.665   1.184   5.748
10668SOL    HW132903   1.601   1.107   5.755
10668SOL    HW232904   1.682   1.222   5.839
10669SOL     OW32905   6.026   6.057   0.683
10669SOL    HW132906   5.952   6.094   0.627
10669SOL    HW232907   6.079   5.992   0.628
10670SOL     OW32908   5.449   3.976   5.013
10670SOL    HW132909   5.438   4.049   5.080
10670SOL    HW232910   5.540   3.981   4.972
10671SOL     OW32911   2.461   2.319   3.063
10671SOL    HW132912   2.539   2.286   3.011
10671SOL    HW232913   2.474   2.416   3.085
10672SOL     OW32914   6.348   2.572   0.721
10672SOL    HW132915   6.298   2.656   0.742
10672SOL    HW232916   6.445   2.584   0.743
10673SOL     OW32917   0.763   1.537   6.867
10673SOL    HW132918   0.802   1.597   6.798
10673SOL    HW232919   0.728   1.453   6.824
10674SOL     OW32920   3.049   4.321   0.783
10674SOL    HW132921   2.955   4.294   0.763
10674SOL    HW232922   3.112   4.253   0.743
10675SOL     OW32923   2.122   6.984   6.223
10675SOL    HW132924   2.203   0.023   6.202
10675SOL    HW232925   2.135   6.891   6.187
10676SOL     OW32926   6.231   6.829   5.386
10676SOL    HW132927   6.210   6.747   5.334
10676SOL    HW232928   6.329   6.847   5.382
10677SOL     OW32929   0.639   0.534   2.190
10677SOL    HW132930   0.695   0.613   2.211
10677SOL    HW232931   0.575   0.557   2.116
10678SOL     OW32932   3.966   5.461   2.677
10678SOL    HW132933   3.971   5.370   2.718
10678SOL    HW232934   3.871   5.482   2.653
10679SOL     OW32935   5.426   4.964   6.019
10679SOL    HW132936   5.335   5.003   6.004
10679SOL    HW232937   5.484   4.985   5.940
10680SOL     OW32938   2.473   1.775   3.829
10680SOL    HW132939   2.380   1.811   3.832
10680SOL    HW232940   2.475   1.689   3.779
10681SOL     OW32941   0.448   3.986   0.010
10681SOL    HW132942   0.437   4.051   0.086
10681SOL    HW232943   0.535   4.005   6.980
10682SOL     OW32944   1.451   1.757   3.598
10682SOL    HW132945   1.478   1.731   3.691
10682SOL    HW232946   1.499   1.841   3.572
10683SOL     OW32947   3.536   1.607   3.658
10683SOL    HW132948   3.595   1.668   3.711
10683SOL    HW232949   3.553   1.512   3.684
10684SOL     OW32950   4.886   4.191   1.172
10684SOL    HW132951   4.791   4.196   1.141
10684SOL    HW232952   4.917   4.096   1.169
10685SOL     OW32953   0.262   5.144   3.072
10685SOL    HW132954   0.198   5.110   3.004
10685SOL    HW232955   0.336   5.077   3.084
10686SOL     OW32956   1.845   4.490   6.044
10686SOL    HW132957   1.855   4.589   6.033
10686SOL    HW232958   1.748   4.466   6.042
10687SOL     OW32959   6.950   5.455   2.008
10687SOL    HW132960   6.989   5.539   2.046
10687SOL    HW232961   6.997   5.376   2.047
10688SOL     OW32962   6.892   4.233   2.922
10688SOL    HW132963   6.928   4.163   2.983
10688SOL    HW232964   6.806   4.269   2.959
10689SOL     OW32965   0.812   6.921   4.025
10689SOL    HW132966   0.840   6.861   3.950
10689SOL    HW232967   0.723   6.893   4.059
10690SOL     OW32968   6.961   5.768   3.706
10690SOL    HW132969   6.907   5.703   3.652
10690SOL    HW232970   6.937   5.861   3.679
10691SOL     OW32971   0.724   1.158   2.811
10691SOL    HW132972   0.759   1.241   2.766
10691SOL    HW232973   0.642   1.127   2.763
10692SOL     OW32974   3.663   4.858   2.710
10692SOL    HW132975   3.566   4.834   2.722
10692SOL    HW232976   3.682   4.868   2.612
10693SOL     OW32977   2.362   0.126   1.408
10693SOL    HW132978   2.297   0.153   1.337
10693SOL    HW232979   2.398   0.207   1.452
10694SOL     OW32980   4.635   6.315   1.303
10694SOL    HW132981   4.718   6.283   1.350
10694SOL    HW232982   4.658   6.344   1.210
10695SOL     OW32983   5.157   2.594   2.812
10695SOL    HW132984   5.197   2.528   2.875
10695SOL    HW232985   5.131   2.548   2.727
10696SOL     OW32986   6.864   4.074   3.352
10696SOL    HW132987   6.832   4.019   3.429
10696SOL    HW232988   6.786   4.108   3.301
10697SOL     OW32989   0.274   6.280   5.240
10697SOL    HW132990   0.260   6.181   5.248
10697SOL    HW232991   0.221   6.327   5.310
10698SOL     OW32992   4.370   6.173   4.276
10698SOL    HW132993   4.347   6.241   4.345
10698SOL    HW232994   4.450   6.120   4.306
10699SOL     OW32995   4.313   2.309   2.190
10699SOL    HW132996   4.231   2.290   2.243
10699SOL    HW232997   4.287   2.341   2.099
10700SOL     OW32998   0.891   6.898   0.896
10700SOL    HW132999   0.928   6.808   0.920
10700SOL    HW233000   0.810   6.917   0.952
10701SOL     OW33001   3.467   5.873   0.217
10701SOL    HW133002   3.429   5.932   0.289
10701SOL    HW233003   3.421   5.892   0.131
10702SOL     OW33004   6.422   2.498   2.996
10702SOL    HW133005   6.399   2.401   3.006
10702SOL    HW233006   6.508   2.516   3.045
10703SOL     OW33007   3.454   2.943   4.283
10703SOL    HW133008   3.385   3.015   4.294
10703SOL    HW233009   3.518   2.968   4.211
10704SOL     OW33010   6.067   5.540   1.767
10704SOL    HW133011   6.077   5.476   1.690
10704SOL    HW233012   6.119   5.623   1.748
10705SOL     OW33013   6.973   4.064   2.260
10705SOL    HW133014   6.901   4.095   2.198
10705SOL    HW233015   6.938   4.059   2.353
10706SOL     OW33016   4.829   6.648   1.867
10706SOL    HW133017   4.925   6.629   1.888
10706SOL    HW233018   4.772   6.617   1.943
10707SOL     OW33019   1.037   6.852   4.185
10707SOL    HW133020   0.996   6.761   4.187
10707SOL    HW233021   0.973   6.916   4.141
10708SOL     OW33022   4.634   0.284   2.425
10708SOL    HW133023   4.602   0.366   2.379
10708SOL    HW233024   4.659   0.215   2.357
10709SOL     OW33025   6.007   0.673   4.798
10709SOL    HW133026   6.003   0.618   4.715
10709SOL    HW233027   6.028   0.768   4.775
10710SOL     OW33028   0.845   6.240   4.090
10710SOL    HW133029   0.796   6.284   4.013
10710SOL    HW233030   0.821   6.288   4.175
10711SOL     OW33031   1.930   6.550   4.096
10711SOL    HW133032   1.909   6.460   4.134
10711SOL    HW233033   1.861   6.574   4.028
10712SOL     OW33034   3.542   0.620   2.109
10712SOL    HW133035   3.564   0.714   2.138
10712SOL    HW233036   3.502   0.622   2.018
10713SOL     OW33037   1.265   3.376   1.808
10713SOL    HW133038   1.272   3.472   1.784
10713SOL    HW233039   1.356   3.335   1.809
10714SOL     OW33040   6.139   2.817   5.492
10714SOL    HW133041   6.126   2.851   5.399
10714SOL    HW233042   6.196   2.736   5.490
10715SOL     OW33043   4.079   0.170   2.874
10715SOL    HW133044   4.165   0.196   2.831
10715SOL    HW233045   4.046   0.246   2.931
10716SOL     OW33046   0.017   2.704   3.325
10716SOL    HW133047   6.933   2.715   3.327
10716SOL    HW233048   0.048   2.694   3.231
10717SOL     OW33049   0.211   2.402   0.377
10717SOL    HW133050   0.302   2.398   0.417
10717SOL    HW233051   0.217   2.430   0.281
10718SOL     OW33052   6.970   4.067   0.268
10718SOL    HW133053   6.923   4.145   0.309
10718SOL    HW233054   6.965   3.989   0.331
10719SOL     OW33055   4.494   5.853   0.882
10719SOL    HW133056   4.471   5.869   0.978
10719SOL    HW233057   4.416   5.812   0.836
10720SOL     OW33058   0.290   3.402   5.893
10720SOL    HW133059   0.374   3.351   5.914
10720SOL    HW233060   0.215   3.337   5.879
10721SOL     OW33061   6.000   2.436   4.981
10721SOL    HW133062   5.948   2.398   4.905
10721SOL    HW233063   6.022   2.531   4.962
10722SOL     OW33064   0.007   2.885   0.333
10722SOL    HW133065   6.974   2.971   0.342
10722SOL    HW233066   6.982   2.817   0.394
10723SOL     OW33067   6.647   4.501   6.705
10723SOL    HW133068   6.654   4.409   6.666
10723SOL    HW233069   6.561   4.543   6.677
10724SOL     OW33070   3.282   0.082   6.351
10724SOL    HW133071   3.238   0.024   6.282
10724SOL    HW233072   3.345   0.028   6.406
10725SOL     OW33073   6.892   5.046   3.941
10725SOL    HW133074   6.949   5.126   3.921
10725SOL    HW233075   6.902   4.980   3.867
10726SOL     OW33076   5.745   6.322   5.129
10726SOL    HW133077   5.840   6.312   5.159
10726SOL    HW233078   5.685   6.270   5.190
10727SOL     OW33079   1.692   4.518   4.409
10727SOL    HW133080   1.709   4.607   4.368
10727SOL    HW233081   1.594   4.506   4.423
10728SOL     OW33082   6.140   6.629   2.396
10728SOL    HW133083   6.200   6.549   2.386
10728SOL    HW233084   6.057   6.615   2.341
10729SOL     OW33085   6.370   1.273   2.922
10729SOL    HW133086   6.340   1.307   3.011
10729SOL    HW233087   6.438   1.201   2.934
10730SOL     OW33088   2.545   6.693   0.898
10730SOL    HW133089   2.598   6.608   0.898
10730SOL    HW233090   2.605   6.769   0.926
10731SOL     OW33091   1.914   5.433   6.672
10731SOL    HW133092   1.983   5.493   6.714
10731SOL    HW233093   1.958   5.375   6.604
10732SOL     OW33094   5.684   6.876   2.640
10732SOL    HW133095   5.643   6.784   2.646
10732SOL    HW233096   5.762   6.874   2.578
10733SOL     OW33097   5.723   2.829   0.184
10733SOL    HW133098   5.777   2.866   0.108
10733SOL    HW233099   5.783   2.813   0.262
10734SOL     OW33100   1.374   0.500   6.613
10734SOL    HW133101   1.386   0.503   6.514
10734SOL    HW233102   1.383   0.406   6.645
10735SOL     OW33103   1.191   4.242   2.134
10735SOL    HW133104   1.143   4.204   2.213
10735SOL    HW233105   1.246   4.320   2.163
10736SOL     OW33106   0.416   1.118   3.641
10736SOL    HW133107   0.469   1.139   3.559
10736SOL    HW233108   0.461   1.045   3.693
10737SOL     OW33109   0.787   2.249   0.380
10737SOL    HW133110   0.852   2.189   0.427
10737SOL    HW233111   0.798   2.239   0.281
10738SOL     OW33112   2.965   0.118   1.695
10738SOL    HW133113   2.987   0.200   1.748
10738SOL    HW233114   2.940   0.044   1.757
10739SOL     OW33115   0.341   0.769   3.257
10739SOL    HW133116   0.417   0.733   3.311
10739SOL    HW233117   0.364   0.860   3.223
10740SOL     OW33118   0.742   5.245   6.010
10740SOL    HW133119   0.715   5.259   6.105
10740SOL    HW233120   0.747   5.333   5.962
10741SOL     OW33121   1.206   1.265   3.592
10741SOL    HW133122   1.141   1.286   3.666
10741SOL    HW233123   1.251   1.178   3.610
10742SOL     OW33124   6.007   0.222   2.061
10742SOL    HW133125   6.054   0.259   1.982
10742SOL    HW233126   5.954   0.294   2.106
10743SOL     OW33127   2.573   2.519   3.411
10743SOL    HW133128   2.627   2.435   3.408
10743SOL    HW233129   2.548   2.546   3.318
10744SOL     OW33130   3.203   1.507   2.273
10744SOL    HW133131   3.170   1.600   2.255
10744SOL    HW233132   3.302   1.509   2.288
10745SOL     OW33133   1.519   4.569   6.959
10745SOL    HW133134   1.510   4.475   6.991
10745SOL    HW233135   1.605   4.580   6.910
10746SOL     OW33136   2.072   4.965   1.003
10746SOL    HW133137   2.161   5.010   0.994
10746SOL    HW233138   2.007   5.006   0.939
10747SOL     OW33139   5.094   1.363   3.561
10747SOL    HW133140   5.112   1.439   3.499
10747SOL    HW233141   5.074   1.280   3.507
10748SOL     OW33142   5.995   6.668   0.760
10748SOL    HW133143   5.955   6.740   0.818
10748SOL    HW233144   6.003   6.584   0.813
10749SOL     OW33145   0.153   5.013   3.362
10749SOL    HW133146   0.229   5.038   3.301
10749SOL    HW233147   0.111   4.929   3.329
10750SOL     OW33148   4.841   4.717   4.753
10750SOL    HW133149   4.933   4.679   4.763
10750SOL    HW233150   4.780   4.647   4.716
10751SOL     OW33151   0.703   3.278   5.107
10751SOL    HW133152   0.634   3.348   5.126
10751SOL    HW233153   0.657   3.190   5.095
10752SOL     OW33154   6.039   3.563   6.564
10752SOL    HW133155   6.106   3.630   6.597
10752SOL    HW233156   6.002   3.512   6.642
10753SOL     OW33157   6.045   0.198   3.632
10753SOL    HW133158   6.076   0.111   3.595
10753SOL    HW233159   6.061   0.270   3.564
10754SOL     OW33160   2.182   2.365   2.722
10754SOL    HW133161   2.143   2.364   2.630
10754SOL    HW233162   2.114   2.329   2.787
10755SOL     OW33163   0.076   1.712   0.814
10755SOL    HW133164   0.175   1.726   0.823
10755SOL    HW233165   0.033   1.724   0.903
10756SOL     OW33166   6.038   3.893   0.609
10756SOL    HW133167   6.069   3.900   0.514
10756SOL    HW233168   6.104   3.938   0.669
10757SOL     OW33169   6.857   3.925   0.492
10757SOL    HW133170   6.861   3.925   0.592
10757SOL    HW233171   6.810   3.843   0.460
10758SOL     OW33172   1.497   6.090   5.048
10758SOL    HW133173   1.438   6.137   4.983
10758SOL    HW233174   1.560   6.030   4.999
10759SOL     OW33175   1.959   2.961   6.872
10759SOL    HW133176   1.883   2.952   6.808
10759SOL    HW233177   1.934   3.025   6.945
10760SOL     OW33178   6.712   0.018   1.010
10760SOL    HW133179   6.662   0.104   1.003
10760SOL    HW233180   6.810   0.037   1.011
10761SOL     OW33181   0.488   2.030   6.186
10761SOL    HW133182   0.439   2.069   6.107
10761SOL    HW233183   0.426   1.969   6.236
10762SOL     OW33184   4.726   1.094   4.861
10762SOL    HW133185   4.795   1.167   4.861
10762SOL    HW233186   4.638   1.131   4.891
10763SOL     OW33187   4.725   6.005   0.956
10763SOL    HW133188   4.698   6.100   0.970
10763SOL    HW233189   4.645   5.951   0.928
10764SOL     OW33190   5.291   1.968   6.376
10764SOL    HW133191   5.325   2.047   6.427
10764SOL    HW233192   5.283   1.992   6.279
10765SOL     OW33193   5.780   2.246   1.053
10765SOL    HW133194   5.818   2.214   1.140
10765SOL    HW233195   5.814   2.189   0.978
10766SOL     OW33196   2.764   3.658   0.242
10766SOL    HW133197   2.728   3.566   0.228
10766SOL    HW233198   2.738   3.690   0.334
10767SOL     OW33199   1.386   1.044   0.700
10767SOL    HW133200   1.442   0.965   0.677
10767SOL    HW233201   1.395   1.065   0.797
10768SOL     OW33202   5.588   5.707   0.140
10768SOL    HW133203   5.493   5.740   0.146
10768SOL    HW233204   5.627   5.701   0.232
10769SOL     OW33205   2.694   5.137   5.018
10769SOL    HW133206   2.703   5.234   4.996
10769SOL    HW233207   2.723   5.082   4.939
10770SOL     OW33208   5.658   0.303   4.421
10770SOL    HW133209   5.569   0.349   4.426
10770SOL    HW233210   5.725   0.353   4.475
10771SOL     OW33211   4.564   7.011   5.440
10771SOL    HW133212   4.595   0.036   5.526
10771SOL    HW233213   4.632   0.013   5.369
10772SOL     OW33214   6.402   6.980   4.003
10772SOL    HW133215   6.358   6.941   4.084
10772SOL    HW233216   6.425   6.907   3.940
10773SOL     OW33217   0.237   5.267   6.875
10773SOL    HW133218   0.273   5.221   6.956
10773SOL    HW233219   0.293   5.244   6.795
10774SOL     OW33220   1.539   2.148   0.094
10774SOL    HW133221   1.628   2.161   0.137
10774SOL    HW233222   1.467   2.152   0.164
10775SOL     OW33223   1.861   3.998   0.363
10775SOL    HW133224   1.911   4.053   0.430
10775SOL    HW233225   1.766   3.987   0.393
10776SOL     OW33226   1.028   6.228   0.967
10776SOL    HW133227   1.019   6.131   0.988
10776SOL    HW233228   1.084   6.240   0.885
10777SOL     OW33229   4.380   0.499   3.725
10777SOL    HW133230   4.476   0.520   3.744
10777SOL    HW233231   4.329   0.500   3.811
10778SOL     OW33232   6.005   6.942   4.162
10778SOL    HW133233   6.079   7.003   4.191
10778SOL    HW233234   5.935   6.995   4.114
10779SOL     OW33235   6.945   4.527   3.097
10779SOL    HW133236   7.009   4.586   3.047
10779SOL    HW233237   6.852   4.544   3.064
10780SOL     OW33238   1.303   6.574   3.001
10780SOL    HW133239   1.262   6.631   2.930
10780SOL    HW233240   1.380   6.523   2.962
10781SOL     OW33241   4.264   1.744   3.876
10781SOL    HW133242   4.217   1.825   3.914
10781SOL    HW233243   4.242   1.736   3.779
10782SOL     OW33244   6.074   2.572   3.620
10782SOL    HW133245   6.063   2.485   3.573
10782SOL    HW233246   5.990   2.625   3.613
10783SOL     OW33247   1.350   3.087   2.549
10783SOL    HW133248   1.403   3.169   2.569
10783SOL    HW233249   1.278   3.076   2.617
10784SOL     OW33250   2.299   6.688   1.951
10784SOL    HW133251   2.373   6.720   1.891
10784SOL    HW233252   2.230   6.641   1.896
10785SOL     OW33253   1.934   4.251   1.225
10785SOL    HW133254   2.005   4.289   1.284
10785SOL    HW233255   1.847   4.250   1.273
10786SOL     OW33256   5.198   3.169   1.460
10786SOL    HW133257   5.117   3.221   1.433
10786SOL    HW233258   5.203   3.085   1.406
10787SOL     OW33259   3.060   1.509   4.953
10787SOL    HW133260   2.968   1.500   4.913
10787SOL    HW233261   3.127   1.519   4.880
10788SOL     OW33262   2.327   4.348   0.025
10788SOL    HW133263   2.306   4.306   6.953
10788SOL    HW233264   2.284   4.296   0.099
10789SOL     OW33265   5.472   1.587   0.813
10789SOL    HW133266   5.411   1.624   0.883
10789SOL    HW233267   5.419   1.558   0.734
10790SOL     OW33268   0.640   0.797   5.129
10790SOL    HW133269   0.565   0.778   5.066
10790SOL    HW233270   0.673   0.711   5.169
10791SOL     OW33271   0.773   1.226   1.445
10791SOL    HW133272   0.700   1.221   1.514
10791SOL    HW233273   0.848   1.165   1.471
10792SOL     OW33274   2.926   3.113   1.762
10792SOL    HW133275   2.974   3.033   1.797
10792SOL    HW233276   2.975   3.149   1.682
10793SOL     OW33277   5.383   2.329   4.169
10793SOL    HW133278   5.447   2.388   4.120
10793SOL    HW233279   5.299   2.380   4.189
10794SOL     OW33280   3.493   3.774   2.549
10794SOL    HW133281   3.482   3.730   2.638
10794SOL    HW233282   3.402   3.797   2.512
10795SOL     OW33283   6.171   4.208   3.769
10795SOL    HW133284   6.120   4.192   3.684
10795SOL    HW233285   6.180   4.306   3.784
10796SOL     OW33286   3.397   6.436   6.894
10796SOL    HW133287   3.406   6.508   6.825
10796SOL    HW233288   3.302   6.405   6.898
10797SOL     OW33289   4.170   2.882   0.862
10797SOL    HW133290   4.094   2.850   0.918
10797SOL    HW233291   4.169   2.835   0.774
10798SOL     OW33292   1.903   7.014   0.527
10798SOL    HW133293   1.910   0.034   0.434
10798SOL    HW233294   1.808   0.005   0.559
10799SOL     OW33295   3.422   1.566   1.667
10799SOL    HW133296   3.461   1.657   1.651
10799SOL    HW233297   3.410   1.518   1.580
10800SOL     OW33298   1.418   6.767   0.247
10800SOL    HW133299   1.340   6.706   0.261
10800SOL    HW233300   1.446   6.764   0.151
10801SOL     OW33301   0.735   0.051   4.836
10801SOL    HW133302   0.663   0.001   4.884
10801SOL    HW233303   0.818   7.011   4.832
10802SOL     OW33304   2.126   3.189   4.986
10802SOL    HW133305   2.198   3.124   5.011
10802SOL    HW233306   2.098   3.240   5.068
10803SOL     OW33307   5.121   4.618   4.704
10803SOL    HW133308   5.151   4.692   4.644
10803SOL    HW233309   5.180   4.538   4.690
10804SOL     OW33310   0.031   4.390   1.615
10804SOL    HW133311   6.990   4.470   1.636
10804SOL    HW233312   0.037   4.379   1.516
10805SOL     OW33313   3.612   6.771   6.663
10805SOL    HW133314   3.550   6.770   6.741
10805SOL    HW233315   3.700   6.732   6.689
10806SOL     OW33316   5.203   4.496   0.215
10806SOL    HW133317   5.162   4.405   0.224
10806SOL    HW233318   5.281   4.491   0.152
10807SOL     OW33319   3.255   6.694   3.755
10807SOL    HW133320   3.312   6.611   3.756
10807SOL    HW233321   3.160   6.668   3.740
10808SOL     OW33322   0.650   3.707   0.621
10808SOL    HW133323   0.747   3.709   0.597
10808SOL    HW233324   0.615   3.801   0.625
10809SOL     OW33325   2.782   6.996   4.172
10809SOL    HW133326   2.751   0.025   4.088
10809SOL    HW233327   2.785   0.047   4.246
10810SOL     OW33328   1.043   1.143   5.786
10810SOL    HW133329   1.023   1.156   5.689
10810SOL    HW233330   1.043   1.232   5.832
10811SOL     OW33331   4.204   5.317   4.953
10811SOL    HW133332   4.112   5.285   4.975
10811SOL    HW233333   4.250   5.249   4.896
10812SOL     OW33334   0.540   3.357   2.375
10812SOL    HW133335   0.487   3.277   2.349
10812SOL    HW233336   0.479   3.426   2.415
10813SOL     OW33337   2.065   5.914   6.905
10813SOL    HW133338   2.130   5.989   6.906
10813SOL    HW233339   2.078   5.858   6.987
10814SOL     OW33340   1.738   6.984   5.773
10814SOL    HW133341   1.702   6.915   5.710
10814SOL    HW233342   1.752   0.054   5.723
10815SOL     OW33343   4.902   5.159   3.894
10815SOL    HW133344   4.868   5.222   3.824
10815SOL    HW233345   5.002   5.157   3.890
10816SOL     OW33346   1.607   1.234   2.261
10816SOL    HW133347   1.602   1.141   2.297
10816SOL    HW233348   1.683   1.282   2.305
10817SOL     OW33349   5.831   6.377   2.396
10817SOL    HW133350   5.852   6.458   2.341
10817SOL    HW233351   5.913   6.347   2.444
10818SOL     OW33352   5.046   3.752   5.659
10818SOL    HW133353   5.127   3.713   5.614
10818SOL    HW233354   5.073   3.834   5.709
10819SOL     OW33355   0.383   4.352   0.115
10819SOL    HW133356   0.345   4.275   0.167
10819SOL    HW233357   0.482   4.339   0.105
10820SOL     OW33358   6.550   6.822   4.340
10820SOL    HW133359   6.555   6.813   4.439
10820SOL    HW233360   6.616   6.759   4.298
10821SOL     OW33361   5.242   5.982   2.436
10821SOL    HW133362   5.319   6.025   2.387
10821SOL    HW233363   5.179   6.053   2.468
10822SOL     OW33364   1.240   2.200   2.900
10822SOL    HW133365   1.154   2.152   2.880
10822SOL    HW233366   1.307   2.179   2.830
10823SOL     OW33367   1.682   4.974   1.116
10823SOL    HW133368   1.736   4.897   1.148
10823SOL    HW233369   1.726   5.015   1.036
10824SOL     OW33370   4.962   7.005   4.139
10824SOL    HW133371   4.881   6.948   4.129
10824SOL    HW233372   4.942   0.082   4.108
10825SOL     OW33373   2.359   0.451   0.631
10825SOL    HW133374   2.341   0.443   0.729
10825SOL    HW233375   2.276   0.480   0.584
10826SOL     OW33376   0.114   3.865   3.651
10826SOL    HW133377   0.096   3.903   3.560
10826SOL    HW233378   0.044   3.797   3.673
10827SOL     OW33379   6.128   3.818   4.491
10827SOL    HW133380   6.174   3.744   4.541
10827SOL    HW233381   6.144   3.806   4.393
10828SOL     OW33382   1.375   5.631   2.519
10828SOL    HW133383   1.298   5.592   2.568
10828SOL    HW233384   1.355   5.726   2.493
10829SOL     OW33385   3.528   3.172   0.575
10829SOL    HW133386   3.584   3.098   0.536
10829SOL    HW233387   3.586   3.253   0.590
10830SOL     OW33388   4.848   1.694   3.328
10830SOL    HW133389   4.842   1.757   3.251
10830SOL    HW233390   4.800   1.733   3.406
10831SOL     OW33391   4.904   6.114   2.107
10831SOL    HW133392   4.872   6.155   2.022
10831SOL    HW233393   4.924   6.186   2.174
10832SOL     OW33394   6.939   2.098   0.779
10832SOL    HW133395   0.020   2.077   0.792
10832SOL    HW233396   6.894   2.104   0.868
10833SOL     OW33397   1.480   1.028   4.230
10833SOL    HW133398   1.398   0.975   4.208
10833SOL    HW233399   1.556   0.965   4.248
10834SOL     OW33400   0.750   2.131   6.123
10834SOL    HW133401   0.655   2.100   6.124
10834SOL    HW233402   0.808   2.063   6.167
10835SOL     OW33403   5.478   2.019   1.017
10835SOL    HW133404   5.400   1.967   1.051
10835SOL    HW233405   5.541   2.036   1.093
10836SOL     OW33406   6.063   1.303   5.256
10836SOL    HW133407   5.999   1.258   5.194
10836SOL    HW233408   6.157   1.278   5.232
10837SOL     OW33409   0.608   5.096   0.341
10837SOL    HW133410   0.555   5.035   0.281
10837SOL    HW233411   0.563   5.102   0.430
10838SOL     OW33412   5.616   6.701   4.312
10838SOL    HW133413   5.549   6.645   4.360
10838SOL    HW233414   5.576   6.733   4.225
10839SOL     OW33415   3.133   2.953   0.743
10839SOL    HW133416   3.192   2.982   0.818
10839SOL    HW233417   3.074   2.879   0.774
10840SOL     OW33418   4.209   6.181   1.783
10840SOL    HW133419   4.199   6.134   1.696
10840SOL    HW233420   4.133   6.245   1.796
10841SOL     OW33421   3.844   6.283   6.838
10841SOL    HW133422   3.859   6.232   6.753
10841SOL    HW233423   3.756   6.257   6.877
10842SOL     OW33424   6.320   3.658   0.751
10842SOL    HW133425   6.259   3.614   0.685
10842SOL    HW233426   6.281   3.649   0.843
10843SOL     OW33427   0.675   1.958   2.228
10843SOL    HW133428   0.728   2.042   2.241
10843SOL    HW233429   0.718   1.884   2.278
10844SOL     OW33430   0.303   6.645   4.104
10844SOL    HW133431   0.378   6.706   4.078
10844SOL    HW233432   0.217   6.695   4.103
10845SOL     OW33433   1.943   0.811   0.994
10845SOL    HW133434   1.975   0.740   0.931
10845SOL    HW233435   1.961   0.901   0.954
10846SOL     OW33436   4.638   2.989   0.421
10846SOL    HW133437   4.617   3.064   0.359
10846SOL    HW233438   4.552   2.950   0.455
10847SOL     OW33439   2.817   2.224   6.341
10847SOL    HW133440   2.854   2.190   6.254
10847SOL    HW233441   2.829   2.323   6.346
10848SOL     OW33442   3.351   2.052   6.520
10848SOL    HW133443   3.378   1.973   6.465
10848SOL    HW233444   3.287   2.109   6.467
10849SOL     OW33445   3.269   4.891   3.758
10849SOL    HW133446   3.362   4.862   3.780
10849SOL    HW233447   3.260   4.900   3.658
10850SOL     OW33448   4.559   6.141   6.295
10850SOL    HW133449   4.554   6.100   6.387
10850SOL    HW233450   4.624   6.088   6.240
10851SOL     OW33451   2.499   2.639   6.488
10851SOL    HW133452   2.497   2.716   6.425
10851SOL    HW233453   2.405   2.612   6.510
10852SOL     OW33454   0.340   6.942   6.106
10852SOL    HW133455   0.329   6.849   6.140
10852SOL    HW233456   0.435   6.970   6.116
10853SOL     OW33457   3.636   1.612   5.126
10853SOL    HW133458   3.563   1.649   5.068
10853SOL    HW233459   3.646   1.669   5.208
10854SOL     OW33460   6.383   0.440   5.542
10854SOL    HW133461   6.376   0.361   5.602
10854SOL    HW233462   6.449   0.422   5.469
10855SOL     OW33463   2.790   6.185   2.434
10855SOL    HW133464   2.777   6.192   2.335
10855SOL    HW233465   2.734   6.110   2.469
10856SOL     OW33466   6.047   0.905   2.033
10856SOL    HW133467   6.082   0.946   2.118
10856SOL    HW233468   6.077   0.960   1.955
10857SOL     OW33469   5.450   2.766   3.448
10857SOL    HW133470   5.522   2.792   3.512
10857SOL    HW233471   5.405   2.848   3.413
10858SOL     OW33472   1.183   2.728   6.619
10858SOL    HW133473   1.124   2.749   6.696
10858SOL    HW233474   1.218   2.813   6.580
10859SOL     OW33475   2.257   4.500   3.922
10859SOL    HW133476   2.267   4.438   3.844
10859SOL    HW233477   2.343   4.504   3.972
10860SOL     OW33478   6.538   1.032   5.642
10860SOL    HW133479   6.445   0.999   5.622
10860SOL    HW233480   6.554   1.118   5.593
10861SOL     OW33481   3.851   2.874   1.841
10861SOL    HW133482   3.922   2.803   1.832
10861SOL    HW233483   3.817   2.875   1.935
10862SOL     OW33484   2.690   1.593   6.445
10862SOL    HW133485   2.728   1.550   6.527
10862SOL    HW233486   2.631   1.669   6.473
10863SOL     OW33487   3.570   0.687   2.512
10863SOL    HW133488   3.512   0.768   2.497
10863SOL    HW233489   3.513   0.613   2.548
10864SOL     OW33490   2.982   4.739   1.232
10864SOL    HW133491   2.907   4.688   1.274
10864SOL    HW233492   2.985   4.832   1.269
10865SOL     OW33493   5.657   2.555   3.528
10865SOL    HW133494   5.602   2.476   3.556
10865SOL    HW233495   5.670   2.615   3.607
10866SOL     OW33496   6.216   3.650   1.012
10866SOL    HW133497   6.248   3.686   1.100
10866SOL    HW233498   6.116   3.643   1.014
10867SOL     OW33499   3.062   3.401   0.379
10867SOL    HW133500   3.072   3.454   0.295
10867SOL    HW233501   3.001   3.450   0.442
10868SOL     OW33502   1.610   1.715   3.194
10868SOL    HW133503   1.528   1.711   3.250
10868SOL    HW233504   1.612   1.637   3.131
10869NA      NA33505   0.580   2.529   6.189
10870NA      NA33506   4.337   4.570   5.343
10871NA      NA33507   2.327   4.276   2.352
10872NA      NA33508   4.929   4.603   3.393
10873NA      NA33509   4.193   2.270   5.197
10874NA      NA33510   3.493   4.485   1.404
10875NA      NA33511   0.908   4.558   0.433
10876NA      NA33512   4.128   4.435   1.554
10877NA      NA33513   4.981   4.677   0.870
10878NA      NA33514   3.430   0.229   5.493
10879NA      NA33515   5.953   5.468   1.014
10880NA      NA33516   1.689   0.769   6.036
10881NA      NA33517   4.935   5.003   2.205
10882NA      NA33518   3.728   3.114   0.882
   7.01609   7.01609   7.01609
