Generated by trjconv : CNT in water t= 416.00000
33518
    1C        C    1   2.845   2.770   4.749
    1C        C    2   2.898   2.720   4.869
    1C        C    3   2.845   2.771   4.988
    1C        C    4   2.850   2.776   4.259
    1C        C    5   2.903   2.730   4.382
    1C        C    6   2.843   2.768   4.504
    1C        C    7   3.012   2.641   4.629
    1C        C    8   2.895   2.721   4.626
    1C        C    9   3.075   2.601   4.749
    1C        C   10   3.008   2.630   4.869
    1C        C   11   3.180   2.489   4.977
    1C        C   12   3.059   2.559   4.979
    1C        C   13   2.849   2.773   3.770
    1C        C   14   2.896   2.723   3.894
    1C        C   15   2.847   2.776   4.015
    1C        C   16   3.018   2.649   4.139
    1C        C   17   2.902   2.730   4.136
    1C        C   18   3.081   2.617   4.262
    1C        C   19   3.019   2.650   4.384
    1C        C   20   3.206   2.554   4.503
    1C        C   21   3.077   2.612   4.507
    1C        C   22   3.276   2.534   4.625
    1C        C   23   3.209   2.553   4.748
    1C        C   24   3.411   2.481   4.863
    1C        C   25   3.270   2.503   4.866
    1C        C   26   3.487   2.472   4.981
    1C        C   27   2.847   2.768   3.281
    1C        C   28   2.903   2.724   3.402
    1C        C   29   2.855   2.773   3.525
    1C        C   30   3.020   2.645   3.651
    1C        C   31   2.905   2.727   3.649
    1C        C   32   3.079   2.611   3.775
    1C        C   33   3.014   2.645   3.896
    1C        C   34   3.209   2.558   4.017
    1C        C   35   3.078   2.610   4.017
    1C        C   36   3.278   2.537   4.138
    1C        C   37   3.210   2.560   4.259
    1C        C   38   3.412   2.503   4.381
    1C        C   39   3.274   2.530   4.382
    1C        C   40   3.484   2.502   4.503
    1C        C   41   3.414   2.504   4.625
    1C        C   42   3.630   2.480   4.743
    1C        C   43   3.488   2.480   4.743
    1C        C   44   3.705   2.486   4.863
    1C        C   45   3.626   2.482   4.978
    1C        C   46   2.834   2.753   2.792
    1C        C   47   2.894   2.714   2.914
    1C        C   48   2.844   2.766   3.036
    1C        C   49   3.018   2.644   3.162
    1C        C   50   2.902   2.725   3.158
    1C        C   51   3.081   2.608   3.283
    1C        C   52   3.019   2.643   3.405
    1C        C   53   3.210   2.554   3.527
    1C        C   54   3.080   2.610   3.528
    1C        C   55   3.274   2.530   3.651
    1C        C   56   3.207   2.552   3.773
    1C        C   57   3.414   2.504   3.893
    1C        C   58   3.275   2.530   3.895
    1C        C   59   3.487   2.500   4.014
    1C        C   60   3.417   2.508   4.136
    1C        C   61   3.625   2.492   4.260
    1C        C   62   3.484   2.495   4.260
    1C        C   63   3.698   2.503   4.380
    1C        C   64   3.626   2.505   4.501
    1C        C   65   3.836   2.537   4.621
    1C        C   66   3.699   2.499   4.622
    1C        C   67   3.904   2.563   4.742
    1C        C   68   3.838   2.531   4.863
    1C        C   69   4.049   2.590   4.979
    1C        C   70   3.922   2.529   4.975
    1C        C   71   2.827   2.734   2.307
    1C        C   72   2.882   2.690   2.430
    1C        C   73   2.830   2.747   2.548
    1C        C   74   3.010   2.634   2.675
    1C        C   75   2.889   2.706   2.670
    1C        C   76   3.075   2.600   2.796
    1C        C   77   3.013   2.637   2.917
    1C        C   78   3.207   2.551   3.035
    1C        C   79   3.077   2.607   3.039
    1C        C   80   3.276   2.531   3.157
    1C        C   81   3.210   2.552   3.280
    1C        C   82   3.410   2.492   3.402
    1C        C   83   3.273   2.524   3.404
    1C        C   84   3.480   2.491   3.524
    1C        C   85   3.413   2.504   3.648
    1C        C   86   3.625   2.501   3.769
    1C        C   87   3.484   2.499   3.770
    1C        C   88   3.696   2.511   3.891
    1C        C   89   3.628   2.504   4.014
    1C        C   90   3.833   2.543   4.136
    1C        C   91   3.695   2.510   4.138
    1C        C   92   3.900   2.570   4.257
    1C        C   93   3.834   2.543   4.379
    1C        C   94   4.025   2.636   4.499
    1C        C   95   3.903   2.565   4.500
    1C        C   96   4.086   2.677   4.620
    1C        C   97   4.029   2.630   4.740
    1C        C   98   4.192   2.764   4.861
    1C        C   99   4.097   2.656   4.862
    1C        C  100   4.212   2.843   4.975
    1C        C  101   2.822   2.726   2.069
    1C        C  102   2.988   2.585   2.190
    1C        C  103   2.878   2.677   2.188
    1C        C  104   3.061   2.573   2.311
    1C        C  105   3.002   2.617   2.432
    1C        C  106   3.200   2.539   2.547
    1C        C  107   3.071   2.596   2.553
    1C        C  108   3.269   2.517   2.668
    1C        C  109   3.205   2.545   2.791
    1C        C  110   3.411   2.495   2.914
    1C        C  111   3.274   2.527   2.913
    1C        C  112   3.482   2.488   3.036
    1C        C  113   3.413   2.497   3.159
    1C        C  114   3.625   2.493   3.279
    1C        C  115   3.483   2.486   3.281
    1C        C  116   3.692   2.507   3.402
    1C        C  117   3.621   2.499   3.524
    1C        C  118   3.830   2.542   3.646
    1C        C  119   3.693   2.506   3.645
    1C        C  120   3.896   2.571   3.768
    1C        C  121   3.833   2.545   3.892
    1C        C  122   4.024   2.638   4.013
    1C        C  123   3.900   2.569   4.014
    1C        C  124   4.088   2.671   4.135
    1C        C  125   4.027   2.632   4.256
    1C        C  126   4.191   2.769   4.375
    1C        C  127   4.085   2.675   4.377
    1C        C  128   4.241   2.823   4.496
    1C        C  129   4.193   2.769   4.617
    1C        C  130   4.326   2.933   4.740
    1C        C  131   4.244   2.816   4.740
    1C        C  132   4.354   3.005   4.859
    1C        C  133   4.282   2.964   4.971
    1C        C  134   3.172   2.465   2.083
    1C        C  135   3.038   2.506   2.081
    1C        C  136   3.261   2.474   2.190
    1C        C  137   3.195   2.523   2.305
    1C        C  138   3.404   2.481   2.429
    1C        C  139   3.265   2.506   2.426
    1C        C  140   3.478   2.475   2.549
    1C        C  141   3.407   2.486   2.671
    1C        C  142   3.622   2.483   2.790
    1C        C  143   3.480   2.485   2.791
    1C        C  144   3.693   2.492   2.911
    1C        C  145   3.624   2.484   3.034
    1C        C  146   3.831   2.533   3.155
    1C        C  147   3.695   2.495   3.156
    1C        C  148   3.896   2.557   3.278
    1C        C  149   3.829   2.540   3.401
    1C        C  150   4.023   2.626   3.523
    1C        C  151   3.897   2.562   3.523
    1C        C  152   4.081   2.669   3.644
    1C        C  153   4.023   2.633   3.768
    1C        C  154   4.190   2.764   3.890
    1C        C  155   4.083   2.671   3.890
    1C        C  156   4.243   2.815   4.010
    1C        C  157   4.196   2.762   4.132
    1C        C  158   4.333   2.927   4.252
    1C        C  159   4.245   2.816   4.253
    1C        C  160   4.373   2.987   4.374
    1C        C  161   4.328   2.934   4.497
    1C        C  162   4.437   3.116   4.615
    1C        C  163   4.366   2.994   4.619
    1C        C  164   4.467   3.184   4.735
    1C        C  165   4.432   3.123   4.857
    1C        C  166   4.509   3.323   4.975
    1C        C  167   4.474   3.189   4.974
    1C        C  168   3.476   2.431   2.073
    1C        C  169   3.401   2.454   2.189
    1C        C  170   3.617   2.464   2.306
    1C        C  171   3.475   2.462   2.308
    1C        C  172   3.690   2.484   2.426
    1C        C  173   3.619   2.485   2.548
    1C        C  174   3.828   2.536   2.666
    1C        C  175   3.692   2.496   2.668
    1C        C  176   3.895   2.558   2.789
    1C        C  177   3.830   2.528   2.911
    1C        C  178   4.022   2.621   3.032
    1C        C  179   3.895   2.559   3.032
    1C        C  180   4.080   2.661   3.154
    1C        C  181   4.021   2.624   3.277
    1C        C  182   4.190   2.752   3.400
    1C        C  183   4.081   2.661   3.399
    1C        C  184   4.240   2.807   3.521
    1C        C  185   4.188   2.760   3.644
    1C        C  186   4.334   2.915   3.764
    1C        C  187   4.239   2.810   3.766
    1C        C  188   4.372   2.979   3.884
    1C        C  189   4.330   2.926   4.009
    1C        C  190   4.444   3.107   4.128
    1C        C  191   4.374   2.984   4.130
    1C        C  192   4.471   3.173   4.249
    1C        C  193   4.441   3.111   4.373
    1C        C  194   4.509   3.315   4.491
    1C        C  195   4.468   3.180   4.493
    1C        C  196   4.520   3.387   4.613
    1C        C  197   4.509   3.319   4.736
    1C        C  198   4.552   3.535   4.850
    1C        C  199   4.526   3.394   4.856
    1C        C  200   4.574   3.618   4.964
    1C        C  201   3.615   2.415   2.073
    1C        C  202   3.825   2.511   2.182
    1C        C  203   3.691   2.462   2.185
    1C        C  204   3.896   2.543   2.301
    1C        C  205   3.826   2.523   2.422
    1C        C  206   4.016   2.622   2.543
    1C        C  207   3.893   2.553   2.542
    1C        C  208   4.076   2.663   2.664
    1C        C  209   4.020   2.623   2.788
    1C        C  210   4.192   2.748   2.909
    1C        C  211   4.083   2.657   2.910
    1C        C  212   4.241   2.799   3.031
    1C        C  213   4.188   2.752   3.153
    1C        C  214   4.326   2.911   3.274
    1C        C  215   4.237   2.801   3.277
    1C        C  216   4.363   2.975   3.395
    1C        C  217   4.324   2.920   3.519
    1C        C  218   4.435   3.100   3.641
    1C        C  219   4.369   2.975   3.641
    1C        C  220   4.462   3.172   3.759
    1C        C  221   4.436   3.105   3.881
    1C        C  222   4.501   3.306   4.001
    1C        C  223   4.467   3.169   4.003
    1C        C  224   4.522   3.378   4.121
    1C        C  225   4.506   3.310   4.244
    1C        C  226   4.522   3.521   4.368
    1C        C  227   4.516   3.380   4.366
    1C        C  228   4.518   3.598   4.486
    1C        C  229   4.525   3.528   4.608
    1C        C  230   4.508   3.744   4.724
    1C        C  231   4.537   3.604   4.727
    1C        C  232   4.500   3.818   4.844
    1C        C  233   4.546   3.755   4.960
    1C        C  234   4.016   2.610   2.062
    1C        C  235   3.898   2.537   2.065
    1C        C  236   4.084   2.647   2.179
    1C        C  237   4.021   2.610   2.300
    1C        C  238   4.195   2.736   2.422
    1C        C  239   4.082   2.649   2.421
    1C        C  240   4.249   2.788   2.542
    1C        C  241   4.190   2.746   2.664
    1C        C  242   4.333   2.902   2.786
    1C        C  243   4.244   2.792   2.786
    1C        C  244   4.369   2.964   2.908
    1C        C  245   4.329   2.910   3.032
    1C        C  246   4.430   3.097   3.148
    1C        C  247   4.365   2.972   3.153
    1C        C  248   4.453   3.163   3.271
    1C        C  249   4.425   3.102   3.395
    1C        C  250   4.493   3.302   3.513
    1C        C  251   4.455   3.166   3.518
    1C        C  252   4.505   3.375   3.633
    1C        C  253   4.498   3.308   3.758
    1C        C  254   4.521   3.520   3.879
    1C        C  255   4.508   3.379   3.880
    1C        C  256   4.526   3.593   4.000
    1C        C  257   4.525   3.519   4.120
    1C        C  258   4.496   3.728   4.241
    1C        C  259   4.520   3.588   4.243
    1C        C  260   4.480   3.805   4.358
    1C        C  261   4.492   3.737   4.481
    1C        C  262   4.430   3.941   4.603
    1C        C  263   4.474   3.806   4.603
    1C        C  264   4.399   4.007   4.724
    1C        C  265   4.439   3.945   4.844
    1C        C  266   4.326   4.132   4.956
    1C        C  267   4.399   4.014   4.960
    1C        C  268   4.262   2.776   2.063
    1C        C  269   4.195   2.734   2.179
    1C        C  270   4.341   2.892   2.300
    1C        C  271   4.248   2.784   2.300
    1C        C  272   4.377   2.957   2.420
    1C        C  273   4.339   2.897   2.542
    1C        C  274   4.440   3.084   2.664
    1C        C  275   4.375   2.959   2.664
    1C        C  276   4.470   3.152   2.784
    1C        C  277   4.439   3.087   2.906
    1C        C  278   4.506   3.294   3.026
    1C        C  279   4.466   3.158   3.026
    1C        C  280   4.512   3.367   3.146
    1C        C  281   4.489   3.300   3.269
    1C        C  282   4.514   3.511   3.390
    1C        C  283   4.505   3.370   3.390
    1C        C  284   4.512   3.585   3.510
    1C        C  285   4.515   3.516   3.634
    1C        C  286   4.500   3.729   3.752
    1C        C  287   4.514   3.588   3.756
    1C        C  288   4.481   3.798   3.874
    1C        C  289   4.500   3.731   3.997
    1C        C  290   4.427   3.930   4.118
    1C        C  291   4.480   3.799   4.120
    1C        C  292   4.399   3.999   4.238
    1C        C  293   4.429   3.937   4.361
    1C        C  294   4.328   4.128   4.478
    1C        C  295   4.400   4.006   4.481
    1C        C  296   4.287   4.188   4.598
    1C        C  297   4.327   4.130   4.720
    1C        C  298   4.200   4.312   4.838
    1C        C  299   4.283   4.195   4.839
    1C        C  300   4.168   4.398   4.948
    1C        C  301   4.351   2.883   2.064
    1C        C  302   4.469   3.070   2.179
    1C        C  303   4.394   2.948   2.181
    1C        C  304   4.484   3.144   2.299
    1C        C  305   4.446   3.080   2.419
    1C        C  306   4.508   3.283   2.538
    1C        C  307   4.471   3.147   2.541
    1C        C  308   4.518   3.357   2.658
    1C        C  309   4.507   3.288   2.781
    1C        C  310   4.525   3.501   2.900
    1C        C  311   4.520   3.360   2.902
    1C        C  312   4.521   3.576   3.020
    1C        C  313   4.519   3.508   3.144
    1C        C  314   4.497   3.719   3.265
    1C        C  315   4.518   3.579   3.266
    1C        C  316   4.478   3.792   3.385
    1C        C  317   4.489   3.724   3.508
    1C        C  318   4.430   3.928   3.627
    1C        C  319   4.478   3.795   3.630
    1C        C  320   4.397   3.992   3.748
    1C        C  321   4.429   3.930   3.871
    1C        C  322   4.320   4.111   3.990
    1C        C  323   4.397   3.992   3.994
    1C        C  324   4.278   4.169   4.111
    1C        C  325   4.324   4.118   4.234
    1C        C  326   4.183   4.281   4.350
    1C        C  327   4.281   4.179   4.355
    1C        C  328   4.134   4.333   4.472
    1C        C  329   4.193   4.294   4.595
    1C        C  330   4.026   4.433   4.712
    1C        C  331   4.139   4.347   4.714
    1C        C  332   3.969   4.489   4.829
    1C        C  333   4.051   4.475   4.941
    1C        C  334   4.554   3.270   2.063
    1C        C  335   4.534   3.132   2.067
    1C        C  336   4.543   3.352   2.176
    1C        C  337   4.518   3.282   2.296
    1C        C  338   4.529   3.495   2.416
    1C        C  339   4.529   3.353   2.418
    1C        C  340   4.517   3.571   2.534
    1C        C  341   4.518   3.498   2.655
    1C        C  342   4.497   3.709   2.774
    1C        C  343   4.514   3.569   2.777
    1C        C  344   4.479   3.779   2.895
    1C        C  345   4.503   3.716   3.019
    1C        C  346   4.429   3.915   3.137
    1C        C  347   4.482   3.785   3.141
    1C        C  348   4.392   3.981   3.257
    1C        C  349   4.425   3.923   3.381
    1C        C  350   4.322   4.108   3.502
    1C        C  351   4.400   3.990   3.503
    1C        C  352   4.277   4.165   3.623
    1C        C  353   4.319   4.109   3.746
    1C        C  354   4.174   4.266   3.865
    1C        C  355   4.273   4.165   3.868
    1C        C  356   4.123   4.315   3.987
    1C        C  357   4.179   4.271   4.109
    1C        C  358   4.009   4.402   4.228
    1C        C  359   4.128   4.325   4.228
    1C        C  360   3.953   4.447   4.350
    1C        C  361   4.019   4.414   4.470
    1C        C  362   3.829   4.513   4.592
    1C        C  363   3.961   4.462   4.590
    1C        C  364   3.761   4.546   4.711
    1C        C  365   3.839   4.543   4.829
    1C        C  366   3.626   4.584   4.948
    1C        C  367   3.765   4.575   4.944
    1C        C  368   4.515   3.564   2.054
    1C        C  369   4.528   3.492   2.173
    1C        C  370   4.515   3.706   2.288
    1C        C  371   4.526   3.566   2.294
    1C        C  372   4.488   3.779   2.406
    1C        C  373   4.501   3.712   2.529
    1C        C  374   4.431   3.910   2.649
    1C        C  375   4.489   3.781   2.652
    1C        C  376   4.394   3.973   2.769
    1C        C  377   4.424   3.909   2.891
    1C        C  378   4.319   4.093   3.010
    1C        C  379   4.396   3.975   3.013
    1C        C  380   4.272   4.148   3.131
    1C        C  381   4.317   4.101   3.257
    1C        C  382   4.178   4.261   3.379
    1C        C  383   4.277   4.159   3.379
    1C        C  384   4.119   4.306   3.499
    1C        C  385   4.174   4.263   3.621
    1C        C  386   4.003   4.388   3.741
    1C        C  387   4.122   4.313   3.742
    1C        C  388   3.941   4.425   3.863
    1C        C  389   4.004   4.391   3.985
    1C        C  390   3.812   4.483   4.107
    1C        C  391   3.940   4.425   4.107
    1C        C  392   3.749   4.517   4.229
    1C        C  393   3.823   4.502   4.349
    1C        C  394   3.617   4.550   4.473
    1C        C  395   3.757   4.528   4.471
    1C        C  396   3.546   4.561   4.594
    1C        C  397   3.621   4.557   4.714
    1C        C  398   3.407   4.551   4.837
    1C        C  399   3.547   4.572   4.833
    1C        C  400   3.340   4.516   4.955
    1C        C  401   4.509   3.703   2.053
    1C        C  402   4.457   3.916   2.164
    1C        C  403   4.499   3.781   2.169
    1C        C  404   4.411   3.976   2.283
    1C        C  405   4.439   3.911   2.405
    1C        C  406   4.325   4.092   2.524
    1C        C  407   4.404   3.974   2.526
    1C        C  408   4.278   4.149   2.644
    1C        C  409   4.317   4.092   2.768
    1C        C  410   4.172   4.249   2.887
    1C        C  411   4.272   4.149   2.889
    1C        C  412   4.118   4.293   3.010
    1C        C  413   4.172   4.248   3.132
    1C        C  414   4.004   4.374   3.253
    1C        C  415   4.123   4.299   3.254
    1C        C  416   3.940   4.408   3.374
    1C        C  417   3.999   4.380   3.500
    1C        C  418   3.806   4.473   3.619
    1C        C  419   3.937   4.421   3.621
    1C        C  420   3.741   4.499   3.742
    1C        C  421   3.812   4.482   3.863
    1C        C  422   3.608   4.538   3.986
    1C        C  423   3.746   4.510   3.985
    1C        C  424   3.538   4.539   4.109
    1C        C  425   3.609   4.540   4.231
    1C        C  426   3.400   4.558   4.355
    1C        C  427   3.541   4.558   4.354
    1C        C  428   3.330   4.555   4.478
    1C        C  429   3.405   4.555   4.598
    1C        C  430   3.192   4.517   4.722
    1C        C  431   3.332   4.546   4.718
    1C        C  432   3.126   4.496   4.846
    1C        C  433   3.203   4.495   4.963
    1C        C  434   4.379   4.120   2.048
    1C        C  435   4.449   4.000   2.052
    1C        C  436   4.300   4.162   2.161
    1C        C  437   4.333   4.095   2.282
    1C        C  438   4.177   4.242   2.400
    1C        C  439   4.283   4.149   2.402
    1C        C  440   4.124   4.294   2.520
    1C        C  441   4.178   4.248   2.642
    1C        C  442   4.005   4.375   2.763
    1C        C  443   4.122   4.295   2.763
    1C        C  444   3.943   4.409   2.885
    1C        C  445   4.001   4.373   3.009
    1C        C  446   3.810   4.463   3.131
    1C        C  447   3.939   4.405   3.131
    1C        C  448   3.745   4.493   3.253
    1C        C  449   3.813   4.469   3.375
    1C        C  450   3.605   4.526   3.496
    1C        C  451   3.743   4.496   3.494
    1C        C  452   3.536   4.540   3.619
    1C        C  453   3.605   4.535   3.743
    1C        C  454   3.394   4.547   3.865
    1C        C  455   3.535   4.547   3.865
    1C        C  456   3.326   4.533   3.988
    1C        C  457   3.397   4.541   4.109
    1C        C  458   3.193   4.506   4.237
    1C        C  459   3.331   4.535   4.234
    1C        C  460   3.126   4.486   4.360
    1C        C  461   3.194   4.515   4.480
    1C        C  462   2.994   4.438   4.604
    1C        C  463   3.124   4.493   4.601
    1C        C  464   2.932   4.401   4.726
    1C        C  465   2.993   4.444   4.847
    1C        C  466   2.801   4.338   4.960
    1C        C  467   2.906   4.431   4.960
    1C        C  468   4.121   4.283   2.041
    1C        C  469   4.182   4.243   2.160
    1C        C  470   4.004   4.371   2.279
    1C        C  471   4.120   4.289   2.279
    1C        C  472   3.938   4.403   2.400
    1C        C  473   4.005   4.370   2.520
    1C        C  474   3.809   4.457   2.644
    1C        C  475   3.941   4.406   2.641
    1C        C  476   3.744   4.486   2.766
    1C        C  477   3.813   4.465   2.888
    1C        C  478   3.605   4.518   3.009
    1C        C  479   3.743   4.485   3.009
    1C        C  480   3.533   4.532   3.130
    1C        C  481   3.606   4.519   3.250
    1C        C  482   3.396   4.533   3.376
    1C        C  483   3.537   4.535   3.373
    1C        C  484   3.325   4.528   3.498
    1C        C  485   3.395   4.537   3.620
    1C        C  486   3.186   4.503   3.744
    1C        C  487   3.324   4.531   3.742
    1C        C  488   3.122   4.485   3.869
    1C        C  489   3.188   4.502   3.993
    1C        C  490   2.996   4.421   4.114
    1C        C  491   3.123   4.483   4.117
    1C        C  492   2.939   4.388   4.239
    1C        C  493   2.998   4.427   4.362
    1C        C  494   2.830   4.298   4.484
    1C        C  495   2.935   4.393   4.484
    1C        C  496   2.776   4.253   4.607
    1C        C  497   2.822   4.311   4.727
    1C        C  498   2.667   4.161   4.843
    1C        C  499   2.757   4.270   4.845
    1C        C  500   2.597   4.116   4.955
    1C        C  501   4.003   4.358   2.039
    1C        C  502   3.811   4.457   2.157
    1C        C  503   3.939   4.399   2.157
    1C        C  504   3.741   4.480   2.278
    1C        C  505   3.807   4.455   2.400
    1C        C  506   3.603   4.511   2.521
    1C        C  507   3.741   4.480   2.523
    1C        C  508   3.533   4.517   2.643
    1C        C  509   3.605   4.511   2.765
    1C        C  510   3.393   4.523   2.886
    1C        C  511   3.534   4.516   2.887
    1C        C  512   3.321   4.522   3.007
    1C        C  513   3.392   4.529   3.130
    1C        C  514   3.186   4.502   3.254
    1C        C  515   3.325   4.529   3.254
    1C        C  516   3.119   4.475   3.375
    1C        C  517   3.187   4.497   3.497
    1C        C  518   2.996   4.416   3.623
    1C        C  519   3.121   4.482   3.621
    1C        C  520   2.940   4.376   3.747
    1C        C  521   2.998   4.416   3.869
    1C        C  522   2.832   4.288   3.995
    1C        C  523   2.939   4.379   3.992
    1C        C  524   2.786   4.237   4.119
    1C        C  525   2.835   4.293   4.239
    1C        C  526   2.702   4.130   4.362
    1C        C  527   2.782   4.246   4.362
    1C        C  528   2.656   4.076   4.484
    1C        C  529   2.691   4.141   4.605
    1C        C  530   2.587   3.955   4.727
    1C        C  531   2.639   4.088   4.725
    1C        C  532   2.540   3.901   4.850
    1C        C  533   2.525   3.996   4.955
    1C        C  534   3.615   4.554   2.038
    1C        C  535   3.748   4.509   2.043
    1C        C  536   3.536   4.537   2.155
    1C        C  537   3.604   4.516   2.279
    1C        C  538   3.390   4.525   2.401
    1C        C  539   3.531   4.524   2.400
    1C        C  540   3.319   4.514   2.523
    1C        C  541   3.392   4.516   2.644
    1C        C  542   3.181   4.491   2.765
    1C        C  543   3.320   4.519   2.765
    1C        C  544   3.115   4.469   2.887
    1C        C  545   3.184   4.489   3.009
    1C        C  546   2.994   4.407   3.132
    1C        C  547   3.119   4.473   3.134
    1C        C  548   2.939   4.367   3.255
    1C        C  549   2.992   4.413   3.378
    1C        C  550   2.826   4.285   3.505
    1C        C  551   2.934   4.377   3.502
    1C        C  552   2.779   4.234   3.628
    1C        C  553   2.835   4.281   3.749
    1C        C  554   2.702   4.120   3.873
    1C        C  555   2.787   4.233   3.873
    1C        C  556   2.665   4.060   3.996
    1C        C  557   2.703   4.123   4.116
    1C        C  558   2.607   3.940   4.244
    1C        C  559   2.663   4.069   4.241
    1C        C  560   2.578   3.875   4.367
    1C        C  561   2.593   3.950   4.486
    1C        C  562   2.534   3.746   4.614
    1C        C  563   2.563   3.884   4.608
    1C        C  564   2.512   3.679   4.737
    1C        C  565   2.516   3.760   4.854
    1C        C  566   2.503   3.547   4.979
    1C        C  567   2.526   3.684   4.971
    1C        C  568   3.326   4.468   2.046
    1C        C  569   3.395   4.517   2.158
    1C        C  570   3.183   4.480   2.280
    1C        C  571   3.320   4.517   2.279
    1C        C  572   3.115   4.456   2.402
    1C        C  573   3.181   4.482   2.524
    1C        C  574   2.985   4.402   2.643
    1C        C  575   3.110   4.468   2.645
    1C        C  576   2.928   4.365   2.767
    1C        C  577   2.990   4.403   2.888
    1C        C  578   2.825   4.275   3.017
    1C        C  579   2.931   4.369   3.011
    1C        C  580   2.778   4.225   3.140
    1C        C  581   2.832   4.274   3.261
    1C        C  582   2.697   4.114   3.383
    1C        C  583   2.781   4.228   3.384
    1C        C  584   2.669   4.054   3.507
    1C        C  585   2.700   4.117   3.629
    1C        C  586   2.602   3.931   3.752
    1C        C  587   2.664   4.057   3.752
    1C        C  588   2.577   3.868   3.876
    1C        C  589   2.609   3.930   3.999
    1C        C  590   2.534   3.738   4.129
    1C        C  591   2.575   3.874   4.124
    1C        C  592   2.521   3.670   4.252
    1C        C  593   2.538   3.740   4.373
    1C        C  594   2.502   3.531   4.499
    1C        C  595   2.518   3.672   4.495
    1C        C  596   2.514   3.463   4.622
    1C        C  597   2.515   3.537   4.742
    1C        C  598   2.525   3.326   4.864
    1C        C  599   2.515   3.467   4.865
    1C        C  600   2.523   3.244   4.978
    1C        C  601   3.192   4.435   2.044
    1C        C  602   2.982   4.391   2.157
    1C        C  603   3.115   4.443   2.161
    1C        C  604   2.925   4.353   2.282
    1C        C  605   2.985   4.399   2.401
    1C        C  606   2.817   4.270   2.528
    1C        C  607   2.923   4.363   2.522
    1C        C  608   2.767   4.221   2.651
    1C        C  609   2.819   4.275   2.771
    1C        C  610   2.689   4.112   2.897
    1C        C  611   2.773   4.225   2.895
    1C        C  612   2.653   4.053   3.020
    1C        C  613   2.693   4.112   3.142
    1C        C  614   2.596   3.923   3.266
    1C        C  615   2.654   4.052   3.263
    1C        C  616   2.575   3.859   3.390
    1C        C  617   2.608   3.926   3.510
    1C        C  618   2.533   3.727   3.639
    1C        C  619   2.574   3.862   3.631
    1C        C  620   2.514   3.661   3.763
    1C        C  621   2.532   3.734   3.882
    1C        C  622   2.507   3.528   4.010
    1C        C  623   2.523   3.668   4.007
    1C        C  624   2.510   3.457   4.133
    1C        C  625   2.509   3.529   4.254
    1C        C  626   2.542   3.322   4.381
    1C        C  627   2.509   3.460   4.377
    1C        C  628   2.555   3.253   4.503
    1C        C  629   2.534   3.324   4.624
    1C        C  630   2.593   3.118   4.742
    1C        C  631   2.548   3.253   4.745
    1C        C  632   2.616   3.050   4.865
    1C        C  633   2.558   3.108   4.982
    1C        C  634   2.779   4.304   2.057
    1C        C  635   2.889   4.391   2.048
    1C        C  636   2.744   4.227   2.168
    1C        C  637   2.807   4.274   2.285
    1C        C  638   2.677   4.107   2.410
    1C        C  639   2.761   4.220   2.408
    1C        C  640   2.640   4.048   2.533
    1C        C  641   2.678   4.112   2.653
    1C        C  642   2.587   3.922   2.777
    1C        C  643   2.648   4.050   2.777
    1C        C  644   2.567   3.858   2.901
    1C        C  645   2.592   3.925   3.022
    1C        C  646   2.527   3.723   3.147
    1C        C  647   2.567   3.858   3.144
    1C        C  648   2.512   3.657   3.271
    1C        C  649   2.528   3.725   3.394
    1C        C  650   2.511   3.516   3.521
    1C        C  651   2.520   3.657   3.517
    1C        C  652   2.510   3.448   3.644
    1C        C  653   2.506   3.520   3.766
    1C        C  654   2.531   3.315   3.890
    1C        C  655   2.505   3.453   3.890
    1C        C  656   2.552   3.249   4.014
    1C        C  657   2.536   3.318   4.136
    1C        C  658   2.604   3.119   4.259
    1C        C  659   2.553   3.251   4.259
    1C        C  660   2.633   3.055   4.382
    1C        C  661   2.599   3.118   4.503
    1C        C  662   2.712   2.936   4.626
    1C        C  663   2.630   3.051   4.624
    1C        C  664   2.751   2.877   4.748
    1C        C  665   2.697   2.932   4.868
    1C        C  666   2.747   2.869   4.983
    1C        C  667   2.680   4.022   2.055
    1C        C  668   2.678   4.102   2.170
    1C        C  669   2.587   3.910   2.290
    1C        C  670   2.638   4.042   2.291
    1C        C  671   2.564   3.845   2.414
    1C        C  672   2.584   3.918   2.533
    1C        C  673   2.521   3.719   2.660
    1C        C  674   2.552   3.856   2.657
    1C        C  675   2.510   3.649   2.783
    1C        C  676   2.528   3.722   2.902
    1C        C  677   2.503   3.512   3.031
    1C        C  678   2.515   3.652   3.025
    1C        C  679   2.505   3.442   3.154
    1C        C  680   2.508   3.516   3.275
    1C        C  681   2.530   3.306   3.401
    1C        C  682   2.511   3.446   3.398
    1C        C  683   2.548   3.237   3.523
    1C        C  684   2.534   3.309   3.644
    1C        C  685   2.599   3.112   3.770
    1C        C  686   2.551   3.245   3.769
    1C        C  687   2.633   3.051   3.893
    1C        C  688   2.601   3.117   4.014
    1C        C  689   2.709   2.936   4.141
    1C        C  690   2.629   3.052   4.137
    1C        C  691   2.755   2.881   4.262
    1C        C  692   2.710   2.937   4.384
    1C        C  693   2.754   2.878   4.505
    1C        C  694   2.630   3.891   2.056
    1C        C  695   2.523   3.702   2.175
    1C        C  696   2.577   3.833   2.172
    1C        C  697   2.509   3.638   2.300
    1C        C  698   2.524   3.710   2.420
    1C        C  699   2.491   3.501   2.542
    1C        C  700   2.507   3.642   2.542
    1C        C  701   2.498   3.433   2.665
    1C        C  702   2.502   3.508   2.785
    1C        C  703   2.520   3.300   2.909
    1C        C  704   2.505   3.441   2.909
    1C        C  705   2.542   3.233   3.031
    1C        C  706   2.527   3.303   3.153
    1C        C  707   2.593   3.106   3.279
    1C        C  708   2.544   3.238   3.278
    1C        C  709   2.625   3.043   3.402
    1C        C  710   2.598   3.105   3.526
    1C        C  711   2.710   2.929   3.647
    1C        C  712   2.630   3.046   3.650
    1C        C  713   2.761   2.884   3.771
    1C        C  714   2.714   2.935   3.893
    1C        C  715   2.754   2.882   4.018
    1C        C  716   2.453   3.495   2.060
    1C        C  717   2.490   3.630   2.059
    1C        C  718   2.465   3.422   2.182
    1C        C  719   2.480   3.498   2.302
    1C        C  720   2.504   3.286   2.425
    1C        C  721   2.482   3.426   2.423
    1C        C  722   2.534   3.220   2.546
    1C        C  723   2.524   3.294   2.665
    1C        C  724   2.584   3.094   2.791
    1C        C  725   2.536   3.227   2.789
    1C        C  726   2.619   3.032   2.913
    1C        C  727   2.590   3.100   3.033
    1C        C  728   2.704   2.925   3.160
    1C        C  729   2.625   3.042   3.157
    1C        C  730   2.749   2.870   3.283
    1C        C  731   2.709   2.929   3.404
    1C        C  732   2.759   2.877   3.526
    1C        C  733   2.491   3.199   2.072
    1C        C  734   2.491   3.281   2.185
    1C        C  735   2.581   3.084   2.303
    1C        C  736   2.519   3.212   2.306
    1C        C  737   2.613   3.022   2.426
    1C        C  738   2.586   3.089   2.548
    1C        C  739   2.691   2.908   2.670
    1C        C  740   2.613   3.026   2.671
    1C        C  741   2.737   2.855   2.793
    1C        C  742   2.698   2.914   2.915
    1C        C  743   2.744   2.865   3.039
    1C        C  744   2.549   3.073   2.072
    1C        C  745   2.687   2.895   2.185
    1C        C  746   2.611   3.014   2.184
    1C        C  747   2.731   2.840   2.307
    1C        C  748   2.683   2.900   2.426
    1C        C  749   2.733   2.850   2.548
    1C        C  750   2.733   2.832   2.069
    1C        C  751   3.654   2.337   1.953
    1C        O  752   3.712   2.226   1.964
    1C        O  753   3.652   2.400   1.828
    1C        C  754   4.638   3.062   1.990
    1C        O  755   4.621   3.031   1.869
    1C        O  756   4.773   3.048   2.026
    1C        C  757   4.425   4.218   1.947
    1C        O  758   4.501   4.314   1.974
    1C        O  759   4.427   4.186   1.810
    1C        C  760   3.572   4.650   1.934
    1C        O  761   3.623   4.765   1.937
    1C        O  762   3.506   4.631   1.812
    1C        C  763   2.876   4.474   1.927
    1C        O  764   2.928   4.434   1.819
    1C        O  765   2.822   4.603   1.922
    1C        C  766   2.344   3.470   1.963
    1C        O  767   2.359   3.473   1.838
    1C        O  768   2.206   3.455   1.983
    1C        C  769   4.666   3.585   5.076
    1C        O  770   4.628   3.562   5.194
    1C        O  771   4.805   3.596   5.063
    1C        C  772   4.283   4.475   5.001
    1C        O  773   4.334   4.426   5.105
    1C        O  774   4.380   4.533   4.918
    1C        C  775   4.140   2.523   5.075
    1C        O  776   4.182   2.407   5.049
    1C        O  777   4.143   2.562   5.209
    1C        C  778   2.881   4.548   5.048
    1C        O  779   2.804   4.642   5.016
    1C        O  780   2.874   4.537   5.187
    1C        C  781   2.458   3.022   5.048
    1C        O  782   2.342   3.024   4.999
    1C        O  783   2.485   2.976   5.177
    1C        C  784   2.396   4.010   5.027
    1C        O  785   2.293   4.060   4.975
    1C        O  786   2.385   3.994   5.166
    1C        C  787   2.965   2.436   1.973
    1C        O  788   2.943   2.497   1.865
    1C        O  789   2.924   2.303   1.976
    1C        C  790   3.174   2.368   5.062
    1C        O  791   3.145   2.254   5.015
    1C        O  792   3.208   2.365   5.198
    1C        H  793   4.243   3.036   5.040
    1C        H  794   4.139   2.838   5.053
    1C        H  795   4.484   3.132   5.064
    1C        H  796   4.580   3.348   5.051
    1C        H  797   4.608   3.817   5.022
    1C        H  798   4.453   4.002   5.051
    1C        H  799   4.338   4.197   5.041
    1C        H  800   4.033   4.532   5.030
    1C        H  801   3.811   4.556   5.038
    1C        H  802   3.583   4.578   5.046
    1C        H  803   3.404   4.450   5.009
    1C        H  804   3.152   4.502   5.057
    1C        H  805   3.904   2.451   5.046
    1C        H  806   3.675   2.459   5.070
    1C        H  807   3.004   2.561   5.071
    1C        H  808   3.441   2.447   5.074
    1C        H  809   2.849   2.706   5.074
    1C        H  810   2.722   2.915   5.076
    1C        H  811   2.439   3.268   5.039
    1C        H  812   2.461   3.504   5.068
    1C        H  813   2.503   3.737   5.061
    1C        H  814   2.613   4.167   5.048
    1C        H  815   2.725   4.348   5.034
    1C        H  816   2.724   2.886   1.977
    1C        H  817   2.857   2.692   1.973
    1C        H  818   3.201   2.390   2.013
    1C        H  819   3.435   2.467   1.981
    1C        H  820   3.842   2.520   1.975
    1C        H  821   4.021   2.682   1.983
    1C        H  822   4.249   2.727   1.969
    1C        H  823   4.416   2.893   1.980
    1C        H  824   4.605   3.306   1.976
    1C        H  825   4.470   3.512   1.972
    1C        H  826   4.444   3.737   1.976
    1C        H  827   3.815   4.539   1.965
    1C        H  828   3.996   4.423   1.954
    1C        H  829   4.154   4.242   1.948
    1C        H  830   4.515   3.978   1.970
    1C        H  831   2.661   3.825   1.977
    1C        H  832   2.737   4.050   1.969
    1C        H  833   2.730   4.284   1.964
    1C        H  834   3.376   4.470   1.952
    1C        H  835   3.142   4.469   1.955
    1C        H  836   2.542   3.019   1.980
    1C        H  837   2.403   3.216   2.013
    1C        H  838   2.502   3.676   1.963
    2V3OU   H29  839   2.801   3.541   4.891
    2V3OU   C27  840   2.783   3.503   4.995
    2V3OU   H27  841   2.728   3.568   5.067
    2V3OU   H28  842   2.733   3.403   5.006
    2V3OU   O11  843   2.910   3.478   5.058
    2V3OU   C15  844   2.920   3.396   5.169
    2V3OU   C13  845   3.052   3.378   5.213
    2V3OU   C14  846   3.076   3.268   5.296
    2V3OU   C16  847   2.972   3.183   5.332
    2V3OU    H6  848   2.990   3.098   5.399
    2V3OU   C12  849   3.220   3.235   5.313
    2V3OU    O2  850   3.247   3.126   5.369
    2V3OU   C10  851   3.327   3.308   5.246
    2V3OU    C8  852   3.459   3.266   5.243
    2V3OU   O10  853   3.488   3.145   5.299
    2V3OU   H26  854   3.398   3.112   5.315
    2V3OU    C6  855   3.563   3.348   5.188
    2V3OU    C5  856   3.534   3.463   5.116
    2V3OU    C4  857   3.700   3.290   5.185
    2V3OU    H4  858   3.722   3.220   5.271
    2V3OU    H5  859   3.706   3.226   5.092
    2V3OU    C2  860   3.813   3.393   5.179
    2V3OU    O6  861   3.800   3.479   5.293
    2V3OU   H21  862   3.755   3.555   5.252
    2V3OU    C3  863   3.782   3.493   5.068
    2V3OU    H2  864   3.861   3.572   5.068
    2V3OU    H3  865   3.784   3.440   4.969
    2V3OU   C25  866   3.948   3.323   5.164
    2V3OU    O7  867   3.998   3.299   5.054
    2V3OU   C26  868   4.027   3.286   5.288
    2V3OU   H22  869   4.068   3.381   5.331
    2V3OU   H23  870   4.118   3.226   5.260
    2V3OU    O8  871   3.955   3.214   5.386
    2V3OU   H24  872   3.933   3.267   5.464
    2V3OU    C1  873   3.647   3.559   5.089
    2V3OU    H1  874   3.622   3.617   4.995
    2V3OU    O3  875   3.657   3.653   5.197
    2V3OU   C19  876   3.617   3.788   5.173
    2V3OU    H9  877   3.521   3.795   5.115
    2V3OU    O4  878   3.718   3.845   5.092
    2V3OU   C20  879   3.848   3.871   5.145
    2V3OU   H10  880   3.892   3.769   5.164
    2V3OU   C24  881   3.609   3.854   5.310
    2V3OU   H16  882   3.540   3.795   5.375
    2V3OU   H17  883   3.567   3.958   5.300
    2V3OU   C23  884   3.748   3.875   5.372
    2V3OU   H15  885   3.786   3.770   5.393
    2V3OU    N1  886   3.737   3.951   5.495
    2V3OU   H19  887   3.812   3.928   5.557
    2V3OU   H20  888   3.651   3.926   5.540
    2V3OU   C21  889   3.850   3.946   5.278
    2V3OU   H11  890   3.953   3.932   5.321
    2V3OU    O5  891   3.823   4.086   5.279
    2V3OU   H18  892   3.775   4.102   5.363
    2V3OU   C22  893   3.916   3.951   5.035
    2V3OU   H12  894   3.865   4.046   5.009
    2V3OU   H13  895   3.906   3.895   4.938
    2V3OU   H14  896   4.027   3.958   5.053
    2V3OU   C11  897   3.161   3.471   5.179
    2V3OU    O1  898   3.132   3.587   5.141
    2V3OU    C9  899   3.302   3.426   5.170
    2V3OU    C7  900   3.397   3.502   5.103
    2V3OU    O9  901   3.382   3.620   5.033
    2V3OU   H25  902   3.287   3.634   5.017
    2V3OU   C17  903   2.812   3.315   5.210
    2V3OU    H7  904   2.709   3.344   5.188
    2V3OU   C18  905   2.841   3.207   5.293
    2V3OU    H8  906   2.761   3.144   5.333
    3SOL     OW  907   3.944   4.016   4.597
    3SOL    HW1  908   4.003   4.094   4.619
    3SOL    HW2  909   3.983   3.932   4.636
    4SOL     OW  910   6.547   0.221   0.300
    4SOL    HW1  911   6.570   0.144   0.360
    4SOL    HW2  912   6.604   0.217   0.218
    5SOL     OW  913   4.185   1.166   1.268
    5SOL    HW1  914   4.247   1.243   1.281
    5SOL    HW2  915   4.224   1.084   1.309
    6SOL     OW  916   5.544   0.058   2.502
    6SOL    HW1  917   5.505   0.079   2.591
    6SOL    HW2  918   5.620   0.120   2.483
    7SOL     OW  919   2.066   4.661   3.828
    7SOL    HW1  920   1.969   4.662   3.850
    7SOL    HW2  921   2.086   4.731   3.760
    8SOL     OW  922   2.094   3.144   5.715
    8SOL    HW1  923   2.023   3.207   5.683
    8SOL    HW2  924   2.062   3.096   5.796
    9SOL     OW  925   6.008   1.226   6.609
    9SOL    HW1  926   6.022   1.146   6.668
    9SOL    HW2  927   6.094   1.250   6.565
   10SOL     OW  928   4.985   4.881   3.468
   10SOL    HW1  929   4.887   4.894   3.451
   10SOL    HW2  930   5.003   4.784   3.487
   11SOL     OW  931   2.207   0.899   0.588
   11SOL    HW1  932   2.187   0.927   0.494
   11SOL    HW2  933   2.154   0.818   0.611
   12SOL     OW  934   3.401   5.124   3.309
   12SOL    HW1  935   3.420   5.032   3.275
   12SOL    HW2  936   3.343   5.118   3.391
   13SOL     OW  937   4.520   5.959   1.904
   13SOL    HW1  938   4.600   5.900   1.912
   13SOL    HW2  939   4.548   6.050   1.875
   14SOL     OW  940   4.645   4.943   4.912
   14SOL    HW1  941   4.583   5.018   4.891
   14SOL    HW2  942   4.736   4.979   4.931
   15SOL     OW  943   0.365   5.409   5.923
   15SOL    HW1  944   0.369   5.373   6.017
   15SOL    HW2  945   0.297   5.482   5.919
   16SOL     OW  946   0.021   3.225   5.557
   16SOL    HW1  947   7.021   3.219   5.460
   16SOL    HW2  948   0.000   3.138   5.602
   17SOL     OW  949   6.237   1.232   5.188
   17SOL    HW1  950   6.325   1.257   5.230
   17SOL    HW2  951   6.254   1.180   5.105
   18SOL     OW  952   3.562   0.274   5.557
   18SOL    HW1  953   3.554   0.302   5.461
   18SOL    HW2  954   3.633   0.328   5.602
   19SOL     OW  955   1.034   1.463   2.872
   19SOL    HW1  956   1.007   1.558   2.861
   19SOL    HW2  957   1.106   1.441   2.807
   20SOL     OW  958   5.778   2.045   5.024
   20SOL    HW1  959   5.823   2.134   5.031
   20SOL    HW2  960   5.693   2.054   4.972
   21SOL     OW  961   2.939   5.827   2.466
   21SOL    HW1  962   2.944   5.883   2.383
   21SOL    HW2  963   3.032   5.807   2.498
   22SOL     OW  964   2.507   6.594   5.191
   22SOL    HW1  965   2.569   6.523   5.157
   22SOL    HW2  966   2.453   6.557   5.267
   23SOL     OW  967   5.343   4.254   2.197
   23SOL    HW1  968   5.336   4.349   2.167
   23SOL    HW2  969   5.439   4.230   2.209
   24SOL     OW  970   4.465   0.489   1.343
   24SOL    HW1  971   4.494   0.478   1.438
   24SOL    HW2  972   4.366   0.496   1.339
   25SOL     OW  973   2.655   0.057   3.802
   25SOL    HW1  974   2.743   0.063   3.848
   25SOL    HW2  975   2.581   0.067   3.869
   26SOL     OW  976   0.831   2.858   0.112
   26SOL    HW1  977   0.917   2.847   0.062
   26SOL    HW2  978   0.762   2.897   0.052
   27SOL     OW  979   6.461   1.337   1.255
   27SOL    HW1  980   6.433   1.401   1.327
   27SOL    HW2  981   6.555   1.307   1.272
   28SOL     OW  982   2.365   0.408   4.879
   28SOL    HW1  983   2.455   0.446   4.857
   28SOL    HW2  984   2.375   0.314   4.911
   29SOL     OW  985   0.094   0.467   0.304
   29SOL    HW1  986   0.077   0.536   0.235
   29SOL    HW2  987   0.062   0.499   0.393
   30SOL     OW  988   4.032   0.691   5.182
   30SOL    HW1  989   4.013   0.607   5.233
   30SOL    HW2  990   4.023   0.674   5.084
   31SOL     OW  991   1.072   3.070   5.441
   31SOL    HW1  992   1.000   3.140   5.437
   31SOL    HW2  993   1.069   3.015   5.358
   32SOL     OW  994   1.742   0.328   1.336
   32SOL    HW1  995   1.727   0.322   1.238
   32SOL    HW2  996   1.757   0.424   1.361
   33SOL     OW  997   0.575   4.426   5.874
   33SOL    HW1  998   0.602   4.428   5.777
   33SOL    HW2  999   0.492   4.480   5.886
   34SOL     OW 1000   1.677   5.022   5.235
   34SOL    HW1 1001   1.600   5.054   5.292
   34SOL    HW2 1002   1.643   4.956   5.168
   35SOL     OW 1003   3.730   2.537   0.138
   35SOL    HW1 1004   3.744   2.636   0.133
   35SOL    HW2 1005   3.649   2.518   0.193
   36SOL     OW 1006   4.741   0.701   4.108
   36SOL    HW1 1007   4.764   0.634   4.037
   36SOL    HW2 1008   4.787   0.788   4.087
   37SOL     OW 1009   2.030   1.043   3.681
   37SOL    HW1 1010   2.053   0.946   3.692
   37SOL    HW2 1011   2.082   1.081   3.604
   38SOL     OW 1012   1.273   4.599   2.189
   38SOL    HW1 1013   1.333   4.524   2.216
   38SOL    HW2 1014   1.315   4.687   2.213
   39SOL     OW 1015   6.485   5.270   6.451
   39SOL    HW1 1016   6.501   5.187   6.396
   39SOL    HW2 1017   6.449   5.342   6.393
   40SOL     OW 1018   3.486   0.873   6.063
   40SOL    HW1 1019   3.401   0.924   6.058
   40SOL    HW2 1020   3.494   0.830   6.153
   41SOL     OW 1021   6.342   4.045   1.942
   41SOL    HW1 1022   6.294   3.984   2.006
   41SOL    HW2 1023   6.419   3.995   1.901
   42SOL     OW 1024   2.362   5.931   5.653
   42SOL    HW1 1025   2.346   6.022   5.615
   42SOL    HW2 1026   2.435   5.885   5.601
   43SOL     OW 1027   5.287   6.782   4.890
   43SOL    HW1 1028   5.193   6.750   4.873
   43SOL    HW2 1029   5.348   6.703   4.896
   44SOL     OW 1030   5.931   2.231   5.434
   44SOL    HW1 1031   5.927   2.132   5.420
   44SOL    HW2 1032   5.932   2.277   5.345
   45SOL     OW 1033   3.911   4.962   0.015
   45SOL    HW1 1034   3.824   4.928   7.001
   45SOL    HW2 1035   3.983   4.895   7.018
   46SOL     OW 1036   0.606   3.118   4.592
   46SOL    HW1 1037   0.517   3.151   4.561
   46SOL    HW2 1038   0.638   3.045   4.531
   47SOL     OW 1039   5.825   2.937   1.684
   47SOL    HW1 1040   5.754   3.005   1.668
   47SOL    HW2 1041   5.838   2.925   1.782
   48SOL     OW 1042   6.509   4.087   6.866
   48SOL    HW1 1043   6.459   4.096   6.780
   48SOL    HW2 1044   6.597   4.042   6.849
   49SOL     OW 1045   4.245   3.485   6.907
   49SOL    HW1 1046   4.211   3.442   6.990
   49SOL    HW2 1047   4.337   3.521   6.922
   50SOL     OW 1048   6.387   3.151   6.339
   50SOL    HW1 1049   6.339   3.088   6.400
   50SOL    HW2 1050   6.424   3.227   6.393
   51SOL     OW 1051   2.402   5.382   3.427
   51SOL    HW1 1052   2.346   5.431   3.493
   51SOL    HW2 1053   2.376   5.286   3.426
   52SOL     OW 1054   5.789   2.646   1.689
   52SOL    HW1 1055   5.762   2.597   1.606
   52SOL    HW2 1056   5.796   2.744   1.669
   53SOL     OW 1057   3.815   0.696   2.708
   53SOL    HW1 1058   3.822   0.626   2.637
   53SOL    HW2 1059   3.730   0.748   2.696
   54SOL     OW 1060   5.130   6.794   6.891
   54SOL    HW1 1061   5.031   6.804   6.900
   54SOL    HW2 1062   5.154   6.797   6.794
   55SOL     OW 1063   1.854   3.369   6.161
   55SOL    HW1 1064   1.812   3.278   6.155
   55SOL    HW2 1065   1.782   3.439   6.163
   56SOL     OW 1066   1.606   2.451   6.913
   56SOL    HW1 1067   1.630   2.539   6.954
   56SOL    HW2 1068   1.669   2.430   6.839
   57SOL     OW 1069   4.227   0.744   0.110
   57SOL    HW1 1070   4.153   0.794   0.155
   57SOL    HW2 1071   4.280   0.695   0.178
   58SOL     OW 1072   0.940   0.873   6.370
   58SOL    HW1 1073   1.009   0.890   6.440
   58SOL    HW2 1074   0.872   0.809   6.404
   59SOL     OW 1075   5.356   3.566   6.536
   59SOL    HW1 1076   5.314   3.567   6.627
   59SOL    HW2 1077   5.363   3.472   6.503
   60SOL     OW 1078   5.371   0.509   2.993
   60SOL    HW1 1079   5.465   0.523   2.961
   60SOL    HW2 1080   5.330   0.598   3.012
   61SOL     OW 1081   0.333   7.014   5.104
   61SOL    HW1 1082   0.367   6.982   5.015
   61SOL    HW2 1083   0.356   6.947   5.174
   62SOL     OW 1084   6.946   2.319   2.142
   62SOL    HW1 1085   6.864   2.374   2.129
   62SOL    HW2 1086   0.003   2.379   2.155
   63SOL     OW 1087   4.366   6.347   4.592
   63SOL    HW1 1088   4.419   6.272   4.553
   63SOL    HW2 1089   4.290   6.369   4.531
   64SOL     OW 1090   1.205   5.006   6.774
   64SOL    HW1 1091   1.277   4.938   6.769
   64SOL    HW2 1092   1.245   5.096   6.791
   65SOL     OW 1093   0.448   0.514   5.256
   65SOL    HW1 1094   0.438   0.613   5.266
   65SOL    HW2 1095   0.523   0.483   5.314
   66SOL     OW 1096   4.214   0.838   1.881
   66SOL    HW1 1097   4.187   0.923   1.837
   66SOL    HW2 1098   4.290   0.854   1.943
   67SOL     OW 1099   0.380   2.871   1.023
   67SOL    HW1 1100   0.327   2.798   0.980
   67SOL    HW2 1101   0.416   2.932   0.952
   68SOL     OW 1102   6.557   2.274   5.496
   68SOL    HW1 1103   6.615   2.193   5.501
   68SOL    HW2 1104   6.521   2.294   5.588
   69SOL     OW 1105   1.105   5.236   6.212
   69SOL    HW1 1106   1.016   5.250   6.255
   69SOL    HW2 1107   1.125   5.314   6.152
   70SOL     OW 1108   5.259   3.024   4.350
   70SOL    HW1 1109   5.219   2.978   4.271
   70SOL    HW2 1110   5.190   3.030   4.423
   71SOL     OW 1111   4.189   1.581   4.435
   71SOL    HW1 1112   4.097   1.604   4.467
   71SOL    HW2 1113   4.225   1.504   4.488
   72SOL     OW 1114   6.469   0.905   3.685
   72SOL    HW1 1115   6.510   0.866   3.602
   72SOL    HW2 1116   6.521   0.986   3.713
   73SOL     OW 1117   2.466   0.682   0.949
   73SOL    HW1 1118   2.458   0.758   0.884
   73SOL    HW2 1119   2.482   0.718   1.041
   74SOL     OW 1120   1.811   1.673   0.278
   74SOL    HW1 1121   1.873   1.658   0.201
   74SOL    HW2 1122   1.861   1.715   0.353
   75SOL     OW 1123   4.536   1.863   0.912
   75SOL    HW1 1124   4.568   1.952   0.943
   75SOL    HW2 1125   4.503   1.810   0.991
   76SOL     OW 1126   3.011   4.371   5.342
   76SOL    HW1 1127   3.108   4.387   5.326
   76SOL    HW2 1128   2.956   4.434   5.287
   77SOL     OW 1129   1.780   4.226   4.033
   77SOL    HW1 1130   1.690   4.183   4.041
   77SOL    HW2 1131   1.846   4.175   4.088
   78SOL     OW 1132   4.561   1.468   1.175
   78SOL    HW1 1133   4.650   1.500   1.141
   78SOL    HW2 1134   4.551   1.370   1.156
   79SOL     OW 1135   1.706   5.344   2.055
   79SOL    HW1 1136   1.795   5.372   2.020
   79SOL    HW2 1137   1.709   5.246   2.078
   80SOL     OW 1138   4.920   1.896   4.956
   80SOL    HW1 1139   4.961   1.856   5.038
   80SOL    HW2 1140   4.834   1.941   4.979
   81SOL     OW 1141   3.048   5.946   1.626
   81SOL    HW1 1142   3.071   6.036   1.664
   81SOL    HW2 1143   3.064   5.947   1.527
   82SOL     OW 1144   1.219   6.420   1.524
   82SOL    HW1 1145   1.242   6.432   1.428
   82SOL    HW2 1146   1.246   6.328   1.554
   83SOL     OW 1147   5.481   1.618   5.056
   83SOL    HW1 1148   5.551   1.650   4.993
   83SOL    HW2 1149   5.407   1.575   5.005
   84SOL     OW 1150   6.095   2.924   3.007
   84SOL    HW1 1151   6.148   2.870   2.942
   84SOL    HW2 1152   6.120   2.897   3.100
   85SOL     OW 1153   2.366   0.393   4.232
   85SOL    HW1 1154   2.383   0.464   4.300
   85SOL    HW2 1155   2.389   0.428   4.141
   86SOL     OW 1156   5.856   0.868   6.411
   86SOL    HW1 1157   5.848   0.963   6.380
   86SOL    HW2 1158   5.837   0.864   6.509
   87SOL     OW 1159   3.222   3.996   6.365
   87SOL    HW1 1160   3.320   3.990   6.380
   87SOL    HW2 1161   3.204   4.035   6.275
   88SOL     OW 1162   3.124   3.478   6.713
   88SOL    HW1 1163   3.053   3.418   6.677
   88SOL    HW2 1164   3.207   3.470   6.657
   89SOL     OW 1165   3.193   3.827   3.144
   89SOL    HW1 1166   3.264   3.836   3.074
   89SOL    HW2 1167   3.104   3.815   3.100
   90SOL     OW 1168   4.672   4.284   3.018
   90SOL    HW1 1169   4.698   4.188   3.006
   90SOL    HW2 1170   4.657   4.326   2.929
   91SOL     OW 1171   5.472   5.153   6.381
   91SOL    HW1 1172   5.468   5.176   6.478
   91SOL    HW2 1173   5.497   5.234   6.328
   92SOL     OW 1174   5.527   4.078   0.062
   92SOL    HW1 1175   5.552   4.070   0.158
   92SOL    HW2 1176   5.600   4.040   0.005
   93SOL     OW 1177   2.877   3.230   1.487
   93SOL    HW1 1178   2.968   3.194   1.505
   93SOL    HW2 1179   2.815   3.154   1.466
   94SOL     OW 1180   3.224   0.972   6.134
   94SOL    HW1 1181   3.182   1.063   6.140
   94SOL    HW2 1182   3.169   0.914   6.074
   95SOL     OW 1183   6.943   0.550   3.899
   95SOL    HW1 1184   6.960   0.561   3.996
   95SOL    HW2 1185   0.007   0.562   3.848
   96SOL     OW 1186   4.464   5.154   0.167
   96SOL    HW1 1187   4.424   5.100   0.241
   96SOL    HW2 1188   4.448   5.107   0.080
   97SOL     OW 1189   1.615   5.368   5.142
   97SOL    HW1 1190   1.554   5.291   5.160
   97SOL    HW2 1191   1.710   5.337   5.146
   98SOL     OW 1192   1.167   3.005   3.134
   98SOL    HW1 1193   1.130   3.020   3.225
   98SOL    HW2 1194   1.230   2.927   3.135
   99SOL     OW 1195   4.152   3.378   4.166
   99SOL    HW1 1196   4.148   3.408   4.071
   99SOL    HW2 1197   4.099   3.294   4.177
  100SOL     OW 1198   6.753   0.161   3.655
  100SOL    HW1 1199   6.846   0.196   3.641
  100SOL    HW2 1200   6.706   0.217   3.723
  101SOL     OW 1201   6.775   3.339   2.656
  101SOL    HW1 1202   6.782   3.239   2.647
  101SOL    HW2 1203   6.697   3.362   2.714
  102SOL     OW 1204   2.510   6.451   1.079
  102SOL    HW1 1205   2.477   6.466   1.172
  102SOL    HW2 1206   2.432   6.441   1.017
  103SOL     OW 1207   1.769   1.073   1.901
  103SOL    HW1 1208   1.835   0.998   1.905
  103SOL    HW2 1209   1.782   1.133   1.979
  104SOL     OW 1210   1.613   4.687   1.654
  104SOL    HW1 1211   1.602   4.768   1.712
  104SOL    HW2 1212   1.554   4.696   1.573
  105SOL     OW 1213   4.740   1.971   6.220
  105SOL    HW1 1214   4.819   1.965   6.280
  105SOL    HW2 1215   4.689   1.885   6.222
  106SOL     OW 1216   5.967   5.020   2.257
  106SOL    HW1 1217   6.019   4.936   2.241
  106SOL    HW2 1218   5.929   5.053   2.171
  107SOL     OW 1219   6.374   0.733   0.930
  107SOL    HW1 1220   6.432   0.716   1.010
  107SOL    HW2 1221   6.388   0.661   0.862
  108SOL     OW 1222   1.500   0.538   5.954
  108SOL    HW1 1223   1.477   0.441   5.941
  108SOL    HW2 1224   1.592   0.555   5.918
  109SOL     OW 1225   2.315   1.294   3.681
  109SOL    HW1 1226   2.309   1.226   3.755
  109SOL    HW2 1227   2.252   1.268   3.607
  110SOL     OW 1228   2.547   4.518   5.581
  110SOL    HW1 1229   2.448   4.520   5.571
  110SOL    HW2 1230   2.590   4.523   5.491
  111SOL     OW 1231   6.665   1.804   2.158
  111SOL    HW1 1232   6.708   1.826   2.071
  111SOL    HW2 1233   6.569   1.833   2.156
  112SOL     OW 1234   4.921   0.071   6.644
  112SOL    HW1 1235   4.858   0.139   6.608
  112SOL    HW2 1236   4.902   0.055   6.741
  113SOL     OW 1237   6.518   6.216   2.282
  113SOL    HW1 1238   6.579   6.276   2.333
  113SOL    HW2 1239   6.425   6.253   2.284
  114SOL     OW 1240   1.028   4.026   3.755
  114SOL    HW1 1241   1.025   3.992   3.849
  114SOL    HW2 1242   0.986   3.958   3.695
  115SOL     OW 1243   5.526   1.292   3.353
  115SOL    HW1 1244   5.476   1.362   3.302
  115SOL    HW2 1245   5.519   1.310   3.451
  116SOL     OW 1246   1.364   5.175   0.480
  116SOL    HW1 1247   1.307   5.227   0.545
  116SOL    HW2 1248   1.308   5.145   0.403
  117SOL     OW 1249   2.383   1.455   6.932
  117SOL    HW1 1250   2.464   1.509   6.950
  117SOL    HW2 1251   2.407   1.375   6.876
  118SOL     OW 1252   1.663   1.297   4.581
  118SOL    HW1 1253   1.587   1.351   4.544
  118SOL    HW2 1254   1.631   1.204   4.599
  119SOL     OW 1255   0.084   5.808   6.177
  119SOL    HW1 1256   0.071   5.727   6.120
  119SOL    HW2 1257   0.163   5.794   6.237
  120SOL     OW 1258   4.649   1.910   4.564
  120SOL    HW1 1259   4.572   1.914   4.500
  120SOL    HW2 1260   4.631   1.970   4.642
  121SOL     OW 1261   1.220   4.002   6.316
  121SOL    HW1 1262   1.172   4.019   6.402
  121SOL    HW2 1263   1.310   3.963   6.336
  122SOL     OW 1264   0.905   4.135   0.484
  122SOL    HW1 1265   0.900   4.110   0.388
  122SOL    HW2 1266   0.866   4.227   0.497
  123SOL     OW 1267   1.089   1.196   1.851
  123SOL    HW1 1268   1.032   1.251   1.912
  123SOL    HW2 1269   1.117   1.251   1.772
  124SOL     OW 1270   2.591   2.461   0.873
  124SOL    HW1 1271   2.506   2.445   0.822
  124SOL    HW2 1272   2.569   2.503   0.961
  125SOL     OW 1273   3.705   2.914   0.384
  125SOL    HW1 1274   3.625   2.854   0.394
  125SOL    HW2 1275   3.691   2.997   0.438
  126SOL     OW 1276   3.753   3.355   4.255
  126SOL    HW1 1277   3.813   3.430   4.228
  126SOL    HW2 1278   3.669   3.358   4.201
  127SOL     OW 1279   0.777   6.264   5.907
  127SOL    HW1 1280   0.853   6.232   5.963
  127SOL    HW2 1281   0.761   6.361   5.923
  128SOL     OW 1282   4.584   3.644   0.989
  128SOL    HW1 1283   4.487   3.626   0.975
  128SOL    HW2 1284   4.633   3.633   0.902
  129SOL     OW 1285   2.192   6.084   1.115
  129SOL    HW1 1286   2.103   6.109   1.076
  129SOL    HW2 1287   2.178   6.039   1.203
  130SOL     OW 1288   5.543   2.495   4.622
  130SOL    HW1 1289   5.520   2.399   4.606
  130SOL    HW2 1290   5.470   2.553   4.585
  131SOL     OW 1291   6.834   2.604   3.465
  131SOL    HW1 1292   6.849   2.702   3.454
  131SOL    HW2 1293   6.797   2.566   3.381
  132SOL     OW 1294   3.314   3.982   1.953
  132SOL    HW1 1295   3.244   3.927   1.909
  132SOL    HW2 1296   3.350   4.049   1.888
  133SOL     OW 1297   5.382   6.882   5.692
  133SOL    HW1 1298   5.423   6.820   5.759
  133SOL    HW2 1299   5.413   6.857   5.601
  134SOL     OW 1300   5.640   1.059   1.899
  134SOL    HW1 1301   5.686   0.976   1.867
  134SOL    HW2 1302   5.704   1.136   1.894
  135SOL     OW 1303   5.058   3.670   4.325
  135SOL    HW1 1304   4.996   3.705   4.254
  135SOL    HW2 1305   5.038   3.716   4.412
  136SOL     OW 1306   3.596   7.014   5.571
  136SOL    HW1 1307   3.692   6.995   5.592
  136SOL    HW2 1308   3.582   0.092   5.572
  137SOL     OW 1309   3.017   2.269   5.350
  137SOL    HW1 1310   3.015   2.193   5.285
  137SOL    HW2 1311   3.083   2.337   5.319
  138SOL     OW 1312   1.189   5.890   5.793
  138SOL    HW1 1313   1.257   5.856   5.728
  138SOL    HW2 1314   1.098   5.859   5.766
  139SOL     OW 1315   2.374   6.196   6.666
  139SOL    HW1 1316   2.318   6.245   6.733
  139SOL    HW2 1317   2.466   6.184   6.702
  140SOL     OW 1318   2.202   0.872   2.896
  140SOL    HW1 1319   2.246   0.942   2.839
  140SOL    HW2 1320   2.104   0.872   2.878
  141SOL     OW 1321   7.005   4.755   0.293
  141SOL    HW1 1322   0.081   4.776   0.297
  141SOL    HW2 1323   6.976   4.750   0.197
  142SOL     OW 1324   1.470   4.160   2.122
  142SOL    HW1 1325   1.542   4.126   2.182
  142SOL    HW2 1326   1.468   4.105   2.038
  143SOL     OW 1327   4.940   6.843   1.823
  143SOL    HW1 1328   5.006   6.772   1.849
  143SOL    HW2 1329   4.853   6.826   1.870
  144SOL     OW 1330   3.157   4.915   3.351
  144SOL    HW1 1331   3.187   4.964   3.269
  144SOL    HW2 1332   3.158   4.977   3.429
  145SOL     OW 1333   0.084   4.626   3.076
  145SOL    HW1 1334   0.012   4.633   3.007
  145SOL    HW2 1335   0.133   4.713   3.082
  146SOL     OW 1336   6.148   1.603   6.257
  146SOL    HW1 1337   6.127   1.562   6.346
  146SOL    HW2 1338   6.108   1.695   6.254
  147SOL     OW 1339   4.520   1.516   5.536
  147SOL    HW1 1340   4.429   1.479   5.516
  147SOL    HW2 1341   4.539   1.509   5.633
  148SOL     OW 1342   1.376   5.018   1.429
  148SOL    HW1 1343   1.353   5.039   1.524
  148SOL    HW2 1344   1.358   5.098   1.371
  149SOL     OW 1345   2.073   2.433   5.762
  149SOL    HW1 1346   2.073   2.335   5.745
  149SOL    HW2 1347   2.167   2.467   5.756
  150SOL     OW 1348   4.484   1.682   4.450
  150SOL    HW1 1349   4.565   1.638   4.490
  150SOL    HW2 1350   4.403   1.630   4.475
  151SOL     OW 1351   4.294   2.249   0.809
  151SOL    HW1 1352   4.325   2.344   0.814
  151SOL    HW2 1353   4.370   2.190   0.779
  152SOL     OW 1354   0.622   1.167   0.162
  152SOL    HW1 1355   0.560   1.145   0.238
  152SOL    HW2 1356   0.701   1.105   0.165
  153SOL     OW 1357   2.615   1.028   3.922
  153SOL    HW1 1358   2.668   1.107   3.895
  153SOL    HW2 1359   2.528   1.027   3.873
  154SOL     OW 1360   5.980   2.197   1.343
  154SOL    HW1 1361   5.975   2.097   1.345
  154SOL    HW2 1362   6.074   2.225   1.324
  155SOL     OW 1363   1.356   6.889   1.992
  155SOL    HW1 1364   1.432   6.847   2.041
  155SOL    HW2 1365   1.386   6.975   1.951
  156SOL     OW 1366   5.438   2.441   0.465
  156SOL    HW1 1367   5.477   2.403   0.549
  156SOL    HW2 1368   5.416   2.538   0.480
  157SOL     OW 1369   4.879   5.254   0.084
  157SOL    HW1 1370   4.908   5.159   0.093
  157SOL    HW2 1371   4.804   5.272   0.148
  158SOL     OW 1372   0.549   3.318   2.904
  158SOL    HW1 1373   0.474   3.261   2.937
  158SOL    HW2 1374   0.547   3.407   2.950
  159SOL     OW 1375   5.722   5.554   0.601
  159SOL    HW1 1376   5.661   5.478   0.578
  159SOL    HW2 1377   5.754   5.544   0.695
  160SOL     OW 1378   6.408   6.925   1.327
  160SOL    HW1 1379   6.329   6.873   1.359
  160SOL    HW2 1380   6.434   6.991   1.396
  161SOL     OW 1381   0.467   0.074   0.276
  161SOL    HW1 1382   0.478   0.041   0.369
  161SOL    HW2 1383   0.509   0.165   0.268
  162SOL     OW 1384   3.712   6.813   0.361
  162SOL    HW1 1385   3.757   6.852   0.281
  162SOL    HW2 1386   3.714   6.713   0.354
  163SOL     OW 1387   0.275   3.602   3.800
  163SOL    HW1 1388   0.296   3.681   3.743
  163SOL    HW2 1389   0.184   3.613   3.840
  164SOL     OW 1390   1.551   2.314   3.184
  164SOL    HW1 1391   1.559   2.238   3.248
  164SOL    HW2 1392   1.516   2.395   3.232
  165SOL     OW 1393   1.073   5.447   3.233
  165SOL    HW1 1394   1.146   5.503   3.194
  165SOL    HW2 1395   1.025   5.400   3.159
  166SOL     OW 1396   6.859   3.887   2.669
  166SOL    HW1 1397   6.793   3.960   2.688
  166SOL    HW2 1398   6.811   3.799   2.664
  167SOL     OW 1399   5.006   1.999   0.032
  167SOL    HW1 1400   4.996   1.943   0.115
  167SOL    HW2 1401   4.972   2.091   0.050
  168SOL     OW 1402   4.879   3.800   1.838
  168SOL    HW1 1403   4.800   3.761   1.790
  168SOL    HW2 1404   4.885   3.897   1.818
  169SOL     OW 1405   6.119   2.627   0.949
  169SOL    HW1 1406   6.077   2.715   0.925
  169SOL    HW2 1407   6.118   2.617   1.049
  170SOL     OW 1408   0.733   4.752   2.388
  170SOL    HW1 1409   0.764   4.730   2.480
  170SOL    HW2 1410   0.807   4.736   2.322
  171SOL     OW 1411   2.974   3.268   0.537
  171SOL    HW1 1412   2.951   3.365   0.529
  171SOL    HW2 1413   2.920   3.216   0.471
  172SOL     OW 1414   6.373   2.004   1.071
  172SOL    HW1 1415   6.453   2.062   1.078
  172SOL    HW2 1416   6.301   2.051   1.019
  173SOL     OW 1417   6.421   1.870   5.678
  173SOL    HW1 1418   6.326   1.840   5.682
  173SOL    HW2 1419   6.433   1.952   5.733
  174SOL     OW 1420   6.042   5.419   5.495
  174SOL    HW1 1421   5.960   5.364   5.512
  174SOL    HW2 1422   6.074   5.405   5.401
  175SOL     OW 1423   0.623   0.459   0.800
  175SOL    HW1 1424   0.696   0.392   0.806
  175SOL    HW2 1425   0.546   0.421   0.749
  176SOL     OW 1426   5.132   4.625   2.666
  176SOL    HW1 1427   5.200   4.671   2.608
  176SOL    HW2 1428   5.057   4.591   2.608
  177SOL     OW 1429   5.742   2.219   4.076
  177SOL    HW1 1430   5.820   2.158   4.086
  177SOL    HW2 1431   5.659   2.170   4.105
  178SOL     OW 1432   1.799   6.546   5.697
  178SOL    HW1 1433   1.895   6.570   5.713
  178SOL    HW2 1434   1.771   6.580   5.607
  179SOL     OW 1435   4.078   5.129   0.935
  179SOL    HW1 1436   4.049   5.149   0.841
  179SOL    HW2 1437   4.121   5.039   0.937
  180SOL     OW 1438   4.256   1.386   0.937
  180SOL    HW1 1439   4.242   1.444   0.857
  180SOL    HW2 1440   4.278   1.293   0.908
  181SOL     OW 1441   3.591   2.322   5.540
  181SOL    HW1 1442   3.509   2.266   5.550
  181SOL    HW2 1443   3.566   2.414   5.508
  182SOL     OW 1444   4.793   2.175   6.517
  182SOL    HW1 1445   4.771   2.231   6.437
  182SOL    HW2 1446   4.724   2.104   6.528
  183SOL     OW 1447   3.258   1.584   3.789
  183SOL    HW1 1448   3.242   1.494   3.830
  183SOL    HW2 1449   3.334   1.578   3.725
  184SOL     OW 1450   6.421   6.460   2.762
  184SOL    HW1 1451   6.412   6.481   2.859
  184SOL    HW2 1452   6.518   6.462   2.737
  185SOL     OW 1453   0.294   0.990   4.205
  185SOL    HW1 1454   0.376   0.959   4.253
  185SOL    HW2 1455   0.237   1.043   4.268
  186SOL     OW 1456   4.635   5.607   3.584
  186SOL    HW1 1457   4.593   5.633   3.671
  186SOL    HW2 1458   4.601   5.668   3.512
  187SOL     OW 1459   4.231   6.149   2.130
  187SOL    HW1 1460   4.288   6.224   2.098
  187SOL    HW2 1461   4.135   6.178   2.132
  188SOL     OW 1462   2.365   2.782   3.110
  188SOL    HW1 1463   2.464   2.790   3.123
  188SOL    HW2 1464   2.334   2.855   3.049
  189SOL     OW 1465   6.256   5.087   6.214
  189SOL    HW1 1466   6.177   5.046   6.259
  189SOL    HW2 1467   6.236   5.182   6.190
  190SOL     OW 1468   5.790   7.021   0.121
  190SOL    HW1 1469   5.708   7.004   0.175
  190SOL    HW2 1470   5.770   0.070   0.052
  191SOL     OW 1471   6.045   0.749   5.541
  191SOL    HW1 1472   6.015   0.834   5.585
  191SOL    HW2 1473   6.024   0.754   5.443
  192SOL     OW 1474   0.542   5.232   0.374
  192SOL    HW1 1475   0.560   5.326   0.345
  192SOL    HW2 1476   0.550   5.171   0.295
  193SOL     OW 1477   2.813   5.250   5.980
  193SOL    HW1 1478   2.757   5.254   5.898
  193SOL    HW2 1479   2.754   5.242   6.061
  194SOL     OW 1480   3.560   6.925   2.202
  194SOL    HW1 1481   3.647   6.885   2.172
  194SOL    HW2 1482   3.579   7.007   2.256
  195SOL     OW 1483   2.738   0.939   1.715
  195SOL    HW1 1484   2.827   0.982   1.732
  195SOL    HW2 1485   2.666   1.006   1.730
  196SOL     OW 1486   2.156   0.785   6.976
  196SOL    HW1 1487   2.209   0.869   6.992
  196SOL    HW2 1488   2.147   0.770   6.878
  197SOL     OW 1489   2.413   5.661   0.298
  197SOL    HW1 1490   2.341   5.678   0.231
  197SOL    HW2 1491   2.413   5.734   0.366
  198SOL     OW 1492   4.013   6.446   0.089
  198SOL    HW1 1493   3.914   6.460   0.090
  198SOL    HW2 1494   4.038   6.388   0.012
  199SOL     OW 1495   6.097   6.743   3.074
  199SOL    HW1 1496   6.052   6.662   3.035
  199SOL    HW2 1497   6.108   6.812   3.003
  200SOL     OW 1498   0.482   4.204   3.022
  200SOL    HW1 1499   0.579   4.227   3.028
  200SOL    HW2 1500   0.430   4.286   2.999
  201SOL     OW 1501   3.115   0.776   7.003
  201SOL    HW1 1502   3.152   0.865   0.012
  201SOL    HW2 1503   3.111   0.714   0.060
  202SOL     OW 1504   3.756   6.818   3.403
  202SOL    HW1 1505   3.756   6.750   3.477
  202SOL    HW2 1506   3.773   6.909   3.442
  203SOL     OW 1507   5.431   3.433   6.058
  203SOL    HW1 1508   5.352   3.442   6.118
  203SOL    HW2 1509   5.514   3.458   6.108
  204SOL     OW 1510   2.394   6.545   0.650
  204SOL    HW1 1511   2.307   6.560   0.603
  204SOL    HW2 1512   2.434   6.634   0.676
  205SOL     OW 1513   5.916   2.041   1.038
  205SOL    HW1 1514   5.927   2.003   1.130
  205SOL    HW2 1515   5.915   1.967   0.971
  206SOL     OW 1516   0.120   4.873   1.863
  206SOL    HW1 1517   0.203   4.921   1.892
  206SOL    HW2 1518   0.041   4.931   1.881
  207SOL     OW 1519   4.674   0.898   5.902
  207SOL    HW1 1520   4.663   0.905   6.001
  207SOL    HW2 1521   4.600   0.842   5.864
  208SOL     OW 1522   4.895   5.518   6.201
  208SOL    HW1 1523   4.926   5.543   6.109
  208SOL    HW2 1524   4.800   5.486   6.196
  209SOL     OW 1525   6.638   5.377   5.956
  209SOL    HW1 1526   6.735   5.405   5.956
  209SOL    HW2 1527   6.591   5.421   5.880
  210SOL     OW 1528   3.808   1.965   1.346
  210SOL    HW1 1529   3.722   1.985   1.299
  210SOL    HW2 1530   3.867   1.911   1.287
  211SOL     OW 1531   0.540   1.312   1.141
  211SOL    HW1 1532   0.628   1.356   1.162
  211SOL    HW2 1533   0.550   1.257   1.058
  212SOL     OW 1534   1.145   5.114   3.825
  212SOL    HW1 1535   1.191   5.131   3.913
  212SOL    HW2 1536   1.138   5.199   3.774
  213SOL     OW 1537   5.295   2.047   0.022
  213SOL    HW1 1538   5.356   2.011   6.973
  213SOL    HW2 1539   5.203   2.012   0.008
  214SOL     OW 1540   0.990   6.467   2.199
  214SOL    HW1 1541   1.046   6.388   2.176
  214SOL    HW2 1542   1.042   6.529   2.258
  215SOL     OW 1543   3.344   3.084   2.228
  215SOL    HW1 1544   3.387   3.150   2.166
  215SOL    HW2 1545   3.406   3.007   2.244
  216SOL     OW 1546   0.695   0.338   5.274
  216SOL    HW1 1547   0.788   0.311   5.248
  216SOL    HW2 1548   0.630   0.302   5.207
  217SOL     OW 1549   0.924   3.167   3.939
  217SOL    HW1 1550   0.949   3.080   3.981
  217SOL    HW2 1551   0.907   3.153   3.841
  218SOL     OW 1552   1.004   2.956   5.205
  218SOL    HW1 1553   0.936   2.982   5.136
  218SOL    HW2 1554   1.072   2.896   5.164
  219SOL     OW 1555   4.637   4.936   0.485
  219SOL    HW1 1556   4.712   4.874   0.461
  219SOL    HW2 1557   4.550   4.894   0.459
  220SOL     OW 1558   2.562   5.127   6.932
  220SOL    HW1 1559   2.598   5.109   6.840
  220SOL    HW2 1560   2.565   5.226   6.949
  221SOL     OW 1561   5.310   2.655   3.815
  221SOL    HW1 1562   5.378   2.609   3.872
  221SOL    HW2 1563   5.278   2.593   3.744
  222SOL     OW 1564   0.652   5.842   5.963
  222SOL    HW1 1565   0.625   5.758   6.011
  222SOL    HW2 1566   0.572   5.885   5.923
  223SOL     OW 1567   0.125   3.714   2.094
  223SOL    HW1 1568   0.212   3.673   2.120
  223SOL    HW2 1569   0.139   3.807   2.062
  224SOL     OW 1570   2.708   2.254   2.095
  224SOL    HW1 1571   2.787   2.300   2.054
  224SOL    HW2 1572   2.644   2.227   2.024
  225SOL     OW 1573   5.839   0.785   7.014
  225SOL    HW1 1574   5.778   0.861   0.012
  225SOL    HW2 1575   5.805   0.734   6.934
  226SOL     OW 1576   0.897   6.113   0.541
  226SOL    HW1 1577   0.988   6.117   0.582
  226SOL    HW2 1578   0.904   6.121   0.442
  227SOL     OW 1579   1.807   3.599   3.991
  227SOL    HW1 1580   1.771   3.662   3.921
  227SOL    HW2 1581   1.738   3.530   4.012
  228SOL     OW 1582   4.410   6.225   3.897
  228SOL    HW1 1583   4.432   6.292   3.826
  228SOL    HW2 1584   4.464   6.142   3.882
  229SOL     OW 1585   5.877   6.319   1.903
  229SOL    HW1 1586   5.907   6.249   1.967
  229SOL    HW2 1587   5.875   6.281   1.810
  230SOL     OW 1588   2.290   4.333   5.116
  230SOL    HW1 1589   2.284   4.379   5.027
  230SOL    HW2 1590   2.329   4.242   5.104
  231SOL     OW 1591   0.434   3.565   6.326
  231SOL    HW1 1592   0.521   3.521   6.307
  231SOL    HW2 1593   0.362   3.496   6.334
  232SOL     OW 1594   1.271   3.617   0.074
  232SOL    HW1 1595   1.266   3.681   0.151
  232SOL    HW2 1596   1.365   3.613   0.041
  233SOL     OW 1597   2.020   1.489   5.409
  233SOL    HW1 1598   2.112   1.530   5.409
  233SOL    HW2 1599   1.953   1.559   5.431
  234SOL     OW 1600   2.497   4.745   6.690
  234SOL    HW1 1601   2.578   4.766   6.745
  234SOL    HW2 1602   2.418   4.735   6.751
  235SOL     OW 1603   3.352   3.496   3.911
  235SOL    HW1 1604   3.269   3.492   3.968
  235SOL    HW2 1605   3.333   3.548   3.828
  236SOL     OW 1606   6.486   2.542   5.335
  236SOL    HW1 1607   6.551   2.480   5.379
  236SOL    HW2 1608   6.427   2.490   5.274
  237SOL     OW 1609   0.466   6.987   1.589
  237SOL    HW1 1610   0.453   6.889   1.606
  237SOL    HW2 1611   0.517   0.006   1.665
  238SOL     OW 1612   5.571   3.453   2.726
  238SOL    HW1 1613   5.479   3.481   2.753
  238SOL    HW2 1614   5.627   3.535   2.711
  239SOL     OW 1615   6.922   6.105   6.941
  239SOL    HW1 1616   6.851   6.115   7.010
  239SOL    HW2 1617   6.891   6.145   6.855
  240SOL     OW 1618   0.532   4.129   5.783
  240SOL    HW1 1619   0.573   4.086   5.702
  240SOL    HW2 1620   0.541   4.228   5.775
  241SOL     OW 1621   0.219   0.832   3.428
  241SOL    HW1 1622   0.132   0.881   3.440
  241SOL    HW2 1623   0.266   0.868   3.347
  242SOL     OW 1624   1.574   3.436   4.496
  242SOL    HW1 1625   1.528   3.381   4.425
  242SOL    HW2 1626   1.537   3.412   4.586
  243SOL     OW 1627   5.638   6.697   5.086
  243SOL    HW1 1628   5.660   6.764   5.015
  243SOL    HW2 1629   5.648   6.605   5.049
  244SOL     OW 1630   5.555   2.006   4.888
  244SOL    HW1 1631   5.583   1.988   4.794
  244SOL    HW2 1632   5.499   2.088   4.891
  245SOL     OW 1633   6.478   2.814   3.911
  245SOL    HW1 1634   6.505   2.760   3.832
  245SOL    HW2 1635   6.412   2.762   3.966
  246SOL     OW 1636   4.897   3.534   3.620
  246SOL    HW1 1637   4.930   3.487   3.702
  246SOL    HW2 1638   4.898   3.633   3.636
  247SOL     OW 1639   2.023   1.481   3.683
  247SOL    HW1 1640   2.105   1.489   3.626
  247SOL    HW2 1641   1.953   1.545   3.649
  248SOL     OW 1642   5.422   1.615   3.853
  248SOL    HW1 1643   5.403   1.525   3.893
  248SOL    HW2 1644   5.401   1.614   3.756
  249SOL     OW 1645   3.499   6.585   4.400
  249SOL    HW1 1646   3.462   6.672   4.433
  249SOL    HW2 1647   3.590   6.571   4.438
  250SOL     OW 1648   5.308   3.386   5.815
  250SOL    HW1 1649   5.367   3.337   5.751
  250SOL    HW2 1650   5.360   3.408   5.898
  251SOL     OW 1651   4.413   2.695   6.774
  251SOL    HW1 1652   4.456   2.685   6.684
  251SOL    HW2 1653   4.324   2.650   6.774
  252SOL     OW 1654   6.714   0.541   5.944
  252SOL    HW1 1655   6.698   0.627   5.895
  252SOL    HW2 1656   6.663   0.467   5.899
  253SOL     OW 1657   2.746   3.087   0.429
  253SOL    HW1 1658   2.735   3.001   0.379
  253SOL    HW2 1659   2.766   3.161   0.364
  254SOL     OW 1660   5.896   3.135   5.041
  254SOL    HW1 1661   5.959   3.184   5.102
  254SOL    HW2 1662   5.945   3.110   4.957
  255SOL     OW 1663   2.969   2.277   3.227
  255SOL    HW1 1664   2.909   2.355   3.212
  255SOL    HW2 1665   2.995   2.272   3.323
  256SOL     OW 1666   5.370   5.115   0.202
  256SOL    HW1 1667   5.305   5.049   0.240
  256SOL    HW2 1668   5.444   5.066   0.156
  257SOL     OW 1669   2.800   5.678   6.227
  257SOL    HW1 1670   2.729   5.664   6.159
  257SOL    HW2 1671   2.858   5.596   6.232
  258SOL     OW 1672   5.731   4.309   4.395
  258SOL    HW1 1673   5.801   4.378   4.374
  258SOL    HW2 1674   5.649   4.327   4.340
  259SOL     OW 1675   1.531   2.385   2.700
  259SOL    HW1 1676   1.586   2.364   2.781
  259SOL    HW2 1677   1.586   2.372   2.617
  260SOL     OW 1678   5.888   0.381   5.827
  260SOL    HW1 1679   5.802   0.350   5.786
  260SOL    HW2 1680   5.942   0.428   5.758
  261SOL     OW 1681   1.011   3.960   2.125
  261SOL    HW1 1682   0.939   4.010   2.077
  261SOL    HW2 1683   1.083   4.024   2.152
  262SOL     OW 1684   0.790   4.075   2.064
  262SOL    HW1 1685   0.800   4.144   1.992
  262SOL    HW2 1686   0.710   4.018   2.045
  263SOL     OW 1687   0.851   1.755   4.983
  263SOL    HW1 1688   0.778   1.699   4.944
  263SOL    HW2 1689   0.881   1.716   5.070
  264SOL     OW 1690   2.075   4.549   6.503
  264SOL    HW1 1691   1.987   4.536   6.457
  264SOL    HW2 1692   2.064   4.615   6.577
  265SOL     OW 1693   5.378   4.454   4.081
  265SOL    HW1 1694   5.340   4.431   4.170
  265SOL    HW2 1695   5.435   4.379   4.048
  266SOL     OW 1696   4.279   1.667   0.734
  266SOL    HW1 1697   4.340   1.733   0.779
  266SOL    HW2 1698   4.331   1.616   0.665
  267SOL     OW 1699   1.207   1.996   6.423
  267SOL    HW1 1700   1.270   1.951   6.486
  267SOL    HW2 1701   1.158   2.069   6.470
  268SOL     OW 1702   3.986   4.852   4.579
  268SOL    HW1 1703   4.057   4.833   4.511
  268SOL    HW2 1704   4.028   4.859   4.670
  269SOL     OW 1705   0.700   2.309   5.972
  269SOL    HW1 1706   0.734   2.303   5.878
  269SOL    HW2 1707   0.710   2.220   6.017
  270SOL     OW 1708   5.131   1.083   2.555
  270SOL    HW1 1709   5.104   1.056   2.463
  270SOL    HW2 1710   5.054   1.067   2.618
  271SOL     OW 1711   1.514   0.560   0.010
  271SOL    HW1 1712   1.536   0.489   6.965
  271SOL    HW2 1713   1.434   0.611   7.000
  272SOL     OW 1714   3.098   5.997   3.407
  272SOL    HW1 1715   3.056   6.071   3.353
  272SOL    HW2 1716   3.044   5.913   3.396
  273SOL     OW 1717   2.600   6.159   5.318
  273SOL    HW1 1718   2.619   6.102   5.398
  273SOL    HW2 1719   2.506   6.193   5.322
  274SOL     OW 1720   6.078   2.640   2.612
  274SOL    HW1 1721   6.122   2.664   2.698
  274SOL    HW2 1722   6.026   2.718   2.577
  275SOL     OW 1723   6.535   6.048   5.228
  275SOL    HW1 1724   6.511   6.020   5.135
  275SOL    HW2 1725   6.581   6.137   5.225
  276SOL     OW 1726   6.315   6.235   3.537
  276SOL    HW1 1727   6.400   6.288   3.542
  276SOL    HW2 1728   6.255   6.275   3.469
  277SOL     OW 1729   4.228   1.720   5.442
  277SOL    HW1 1730   4.210   1.633   5.488
  277SOL    HW2 1731   4.218   1.795   5.508
  278SOL     OW 1732   5.593   3.693   2.925
  278SOL    HW1 1733   5.594   3.727   2.831
  278SOL    HW2 1734   5.544   3.606   2.929
  279SOL     OW 1735   0.028   2.347   3.475
  279SOL    HW1 1736   6.994   2.264   3.484
  279SOL    HW2 1737   6.995   2.427   3.502
  280SOL     OW 1738   3.911   0.292   4.293
  280SOL    HW1 1739   3.836   0.244   4.248
  280SOL    HW2 1740   3.976   0.226   4.331
  281SOL     OW 1741   4.972   6.194   4.074
  281SOL    HW1 1742   4.875   6.215   4.059
  281SOL    HW2 1743   5.001   6.124   4.010
  282SOL     OW 1744   4.187   1.836   0.022
  282SOL    HW1 1745   4.251   1.884   0.082
  282SOL    HW2 1746   4.144   1.902   6.982
  283SOL     OW 1747   6.561   1.454   4.954
  283SOL    HW1 1748   6.618   1.373   4.939
  283SOL    HW2 1749   6.523   1.485   4.868
  284SOL     OW 1750   6.182   5.274   4.553
  284SOL    HW1 1751   6.146   5.346   4.494
  284SOL    HW2 1752   6.107   5.229   4.600
  285SOL     OW 1753   4.247   0.606   6.749
  285SOL    HW1 1754   4.249   0.565   6.841
  285SOL    HW2 1755   4.171   0.670   6.744
  286SOL     OW 1756   3.735   4.898   4.836
  286SOL    HW1 1757   3.810   4.930   4.894
  286SOL    HW2 1758   3.758   4.809   4.798
  287SOL     OW 1759   2.640   6.344   5.582
  287SOL    HW1 1760   2.637   6.245   5.573
  287SOL    HW2 1761   2.554   6.377   5.620
  288SOL     OW 1762   3.402   1.047   0.351
  288SOL    HW1 1763   3.307   1.078   0.356
  288SOL    HW2 1764   3.463   1.121   0.380
  289SOL     OW 1765   0.615   6.359   4.054
  289SOL    HW1 1766   0.646   6.435   3.996
  289SOL    HW2 1767   0.552   6.394   4.124
  290SOL     OW 1768   3.652   0.545   4.248
  290SOL    HW1 1769   3.741   0.543   4.293
  290SOL    HW2 1770   3.664   0.550   4.149
  291SOL     OW 1771   4.195   0.616   4.969
  291SOL    HW1 1772   4.207   0.709   5.003
  291SOL    HW2 1773   4.197   0.616   4.869
  292SOL     OW 1774   3.558   0.174   3.687
  292SOL    HW1 1775   3.596   0.248   3.743
  292SOL    HW2 1776   3.589   0.186   3.592
  293SOL     OW 1777   5.846   6.752   3.173
  293SOL    HW1 1778   5.818   6.781   3.082
  293SOL    HW2 1779   5.945   6.764   3.183
  294SOL     OW 1780   5.921   0.972   5.753
  294SOL    HW1 1781   5.927   1.071   5.765
  294SOL    HW2 1782   5.966   0.926   5.829
  295SOL     OW 1783   1.215   1.879   5.389
  295SOL    HW1 1784   1.281   1.838   5.451
  295SOL    HW2 1785   1.261   1.907   5.305
  296SOL     OW 1786   6.801   1.748   1.568
  296SOL    HW1 1787   6.848   1.766   1.655
  296SOL    HW2 1788   6.833   1.662   1.530
  297SOL     OW 1789   5.813   4.478   3.607
  297SOL    HW1 1790   5.798   4.379   3.601
  297SOL    HW2 1791   5.911   4.495   3.617
  298SOL     OW 1792   3.806   1.205   0.201
  298SOL    HW1 1793   3.768   1.151   0.276
  298SOL    HW2 1794   3.734   1.224   0.134
  299SOL     OW 1795   2.345   1.354   6.534
  299SOL    HW1 1796   2.424   1.367   6.594
  299SOL    HW2 1797   2.269   1.314   6.585
  300SOL     OW 1798   3.949   0.900   2.816
  300SOL    HW1 1799   3.899   0.814   2.806
  300SOL    HW2 1800   3.896   0.974   2.773
  301SOL     OW 1801   6.218   5.889   1.219
  301SOL    HW1 1802   6.230   5.793   1.245
  301SOL    HW2 1803   6.306   5.927   1.191
  302SOL     OW 1804   6.138   6.447   0.771
  302SOL    HW1 1805   6.184   6.394   0.842
  302SOL    HW2 1806   6.116   6.388   0.694
  303SOL     OW 1807   6.061   5.827   2.543
  303SOL    HW1 1808   6.160   5.830   2.530
  303SOL    HW2 1809   6.018   5.786   2.462
  304SOL     OW 1810   1.180   6.946   5.238
  304SOL    HW1 1811   1.221   6.896   5.162
  304SOL    HW2 1812   1.106   7.005   5.204
  305SOL     OW 1813   1.500   2.583   2.369
  305SOL    HW1 1814   1.474   2.660   2.310
  305SOL    HW2 1815   1.473   2.603   2.463
  306SOL     OW 1816   6.375   0.823   3.228
  306SOL    HW1 1817   6.393   0.725   3.217
  306SOL    HW2 1818   6.281   0.837   3.259
  307SOL     OW 1819   3.303   3.372   2.548
  307SOL    HW1 1820   3.287   3.394   2.644
  307SOL    HW2 1821   3.220   3.389   2.495
  308SOL     OW 1822   5.650   1.410   4.144
  308SOL    HW1 1823   5.699   1.446   4.064
  308SOL    HW2 1824   5.715   1.365   4.206
  309SOL     OW 1825   0.775   6.412   6.217
  309SOL    HW1 1826   0.734   6.479   6.155
  309SOL    HW2 1827   0.856   6.371   6.173
  310SOL     OW 1828   5.378   5.703   4.960
  310SOL    HW1 1829   5.404   5.784   5.014
  310SOL    HW2 1830   5.435   5.626   4.988
  311SOL     OW 1831   1.630   5.575   2.942
  311SOL    HW1 1832   1.708   5.603   2.887
  311SOL    HW2 1833   1.564   5.650   2.948
  312SOL     OW 1834   4.791   2.225   3.127
  312SOL    HW1 1835   4.781   2.278   3.211
  312SOL    HW2 1836   4.833   2.137   3.148
  313SOL     OW 1837   3.596   3.162   3.619
  313SOL    HW1 1838   3.583   3.240   3.558
  313SOL    HW2 1839   3.619   3.194   3.711
  314SOL     OW 1840   2.349   6.510   5.382
  314SOL    HW1 1841   2.322   6.533   5.476
  314SOL    HW2 1842   2.314   6.419   5.359
  315SOL     OW 1843   6.400   1.432   3.737
  315SOL    HW1 1844   6.384   1.339   3.771
  315SOL    HW2 1845   6.401   1.431   3.637
  316SOL     OW 1846   3.788   1.814   5.191
  316SOL    HW1 1847   3.873   1.839   5.237
  316SOL    HW2 1848   3.752   1.894   5.142
  317SOL     OW 1849   1.206   1.348   1.635
  317SOL    HW1 1850   1.282   1.361   1.573
  317SOL    HW2 1851   1.132   1.301   1.588
  318SOL     OW 1852   0.109   0.643   5.360
  318SOL    HW1 1853   0.184   0.651   5.425
  318SOL    HW2 1854   0.141   0.672   5.269
  319SOL     OW 1855   1.359   2.373   2.205
  319SOL    HW1 1856   1.390   2.322   2.286
  319SOL    HW2 1857   1.417   2.351   2.127
  320SOL     OW 1858   6.216   2.638   6.816
  320SOL    HW1 1859   6.279   2.603   6.886
  320SOL    HW2 1860   6.144   2.571   6.799
  321SOL     OW 1861   4.101   3.150   0.866
  321SOL    HW1 1862   4.015   3.115   0.829
  321SOL    HW2 1863   4.177   3.119   0.809
  322SOL     OW 1864   4.303   3.056   6.588
  322SOL    HW1 1865   4.309   3.023   6.683
  322SOL    HW2 1866   4.252   3.142   6.586
  323SOL     OW 1867   0.516   3.503   3.680
  323SOL    HW1 1868   0.555   3.480   3.768
  323SOL    HW2 1869   0.428   3.549   3.693
  324SOL     OW 1870   1.421   0.161   3.080
  324SOL    HW1 1871   1.376   0.133   2.995
  324SOL    HW2 1872   1.351   0.178   3.150
  325SOL     OW 1873   0.685   3.762   2.764
  325SOL    HW1 1874   0.610   3.695   2.770
  325SOL    HW2 1875   0.662   3.831   2.694
  326SOL     OW 1876   1.849   6.351   6.550
  326SOL    HW1 1877   1.826   6.351   6.453
  326SOL    HW2 1878   1.938   6.396   6.563
  327SOL     OW 1879   4.315   5.315   3.706
  327SOL    HW1 1880   4.284   5.297   3.799
  327SOL    HW2 1881   4.236   5.334   3.648
  328SOL     OW 1882   2.448   4.533   2.252
  328SOL    HW1 1883   2.389   4.480   2.313
  328SOL    HW2 1884   2.499   4.601   2.304
  329SOL     OW 1885   3.228   4.164   1.551
  329SOL    HW1 1886   3.202   4.078   1.506
  329SOL    HW2 1887   3.180   4.172   1.638
  330SOL     OW 1888   4.170   4.903   0.272
  330SOL    HW1 1889   4.130   4.902   0.364
  330SOL    HW2 1890   4.143   4.820   0.224
  331SOL     OW 1891   4.898   5.643   0.148
  331SOL    HW1 1892   4.847   5.593   0.078
  331SOL    HW2 1893   4.951   5.579   0.203
  332SOL     OW 1894   5.308   2.014   2.922
  332SOL    HW1 1895   5.285   1.980   2.830
  332SOL    HW2 1896   5.344   2.107   2.915
  333SOL     OW 1897   3.682   1.164   5.778
  333SOL    HW1 1898   3.745   1.087   5.782
  333SOL    HW2 1899   3.604   1.141   5.720
  334SOL     OW 1900   4.000   3.835   3.292
  334SOL    HW1 1901   4.084   3.795   3.256
  334SOL    HW2 1902   3.968   3.782   3.371
  335SOL     OW 1903   3.485   0.179   6.421
  335SOL    HW1 1904   3.523   0.102   6.473
  335SOL    HW2 1905   3.406   0.148   6.368
  336SOL     OW 1906   2.686   1.759   3.027
  336SOL    HW1 1907   2.593   1.767   2.991
  336SOL    HW2 1908   2.696   1.821   3.106
  337SOL     OW 1909   1.625   1.840   5.891
  337SOL    HW1 1910   1.567   1.882   5.820
  337SOL    HW2 1911   1.643   1.744   5.866
  338SOL     OW 1912   4.501   2.366   1.375
  338SOL    HW1 1913   4.488   2.343   1.471
  338SOL    HW2 1914   4.505   2.465   1.365
  339SOL     OW 1915   3.877   5.129   4.658
  339SOL    HW1 1916   3.924   5.043   4.636
  339SOL    HW2 1917   3.826   5.160   4.578
  340SOL     OW 1918   4.777   2.251   4.401
  340SOL    HW1 1919   4.766   2.308   4.482
  340SOL    HW2 1920   4.824   2.303   4.330
  341SOL     OW 1921   5.869   6.537   3.410
  341SOL    HW1 1922   5.858   6.599   3.333
  341SOL    HW2 1923   5.785   6.484   3.423
  342SOL     OW 1924   4.764   2.247   1.356
  342SOL    HW1 1925   4.687   2.307   1.378
  342SOL    HW2 1926   4.779   2.182   1.431
  343SOL     OW 1927   1.375   5.258   3.327
  343SOL    HW1 1928   1.344   5.354   3.329
  343SOL    HW2 1929   1.475   5.256   3.318
  344SOL     OW 1930   1.916   1.082   1.481
  344SOL    HW1 1931   1.879   1.172   1.501
  344SOL    HW2 1932   1.841   1.020   1.455
  345SOL     OW 1933   6.471   2.492   4.065
  345SOL    HW1 1934   6.415   2.453   3.991
  345SOL    HW2 1935   6.417   2.559   4.115
  346SOL     OW 1936   1.406   0.388   2.777
  346SOL    HW1 1937   1.357   0.456   2.722
  346SOL    HW2 1938   1.354   0.303   2.778
  347SOL     OW 1939   3.069   5.201   0.343
  347SOL    HW1 1940   2.976   5.238   0.340
  347SOL    HW2 1941   3.107   5.214   0.434
  348SOL     OW 1942   4.920   5.474   2.135
  348SOL    HW1 1943   4.998   5.524   2.173
  348SOL    HW2 1944   4.953   5.403   2.073
  349SOL     OW 1945   6.981   4.135   1.067
  349SOL    HW1 1946   6.883   4.154   1.066
  349SOL    HW2 1947   6.996   4.037   1.053
  350SOL     OW 1948   3.685   2.932   6.762
  350SOL    HW1 1949   3.697   3.012   6.704
  350SOL    HW2 1950   3.645   2.960   6.850
  351SOL     OW 1951   3.578   4.448   0.570
  351SOL    HW1 1952   3.530   4.516   0.515
  351SOL    HW2 1953   3.544   4.453   0.665
  352SOL     OW 1954   4.411   6.152   3.415
  352SOL    HW1 1955   4.334   6.163   3.478
  352SOL    HW2 1956   4.496   6.166   3.465
  353SOL     OW 1957   2.632   6.905   6.335
  353SOL    HW1 1958   2.534   6.893   6.320
  353SOL    HW2 1959   2.647   6.981   6.399
  354SOL     OW 1960   5.859   2.504   0.967
  354SOL    HW1 1961   5.854   2.467   1.060
  354SOL    HW2 1962   5.932   2.573   0.963
  355SOL     OW 1963   1.934   2.535   2.423
  355SOL    HW1 1964   1.929   2.606   2.353
  355SOL    HW2 1965   1.970   2.574   2.507
  356SOL     OW 1966   1.726   0.425   5.571
  356SOL    HW1 1967   1.825   0.427   5.564
  356SOL    HW2 1968   1.698   0.350   5.632
  357SOL     OW 1969   5.708   6.876   4.891
  357SOL    HW1 1970   5.727   6.833   4.803
  357SOL    HW2 1971   5.751   6.966   4.894
  358SOL     OW 1972   5.232   5.896   0.955
  358SOL    HW1 1973   5.156   5.912   0.892
  358SOL    HW2 1974   5.282   5.982   0.970
  359SOL     OW 1975   3.142   2.006   1.859
  359SOL    HW1 1976   3.213   2.050   1.803
  359SOL    HW2 1977   3.153   1.907   1.855
  360SOL     OW 1978   1.097   5.067   4.198
  360SOL    HW1 1979   1.156   4.987   4.201
  360SOL    HW2 1980   1.003   5.038   4.179
  361SOL     OW 1981   6.897   5.868   3.156
  361SOL    HW1 1982   6.888   5.843   3.059
  361SOL    HW2 1983   6.922   5.787   3.209
  362SOL     OW 1984   3.922   4.270   0.910
  362SOL    HW1 1985   3.962   4.263   0.819
  362SOL    HW2 1986   3.823   4.258   0.904
  363SOL     OW 1987   6.377   4.945   2.652
  363SOL    HW1 1988   6.445   4.884   2.610
  363SOL    HW2 1989   6.290   4.897   2.662
  364SOL     OW 1990   1.115   5.371   6.668
  364SOL    HW1 1991   1.123   5.356   6.767
  364SOL    HW2 1992   1.081   5.288   6.624
  365SOL     OW 1993   3.400   1.181   2.087
  365SOL    HW1 1994   3.414   1.261   2.146
  365SOL    HW2 1995   3.330   1.123   2.126
  366SOL     OW 1996   5.855   3.406   0.391
  366SOL    HW1 1997   5.787   3.389   0.462
  366SOL    HW2 1998   5.828   3.488   0.340
  367SOL     OW 1999   4.586   1.985   5.685
  367SOL    HW1 2000   4.676   2.028   5.680
  367SOL    HW2 2001   4.596   1.891   5.718
  368SOL     OW 2002   6.535   2.513   6.016
  368SOL    HW1 2003   6.569   2.435   6.069
  368SOL    HW2 2004   6.605   2.585   6.013
  369SOL     OW 2005   5.561   3.927   3.043
  369SOL    HW1 2006   5.579   3.835   3.009
  369SOL    HW2 2007   5.637   3.987   3.018
  370SOL     OW 2008   2.035   2.520   4.136
  370SOL    HW1 2009   1.978   2.497   4.215
  370SOL    HW2 2010   2.131   2.510   4.160
  371SOL     OW 2011   2.112   3.939   6.659
  371SOL    HW1 2012   2.139   3.854   6.614
  371SOL    HW2 2013   2.146   4.017   6.607
  372SOL     OW 2014   2.598   6.873   5.474
  372SOL    HW1 2015   2.534   6.877   5.397
  372SOL    HW2 2016   2.630   6.780   5.486
  373SOL     OW 2017   5.959   6.708   4.854
  373SOL    HW1 2018   5.975   6.807   4.846
  373SOL    HW2 2019   6.010   6.673   4.933
  374SOL     OW 2020   2.667   1.684   2.571
  374SOL    HW1 2021   2.696   1.730   2.655
  374SOL    HW2 2022   2.734   1.700   2.499
  375SOL     OW 2023   0.662   5.478   5.125
  375SOL    HW1 2024   0.690   5.442   5.037
  375SOL    HW2 2025   0.566   5.454   5.142
  376SOL     OW 2026   2.560   1.365   4.340
  376SOL    HW1 2027   2.644   1.420   4.347
  376SOL    HW2 2028   2.583   1.269   4.353
  377SOL     OW 2029   1.622   2.190   6.996
  377SOL    HW1 2030   1.585   2.136   6.920
  377SOL    HW2 2031   1.616   2.287   6.974
  378SOL     OW 2032   2.849   1.551   0.111
  378SOL    HW1 2033   2.929   1.591   0.066
  378SOL    HW2 2034   2.859   1.558   0.210
  379SOL     OW 2035   5.743   2.507   6.428
  379SOL    HW1 2036   5.678   2.530   6.501
  379SOL    HW2 2037   5.724   2.563   6.348
  380SOL     OW 2038   3.449   1.117   1.145
  380SOL    HW1 2039   3.445   1.073   1.235
  380SOL    HW2 2040   3.460   1.216   1.158
  381SOL     OW 2041   1.379   4.825   3.991
  381SOL    HW1 2042   1.413   4.916   4.015
  381SOL    HW2 2043   1.280   4.822   4.005
  382SOL     OW 2044   6.093   0.727   6.996
  382SOL    HW1 2045   6.000   0.736   0.009
  382SOL    HW2 2046   6.144   0.663   0.033
  383SOL     OW 2047   3.766   2.899   1.061
  383SOL    HW1 2048   3.723   2.880   0.973
  383SOL    HW2 2049   3.770   2.998   1.076
  384SOL     OW 2050   7.017   3.826   4.117
  384SOL    HW1 2051   6.935   3.817   4.175
  384SOL    HW2 2052   0.003   3.921   4.085
  385SOL     OW 2053   3.957   5.194   6.278
  385SOL    HW1 2054   3.865   5.234   6.289
  385SOL    HW2 2055   3.965   5.154   6.187
  386SOL     OW 2056   4.494   0.372   4.419
  386SOL    HW1 2057   4.581   0.370   4.469
  386SOL    HW2 2058   4.422   0.333   4.475
  387SOL     OW 2059   2.510   5.042   3.049
  387SOL    HW1 2060   2.572   5.081   2.981
  387SOL    HW2 2061   2.432   5.103   3.063
  388SOL     OW 2062   2.028   2.149   6.395
  388SOL    HW1 2063   1.930   2.154   6.377
  388SOL    HW2 2064   2.078   2.146   6.308
  389SOL     OW 2065   3.350   4.076   2.916
  389SOL    HW1 2066   3.330   3.979   2.931
  389SOL    HW2 2067   3.399   4.087   2.830
  390SOL     OW 2068   2.481   1.025   3.595
  390SOL    HW1 2069   2.580   1.042   3.594
  390SOL    HW2 2070   2.436   1.096   3.649
  391SOL     OW 2071   1.530   2.850   0.489
  391SOL    HW1 2072   1.569   2.858   0.581
  391SOL    HW2 2073   1.561   2.926   0.433
  392SOL     OW 2074   2.357   5.017   1.398
  392SOL    HW1 2075   2.345   4.928   1.356
  392SOL    HW2 2076   2.407   5.007   1.484
  393SOL     OW 2077   6.086   4.633   5.465
  393SOL    HW1 2078   6.164   4.696   5.473
  393SOL    HW2 2079   6.089   4.567   5.539
  394SOL     OW 2080   0.489   6.681   0.137
  394SOL    HW1 2081   0.505   6.702   0.041
  394SOL    HW2 2082   0.390   6.671   0.153
  395SOL     OW 2083   4.878   3.628   2.326
  395SOL    HW1 2084   4.845   3.579   2.245
  395SOL    HW2 2085   4.970   3.596   2.349
  396SOL     OW 2086   3.756   3.533   3.208
  396SOL    HW1 2087   3.742   3.439   3.240
  396SOL    HW2 2088   3.852   3.546   3.183
  397SOL     OW 2089   4.361   2.579   5.601
  397SOL    HW1 2090   4.273   2.533   5.590
  397SOL    HW2 2091   4.384   2.584   5.699
  398SOL     OW 2092   0.911   5.747   2.398
  398SOL    HW1 2093   0.930   5.650   2.410
  398SOL    HW2 2094   0.818   5.767   2.429
  399SOL     OW 2095   4.773   5.440   2.362
  399SOL    HW1 2096   4.760   5.523   2.416
  399SOL    HW2 2097   4.834   5.459   2.285
  400SOL     OW 2098   0.001   0.172   5.401
  400SOL    HW1 2099   7.019   0.272   5.401
  400SOL    HW2 2100   6.971   0.136   5.324
  401SOL     OW 2101   4.872   0.988   6.510
  401SOL    HW1 2102   4.787   1.030   6.540
  401SOL    HW2 2103   4.896   1.024   6.419
  402SOL     OW 2104   6.647   6.306   3.104
  402SOL    HW1 2105   6.672   6.214   3.136
  402SOL    HW2 2106   6.719   6.341   3.044
  403SOL     OW 2107   4.730   2.309   5.749
  403SOL    HW1 2108   4.693   2.277   5.837
  403SOL    HW2 2109   4.732   2.409   5.748
  404SOL     OW 2110   1.690   6.764   3.272
  404SOL    HW1 2111   1.672   6.852   3.318
  404SOL    HW2 2112   1.678   6.776   3.173
  405SOL     OW 2113   1.673   2.288   1.174
  405SOL    HW1 2114   1.654   2.254   1.082
  405SOL    HW2 2115   1.770   2.310   1.182
  406SOL     OW 2116   1.008   2.819   4.021
  406SOL    HW1 2117   1.080   2.787   4.083
  406SOL    HW2 2118   0.926   2.841   4.073
  407SOL     OW 2119   2.662   6.818   4.577
  407SOL    HW1 2120   2.576   6.777   4.608
  407SOL    HW2 2121   2.728   6.746   4.558
  408SOL     OW 2122   1.832   0.542   3.243
  408SOL    HW1 2123   1.765   0.611   3.271
  408SOL    HW2 2124   1.833   0.536   3.143
  409SOL     OW 2125   5.801   3.291   2.924
  409SOL    HW1 2126   5.865   3.234   2.872
  409SOL    HW2 2127   5.720   3.237   2.947
  410SOL     OW 2128   2.502   0.377   0.540
  410SOL    HW1 2129   2.421   0.432   0.561
  410SOL    HW2 2130   2.578   0.405   0.599
  411SOL     OW 2131   5.718   6.091   6.679
  411SOL    HW1 2132   5.794   6.041   6.720
  411SOL    HW2 2133   5.748   6.183   6.654
  412SOL     OW 2134   3.717   6.237   2.775
  412SOL    HW1 2135   3.692   6.236   2.872
  412SOL    HW2 2136   3.638   6.214   2.719
  413SOL     OW 2137   3.648   4.820   0.732
  413SOL    HW1 2138   3.727   4.776   0.688
  413SOL    HW2 2139   3.571   4.820   0.668
  414SOL     OW 2140   4.440   5.182   2.393
  414SOL    HW1 2141   4.460   5.267   2.344
  414SOL    HW2 2142   4.347   5.153   2.373
  415SOL     OW 2143   1.617   5.758   0.456
  415SOL    HW1 2144   1.554   5.685   0.429
  415SOL    HW2 2145   1.574   5.847   0.442
  416SOL     OW 2146   4.213   5.545   4.915
  416SOL    HW1 2147   4.279   5.470   4.920
  416SOL    HW2 2148   4.121   5.508   4.899
  417SOL     OW 2149   2.923   6.667   1.181
  417SOL    HW1 2150   2.942   6.756   1.222
  417SOL    HW2 2151   2.874   6.610   1.247
  418SOL     OW 2152   4.827   6.180   0.310
  418SOL    HW1 2153   4.872   6.091   0.314
  418SOL    HW2 2154   4.776   6.188   0.224
  419SOL     OW 2155   0.946   0.376   1.414
  419SOL    HW1 2156   1.001   0.294   1.429
  419SOL    HW2 2157   0.985   0.430   1.339
  420SOL     OW 2158   5.858   3.794   1.294
  420SOL    HW1 2159   5.886   3.800   1.390
  420SOL    HW2 2160   5.916   3.726   1.248
  421SOL     OW 2161   0.846   5.216   6.288
  421SOL    HW1 2162   0.811   5.148   6.224
  421SOL    HW2 2163   0.776   5.238   6.355
  422SOL     OW 2164   6.231   5.579   0.919
  422SOL    HW1 2165   6.245   5.524   0.837
  422SOL    HW2 2166   6.320   5.615   0.950
  423SOL     OW 2167   6.251   3.192   0.253
  423SOL    HW1 2168   6.152   3.181   0.264
  423SOL    HW2 2169   6.283   3.263   0.316
  424SOL     OW 2170   3.236   3.259   0.427
  424SOL    HW1 2171   3.144   3.246   0.464
  424SOL    HW2 2172   3.259   3.182   0.367
  425SOL     OW 2173   5.160   1.370   1.704
  425SOL    HW1 2174   5.062   1.373   1.723
  425SOL    HW2 2175   5.211   1.366   1.790
  426SOL     OW 2176   5.666   2.320   5.055
  426SOL    HW1 2177   5.634   2.357   5.142
  426SOL    HW2 2178   5.590   2.278   5.007
  427SOL     OW 2179   5.589   4.856   2.311
  427SOL    HW1 2180   5.534   4.901   2.240
  427SOL    HW2 2181   5.533   4.787   2.356
  428SOL     OW 2182   4.460   0.404   5.159
  428SOL    HW1 2183   4.461   0.446   5.249
  428SOL    HW2 2184   4.366   0.381   5.134
  429SOL     OW 2185   2.848   5.368   0.694
  429SOL    HW1 2186   2.819   5.391   0.787
  429SOL    HW2 2187   2.936   5.411   0.676
  430SOL     OW 2188   1.023   6.860   4.095
  430SOL    HW1 2189   0.942   6.810   4.127
  430SOL    HW2 2190   1.102   6.832   4.150
  431SOL     OW 2191   3.078   1.196   6.973
  431SOL    HW1 2192   3.063   1.097   6.971
  431SOL    HW2 2193   2.996   1.241   7.007
  432SOL     OW 2194   6.504   2.933   0.812
  432SOL    HW1 2195   6.575   3.003   0.816
  432SOL    HW2 2196   6.543   2.844   0.833
  433SOL     OW 2197   2.720   0.165   4.186
  433SOL    HW1 2198   2.673   0.100   4.126
  433SOL    HW2 2199   2.674   0.167   4.275
  434SOL     OW 2200   4.978   5.047   1.442
  434SOL    HW1 2201   4.954   4.954   1.415
  434SOL    HW2 2202   5.077   5.057   1.444
  435SOL     OW 2203   3.674   2.710   5.403
  435SOL    HW1 2204   3.651   2.795   5.450
  435SOL    HW2 2205   3.773   2.705   5.390
  436SOL     OW 2206   2.109   6.776   0.783
  436SOL    HW1 2207   2.177   6.757   0.853
  436SOL    HW2 2208   2.108   6.874   0.762
  437SOL     OW 2209   0.207   0.236   6.395
  437SOL    HW1 2210   0.283   0.279   6.442
  437SOL    HW2 2211   0.221   0.240   6.296
  438SOL     OW 2212   1.779   3.006   2.271
  438SOL    HW1 2213   1.812   3.085   2.323
  438SOL    HW2 2214   1.719   3.037   2.197
  439SOL     OW 2215   5.580   4.472   3.413
  439SOL    HW1 2216   5.615   4.421   3.335
  439SOL    HW2 2217   5.647   4.470   3.487
  440SOL     OW 2218   1.248   2.078   4.611
  440SOL    HW1 2219   1.212   2.005   4.668
  440SOL    HW2 2220   1.315   2.131   4.663
  441SOL     OW 2221   0.405   1.582   3.203
  441SOL    HW1 2222   0.468   1.657   3.185
  441SOL    HW2 2223   0.455   1.505   3.243
  442SOL     OW 2224   1.732   4.525   0.086
  442SOL    HW1 2225   1.687   4.572   0.011
  442SOL    HW2 2226   1.811   4.474   0.052
  443SOL     OW 2227   0.948   4.348   5.252
  443SOL    HW1 2228   0.986   4.325   5.342
  443SOL    HW2 2229   0.999   4.300   5.181
  444SOL     OW 2230   4.984   2.731   6.040
  444SOL    HW1 2231   5.078   2.702   6.062
  444SOL    HW2 2232   4.985   2.827   6.011
  445SOL     OW 2233   1.738   5.559   3.342
  445SOL    HW1 2234   1.806   5.547   3.270
  445SOL    HW2 2235   1.784   5.585   3.428
  446SOL     OW 2236   4.124   4.722   3.376
  446SOL    HW1 2237   4.176   4.662   3.437
  446SOL    HW2 2238   4.044   4.673   3.341
  447SOL     OW 2239   0.598   3.685   6.773
  447SOL    HW1 2240   0.554   3.771   6.746
  447SOL    HW2 2241   0.551   3.609   6.728
  448SOL     OW 2242   3.578   0.350   4.913
  448SOL    HW1 2243   3.623   0.262   4.926
  448SOL    HW2 2244   3.557   0.364   4.816
  449SOL     OW 2245   4.611   0.946   5.475
  449SOL    HW1 2246   4.669   0.875   5.515
  449SOL    HW2 2247   4.516   0.915   5.473
  450SOL     OW 2248   1.046   5.765   2.979
  450SOL    HW1 2249   1.114   5.713   3.031
  450SOL    HW2 2250   1.089   5.804   2.897
  451SOL     OW 2251   1.072   2.216   2.241
  451SOL    HW1 2252   1.026   2.281   2.301
  451SOL    HW2 2253   1.093   2.260   2.154
  452SOL     OW 2254   6.381   5.981   0.467
  452SOL    HW1 2255   6.476   6.007   0.447
  452SOL    HW2 2256   6.363   5.891   0.426
  453SOL     OW 2257   2.942   7.006   5.618
  453SOL    HW1 2258   2.882   7.015   5.539
  453SOL    HW2 2259   2.995   0.069   5.629
  454SOL     OW 2260   6.978   5.620   5.777
  454SOL    HW1 2261   0.002   5.589   5.694
  454SOL    HW2 2262   6.955   5.717   5.768
  455SOL     OW 2263   6.582   0.312   4.080
  455SOL    HW1 2264   6.634   0.395   4.061
  455SOL    HW2 2265   6.485   0.333   4.079
  456SOL     OW 2266   4.545   5.902   4.997
  456SOL    HW1 2267   4.634   5.855   5.002
  456SOL    HW2 2268   4.472   5.837   5.020
  457SOL     OW 2269   2.076   3.703   3.552
  457SOL    HW1 2270   2.128   3.713   3.467
  457SOL    HW2 2271   1.985   3.667   3.532
  458SOL     OW 2272   4.860   5.511   4.917
  458SOL    HW1 2273   4.939   5.544   4.968
  458SOL    HW2 2274   4.891   5.448   4.845
  459SOL     OW 2275   1.453   0.259   4.062
  459SOL    HW1 2276   1.394   0.246   3.983
  459SOL    HW2 2277   1.510   0.177   4.075
  460SOL     OW 2278   0.342   0.951   2.465
  460SOL    HW1 2279   0.433   0.980   2.496
  460SOL    HW2 2280   0.348   0.916   2.372
  461SOL     OW 2281   5.599   6.497   4.525
  461SOL    HW1 2282   5.613   6.428   4.454
  461SOL    HW2 2283   5.658   6.576   4.507
  462SOL     OW 2284   4.316   2.273   5.955
  462SOL    HW1 2285   4.389   2.242   5.894
  462SOL    HW2 2286   4.283   2.362   5.925
  463SOL     OW 2287   5.972   6.530   2.952
  463SOL    HW1 2288   5.883   6.492   2.928
  463SOL    HW2 2289   6.042   6.494   2.890
  464SOL     OW 2290   2.824   1.871   6.413
  464SOL    HW1 2291   2.762   1.792   6.417
  464SOL    HW2 2292   2.917   1.839   6.396
  465SOL     OW 2293   1.417   2.305   4.061
  465SOL    HW1 2294   1.512   2.332   4.076
  465SOL    HW2 2295   1.413   2.206   4.043
  466SOL     OW 2296   0.702   5.449   3.223
  466SOL    HW1 2297   0.769   5.510   3.180
  466SOL    HW2 2298   0.617   5.451   3.170
  467SOL     OW 2299   1.004   0.377   6.155
  467SOL    HW1 2300   1.060   0.453   6.123
  467SOL    HW2 2301   1.063   0.301   6.181
  468SOL     OW 2302   2.903   6.018   0.479
  468SOL    HW1 2303   2.921   6.097   0.420
  468SOL    HW2 2304   2.846   5.952   0.430
  469SOL     OW 2305   2.685   4.459   0.825
  469SOL    HW1 2306   2.611   4.464   0.891
  469SOL    HW2 2307   2.743   4.541   0.833
  470SOL     OW 2308   3.372   0.756   2.312
  470SOL    HW1 2309   3.275   0.733   2.320
  470SOL    HW2 2310   3.400   0.811   2.391
  471SOL     OW 2311   1.544   2.262   4.422
  471SOL    HW1 2312   1.585   2.272   4.513
  471SOL    HW2 2313   1.446   2.282   4.427
  472SOL     OW 2314   5.382   3.866   6.944
  472SOL    HW1 2315   5.392   3.943   7.007
  472SOL    HW2 2316   5.292   3.869   6.901
  473SOL     OW 2317   0.218   2.966   1.222
  473SOL    HW1 2318   0.268   2.977   1.308
  473SOL    HW2 2319   0.280   2.932   1.151
  474SOL     OW 2320   4.611   4.942   4.022
  474SOL    HW1 2321   4.600   5.027   3.970
  474SOL    HW2 2322   4.561   4.949   4.108
  475SOL     OW 2323   6.103   0.963   6.707
  475SOL    HW1 2324   6.099   0.976   6.806
  475SOL    HW2 2325   6.026   0.908   6.677
  476SOL     OW 2326   0.561   4.184   2.421
  476SOL    HW1 2327   0.619   4.239   2.360
  476SOL    HW2 2328   0.478   4.158   2.372
  477SOL     OW 2329   2.014   4.745   5.167
  477SOL    HW1 2330   2.065   4.709   5.089
  477SOL    HW2 2331   2.004   4.844   5.157
  478SOL     OW 2332   3.139   6.775   2.263
  478SOL    HW1 2333   3.048   6.735   2.258
  478SOL    HW2 2334   3.138   6.866   2.221
  479SOL     OW 2335   4.467   2.293   0.094
  479SOL    HW1 2336   4.492   2.390   0.104
  479SOL    HW2 2337   4.368   2.283   0.109
  480SOL     OW 2338   2.267   0.666   0.364
  480SOL    HW1 2339   2.362   0.691   0.344
  480SOL    HW2 2340   2.229   0.614   0.288
  481SOL     OW 2341   1.743   6.823   0.244
  481SOL    HW1 2342   1.753   6.821   0.145
  481SOL    HW2 2343   1.671   6.887   0.270
  482SOL     OW 2344   4.427   4.586   2.615
  482SOL    HW1 2345   4.371   4.616   2.537
  482SOL    HW2 2346   4.429   4.657   2.685
  483SOL     OW 2347   6.458   2.186   1.480
  483SOL    HW1 2348   6.449   2.146   1.572
  483SOL    HW2 2349   6.555   2.199   1.459
  484SOL     OW 2350   1.126   3.151   5.018
  484SOL    HW1 2351   1.129   3.072   5.079
  484SOL    HW2 2352   1.172   3.229   5.062
  485SOL     OW 2353   4.218   5.686   1.874
  485SOL    HW1 2354   4.267   5.647   1.795
  485SOL    HW2 2355   4.283   5.705   1.947
  486SOL     OW 2356   0.257   2.018   0.834
  486SOL    HW1 2357   0.308   1.971   0.906
  486SOL    HW2 2358   0.276   2.116   0.840
  487SOL     OW 2359   0.513   2.031   0.357
  487SOL    HW1 2360   0.597   2.076   0.388
  487SOL    HW2 2361   0.512   2.030   0.257
  488SOL     OW 2362   0.486   1.130   1.547
  488SOL    HW1 2363   0.507   1.116   1.644
  488SOL    HW2 2364   0.397   1.090   1.526
  489SOL     OW 2365   3.780   6.038   6.615
  489SOL    HW1 2366   3.824   6.127   6.615
  489SOL    HW2 2367   3.733   6.024   6.527
  490SOL     OW 2368   6.863   6.327   3.373
  490SOL    HW1 2369   6.817   6.245   3.341
  490SOL    HW2 2370   6.902   6.310   3.464
  491SOL     OW 2371   0.395   2.890   2.842
  491SOL    HW1 2372   0.483   2.931   2.868
  491SOL    HW2 2373   0.382   2.805   2.893
  492SOL     OW 2374   2.957   0.162   4.932
  492SOL    HW1 2375   2.914   0.088   4.881
  492SOL    HW2 2376   2.888   0.228   4.961
  493SOL     OW 2377   5.247   5.887   5.315
  493SOL    HW1 2378   5.193   5.960   5.357
  493SOL    HW2 2379   5.311   5.927   5.249
  494SOL     OW 2380   0.628   0.153   6.894
  494SOL    HW1 2381   0.614   0.091   6.972
  494SOL    HW2 2382   0.540   0.191   6.866
  495SOL     OW 2383   5.227   6.036   2.875
  495SOL    HW1 2384   5.296   6.094   2.831
  495SOL    HW2 2385   5.211   6.068   2.968
  496SOL     OW 2386   5.348   3.518   2.893
  496SOL    HW1 2387   5.362   3.467   2.978
  496SOL    HW2 2388   5.262   3.569   2.899
  497SOL     OW 2389   3.203   1.684   5.800
  497SOL    HW1 2390   3.222   1.608   5.861
  497SOL    HW2 2391   3.230   1.770   5.844
  498SOL     OW 2392   1.610   3.716   1.635
  498SOL    HW1 2393   1.512   3.723   1.616
  498SOL    HW2 2394   1.626   3.714   1.733
  499SOL     OW 2395   3.205   0.209   4.325
  499SOL    HW1 2396   3.152   0.254   4.397
  499SOL    HW2 2397   3.183   0.112   4.323
  500SOL     OW 2398   0.948   3.772   2.696
  500SOL    HW1 2399   0.853   3.741   2.705
  500SOL    HW2 2400   1.003   3.699   2.655
  501SOL     OW 2401   3.221   0.400   0.571
  501SOL    HW1 2402   3.237   0.321   0.630
  501SOL    HW2 2403   3.124   0.421   0.569
  502SOL     OW 2404   6.345   4.527   6.513
  502SOL    HW1 2405   6.434   4.534   6.469
  502SOL    HW2 2406   6.312   4.619   6.536
  503SOL     OW 2407   5.605   5.642   5.854
  503SOL    HW1 2408   5.690   5.692   5.838
  503SOL    HW2 2409   5.572   5.661   5.946
  504SOL     OW 2410   2.796   5.837   3.137
  504SOL    HW1 2411   2.707   5.791   3.135
  504SOL    HW2 2412   2.846   5.809   3.219
  505SOL     OW 2413   3.845   6.939   5.632
  505SOL    HW1 2414   3.921   6.902   5.578
  505SOL    HW2 2415   3.809   6.869   5.693
  506SOL     OW 2416   1.358   5.468   4.544
  506SOL    HW1 2417   1.329   5.473   4.448
  506SOL    HW2 2418   1.436   5.529   4.558
  507SOL     OW 2419   3.602   0.814   4.331
  507SOL    HW1 2420   3.665   0.884   4.296
  507SOL    HW2 2421   3.622   0.726   4.287
  508SOL     OW 2422   6.386   4.082   2.664
  508SOL    HW1 2423   6.357   4.173   2.696
  508SOL    HW2 2424   6.313   4.016   2.680
  509SOL     OW 2425   2.862   1.016   1.237
  509SOL    HW1 2426   2.857   1.039   1.140
  509SOL    HW2 2427   2.838   0.920   1.250
  510SOL     OW 2428   6.539   5.098   5.852
  510SOL    HW1 2429   6.586   5.054   5.775
  510SOL    HW2 2430   6.527   5.196   5.832
  511SOL     OW 2431   0.749   6.787   6.741
  511SOL    HW1 2432   0.732   6.768   6.644
  511SOL    HW2 2433   0.806   6.715   6.780
  512SOL     OW 2434   6.704   3.469   0.366
  512SOL    HW1 2435   6.749   3.551   0.330
  512SOL    HW2 2436   6.706   3.396   0.298
  513SOL     OW 2437   5.707   6.432   2.941
  513SOL    HW1 2438   5.707   6.344   2.894
  513SOL    HW2 2439   5.627   6.437   3.002
  514SOL     OW 2440   6.760   2.447   3.678
  514SOL    HW1 2441   6.787   2.506   3.602
  514SOL    HW2 2442   6.806   2.477   3.762
  515SOL     OW 2443   1.592   0.336   6.666
  515SOL    HW1 2444   1.624   0.286   6.746
  515SOL    HW2 2445   1.661   0.331   6.594
  516SOL     OW 2446   3.058   4.559   1.645
  516SOL    HW1 2447   3.011   4.500   1.710
  516SOL    HW2 2448   3.121   4.620   1.694
  517SOL     OW 2449   4.964   6.294   2.256
  517SOL    HW1 2450   5.060   6.288   2.227
  517SOL    HW2 2451   4.910   6.228   2.204
  518SOL     OW 2452   3.064   2.119   2.102
  518SOL    HW1 2453   3.012   2.196   2.067
  518SOL    HW2 2454   3.090   2.059   2.026
  519SOL     OW 2455   0.185   0.713   4.670
  519SOL    HW1 2456   0.111   0.751   4.726
  519SOL    HW2 2457   0.246   0.658   4.727
  520SOL     OW 2458   6.304   4.753   6.669
  520SOL    HW1 2459   6.204   4.750   6.678
  520SOL    HW2 2460   6.329   4.827   6.607
  521SOL     OW 2461   6.329   2.820   6.257
  521SOL    HW1 2462   6.239   2.859   6.277
  521SOL    HW2 2463   6.334   2.794   6.161
  522SOL     OW 2464   3.723   2.922   4.995
  522SOL    HW1 2465   3.625   2.931   5.013
  522SOL    HW2 2466   3.766   2.872   5.071
  523SOL     OW 2467   0.342   4.854   2.650
  523SOL    HW1 2468   0.410   4.783   2.668
  523SOL    HW2 2469   0.265   4.814   2.599
  524SOL     OW 2470   2.223   0.988   6.661
  524SOL    HW1 2471   2.196   1.084   6.674
  524SOL    HW2 2472   2.147   0.938   6.620
  525SOL     OW 2473   2.794   3.650   6.488
  525SOL    HW1 2474   2.833   3.709   6.559
  525SOL    HW2 2475   2.782   3.703   6.404
  526SOL     OW 2476   2.728   0.308   4.979
  526SOL    HW1 2477   2.715   0.396   4.934
  526SOL    HW2 2478   2.642   0.256   4.977
  527SOL     OW 2479   5.785   3.127   6.100
  527SOL    HW1 2480   5.756   3.168   6.014
  527SOL    HW2 2481   5.878   3.092   6.092
  528SOL     OW 2482   0.831   1.625   4.255
  528SOL    HW1 2483   0.854   1.645   4.160
  528SOL    HW2 2484   0.743   1.667   4.277
  529SOL     OW 2485   0.823   5.617   4.318
  529SOL    HW1 2486   0.854   5.524   4.338
  529SOL    HW2 2487   0.727   5.626   4.344
  530SOL     OW 2488   2.821   2.929   5.558
  530SOL    HW1 2489   2.830   2.856   5.490
  530SOL    HW2 2490   2.738   2.982   5.540
  531SOL     OW 2491   0.311   0.704   1.606
  531SOL    HW1 2492   0.355   0.615   1.620
  531SOL    HW2 2493   0.290   0.715   1.508
  532SOL     OW 2494   0.944   2.710   6.726
  532SOL    HW1 2495   0.930   2.809   6.724
  532SOL    HW2 2496   0.950   2.679   6.821
  533SOL     OW 2497   4.576   5.896   4.275
  533SOL    HW1 2498   4.581   5.816   4.334
  533SOL    HW2 2499   4.657   5.899   4.216
  534SOL     OW 2500   5.474   5.458   3.561
  534SOL    HW1 2501   5.408   5.383   3.550
  534SOL    HW2 2502   5.524   5.471   3.476
  535SOL     OW 2503   0.890   4.072   4.784
  535SOL    HW1 2504   0.976   4.023   4.771
  535SOL    HW2 2505   0.815   4.021   4.742
  536SOL     OW 2506   0.046   4.762   2.187
  536SOL    HW1 2507   0.126   4.773   2.127
  536SOL    HW2 2508   6.991   4.814   2.150
  537SOL     OW 2509   1.961   6.086   3.906
  537SOL    HW1 2510   1.895   6.130   3.846
  537SOL    HW2 2511   2.049   6.134   3.899
  538SOL     OW 2512   2.011   5.817   3.938
  538SOL    HW1 2513   2.106   5.785   3.938
  538SOL    HW2 2514   2.009   5.916   3.925
  539SOL     OW 2515   0.628   5.987   0.124
  539SOL    HW1 2516   0.546   5.932   0.137
  539SOL    HW2 2517   0.700   5.929   0.084
  540SOL     OW 2518   0.229   1.566   1.720
  540SOL    HW1 2519   0.167   1.494   1.691
  540SOL    HW2 2520   0.283   1.535   1.798
  541SOL     OW 2521   2.865   6.436   4.173
  541SOL    HW1 2522   2.965   6.437   4.178
  541SOL    HW2 2523   2.834   6.502   4.105
  542SOL     OW 2524   0.018   6.828   0.569
  542SOL    HW1 2525   0.017   6.927   0.580
  542SOL    HW2 2526   6.945   6.793   0.573
  543SOL     OW 2527   0.032   5.242   5.408
  543SOL    HW1 2528   0.058   5.227   5.503
  543SOL    HW2 2529   0.094   5.193   5.347
  544SOL     OW 2530   1.826   4.266   1.207
  544SOL    HW1 2531   1.884   4.184   1.198
  544SOL    HW2 2532   1.851   4.315   1.290
  545SOL     OW 2533   3.489   1.331   3.464
  545SOL    HW1 2534   3.428   1.280   3.524
  545SOL    HW2 2535   3.479   1.297   3.370
  546SOL     OW 2536   1.629   3.015   1.336
  546SOL    HW1 2537   1.531   3.007   1.355
  546SOL    HW2 2538   1.680   3.013   1.422
  547SOL     OW 2539   2.486   0.987   6.785
  547SOL    HW1 2540   2.403   0.947   6.746
  547SOL    HW2 2541   2.511   0.938   6.868
  548SOL     OW 2542   3.849   3.240   2.838
  548SOL    HW1 2543   3.842   3.191   2.925
  548SOL    HW2 2544   3.758   3.270   2.810
  549SOL     OW 2545   4.509   3.872   1.590
  549SOL    HW1 2546   4.514   3.860   1.491
  549SOL    HW2 2547   4.417   3.851   1.622
  550SOL     OW 2548   0.170   3.527   3.368
  550SOL    HW1 2549   0.122   3.614   3.376
  550SOL    HW2 2550   0.106   3.452   3.386
  551SOL     OW 2551   7.009   1.259   1.022
  551SOL    HW1 2552   6.997   1.160   1.015
  551SOL    HW2 2553   6.948   1.306   0.959
  552SOL     OW 2554   4.529   5.295   0.828
  552SOL    HW1 2555   4.550   5.312   0.924
  552SOL    HW2 2556   4.572   5.210   0.798
  553SOL     OW 2557   1.713   6.913   2.494
  553SOL    HW1 2558   1.701   6.997   2.546
  553SOL    HW2 2559   1.728   6.837   2.558
  554SOL     OW 2560   5.270   7.010   6.508
  554SOL    HW1 2561   5.266   6.995   6.607
  554SOL    HW2 2562   5.210   0.064   6.483
  555SOL     OW 2563   2.323   5.239   4.587
  555SOL    HW1 2564   2.228   5.211   4.600
  555SOL    HW2 2565   2.354   5.288   4.669
  556SOL     OW 2566   6.277   1.824   4.369
  556SOL    HW1 2567   6.185   1.862   4.358
  556SOL    HW2 2568   6.341   1.875   4.312
  557SOL     OW 2569   0.054   5.462   6.615
  557SOL    HW1 2570   0.149   5.454   6.645
  557SOL    HW2 2571   0.041   5.412   6.530
  558SOL     OW 2572   4.029   3.778   4.661
  558SOL    HW1 2573   4.059   3.726   4.581
  558SOL    HW2 2574   4.069   3.739   4.744
  559SOL     OW 2575   5.974   6.024   6.811
  559SOL    HW1 2576   6.061   5.991   6.774
  559SOL    HW2 2577   5.935   5.954   6.872
  560SOL     OW 2578   3.787   6.483   1.009
  560SOL    HW1 2579   3.837   6.404   1.044
  560SOL    HW2 2580   3.714   6.452   0.948
  561SOL     OW 2581   6.407   0.014   6.485
  561SOL    HW1 2582   6.415   6.942   6.518
  561SOL    HW2 2583   6.313   0.032   6.455
  562SOL     OW 2584   4.567   0.516   6.460
  562SOL    HW1 2585   4.659   0.500   6.497
  562SOL    HW2 2586   4.574   0.542   6.364
  563SOL     OW 2587   2.697   0.097   3.366
  563SOL    HW1 2588   2.790   0.066   3.389
  563SOL    HW2 2589   2.675   0.178   3.420
  564SOL     OW 2590   2.300   2.014   5.798
  564SOL    HW1 2591   2.399   2.029   5.793
  564SOL    HW2 2592   2.279   1.960   5.880
  565SOL     OW 2593   4.414   3.253   5.507
  565SOL    HW1 2594   4.384   3.177   5.450
  565SOL    HW2 2595   4.510   3.275   5.486
  566SOL     OW 2596   4.531   4.480   3.489
  566SOL    HW1 2597   4.530   4.423   3.407
  566SOL    HW2 2598   4.525   4.576   3.463
  567SOL     OW 2599   2.936   3.800   3.757
  567SOL    HW1 2600   2.953   3.717   3.704
  567SOL    HW2 2601   2.987   3.876   3.717
  568SOL     OW 2602   3.519   2.641   1.229
  568SOL    HW1 2603   3.471   2.578   1.290
  568SOL    HW2 2604   3.599   2.594   1.191
  569SOL     OW 2605   1.586   3.176   0.673
  569SOL    HW1 2606   1.587   3.260   0.618
  569SOL    HW2 2607   1.645   3.108   0.630
  570SOL     OW 2608   1.311   6.631   6.692
  570SOL    HW1 2609   1.314   6.533   6.671
  570SOL    HW2 2610   1.227   6.670   6.655
  571SOL     OW 2611   3.125   6.191   2.374
  571SOL    HW1 2612   3.081   6.229   2.456
  571SOL    HW2 2613   3.224   6.202   2.381
  572SOL     OW 2614   2.587   4.760   5.750
  572SOL    HW1 2615   2.606   4.692   5.680
  572SOL    HW2 2616   2.642   4.842   5.734
  573SOL     OW 2617   3.640   1.666   4.986
  573SOL    HW1 2618   3.695   1.720   5.049
  573SOL    HW2 2619   3.579   1.606   5.038
  574SOL     OW 2620   2.282   2.465   4.238
  574SOL    HW1 2621   2.317   2.395   4.175
  574SOL    HW2 2622   2.358   2.509   4.285
  575SOL     OW 2623   6.098   4.285   6.853
  575SOL    HW1 2624   6.144   4.196   6.848
  575SOL    HW2 2625   6.114   4.335   6.768
  576SOL     OW 2626   1.428   1.972   1.686
  576SOL    HW1 2627   1.466   1.927   1.767
  576SOL    HW2 2628   1.338   1.935   1.666
  577SOL     OW 2629   2.204   1.560   3.249
  577SOL    HW1 2630   2.203   1.606   3.160
  577SOL    HW2 2631   2.269   1.484   3.246
  578SOL     OW 2632   7.010   3.342   3.445
  578SOL    HW1 2633   6.943   3.405   3.405
  578SOL    HW2 2634   6.970   3.298   3.525
  579SOL     OW 2635   3.393   2.135   1.126
  579SOL    HW1 2636   3.325   2.063   1.139
  579SOL    HW2 2637   3.448   2.144   1.209
  580SOL     OW 2638   0.710   5.017   6.149
  580SOL    HW1 2639   0.655   5.071   6.085
  580SOL    HW2 2640   0.656   4.939   6.181
  581SOL     OW 2641   3.599   3.032   3.041
  581SOL    HW1 2642   3.582   2.970   3.117
  581SOL    HW2 2643   3.665   3.102   3.068
  582SOL     OW 2644   5.737   4.350   2.531
  582SOL    HW1 2645   5.808   4.313   2.589
  582SOL    HW2 2646   5.720   4.445   2.555
  583SOL     OW 2647   2.630   4.754   6.431
  583SOL    HW1 2648   2.571   4.714   6.360
  583SOL    HW2 2649   2.589   4.739   6.521
  584SOL     OW 2650   0.357   4.781   6.080
  584SOL    HW1 2651   0.359   4.698   6.024
  584SOL    HW2 2652   0.444   4.790   6.128
  585SOL     OW 2653   6.155   2.784   5.995
  585SOL    HW1 2654   6.084   2.717   5.971
  585SOL    HW2 2655   6.229   2.779   5.929
  586SOL     OW 2656   3.191   6.598   0.358
  586SOL    HW1 2657   3.198   6.526   0.426
  586SOL    HW2 2658   3.162   6.559   0.270
  587SOL     OW 2659   2.075   1.918   5.056
  587SOL    HW1 2660   2.025   1.984   5.112
  587SOL    HW2 2661   2.123   1.966   4.982
  588SOL     OW 2662   3.558   0.011   1.627
  588SOL    HW1 2663   3.470   0.001   1.580
  588SOL    HW2 2664   3.626   0.048   1.563
  589SOL     OW 2665   4.143   4.967   1.685
  589SOL    HW1 2666   4.118   4.955   1.589
  589SOL    HW2 2667   4.241   4.984   1.692
  590SOL     OW 2668   0.292   2.752   2.408
  590SOL    HW1 2669   0.335   2.814   2.473
  590SOL    HW2 2670   0.361   2.716   2.345
  591SOL     OW 2671   4.013   6.961   3.480
  591SOL    HW1 2672   3.999   6.901   3.401
  591SOL    HW2 2673   4.105   7.000   3.476
  592SOL     OW 2674   4.556   0.982   0.495
  592SOL    HW1 2675   4.598   0.905   0.543
  592SOL    HW2 2676   4.457   0.975   0.501
  593SOL     OW 2677   4.351   2.360   3.725
  593SOL    HW1 2678   4.265   2.309   3.718
  593SOL    HW2 2679   4.427   2.296   3.736
  594SOL     OW 2680   4.252   2.693   6.358
  594SOL    HW1 2681   4.332   2.698   6.418
  594SOL    HW2 2682   4.174   2.658   6.409
  595SOL     OW 2683   4.673   7.002   4.084
  595SOL    HW1 2684   4.718   0.049   4.141
  595SOL    HW2 2685   4.603   0.025   4.028
  596SOL     OW 2686   1.111   3.963   1.666
  596SOL    HW1 2687   1.183   3.912   1.618
  596SOL    HW2 2688   1.022   3.920   1.647
  597SOL     OW 2689   4.001   6.486   6.303
  597SOL    HW1 2690   4.042   6.452   6.218
  597SOL    HW2 2691   4.059   6.558   6.341
  598SOL     OW 2692   3.588   4.158   0.616
  598SOL    HW1 2693   3.520   4.108   0.563
  598SOL    HW2 2694   3.590   4.253   0.587
  599SOL     OW 2695   0.560   0.944   2.943
  599SOL    HW1 2696   0.620   0.962   3.022
  599SOL    HW2 2697   0.515   1.028   2.916
  600SOL     OW 2698   0.472   6.934   0.485
  600SOL    HW1 2699   0.403   6.877   0.439
  600SOL    HW2 2700   0.456   6.932   0.583
  601SOL     OW 2701   2.917   5.756   3.374
  601SOL    HW1 2702   2.861   5.743   3.457
  601SOL    HW2 2703   3.007   5.716   3.389
  602SOL     OW 2704   1.117   0.414   0.607
  602SOL    HW1 2705   1.120   0.513   0.623
  602SOL    HW2 2706   1.197   0.386   0.555
  603SOL     OW 2707   3.903   1.841   3.852
  603SOL    HW1 2708   3.972   1.820   3.783
  603SOL    HW2 2709   3.851   1.922   3.823
  604SOL     OW 2710   1.113   2.836   0.202
  604SOL    HW1 2711   1.053   2.794   0.269
  604SOL    HW2 2712   1.175   2.900   0.247
  605SOL     OW 2713   0.149   5.923   3.123
  605SOL    HW1 2714   0.050   5.931   3.116
  605SOL    HW2 2715   0.191   6.010   3.099
  606SOL     OW 2716   4.734   1.016   5.239
  606SOL    HW1 2717   4.693   1.008   5.330
  606SOL    HW2 2718   4.747   1.112   5.216
  607SOL     OW 2719   5.796   1.286   4.344
  607SOL    HW1 2720   5.729   1.222   4.381
  607SOL    HW2 2721   5.884   1.240   4.335
  608SOL     OW 2722   3.156   0.017   0.892
  608SOL    HW1 2723   3.222   0.041   0.821
  608SOL    HW2 2724   3.083   6.984   0.852
  609SOL     OW 2725   3.422   2.904   4.478
  609SOL    HW1 2726   3.519   2.904   4.452
  609SOL    HW2 2727   3.407   2.838   4.551
  610SOL     OW 2728   5.349   2.600   3.190
  610SOL    HW1 2729   5.443   2.575   3.167
  610SOL    HW2 2730   5.348   2.653   3.275
  611SOL     OW 2731   0.475   0.620   6.623
  611SOL    HW1 2732   0.486   0.717   6.598
  611SOL    HW2 2733   0.536   0.599   6.699
  612SOL     OW 2734   3.515   5.574   5.919
  612SOL    HW1 2735   3.514   5.627   5.834
  612SOL    HW2 2736   3.591   5.509   5.917
  613SOL     OW 2737   3.907   1.175   5.404
  613SOL    HW1 2738   3.833   1.114   5.433
  613SOL    HW2 2739   3.993   1.124   5.399
  614SOL     OW 2740   6.091   5.432   0.694
  614SOL    HW1 2741   6.019   5.363   0.680
  614SOL    HW2 2742   6.086   5.501   0.621
  615SOL     OW 2743   0.940   0.423   6.586
  615SOL    HW1 2744   0.870   0.494   6.577
  615SOL    HW2 2745   0.922   0.349   6.522
  616SOL     OW 2746   5.645   1.873   4.390
  616SOL    HW1 2747   5.659   1.917   4.301
  616SOL    HW2 2748   5.695   1.786   4.392
  617SOL     OW 2749   0.331   4.547   5.944
  617SOL    HW1 2750   0.245   4.549   5.893
  617SOL    HW2 2751   0.317   4.498   6.030
  618SOL     OW 2752   6.167   3.333   1.659
  618SOL    HW1 2753   6.083   3.367   1.701
  618SOL    HW2 2754   6.186   3.241   1.693
  619SOL     OW 2755   3.283   0.119   6.748
  619SOL    HW1 2756   3.203   0.138   6.691
  619SOL    HW2 2757   3.262   0.044   6.811
  620SOL     OW 2758   5.816   3.715   2.195
  620SOL    HW1 2759   5.872   3.787   2.154
  620SOL    HW2 2760   5.751   3.681   2.126
  621SOL     OW 2761   2.591   6.751   5.782
  621SOL    HW1 2762   2.687   6.743   5.754
  621SOL    HW2 2763   2.566   6.847   5.786
  622SOL     OW 2764   0.818   2.856   5.532
  622SOL    HW1 2765   0.895   2.794   5.549
  622SOL    HW2 2766   0.746   2.838   5.599
  623SOL     OW 2767   6.226   6.609   4.895
  623SOL    HW1 2768   6.320   6.622   4.864
  623SOL    HW2 2769   6.167   6.589   4.817
  624SOL     OW 2770   6.215   1.230   6.835
  624SOL    HW1 2771   6.287   1.213   6.768
  624SOL    HW2 2772   6.228   1.170   6.914
  625SOL     OW 2773   2.368   1.118   0.357
  625SOL    HW1 2774   2.393   1.061   0.278
  625SOL    HW2 2775   2.270   1.109   0.375
  626SOL     OW 2776   1.749   5.875   3.750
  626SOL    HW1 2777   1.666   5.929   3.764
  626SOL    HW2 2778   1.807   5.920   3.682
  627SOL     OW 2779   6.532   6.631   0.550
  627SOL    HW1 2780   6.491   6.686   0.477
  627SOL    HW2 2781   6.628   6.656   0.560
  628SOL     OW 2782   5.395   3.754   5.359
  628SOL    HW1 2783   5.383   3.655   5.357
  628SOL    HW2 2784   5.486   3.777   5.326
  629SOL     OW 2785   0.483   0.847   0.142
  629SOL    HW1 2786   0.519   0.940   0.132
  629SOL    HW2 2787   0.405   0.848   0.205
  630SOL     OW 2788   6.536   0.532   0.752
  630SOL    HW1 2789   6.532   0.512   0.654
  630SOL    HW2 2790   6.609   0.599   0.769
  631SOL     OW 2791   2.547   2.420   4.930
  631SOL    HW1 2792   2.516   2.514   4.941
  631SOL    HW2 2793   2.579   2.385   5.018
  632SOL     OW 2794   4.817   3.178   0.660
  632SOL    HW1 2795   4.883   3.251   0.644
  632SOL    HW2 2796   4.822   3.148   0.755
  633SOL     OW 2797   2.442   5.471   0.997
  633SOL    HW1 2798   2.455   5.518   0.909
  633SOL    HW2 2799   2.483   5.525   1.070
  634SOL     OW 2800   3.518   3.894   3.567
  634SOL    HW1 2801   3.485   3.835   3.493
  634SOL    HW2 2802   3.549   3.837   3.643
  635SOL     OW 2803   4.706   0.955   0.220
  635SOL    HW1 2804   4.640   0.915   0.157
  635SOL    HW2 2805   4.662   0.970   0.309
  636SOL     OW 2806   3.123   0.086   5.297
  636SOL    HW1 2807   3.037   0.055   5.337
  636SOL    HW2 2808   3.198   0.027   5.329
  637SOL     OW 2809   5.943   1.596   2.535
  637SOL    HW1 2810   5.993   1.577   2.620
  637SOL    HW2 2811   5.953   1.518   2.474
  638SOL     OW 2812   5.867   3.827   4.192
  638SOL    HW1 2813   5.865   3.790   4.285
  638SOL    HW2 2814   5.960   3.820   4.155
  639SOL     OW 2815   5.668   5.066   3.166
  639SOL    HW1 2816   5.707   5.052   3.257
  639SOL    HW2 2817   5.601   5.139   3.170
  640SOL     OW 2818   7.006   3.458   3.102
  640SOL    HW1 2819   6.924   3.411   3.071
  640SOL    HW2 2820   0.056   3.391   3.123
  641SOL     OW 2821   1.475   4.521   5.448
  641SOL    HW1 2822   1.543   4.593   5.435
  641SOL    HW2 2823   1.521   4.434   5.467
  642SOL     OW 2824   1.282   3.583   4.493
  642SOL    HW1 2825   1.223   3.624   4.423
  642SOL    HW2 2826   1.236   3.504   4.532
  643SOL     OW 2827   6.584   6.296   6.877
  643SOL    HW1 2828   6.553   6.361   6.808
  643SOL    HW2 2829   6.506   6.249   6.916
  644SOL     OW 2830   0.511   0.659   4.614
  644SOL    HW1 2831   0.600   0.618   4.628
  644SOL    HW2 2832   0.482   0.706   4.697
  645SOL     OW 2833   3.622   5.058   2.838
  645SOL    HW1 2834   3.541   5.006   2.810
  645SOL    HW2 2835   3.666   5.012   2.916
  646SOL     OW 2836   3.809   0.483   4.971
  646SOL    HW1 2837   3.719   0.454   4.935
  646SOL    HW2 2838   3.811   0.582   4.977
  647SOL     OW 2839   4.827   2.362   4.777
  647SOL    HW1 2840   4.886   2.439   4.751
  647SOL    HW2 2841   4.753   2.395   4.836
  648SOL     OW 2842   6.222   2.189   3.395
  648SOL    HW1 2843   6.277   2.247   3.455
  648SOL    HW2 2844   6.204   2.237   3.309
  649SOL     OW 2845   2.486   4.404   0.522
  649SOL    HW1 2846   2.472   4.501   0.544
  649SOL    HW2 2847   2.415   4.375   0.457
  650SOL     OW 2848   6.668   5.825   0.755
  650SOL    HW1 2849   6.635   5.817   0.850
  650SOL    HW2 2850   6.765   5.850   0.756
  651SOL     OW 2851   1.571   0.616   5.520
  651SOL    HW1 2852   1.638   0.542   5.528
  651SOL    HW2 2853   1.493   0.597   5.579
  652SOL     OW 2854   4.092   0.468   1.691
  652SOL    HW1 2855   4.057   0.433   1.778
  652SOL    HW2 2856   4.018   0.470   1.624
  653SOL     OW 2857   0.087   6.538   0.729
  653SOL    HW1 2858   0.145   6.601   0.677
  653SOL    HW2 2859   0.050   6.585   0.808
  654SOL     OW 2860   0.068   6.187   5.521
  654SOL    HW1 2861   0.050   6.132   5.603
  654SOL    HW2 2862   0.131   6.137   5.461
  655SOL     OW 2863   0.168   5.307   1.970
  655SOL    HW1 2864   0.129   5.306   1.878
  655SOL    HW2 2865   0.119   5.374   2.026
  656SOL     OW 2866   3.230   6.158   0.729
  656SOL    HW1 2867   3.266   6.235   0.781
  656SOL    HW2 2868   3.130   6.161   0.728
  657SOL     OW 2869   3.212   3.402   1.933
  657SOL    HW1 2870   3.195   3.319   1.985
  657SOL    HW2 2871   3.153   3.403   1.852
  658SOL     OW 2872   1.947   4.157   4.520
  658SOL    HW1 2873   2.047   4.158   4.532
  658SOL    HW2 2874   1.925   4.191   4.429
  659SOL     OW 2875   3.693   5.562   5.350
  659SOL    HW1 2876   3.595   5.577   5.346
  659SOL    HW2 2877   3.739   5.622   5.284
  660SOL     OW 2878   4.903   5.037   2.509
  660SOL    HW1 2879   4.847   5.118   2.530
  660SOL    HW2 2880   4.849   4.955   2.523
  661SOL     OW 2881   5.062   4.304   4.066
  661SOL    HW1 2882   5.059   4.219   4.117
  661SOL    HW2 2883   5.051   4.381   4.128
  662SOL     OW 2884   4.763   1.996   6.833
  662SOL    HW1 2885   4.829   2.056   6.788
  662SOL    HW2 2886   4.689   2.051   6.871
  663SOL     OW 2887   0.435   4.966   6.866
  663SOL    HW1 2888   0.511   4.914   6.903
  663SOL    HW2 2889   0.393   4.915   6.791
  664SOL     OW 2890   1.803   5.411   6.639
  664SOL    HW1 2891   1.853   5.363   6.567
  664SOL    HW2 2892   1.706   5.419   6.613
  665SOL     OW 2893   4.120   5.661   1.462
  665SOL    HW1 2894   4.164   5.587   1.513
  665SOL    HW2 2895   4.083   5.626   1.376
  666SOL     OW 2896   3.374   2.181   0.595
  666SOL    HW1 2897   3.429   2.262   0.615
  666SOL    HW2 2898   3.383   2.116   0.670
  667SOL     OW 2899   0.209   2.429   4.150
  667SOL    HW1 2900   0.210   2.461   4.056
  667SOL    HW2 2901   0.219   2.507   4.212
  668SOL     OW 2902   4.165   6.278   0.275
  668SOL    HW1 2903   4.140   6.182   0.265
  668SOL    HW2 2904   4.094   6.336   0.236
  669SOL     OW 2905   1.319   6.776   3.126
  669SOL    HW1 2906   1.224   6.803   3.119
  669SOL    HW2 2907   1.365   6.792   3.038
  670SOL     OW 2908   2.879   3.300   3.119
  670SOL    HW1 2909   2.931   3.242   3.056
  670SOL    HW2 2910   2.883   3.261   3.211
  671SOL     OW 2911   1.853   5.447   5.906
  671SOL    HW1 2912   1.810   5.537   5.911
  671SOL    HW2 2913   1.802   5.389   5.842
  672SOL     OW 2914   0.637   3.207   3.962
  672SOL    HW1 2915   0.721   3.182   3.913
  672SOL    HW2 2916   0.565   3.141   3.939
  673SOL     OW 2917   4.565   0.243   6.917
  673SOL    HW1 2918   4.557   0.342   6.930
  673SOL    HW2 2919   4.585   0.200   7.004
  674SOL     OW 2920   0.777   2.607   4.331
  674SOL    HW1 2921   0.681   2.604   4.356
  674SOL    HW2 2922   0.817   2.516   4.338
  675SOL     OW 2923   1.025   2.254   4.596
  675SOL    HW1 2924   1.113   2.210   4.615
  675SOL    HW2 2925   0.972   2.261   4.680
  676SOL     OW 2926   2.852   4.819   4.111
  676SOL    HW1 2927   2.820   4.757   4.039
  676SOL    HW2 2928   2.895   4.899   4.070
  677SOL     OW 2929   6.026   0.273   6.985
  677SOL    HW1 2930   5.969   0.289   6.904
  677SOL    HW2 2931   6.110   0.225   6.958
  678SOL     OW 2932   2.236   1.239   5.046
  678SOL    HW1 2933   2.255   1.251   4.949
  678SOL    HW2 2934   2.280   1.312   5.098
  679SOL     OW 2935   3.795   0.818   3.747
  679SOL    HW1 2936   3.894   0.823   3.734
  679SOL    HW2 2937   3.773   0.837   3.843
  680SOL     OW 2938   6.020   4.267   6.373
  680SOL    HW1 2939   5.955   4.193   6.394
  680SOL    HW2 2940   6.112   4.237   6.395
  681SOL     OW 2941   6.915   6.389   0.869
  681SOL    HW1 2942   6.959   6.309   0.911
  681SOL    HW2 2943   6.972   6.422   0.793
  682SOL     OW 2944   2.197   6.912   6.769
  682SOL    HW1 2945   2.169   6.846   6.699
  682SOL    HW2 2946   2.186   7.005   6.734
  683SOL     OW 2947   4.017   1.038   5.804
  683SOL    HW1 2948   3.946   0.988   5.754
  683SOL    HW2 2949   3.977   1.076   5.887
  684SOL     OW 2950   6.750   0.305   6.468
  684SOL    HW1 2951   6.816   0.376   6.443
  684SOL    HW2 2952   6.671   0.310   6.407
  685SOL     OW 2953   4.851   0.241   6.222
  685SOL    HW1 2954   4.814   0.259   6.314
  685SOL    HW2 2955   4.816   0.309   6.158
  686SOL     OW 2956   5.457   3.277   3.588
  686SOL    HW1 2957   5.447   3.226   3.502
  686SOL    HW2 2958   5.375   3.332   3.604
  687SOL     OW 2959   0.103   3.350   6.532
  687SOL    HW1 2960   0.166   3.321   6.460
  687SOL    HW2 2961   0.017   3.299   6.524
  688SOL     OW 2962   1.849   3.548   0.531
  688SOL    HW1 2963   1.865   3.647   0.530
  688SOL    HW2 2964   1.868   3.512   0.622
  689SOL     OW 2965   0.999   4.329   6.105
  689SOL    HW1 2966   0.905   4.295   6.112
  689SOL    HW2 2967   1.023   4.341   6.009
  690SOL     OW 2968   0.922   2.465   3.503
  690SOL    HW1 2969   0.959   2.432   3.589
  690SOL    HW2 2970   0.968   2.419   3.427
  691SOL     OW 2971   1.583   2.310   6.135
  691SOL    HW1 2972   1.566   2.409   6.143
  691SOL    HW2 2973   1.651   2.294   6.064
  692SOL     OW 2974   2.928   6.835   3.087
  692SOL    HW1 2975   2.851   6.787   3.046
  692SOL    HW2 2976   2.971   6.894   3.018
  693SOL     OW 2977   6.494   1.613   2.975
  693SOL    HW1 2978   6.517   1.549   2.902
  693SOL    HW2 2979   6.556   1.691   2.971
  694SOL     OW 2980   3.454   5.761   1.280
  694SOL    HW1 2981   3.517   5.832   1.311
  694SOL    HW2 2982   3.478   5.733   1.187
  695SOL     OW 2983   4.972   5.132   4.625
  695SOL    HW1 2984   5.028   5.056   4.658
  695SOL    HW2 2985   4.996   5.216   4.674
  696SOL     OW 2986   3.344   5.367   2.853
  696SOL    HW1 2987   3.245   5.381   2.843
  696SOL    HW2 2988   3.362   5.309   2.932
  697SOL     OW 2989   0.876   3.266   5.344
  697SOL    HW1 2990   0.874   3.346   5.403
  697SOL    HW2 2991   0.940   3.281   5.269
  698SOL     OW 2992   5.031   7.012   4.018
  698SOL    HW1 2993   4.977   0.002   3.934
  698SOL    HW2 2994   5.011   6.922   4.057
  699SOL     OW 2995   1.954   4.714   1.196
  699SOL    HW1 2996   1.869   4.682   1.239
  699SOL    HW2 2997   1.987   4.795   1.244
  700SOL     OW 2998   2.940   1.861   3.451
  700SOL    HW1 2999   2.935   1.763   3.433
  700SOL    HW2 3000   2.848   1.897   3.464
  701SOL     OW 3001   1.629   4.679   0.290
  701SOL    HW1 3002   1.660   4.612   0.222
  701SOL    HW2 3003   1.673   4.660   0.378
  702SOL     OW 3004   5.150   6.208   5.609
  702SOL    HW1 3005   5.063   6.232   5.650
  702SOL    HW2 3006   5.223   6.265   5.648
  703SOL     OW 3007   4.493   3.627   6.924
  703SOL    HW1 3008   4.528   3.681   7.001
  703SOL    HW2 3009   4.515   3.674   6.838
  704SOL     OW 3010   0.731   1.323   6.217
  704SOL    HW1 3011   0.796   1.302   6.144
  704SOL    HW2 3012   0.702   1.238   6.262
  705SOL     OW 3013   4.892   0.431   3.914
  705SOL    HW1 3014   4.960   0.402   3.846
  705SOL    HW2 3015   4.924   0.408   4.006
  706SOL     OW 3016   3.676   1.717   3.594
  706SOL    HW1 3017   3.764   1.758   3.574
  706SOL    HW2 3018   3.603   1.783   3.573
  707SOL     OW 3019   4.448   0.354   1.720
  707SOL    HW1 3020   4.495   0.313   1.798
  707SOL    HW2 3021   4.395   0.433   1.750
  708SOL     OW 3022   4.832   0.321   0.778
  708SOL    HW1 3023   4.818   0.225   0.802
  708SOL    HW2 3024   4.849   0.328   0.679
  709SOL     OW 3025   1.555   4.978   1.720
  709SOL    HW1 3026   1.642   5.007   1.758
  709SOL    HW2 3027   1.487   5.049   1.734
  710SOL     OW 3028   3.162   4.036   2.691
  710SOL    HW1 3029   3.207   4.060   2.605
  710SOL    HW2 3030   3.140   4.119   2.742
  711SOL     OW 3031   6.663   2.504   5.100
  711SOL    HW1 3032   6.621   2.513   5.010
  711SOL    HW2 3033   6.592   2.492   5.169
  712SOL     OW 3034   1.160   3.833   1.341
  712SOL    HW1 3035   1.156   3.822   1.440
  712SOL    HW2 3036   1.251   3.862   1.313
  713SOL     OW 3037   3.567   3.759   1.949
  713SOL    HW1 3038   3.477   3.721   1.967
  713SOL    HW2 3039   3.591   3.745   1.853
  714SOL     OW 3040   5.468   4.134   5.290
  714SOL    HW1 3041   5.381   4.084   5.290
  714SOL    HW2 3042   5.537   4.081   5.240
  715SOL     OW 3043   4.404   5.806   6.833
  715SOL    HW1 3044   4.498   5.812   6.799
  715SOL    HW2 3045   4.343   5.854   6.771
  716SOL     OW 3046   0.721   5.216   1.042
  716SOL    HW1 3047   0.707   5.161   0.959
  716SOL    HW2 3048   0.757   5.159   1.115
  717SOL     OW 3049   6.023   4.686   6.714
  717SOL    HW1 3050   5.943   4.691   6.773
  717SOL    HW2 3051   6.021   4.600   6.662
  718SOL     OW 3052   4.144   2.120   6.098
  718SOL    HW1 3053   4.050   2.154   6.105
  718SOL    HW2 3054   4.196   2.180   6.038
  719SOL     OW 3055   6.857   2.764   1.388
  719SOL    HW1 3056   6.853   2.795   1.293
  719SOL    HW2 3057   6.892   2.838   1.445
  720SOL     OW 3058   2.417   1.913   5.192
  720SOL    HW1 3059   2.498   1.899   5.250
  720SOL    HW2 3060   2.334   1.897   5.246
  721SOL     OW 3061   1.214   0.932   5.512
  721SOL    HW1 3062   1.141   0.865   5.502
  721SOL    HW2 3063   1.175   1.024   5.505
  722SOL     OW 3064   4.354   6.584   4.774
  722SOL    HW1 3065   4.412   6.639   4.834
  722SOL    HW2 3066   4.260   6.615   4.780
  723SOL     OW 3067   2.145   2.629   2.228
  723SOL    HW1 3068   2.168   2.608   2.133
  723SOL    HW2 3069   2.228   2.626   2.284
  724SOL     OW 3070   0.766   1.937   5.526
  724SOL    HW1 3071   0.829   1.939   5.603
  724SOL    HW2 3072   0.714   2.022   5.523
  725SOL     OW 3073   2.690   5.048   1.916
  725SOL    HW1 3074   2.681   4.966   1.972
  725SOL    HW2 3075   2.746   5.028   1.835
  726SOL     OW 3076   2.993   4.953   6.725
  726SOL    HW1 3077   2.937   4.933   6.805
  726SOL    HW2 3078   3.088   4.965   6.752
  727SOL     OW 3079   3.975   6.246   4.215
  727SOL    HW1 3080   4.070   6.233   4.186
  727SOL    HW2 3081   3.913   6.225   4.140
  728SOL     OW 3082   6.714   3.802   5.171
  728SOL    HW1 3083   6.782   3.826   5.102
  728SOL    HW2 3084   6.638   3.754   5.128
  729SOL     OW 3085   2.005   0.570   0.886
  729SOL    HW1 3086   2.069   0.601   0.816
  729SOL    HW2 3087   1.939   0.506   0.846
  730SOL     OW 3088   5.371   0.702   3.431
  730SOL    HW1 3089   5.386   0.703   3.530
  730SOL    HW2 3090   5.383   0.608   3.397
  731SOL     OW 3091   5.744   3.014   5.328
  731SOL    HW1 3092   5.811   2.970   5.268
  731SOL    HW2 3093   5.692   3.082   5.276
  732SOL     OW 3094   0.612   3.126   1.638
  732SOL    HW1 3095   0.638   3.219   1.610
  732SOL    HW2 3096   0.616   3.065   1.559
  733SOL     OW 3097   5.254   3.844   4.164
  733SOL    HW1 3098   5.344   3.879   4.190
  733SOL    HW2 3099   5.260   3.746   4.147
  734SOL     OW 3100   0.265   5.072   2.085
  734SOL    HW1 3101   0.211   5.147   2.047
  734SOL    HW2 3102   0.264   5.077   2.185
  735SOL     OW 3103   2.124   3.330   0.878
  735SOL    HW1 3104   2.204   3.390   0.879
  735SOL    HW2 3105   2.088   3.322   0.970
  736SOL     OW 3106   6.306   6.711   2.674
  736SOL    HW1 3107   6.381   6.767   2.639
  736SOL    HW2 3108   6.340   6.620   2.697
  737SOL     OW 3109   4.285   3.572   1.495
  737SOL    HW1 3110   4.306   3.582   1.592
  737SOL    HW2 3111   4.289   3.662   1.451
  738SOL     OW 3112   0.935   4.935   3.800
  738SOL    HW1 3113   0.958   4.868   3.729
  738SOL    HW2 3114   1.012   4.997   3.813
  739SOL     OW 3115   4.707   6.826   5.753
  739SOL    HW1 3116   4.623   6.879   5.751
  739SOL    HW2 3117   4.758   6.841   5.668
  740SOL     OW 3118   5.142   0.330   0.778
  740SOL    HW1 3119   5.096   0.258   0.726
  740SOL    HW2 3120   5.130   0.313   0.876
  741SOL     OW 3121   1.716   6.353   3.282
  741SOL    HW1 3122   1.725   6.381   3.187
  741SOL    HW2 3123   1.627   6.310   3.297
  742SOL     OW 3124   2.324   6.396   2.964
  742SOL    HW1 3125   2.314   6.359   2.871
  742SOL    HW2 3126   2.409   6.449   2.968
  743SOL     OW 3127   1.691   3.966   4.251
  743SOL    HW1 3128   1.676   3.993   4.346
  743SOL    HW2 3129   1.741   3.879   4.249
  744SOL     OW 3130   0.503   6.420   6.663
  744SOL    HW1 3131   0.411   6.457   6.652
  744SOL    HW2 3132   0.565   6.468   6.601
  745SOL     OW 3133   0.957   5.845   4.250
  745SOL    HW1 3134   0.900   5.765   4.269
  745SOL    HW2 3135   0.901   5.917   4.210
  746SOL     OW 3136   0.196   6.338   5.042
  746SOL    HW1 3137   0.124   6.312   5.106
  746SOL    HW2 3138   0.156   6.350   4.951
  747SOL     OW 3139   4.122   5.095   4.095
  747SOL    HW1 3140   4.085   5.124   4.183
  747SOL    HW2 3141   4.063   5.126   4.021
  748SOL     OW 3142   4.289   5.234   1.854
  748SOL    HW1 3143   4.267   5.202   1.946
  748SOL    HW2 3144   4.330   5.159   1.802
  749SOL     OW 3145   6.875   2.793   4.738
  749SOL    HW1 3146   6.866   2.736   4.821
  749SOL    HW2 3147   6.936   2.870   4.757
  750SOL     OW 3148   2.546   3.214   0.609
  750SOL    HW1 3149   2.610   3.153   0.563
  750SOL    HW2 3150   2.488   3.259   0.542
  751SOL     OW 3151   4.449   2.279   6.631
  751SOL    HW1 3152   4.349   2.284   6.629
  751SOL    HW2 3153   4.484   2.262   6.539
  752SOL     OW 3154   4.463   2.555   1.847
  752SOL    HW1 3155   4.491   2.500   1.925
  752SOL    HW2 3156   4.517   2.639   1.844
  753SOL     OW 3157   2.197   3.021   4.585
  753SOL    HW1 3158   2.171   3.102   4.637
  753SOL    HW2 3159   2.132   3.007   4.510
  754SOL     OW 3160   5.928   3.729   6.755
  754SOL    HW1 3161   5.922   3.637   6.715
  754SOL    HW2 3162   5.838   3.756   6.790
  755SOL     OW 3163   1.094   5.580   0.128
  755SOL    HW1 3164   1.089   5.673   0.163
  755SOL    HW2 3165   1.062   5.516   0.199
  756SOL     OW 3166   5.192   0.677   1.763
  756SOL    HW1 3167   5.247   0.608   1.810
  756SOL    HW2 3168   5.180   0.756   1.823
  757SOL     OW 3169   0.980   6.024   3.074
  757SOL    HW1 3170   0.999   5.962   2.998
  757SOL    HW2 3171   0.915   5.980   3.137
  758SOL     OW 3172   3.402   1.627   1.512
  758SOL    HW1 3173   3.312   1.668   1.501
  758SOL    HW2 3174   3.393   1.527   1.517
  759SOL     OW 3175   0.093   0.940   0.440
  759SOL    HW1 3176   0.064   1.011   0.505
  759SOL    HW2 3177   0.075   0.971   0.347
  760SOL     OW 3178   5.121   1.518   6.315
  760SOL    HW1 3179   5.094   1.598   6.369
  760SOL    HW2 3180   5.118   1.436   6.374
  761SOL     OW 3181   5.952   3.774   0.017
  761SOL    HW1 3182   5.871   3.723   0.045
  761SOL    HW2 3183   5.960   3.771   6.939
  762SOL     OW 3184   1.941   5.983   3.549
  762SOL    HW1 3185   1.891   6.070   3.553
  762SOL    HW2 3186   1.970   5.965   3.455
  763SOL     OW 3187   3.769   5.410   6.190
  763SOL    HW1 3188   3.742   5.394   6.095
  763SOL    HW2 3189   3.693   5.387   6.250
  764SOL     OW 3190   3.934   0.425   4.017
  764SOL    HW1 3191   3.934   0.389   4.111
  764SOL    HW2 3192   3.866   0.377   3.963
  765SOL     OW 3193   0.996   6.290   0.989
  765SOL    HW1 3194   0.922   6.356   0.998
  765SOL    HW2 3195   0.960   6.198   1.007
  766SOL     OW 3196   6.781   0.992   6.809
  766SOL    HW1 3197   6.846   1.009   6.734
  766SOL    HW2 3198   6.786   1.067   6.875
  767SOL     OW 3199   0.906   6.528   1.955
  767SOL    HW1 3200   0.934   6.519   2.051
  767SOL    HW2 3201   0.884   6.437   1.918
  768SOL     OW 3202   2.307   1.053   2.679
  768SOL    HW1 3203   2.330   1.073   2.584
  768SOL    HW2 3204   2.382   1.080   2.738
  769SOL     OW 3205   3.261   6.433   4.457
  769SOL    HW1 3206   3.234   6.421   4.361
  769SOL    HW2 3207   3.358   6.456   4.462
  770SOL     OW 3208   2.911   5.217   2.963
  770SOL    HW1 3209   2.822   5.261   2.953
  770SOL    HW2 3210   2.936   5.213   3.060
  771SOL     OW 3211   1.914   5.526   2.622
  771SOL    HW1 3212   1.980   5.481   2.682
  771SOL    HW2 3213   1.927   5.495   2.528
  772SOL     OW 3214   6.912   4.930   0.785
  772SOL    HW1 3215   6.918   4.849   0.726
  772SOL    HW2 3216   6.932   4.905   0.879
  773SOL     OW 3217   0.166   2.804   3.576
  773SOL    HW1 3218   0.098   2.813   3.504
  773SOL    HW2 3219   0.257   2.828   3.540
  774SOL     OW 3220   1.689   1.774   1.613
  774SOL    HW1 3221   1.606   1.775   1.668
  774SOL    HW2 3222   1.738   1.860   1.624
  775SOL     OW 3223   1.170   2.081   3.844
  775SOL    HW1 3224   1.246   2.142   3.821
  775SOL    HW2 3225   1.180   2.049   3.938
  776SOL     OW 3226   0.275   0.324   6.118
  776SOL    HW1 3227   0.270   0.366   6.027
  776SOL    HW2 3228   0.300   0.228   6.109
  777SOL     OW 3229   3.453   0.389   0.865
  777SOL    HW1 3230   3.509   0.432   0.794
  777SOL    HW2 3231   3.389   0.456   0.902
  778SOL     OW 3232   3.878   1.301   3.767
  778SOL    HW1 3233   3.822   1.309   3.684
  778SOL    HW2 3234   3.966   1.346   3.752
  779SOL     OW 3235   0.301   2.111   2.011
  779SOL    HW1 3236   0.352   2.197   2.020
  779SOL    HW2 3237   0.203   2.131   2.007
  780SOL     OW 3238   5.445   3.107   4.534
  780SOL    HW1 3239   5.405   3.083   4.446
  780SOL    HW2 3240   5.539   3.074   4.539
  781SOL     OW 3241   6.245   1.074   5.801
  781SOL    HW1 3242   6.239   1.128   5.885
  781SOL    HW2 3243   6.253   1.135   5.723
  782SOL     OW 3244   1.360   3.980   0.718
  782SOL    HW1 3245   1.383   4.005   0.623
  782SOL    HW2 3246   1.399   3.890   0.739
  783SOL     OW 3247   3.728   4.629   0.336
  783SOL    HW1 3248   3.782   4.586   0.264
  783SOL    HW2 3249   3.654   4.568   0.362
  784SOL     OW 3250   4.521   0.833   5.157
  784SOL    HW1 3251   4.458   0.770   5.203
  784SOL    HW2 3252   4.544   0.908   5.218
  785SOL     OW 3253   6.124   2.187   2.845
  785SOL    HW1 3254   6.159   2.255   2.780
  785SOL    HW2 3255   6.178   2.104   2.839
  786SOL     OW 3256   0.637   0.612   0.244
  786SOL    HW1 3257   0.622   0.596   0.342
  786SOL    HW2 3258   0.581   0.689   0.214
  787SOL     OW 3259   2.830   0.960   5.873
  787SOL    HW1 3260   2.902   1.024   5.845
  787SOL    HW2 3261   2.746   1.011   5.892
  788SOL     OW 3262   2.047   2.621   4.749
  788SOL    HW1 3263   2.052   2.646   4.846
  788SOL    HW2 3264   2.134   2.580   4.721
  789SOL     OW 3265   6.205   4.281   2.018
  789SOL    HW1 3266   6.192   4.267   1.920
  789SOL    HW2 3267   6.270   4.214   2.054
  790SOL     OW 3268   2.032   1.573   3.942
  790SOL    HW1 3269   2.065   1.556   3.849
  790SOL    HW2 3270   2.093   1.530   4.008
  791SOL     OW 3271   3.948   0.022   3.740
  791SOL    HW1 3272   4.024   7.018   3.800
  791SOL    HW2 3273   3.970   7.019   3.646
  792SOL     OW 3274   6.464   6.943   1.723
  792SOL    HW1 3275   6.395   6.874   1.703
  792SOL    HW2 3276   6.448   0.002   1.665
  793SOL     OW 3277   4.387   6.262   1.913
  793SOL    HW1 3278   4.380   6.227   1.820
  793SOL    HW2 3279   4.480   6.297   1.928
  794SOL     OW 3280   1.821   4.956   5.479
  794SOL    HW1 3281   1.845   4.867   5.519
  794SOL    HW2 3282   1.733   4.949   5.432
  795SOL     OW 3283   2.821   5.169   5.498
  795SOL    HW1 3284   2.824   5.231   5.420
  795SOL    HW2 3285   2.782   5.216   5.577
  796SOL     OW 3286   0.465   2.167   6.598
  796SOL    HW1 3287   0.420   2.228   6.533
  796SOL    HW2 3288   0.397   2.107   6.639
  797SOL     OW 3289   5.105   2.589   2.247
  797SOL    HW1 3290   5.136   2.670   2.198
  797SOL    HW2 3291   5.025   2.612   2.303
  798SOL     OW 3292   4.848   0.619   1.176
  798SOL    HW1 3293   4.874   0.588   1.268
  798SOL    HW2 3294   4.816   0.542   1.122
  799SOL     OW 3295   6.571   1.782   3.321
  799SOL    HW1 3296   6.597   1.686   3.315
  799SOL    HW2 3297   6.517   1.807   3.241
  800SOL     OW 3298   5.617   0.560   2.557
  800SOL    HW1 3299   5.686   0.531   2.623
  800SOL    HW2 3300   5.529   0.571   2.603
  801SOL     OW 3301   1.301   3.155   3.369
  801SOL    HW1 3302   1.202   3.143   3.361
  801SOL    HW2 3303   1.343   3.153   3.278
  802SOL     OW 3304   5.145   1.338   0.589
  802SOL    HW1 3305   5.118   1.434   0.589
  802SOL    HW2 3306   5.088   1.286   0.526
  803SOL     OW 3307   6.190   6.335   4.739
  803SOL    HW1 3308   6.191   6.314   4.837
  803SOL    HW2 3309   6.236   6.263   4.688
  804SOL     OW 3310   6.648   6.364   0.267
  804SOL    HW1 3311   6.655   6.464   0.269
  804SOL    HW2 3312   6.563   6.337   0.222
  805SOL     OW 3313   4.666   2.633   5.429
  805SOL    HW1 3314   4.686   2.582   5.512
  805SOL    HW2 3315   4.628   2.723   5.454
  806SOL     OW 3316   3.714   2.046   5.060
  806SOL    HW1 3317   3.797   2.064   5.006
  806SOL    HW2 3318   3.633   2.063   5.004
  807SOL     OW 3319   1.096   1.211   3.609
  807SOL    HW1 3320   1.177   1.154   3.600
  807SOL    HW2 3321   1.046   1.212   3.522
  808SOL     OW 3322   5.010   3.312   6.547
  808SOL    HW1 3323   4.964   3.305   6.635
  808SOL    HW2 3324   4.999   3.405   6.511
  809SOL     OW 3325   1.638   4.891   1.401
  809SOL    HW1 3326   1.579   4.952   1.454
  809SOL    HW2 3327   1.679   4.942   1.326
  810SOL     OW 3328   4.430   2.947   0.830
  810SOL    HW1 3329   4.388   2.986   0.748
  810SOL    HW2 3330   4.517   2.904   0.806
  811SOL     OW 3331   4.533   5.178   3.926
  811SOL    HW1 3332   4.450   5.208   3.973
  811SOL    HW2 3333   4.541   5.224   3.838
  812SOL     OW 3334   0.017   0.512   1.542
  812SOL    HW1 3335   7.006   0.606   1.554
  812SOL    HW2 3336   0.074   0.486   1.620
  813SOL     OW 3337   4.302   5.922   3.090
  813SOL    HW1 3338   4.390   5.963   3.113
  813SOL    HW2 3339   4.268   5.870   3.168
  814SOL     OW 3340   5.424   6.709   2.970
  814SOL    HW1 3341   5.478   6.714   3.054
  814SOL    HW2 3342   5.426   6.615   2.934
  815SOL     OW 3343   5.991   2.831   2.284
  815SOL    HW1 3344   5.895   2.846   2.258
  815SOL    HW2 3345   6.042   2.796   2.205
  816SOL     OW 3346   0.028   6.828   0.204
  816SOL    HW1 3347   0.074   6.898   0.258
  816SOL    HW2 3348   0.092   6.754   0.184
  817SOL     OW 3349   2.137   4.441   2.211
  817SOL    HW1 3350   2.152   4.517   2.148
  817SOL    HW2 3351   2.089   4.475   2.293
  818SOL     OW 3352   6.406   2.988   0.451
  818SOL    HW1 3353   6.374   3.082   0.436
  818SOL    HW2 3354   6.360   2.950   0.531
  819SOL     OW 3355   6.082   3.282   4.539
  819SOL    HW1 3356   6.046   3.337   4.614
  819SOL    HW2 3357   6.169   3.320   4.508
  820SOL     OW 3358   1.318   3.075   5.544
  820SOL    HW1 3359   1.226   3.060   5.508
  820SOL    HW2 3360   1.318   3.056   5.643
  821SOL     OW 3361   2.459   4.702   0.478
  821SOL    HW1 3362   2.515   4.694   0.396
  821SOL    HW2 3363   2.518   4.690   0.559
  822SOL     OW 3364   0.690   5.308   4.406
  822SOL    HW1 3365   0.728   5.374   4.470
  822SOL    HW2 3366   0.736   5.220   4.418
  823SOL     OW 3367   4.879   4.196   6.817
  823SOL    HW1 3368   4.859   4.250   6.735
  823SOL    HW2 3369   4.854   4.101   6.802
  824SOL     OW 3370   4.906   1.234   5.368
  824SOL    HW1 3371   4.972   1.159   5.368
  824SOL    HW2 3372   4.857   1.235   5.280
  825SOL     OW 3373   2.165   3.049   2.164
  825SOL    HW1 3374   2.130   3.135   2.127
  825SOL    HW2 3375   2.171   3.055   2.263
  826SOL     OW 3376   6.055   4.273   0.598
  826SOL    HW1 3377   6.043   4.340   0.672
  826SOL    HW2 3378   6.148   4.237   0.600
  827SOL     OW 3379   3.445   5.671   5.648
  827SOL    HW1 3380   3.403   5.584   5.623
  827SOL    HW2 3381   3.471   5.720   5.566
  828SOL     OW 3382   6.072   0.750   5.096
  828SOL    HW1 3383   6.008   0.694   5.148
  828SOL    HW2 3384   6.035   0.767   5.004
  829SOL     OW 3385   3.133   3.461   4.083
  829SOL    HW1 3386   3.075   3.381   4.066
  829SOL    HW2 3387   3.080   3.545   4.067
  830SOL     OW 3388   5.069   4.721   5.943
  830SOL    HW1 3389   5.075   4.629   5.904
  830SOL    HW2 3390   5.078   4.789   5.869
  831SOL     OW 3391   0.031   6.676   4.255
  831SOL    HW1 3392   0.118   6.698   4.211
  831SOL    HW2 3393   6.993   6.629   4.190
  832SOL     OW 3394   2.226   1.269   0.018
  832SOL    HW1 3395   2.263   1.352   7.000
  832SOL    HW2 3396   2.214   1.281   0.117
  833SOL     OW 3397   6.803   5.849   6.189
  833SOL    HW1 3398   6.756   5.922   6.140
  833SOL    HW2 3399   6.902   5.858   6.176
  834SOL     OW 3400   3.724   3.721   2.465
  834SOL    HW1 3401   3.780   3.639   2.470
  834SOL    HW2 3402   3.627   3.696   2.464
  835SOL     OW 3403   4.306   6.426   3.608
  835SOL    HW1 3404   4.323   6.435   3.510
  835SOL    HW2 3405   4.322   6.513   3.653
  836SOL     OW 3406   3.279   6.295   6.475
  836SOL    HW1 3407   3.285   6.202   6.439
  836SOL    HW2 3408   3.272   6.291   6.575
  837SOL     OW 3409   4.851   0.515   0.009
  837SOL    HW1 3410   4.914   0.580   0.051
  837SOL    HW2 3411   4.834   0.439   0.072
  838SOL     OW 3412   0.723   0.001   5.027
  838SOL    HW1 3413   0.699   6.936   5.070
  838SOL    HW2 3414   0.819   7.020   4.998
  839SOL     OW 3415   2.667   1.353   2.887
  839SOL    HW1 3416   2.724   1.429   2.919
  839SOL    HW2 3417   2.571   1.371   2.909
  840SOL     OW 3418   0.055   1.359   5.790
  840SOL    HW1 3419   0.033   1.374   5.694
  840SOL    HW2 3420   7.009   1.299   5.832
  841SOL     OW 3421   5.889   4.439   0.441
  841SOL    HW1 3422   5.877   4.385   0.358
  841SOL    HW2 3423   5.957   4.395   0.500
  842SOL     OW 3424   4.532   5.431   3.364
  842SOL    HW1 3425   4.496   5.338   3.357
  842SOL    HW2 3426   4.579   5.442   3.451
  843SOL     OW 3427   6.102   2.293   0.143
  843SOL    HW1 3428   6.044   2.359   0.095
  843SOL    HW2 3429   6.122   2.217   0.082
  844SOL     OW 3430   4.720   6.299   0.542
  844SOL    HW1 3431   4.784   6.291   0.466
  844SOL    HW2 3432   4.684   6.209   0.565
  845SOL     OW 3433   6.211   2.612   4.995
  845SOL    HW1 3434   6.243   2.638   4.904
  845SOL    HW2 3435   6.216   2.692   5.056
  846SOL     OW 3436   5.822   1.665   6.709
  846SOL    HW1 3437   5.861   1.671   6.800
  846SOL    HW2 3438   5.892   1.687   6.641
  847SOL     OW 3439   6.111   3.432   0.759
  847SOL    HW1 3440   6.182   3.443   0.829
  847SOL    HW2 3441   6.062   3.347   0.775
  848SOL     OW 3442   5.998   0.696   6.258
  848SOL    HW1 3443   6.081   0.740   6.225
  848SOL    HW2 3444   5.938   0.764   6.300
  849SOL     OW 3445   0.173   5.661   5.133
  849SOL    HW1 3446   0.131   5.748   5.160
  849SOL    HW2 3447   0.272   5.672   5.128
  850SOL     OW 3448   4.340   0.165   3.633
  850SOL    HW1 3449   4.422   0.217   3.611
  850SOL    HW2 3450   4.262   0.205   3.584
  851SOL     OW 3451   0.045   1.214   0.412
  851SOL    HW1 3452   0.110   1.289   0.420
  851SOL    HW2 3453   0.017   1.204   0.317
  852SOL     OW 3454   2.247   2.361   6.514
  852SOL    HW1 3455   2.270   2.343   6.610
  852SOL    HW2 3456   2.168   2.306   6.488
  853SOL     OW 3457   0.672   3.758   3.122
  853SOL    HW1 3458   0.620   3.675   3.143
  853SOL    HW2 3459   0.628   3.808   3.048
  854SOL     OW 3460   5.125   6.901   2.127
  854SOL    HW1 3461   5.156   6.894   2.221
  854SOL    HW2 3462   5.196   6.945   2.071
  855SOL     OW 3463   5.907   0.072   1.665
  855SOL    HW1 3464   5.839   0.079   1.592
  855SOL    HW2 3465   5.957   0.158   1.672
  856SOL     OW 3466   1.871   0.726   5.362
  856SOL    HW1 3467   1.955   0.713   5.310
  856SOL    HW2 3468   1.888   0.705   5.458
  857SOL     OW 3469   5.459   4.906   1.359
  857SOL    HW1 3470   5.523   4.902   1.283
  857SOL    HW2 3471   5.490   4.845   1.432
  858SOL     OW 3472   2.694   4.733   1.746
  858SOL    HW1 3473   2.607   4.765   1.783
  858SOL    HW2 3474   2.735   4.668   1.810
  859SOL     OW 3475   5.623   4.994   6.703
  859SOL    HW1 3476   5.723   4.993   6.691
  859SOL    HW2 3477   5.589   4.900   6.707
  860SOL     OW 3478   4.458   3.886   0.146
  860SOL    HW1 3479   4.382   3.820   0.146
  860SOL    HW2 3480   4.544   3.837   0.163
  861SOL     OW 3481   2.855   6.983   4.799
  861SOL    HW1 3482   2.834   6.891   4.831
  861SOL    HW2 3483   2.925   6.979   4.727
  862SOL     OW 3484   5.685   4.579   5.191
  862SOL    HW1 3485   5.729   4.595   5.103
  862SOL    HW2 3486   5.746   4.605   5.265
  863SOL     OW 3487   1.230   0.206   0.846
  863SOL    HW1 3488   1.301   0.237   0.782
  863SOL    HW2 3489   1.174   0.137   0.801
  864SOL     OW 3490   5.071   4.630   3.475
  864SOL    HW1 3491   5.071   4.548   3.418
  864SOL    HW2 3492   5.117   4.704   3.426
  865SOL     OW 3493   0.961   0.112   4.028
  865SOL    HW1 3494   1.003   0.025   4.052
  865SOL    HW2 3495   0.881   0.128   4.087
  866SOL     OW 3496   2.858   1.385   2.080
  866SOL    HW1 3497   2.845   1.423   2.171
  866SOL    HW2 3498   2.770   1.384   2.031
  867SOL     OW 3499   3.251   2.631   0.183
  867SOL    HW1 3500   3.155   2.642   0.157
  867SOL    HW2 3501   3.286   2.546   0.144
  868SOL     OW 3502   6.073   0.279   2.049
  868SOL    HW1 3503   6.006   0.215   2.013
  868SOL    HW2 3504   6.028   0.365   2.071
  869SOL     OW 3505   6.593   5.522   2.664
  869SOL    HW1 3506   6.672   5.581   2.674
  869SOL    HW2 3507   6.546   5.514   2.752
  870SOL     OW 3508   6.591   3.068   1.496
  870SOL    HW1 3509   6.522   3.140   1.485
  870SOL    HW2 3510   6.623   3.039   1.406
  871SOL     OW 3511   6.922   3.034   2.149
  871SOL    HW1 3512   6.849   3.041   2.081
  871SOL    HW2 3513   6.980   2.955   2.128
  872SOL     OW 3514   6.509   2.835   4.435
  872SOL    HW1 3515   6.506   2.880   4.524
  872SOL    HW2 3516   6.552   2.895   4.368
  873SOL     OW 3517   3.743   7.020   3.004
  873SOL    HW1 3518   3.760   0.029   2.911
  873SOL    HW2 3519   3.648   0.018   3.030
  874SOL     OW 3520   1.851   4.371   5.388
  874SOL    HW1 3521   1.845   4.471   5.377
  874SOL    HW2 3522   1.924   4.336   5.328
  875SOL     OW 3523   5.266   4.747   0.743
  875SOL    HW1 3524   5.325   4.818   0.706
  875SOL    HW2 3525   5.241   4.683   0.670
  876SOL     OW 3526   6.395   3.829   2.949
  876SOL    HW1 3527   6.426   3.807   2.856
  876SOL    HW2 3528   6.426   3.921   2.972
  877SOL     OW 3529   4.902   4.991   0.062
  877SOL    HW1 3530   4.987   4.938   0.068
  877SOL    HW2 3531   4.838   4.944   0.001
  878SOL     OW 3532   3.585   4.915   6.553
  878SOL    HW1 3533   3.523   4.992   6.535
  878SOL    HW2 3534   3.544   4.854   6.621
  879SOL     OW 3535   4.316   1.824   2.936
  879SOL    HW1 3536   4.379   1.855   3.006
  879SOL    HW2 3537   4.297   1.726   2.949
  880SOL     OW 3538   3.853   4.520   6.880
  880SOL    HW1 3539   3.797   4.593   6.842
  880SOL    HW2 3540   3.815   4.431   6.853
  881SOL     OW 3541   4.335   4.700   4.672
  881SOL    HW1 3542   4.332   4.679   4.575
  881SOL    HW2 3543   4.313   4.617   4.724
  882SOL     OW 3544   1.434   0.782   4.662
  882SOL    HW1 3545   1.342   0.804   4.694
  882SOL    HW2 3546   1.479   0.722   4.729
  883SOL     OW 3547   3.890   5.055   5.479
  883SOL    HW1 3548   3.948   5.106   5.543
  883SOL    HW2 3549   3.920   5.073   5.386
  884SOL     OW 3550   6.528   3.393   1.797
  884SOL    HW1 3551   6.515   3.294   1.795
  884SOL    HW2 3552   6.439   3.438   1.798
  885SOL     OW 3553   5.534   6.144   0.289
  885SOL    HW1 3554   5.632   6.138   0.268
  885SOL    HW2 3555   5.521   6.138   0.388
  886SOL     OW 3556   4.138   0.922   6.822
  886SOL    HW1 3557   4.203   0.998   6.824
  886SOL    HW2 3558   4.056   0.951   6.773
  887SOL     OW 3559   4.164   0.008   6.414
  887SOL    HW1 3560   4.078   0.058   6.409
  887SOL    HW2 3561   4.152   6.940   6.371
  888SOL     OW 3562   0.294   6.296   3.668
  888SOL    HW1 3563   0.266   6.201   3.687
  888SOL    HW2 3564   0.214   6.356   3.673
  889SOL     OW 3565   0.230   6.042   5.364
  889SOL    HW1 3566   0.312   6.091   5.393
  889SOL    HW2 3567   0.255   5.958   5.317
  890SOL     OW 3568   2.692   4.830   2.078
  890SOL    HW1 3569   2.612   4.788   2.037
  890SOL    HW2 3570   2.772   4.771   2.066
  891SOL     OW 3571   5.452   3.354   1.412
  891SOL    HW1 3572   5.401   3.360   1.498
  891SOL    HW2 3573   5.487   3.444   1.387
  892SOL     OW 3574   2.688   4.188   0.717
  892SOL    HW1 3575   2.697   4.280   0.755
  892SOL    HW2 3576   2.709   4.189   0.620
  893SOL     OW 3577   1.712   0.170   0.480
  893SOL    HW1 3578   1.670   0.084   0.453
  893SOL    HW2 3579   1.757   0.158   0.569
  894SOL     OW 3580   1.269   5.290   4.034
  894SOL    HW1 3581   1.298   5.217   4.096
  894SOL    HW2 3582   1.349   5.329   3.989
  895SOL     OW 3583   2.163   6.791   4.544
  895SOL    HW1 3584   2.227   6.766   4.471
  895SOL    HW2 3585   2.086   6.727   4.543
  896SOL     OW 3586   6.070   6.170   4.012
  896SOL    HW1 3587   5.998   6.104   4.034
  896SOL    HW2 3588   6.061   6.197   3.916
  897SOL     OW 3589   5.285   2.213   0.357
  897SOL    HW1 3590   5.319   2.119   0.345
  897SOL    HW2 3591   5.311   2.246   0.447
  898SOL     OW 3592   5.292   6.370   3.720
  898SOL    HW1 3593   5.235   6.437   3.768
  898SOL    HW2 3594   5.274   6.279   3.755
  899SOL     OW 3595   0.728   4.883   6.681
  899SOL    HW1 3596   0.798   4.819   6.648
  899SOL    HW2 3597   0.659   4.894   6.610
  900SOL     OW 3598   0.153   6.064   2.180
  900SOL    HW1 3599   0.204   6.138   2.136
  900SOL    HW2 3600   0.181   5.977   2.141
  901SOL     OW 3601   6.879   1.370   4.378
  901SOL    HW1 3602   6.957   1.384   4.316
  901SOL    HW2 3603   6.903   1.404   4.469
  902SOL     OW 3604   6.661   0.348   6.177
  902SOL    HW1 3605   6.564   0.323   6.171
  902SOL    HW2 3606   6.689   0.396   6.094
  903SOL     OW 3607   6.873   4.358   0.754
  903SOL    HW1 3608   6.782   4.354   0.794
  903SOL    HW2 3609   6.866   4.376   0.656
  904SOL     OW 3610   1.398   1.179   3.303
  904SOL    HW1 3611   1.336   1.232   3.246
  904SOL    HW2 3612   1.377   1.081   3.294
  905SOL     OW 3613   4.991   2.321   6.299
  905SOL    HW1 3614   4.984   2.421   6.300
  905SOL    HW2 3615   4.946   2.284   6.218
  906SOL     OW 3616   0.666   4.296   6.918
  906SOL    HW1 3617   0.590   4.273   6.856
  906SOL    HW2 3618   0.681   4.221   6.981
  907SOL     OW 3619   6.454   2.220   2.556
  907SOL    HW1 3620   6.416   2.266   2.476
  907SOL    HW2 3621   6.441   2.121   2.547
  908SOL     OW 3622   1.605   0.296   4.325
  908SOL    HW1 3623   1.606   0.259   4.418
  908SOL    HW2 3624   1.645   0.228   4.263
  909SOL     OW 3625   2.675   0.747   0.545
  909SOL    HW1 3626   2.773   0.753   0.525
  909SOL    HW2 3627   2.661   0.755   0.644
  910SOL     OW 3628   1.177   0.566   0.093
  910SOL    HW1 3629   1.216   0.632   0.157
  910SOL    HW2 3630   1.086   0.538   0.125
  911SOL     OW 3631   0.542   4.808   1.525
  911SOL    HW1 3632   0.465   4.759   1.484
  911SOL    HW2 3633   0.601   4.742   1.572
  912SOL     OW 3634   0.462   1.965   5.569
  912SOL    HW1 3635   0.497   1.871   5.571
  912SOL    HW2 3636   0.540   2.029   5.563
  913SOL     OW 3637   2.529   0.647   3.460
  913SOL    HW1 3638   2.603   0.696   3.414
  913SOL    HW2 3639   2.506   0.694   3.546
  914SOL     OW 3640   2.425   5.657   4.195
  914SOL    HW1 3641   2.438   5.644   4.293
  914SOL    HW2 3642   2.404   5.569   4.153
  915SOL     OW 3643   0.618   3.629   0.281
  915SOL    HW1 3644   0.638   3.532   0.274
  915SOL    HW2 3645   0.565   3.658   0.202
  916SOL     OW 3646   2.470   2.192   2.669
  916SOL    HW1 3647   2.513   2.272   2.628
  916SOL    HW2 3648   2.539   2.124   2.690
  917SOL     OW 3649   3.667   0.789   1.150
  917SOL    HW1 3650   3.622   0.826   1.232
  917SOL    HW2 3651   3.601   0.738   1.096
  918SOL     OW 3652   2.653   6.176   6.272
  918SOL    HW1 3653   2.685   6.081   6.268
  918SOL    HW2 3654   2.553   6.177   6.277
  919SOL     OW 3655   1.446   5.342   2.001
  919SOL    HW1 3656   1.541   5.349   2.031
  919SOL    HW2 3657   1.393   5.295   2.071
  920SOL     OW 3658   2.603   0.296   2.798
  920SOL    HW1 3659   2.668   0.284   2.873
  920SOL    HW2 3660   2.636   0.248   2.717
  921SOL     OW 3661   6.228   4.689   4.412
  921SOL    HW1 3662   6.298   4.638   4.461
  921SOL    HW2 3663   6.225   4.784   4.446
  922SOL     OW 3664   2.913   3.822   7.004
  922SOL    HW1 3665   2.890   3.900   0.040
  922SOL    HW2 3666   2.863   3.741   0.014
  923SOL     OW 3667   2.584   6.009   6.761
  923SOL    HW1 3668   2.626   5.921   6.737
  923SOL    HW2 3669   2.493   5.993   6.798
  924SOL     OW 3670   5.791   3.594   3.377
  924SOL    HW1 3671   5.829   3.526   3.314
  924SOL    HW2 3672   5.693   3.607   3.357
  925SOL     OW 3673   0.374   2.164   5.769
  925SOL    HW1 3674   0.452   2.222   5.749
  925SOL    HW2 3675   0.352   2.108   5.689
  926SOL     OW 3676   5.396   6.182   0.692
  926SOL    HW1 3677   5.308   6.175   0.646
  926SOL    HW2 3678   5.462   6.120   0.649
  927SOL     OW 3679   4.669   4.261   4.269
  927SOL    HW1 3680   4.572   4.242   4.258
  927SOL    HW2 3681   4.700   4.323   4.197
  928SOL     OW 3682   1.870   0.119   0.712
  928SOL    HW1 3683   1.969   0.106   0.706
  928SOL    HW2 3684   1.830   0.047   0.769
  929SOL     OW 3685   0.555   2.713   2.285
  929SOL    HW1 3686   0.618   2.652   2.238
  929SOL    HW2 3687   0.580   2.718   2.382
  930SOL     OW 3688   5.517   4.639   4.389
  930SOL    HW1 3689   5.570   4.580   4.328
  930SOL    HW2 3690   5.578   4.704   4.433
  931SOL     OW 3691   0.603   2.757   3.111
  931SOL    HW1 3692   0.647   2.845   3.090
  931SOL    HW2 3693   0.626   2.691   3.039
  932SOL     OW 3694   4.214   5.923   1.226
  932SOL    HW1 3695   4.301   5.884   1.254
  932SOL    HW2 3696   4.201   5.909   1.128
  933SOL     OW 3697   1.585   4.605   2.730
  933SOL    HW1 3698   1.617   4.593   2.824
  933SOL    HW2 3699   1.654   4.654   2.677
  934SOL     OW 3700   3.372   0.797   5.353
  934SOL    HW1 3701   3.369   0.698   5.338
  934SOL    HW2 3702   3.325   0.843   5.277
  935SOL     OW 3703   4.700   3.696   6.276
  935SOL    HW1 3704   4.754   3.775   6.308
  935SOL    HW2 3705   4.637   3.726   6.205
  936SOL     OW 3706   0.525   0.118   1.309
  936SOL    HW1 3707   0.583   0.148   1.385
  936SOL    HW2 3708   0.448   0.181   1.299
  937SOL     OW 3709   4.406   1.815   4.208
  937SOL    HW1 3710   4.443   1.780   4.294
  937SOL    HW2 3711   4.332   1.879   4.227
  938SOL     OW 3712   6.806   3.396   5.553
  938SOL    HW1 3713   6.790   3.442   5.640
  938SOL    HW2 3714   6.895   3.351   5.555
  939SOL     OW 3715   5.205   1.165   6.203
  939SOL    HW1 3716   5.174   1.211   6.286
  939SOL    HW2 3717   5.221   1.233   6.131
  940SOL     OW 3718   0.041   0.961   3.156
  940SOL    HW1 3719   6.984   0.958   3.094
  940SOL    HW2 3720   0.009   0.980   3.249
  941SOL     OW 3721   5.416   1.297   4.120
  941SOL    HW1 3722   5.498   1.348   4.142
  941SOL    HW2 3723   5.354   1.353   4.065
  942SOL     OW 3724   5.193   6.914   5.288
  942SOL    HW1 3725   5.240   6.838   5.243
  942SOL    HW2 3726   5.259   6.986   5.308
  943SOL     OW 3727   6.224   2.964   2.614
  943SOL    HW1 3728   6.250   3.033   2.682
  943SOL    HW2 3729   6.262   2.988   2.525
  944SOL     OW 3730   5.976   3.007   4.812
  944SOL    HW1 3731   5.947   3.075   4.744
  944SOL    HW2 3732   5.963   2.915   4.776
  945SOL     OW 3733   4.503   4.722   4.152
  945SOL    HW1 3734   4.479   4.670   4.070
  945SOL    HW2 3735   4.448   4.805   4.156
  946SOL     OW 3736   5.876   2.834   5.765
  946SOL    HW1 3737   5.922   2.810   5.679
  946SOL    HW2 3738   5.783   2.797   5.765
  947SOL     OW 3739   3.416   3.164   6.295
  947SOL    HW1 3740   3.404   3.071   6.331
  947SOL    HW2 3741   3.367   3.172   6.209
  948SOL     OW 3742   3.252   1.360   0.605
  948SOL    HW1 3743   3.189   1.285   0.584
  948SOL    HW2 3744   3.295   1.343   0.693
  949SOL     OW 3745   6.288   5.581   6.559
  949SOL    HW1 3746   6.361   5.648   6.575
  949SOL    HW2 3747   6.320   5.490   6.587
  950SOL     OW 3748   4.038   4.893   1.423
  950SOL    HW1 3749   3.941   4.889   1.397
  950SOL    HW2 3750   4.094   4.893   1.340
  951SOL     OW 3751   0.694   0.724   1.749
  951SOL    HW1 3752   0.777   0.779   1.754
  951SOL    HW2 3753   0.702   0.657   1.676
  952SOL     OW 3754   5.283   0.777   3.010
  952SOL    HW1 3755   5.282   0.868   3.052
  952SOL    HW2 3756   5.296   0.785   2.912
  953SOL     OW 3757   4.633   6.549   5.199
  953SOL    HW1 3758   4.618   6.526   5.295
  953SOL    HW2 3759   4.623   6.648   5.186
  954SOL     OW 3760   6.417   0.127   1.574
  954SOL    HW1 3761   6.487   0.196   1.596
  954SOL    HW2 3762   6.326   0.169   1.583
  955SOL     OW 3763   0.844   4.878   3.185
  955SOL    HW1 3764   0.932   4.887   3.232
  955SOL    HW2 3765   0.787   4.957   3.204
  956SOL     OW 3766   1.037   1.181   1.473
  956SOL    HW1 3767   1.119   1.163   1.418
  956SOL    HW2 3768   0.995   1.094   1.500
  957SOL     OW 3769   1.299   4.726   5.820
  957SOL    HW1 3770   1.366   4.654   5.807
  957SOL    HW2 3771   1.345   4.811   5.847
  958SOL     OW 3772   5.386   1.978   0.937
  958SOL    HW1 3773   5.402   2.077   0.934
  958SOL    HW2 3774   5.469   1.932   0.967
  959SOL     OW 3775   3.164   4.888   2.709
  959SOL    HW1 3776   3.072   4.927   2.717
  959SOL    HW2 3777   3.179   4.856   2.615
  960SOL     OW 3778   2.112   6.198   4.572
  960SOL    HW1 3779   2.179   6.124   4.580
  960SOL    HW2 3780   2.068   6.212   4.661
  961SOL     OW 3781   3.856   0.074   2.367
  961SOL    HW1 3782   3.759   0.099   2.366
  961SOL    HW2 3783   3.868   7.007   2.323
  962SOL     OW 3784   1.822   0.911   3.330
  962SOL    HW1 3785   1.904   0.855   3.341
  962SOL    HW2 3786   1.746   0.868   3.379
  963SOL     OW 3787   5.864   0.614   1.368
  963SOL    HW1 3788   5.823   0.549   1.305
  963SOL    HW2 3789   5.894   0.696   1.319
  964SOL     OW 3790   5.514   3.486   1.050
  964SOL    HW1 3791   5.434   3.543   1.029
  964SOL    HW2 3792   5.547   3.508   1.142
  965SOL     OW 3793   6.730   1.570   0.709
  965SOL    HW1 3794   6.665   1.636   0.671
  965SOL    HW2 3795   6.751   1.596   0.803
  966SOL     OW 3796   6.088   1.543   2.756
  966SOL    HW1 3797   6.138   1.628   2.739
  966SOL    HW2 3798   6.074   1.531   2.854
  967SOL     OW 3799   1.519   5.512   0.363
  967SOL    HW1 3800   1.574   5.433   0.390
  967SOL    HW2 3801   1.467   5.491   0.280
  968SOL     OW 3802   4.614   2.635   2.579
  968SOL    HW1 3803   4.627   2.620   2.481
  968SOL    HW2 3804   4.665   2.717   2.606
  969SOL     OW 3805   4.061   6.703   6.040
  969SOL    HW1 3806   4.093   6.609   6.027
  969SOL    HW2 3807   3.962   6.703   6.049
  970SOL     OW 3808   4.346   1.750   5.191
  970SOL    HW1 3809   4.371   1.671   5.135
  970SOL    HW2 3810   4.294   1.718   5.271
  971SOL     OW 3811   6.972   1.450   2.455
  971SOL    HW1 3812   7.016   1.361   2.468
  971SOL    HW2 3813   0.000   1.519   2.507
  972SOL     OW 3814   6.217   4.676   0.637
  972SOL    HW1 3815   6.211   4.747   0.567
  972SOL    HW2 3816   6.240   4.717   0.725
  973SOL     OW 3817   0.022   4.588   6.441
  973SOL    HW1 3818   6.977   4.633   6.501
  973SOL    HW2 3819   6.995   4.531   6.374
  974SOL     OW 3820   3.173   0.522   2.504
  974SOL    HW1 3821   3.254   0.556   2.551
  974SOL    HW2 3822   3.096   0.521   2.568
  975SOL     OW 3823   3.072   5.992   6.088
  975SOL    HW1 3824   3.059   6.020   6.183
  975SOL    HW2 3825   3.166   6.013   6.060
  976SOL     OW 3826   6.789   3.055   2.625
  976SOL    HW1 3827   6.693   3.047   2.598
  976SOL    HW2 3828   6.847   3.018   2.553
  977SOL     OW 3829   1.317   1.154   3.819
  977SOL    HW1 3830   1.217   1.158   3.820
  977SOL    HW2 3831   1.351   1.145   3.913
  978SOL     OW 3832   6.016   4.368   4.184
  978SOL    HW1 3833   6.080   4.313   4.238
  978SOL    HW2 3834   6.001   4.456   4.230
  979SOL     OW 3835   6.095   1.530   3.183
  979SOL    HW1 3836   6.135   1.472   3.253
  979SOL    HW2 3837   6.036   1.476   3.124
  980SOL     OW 3838   5.731   2.618   3.601
  980SOL    HW1 3839   5.668   2.695   3.605
  980SOL    HW2 3840   5.714   2.566   3.517
  981SOL     OW 3841   1.247   1.802   4.773
  981SOL    HW1 3842   1.331   1.750   4.786
  981SOL    HW2 3843   1.192   1.800   4.857
  982SOL     OW 3844   1.093   2.658   1.983
  982SOL    HW1 3845   1.021   2.728   1.975
  982SOL    HW2 3846   1.097   2.625   2.078
  983SOL     OW 3847   6.182   1.910   3.459
  983SOL    HW1 3848   6.215   1.981   3.520
  983SOL    HW2 3849   6.160   1.949   3.369
  984SOL     OW 3850   4.494   1.191   5.602
  984SOL    HW1 3851   4.558   1.137   5.547
  984SOL    HW2 3852   4.402   1.151   5.595
  985SOL     OW 3853   4.151   5.690   0.579
  985SOL    HW1 3854   4.128   5.786   0.590
  985SOL    HW2 3855   4.132   5.641   0.664
  986SOL     OW 3856   5.257   5.596   6.373
  986SOL    HW1 3857   5.251   5.512   6.318
  986SOL    HW2 3858   5.166   5.638   6.379
  987SOL     OW 3859   3.012   6.636   1.573
  987SOL    HW1 3860   2.946   6.629   1.498
  987SOL    HW2 3861   2.977   6.698   1.643
  988SOL     OW 3862   3.729   2.767   0.765
  988SOL    HW1 3863   3.730   2.736   0.670
  988SOL    HW2 3864   3.645   2.736   0.809
  989SOL     OW 3865   0.295   0.509   5.904
  989SOL    HW1 3866   0.361   0.549   5.841
  989SOL    HW2 3867   0.203   0.517   5.866
  990SOL     OW 3868   4.833   0.206   4.233
  990SOL    HW1 3869   4.893   0.244   4.162
  990SOL    HW2 3870   4.874   0.225   4.323
  991SOL     OW 3871   1.412   2.146   4.808
  991SOL    HW1 3872   1.485   2.214   4.810
  991SOL    HW2 3873   1.452   2.054   4.814
  992SOL     OW 3874   0.406   3.105   6.835
  992SOL    HW1 3875   0.492   3.067   6.802
  992SOL    HW2 3876   0.400   3.202   6.809
  993SOL     OW 3877   2.908   5.349   2.568
  993SOL    HW1 3878   2.957   5.334   2.654
  993SOL    HW2 3879   2.891   5.447   2.557
  994SOL     OW 3880   3.439   4.050   2.581
  994SOL    HW1 3881   3.380   4.056   2.500
  994SOL    HW2 3882   3.535   4.050   2.552
  995SOL     OW 3883   1.962   2.708   6.017
  995SOL    HW1 3884   1.902   2.667   6.086
  995SOL    HW2 3885   2.056   2.680   6.034
  996SOL     OW 3886   1.811   3.573   3.510
  996SOL    HW1 3887   1.773   3.540   3.596
  996SOL    HW2 3888   1.834   3.496   3.451
  997SOL     OW 3889   0.749   0.556   1.508
  997SOL    HW1 3890   0.713   0.560   1.415
  997SOL    HW2 3891   0.826   0.491   1.511
  998SOL     OW 3892   4.143   0.010   2.606
  998SOL    HW1 3893   4.169   0.044   2.697
  998SOL    HW2 3894   4.064   0.062   2.572
  999SOL     OW 3895   5.704   5.727   1.068
  999SOL    HW1 3896   5.666   5.804   1.016
  999SOL    HW2 3897   5.630   5.680   1.116
 1000SOL     OW 3898   2.130   1.794   2.538
 1000SOL    HW1 3899   2.124   1.823   2.443
 1000SOL    HW2 3900   2.043   1.751   2.565
 1001SOL     OW 3901   4.064   6.598   6.606
 1001SOL    HW1 3902   4.159   6.582   6.632
 1001SOL    HW2 3903   4.017   6.511   6.598
 1002SOL     OW 3904   5.648   1.437   6.744
 1002SOL    HW1 3905   5.691   1.524   6.717
 1002SOL    HW2 3906   5.604   1.448   6.833
 1003SOL     OW 3907   2.142   6.847   2.668
 1003SOL    HW1 3908   2.098   6.870   2.581
 1003SOL    HW2 3909   2.228   6.897   2.677
 1004SOL     OW 3910   0.002   0.392   6.891
 1004SOL    HW1 3911   6.992   0.473   6.841
 1004SOL    HW2 3912   6.993   0.398   6.986
 1005SOL     OW 3913   0.275   0.667   2.898
 1005SOL    HW1 3914   0.240   0.579   2.928
 1005SOL    HW2 3915   0.240   0.688   2.806
 1006SOL     OW 3916   2.403   5.597   1.691
 1006SOL    HW1 3917   2.360   5.518   1.646
 1006SOL    HW2 3918   2.486   5.567   1.738
 1007SOL     OW 3919   6.164   0.672   3.511
 1007SOL    HW1 3920   6.094   0.724   3.560
 1007SOL    HW2 3921   6.222   0.625   3.577
 1008SOL     OW 3922   0.713   2.234   3.849
 1008SOL    HW1 3923   0.793   2.173   3.856
 1008SOL    HW2 3924   0.705   2.268   3.756
 1009SOL     OW 3925   6.738   5.823   3.899
 1009SOL    HW1 3926   6.644   5.792   3.889
 1009SOL    HW2 3927   6.757   5.840   3.996
 1010SOL     OW 3928   3.824   2.070   6.988
 1010SOL    HW1 3929   3.787   2.035   0.052
 1010SOL    HW2 3930   3.792   2.164   6.974
 1011SOL     OW 3931   3.057   5.690   4.009
 1011SOL    HW1 3932   2.984   5.625   3.987
 1011SOL    HW2 3933   3.027   5.783   3.986
 1012SOL     OW 3934   6.472   5.380   0.264
 1012SOL    HW1 3935   6.469   5.346   0.358
 1012SOL    HW2 3936   6.565   5.372   0.229
 1013SOL     OW 3937   0.532   0.887   6.574
 1013SOL    HW1 3938   0.512   0.975   6.532
 1013SOL    HW2 3939   0.522   0.894   6.673
 1014SOL     OW 3940   5.206   5.460   6.637
 1014SOL    HW1 3941   5.166   5.379   6.595
 1014SOL    HW2 3942   5.257   5.512   6.568
 1015SOL     OW 3943   4.045   6.611   4.829
 1015SOL    HW1 3944   4.022   6.581   4.921
 1015SOL    HW2 3945   4.058   6.532   4.770
 1016SOL     OW 3946   2.686   2.781   1.176
 1016SOL    HW1 3947   2.764   2.720   1.181
 1016SOL    HW2 3948   2.716   2.872   1.147
 1017SOL     OW 3949   5.250   2.300   1.105
 1017SOL    HW1 3950   5.204   2.328   1.189
 1017SOL    HW2 3951   5.341   2.266   1.126
 1018SOL     OW 3952   1.871   3.109   4.231
 1018SOL    HW1 3953   1.876   3.134   4.134
 1018SOL    HW2 3954   1.927   3.028   4.247
 1019SOL     OW 3955   7.020   1.016   0.174
 1019SOL    HW1 3956   6.952   1.003   0.102
 1019SOL    HW2 3957   0.068   1.081   0.143
 1020SOL     OW 3958   1.403   6.982   0.708
 1020SOL    HW1 3959   1.361   6.914   0.768
 1020SOL    HW2 3960   1.502   6.983   0.721
 1021SOL     OW 3961   6.104   1.410   2.066
 1021SOL    HW1 3962   6.171   1.478   2.095
 1021SOL    HW2 3963   6.151   1.325   2.041
 1022SOL     OW 3964   4.193   4.640   6.145
 1022SOL    HW1 3965   4.236   4.632   6.235
 1022SOL    HW2 3966   4.139   4.558   6.127
 1023SOL     OW 3967   6.321   6.860   2.035
 1023SOL    HW1 3968   6.355   6.842   1.943
 1023SOL    HW2 3969   6.223   6.882   2.031
 1024SOL     OW 3970   6.776   2.241   4.129
 1024SOL    HW1 3971   6.759   2.206   4.037
 1024SOL    HW2 3972   6.861   2.201   4.165
 1025SOL     OW 3973   3.866   4.535   0.121
 1025SOL    HW1 3974   3.964   4.550   0.137
 1025SOL    HW2 3975   3.847   4.543   0.023
 1026SOL     OW 3976   1.240   1.201   0.925
 1026SOL    HW1 3977   1.222   1.136   0.999
 1026SOL    HW2 3978   1.309   1.162   0.863
 1027SOL     OW 3979   3.095   5.471   1.345
 1027SOL    HW1 3980   3.133   5.563   1.355
 1027SOL    HW2 3981   3.070   5.435   1.434
 1028SOL     OW 3982   2.513   5.903   0.090
 1028SOL    HW1 3983   2.419   5.901   0.056
 1028SOL    HW2 3984   2.575   5.922   0.013
 1029SOL     OW 3985   1.912   0.469   0.419
 1029SOL    HW1 3986   1.816   0.468   0.446
 1029SOL    HW2 3987   1.919   0.482   0.320
 1030SOL     OW 3988   3.661   2.893   3.853
 1030SOL    HW1 3989   3.564   2.906   3.833
 1030SOL    HW2 3990   3.674   2.806   3.900
 1031SOL     OW 3991   3.510   5.389   1.623
 1031SOL    HW1 3992   3.551   5.334   1.551
 1031SOL    HW2 3993   3.509   5.485   1.595
 1032SOL     OW 3994   2.297   1.331   5.563
 1032SOL    HW1 3995   2.264   1.281   5.642
 1032SOL    HW2 3996   2.241   1.308   5.483
 1033SOL     OW 3997   1.817   5.638   1.482
 1033SOL    HW1 3998   1.870   5.717   1.512
 1033SOL    HW2 3999   1.818   5.634   1.382
 1034SOL     OW 4000   1.743   6.399   4.078
 1034SOL    HW1 4001   1.757   6.411   4.176
 1034SOL    HW2 4002   1.819   6.347   4.039
 1035SOL     OW 4003   2.835   1.962   3.739
 1035SOL    HW1 4004   2.808   1.965   3.835
 1035SOL    HW2 4005   2.931   1.936   3.733
 1036SOL     OW 4006   3.854   1.011   0.972
 1036SOL    HW1 4007   3.818   0.936   1.028
 1036SOL    HW2 4008   3.787   1.037   0.903
 1037SOL     OW 4009   0.691   1.039   0.912
 1037SOL    HW1 4010   0.616   1.013   0.851
 1037SOL    HW2 4011   0.718   1.133   0.894
 1038SOL     OW 4012   0.714   1.456   5.831
 1038SOL    HW1 4013   0.727   1.369   5.785
 1038SOL    HW2 4014   0.691   1.441   5.927
 1039SOL     OW 4015   4.485   1.617   4.789
 1039SOL    HW1 4016   4.441   1.559   4.858
 1039SOL    HW2 4017   4.578   1.640   4.820
 1040SOL     OW 4018   5.746   3.579   3.664
 1040SOL    HW1 4019   5.757   3.578   3.564
 1040SOL    HW2 4020   5.808   3.512   3.705
 1041SOL     OW 4021   6.170   0.125   3.998
 1041SOL    HW1 4022   6.091   0.065   4.001
 1041SOL    HW2 4023   6.251   0.074   3.969
 1042SOL     OW 4024   4.495   4.804   2.038
 1042SOL    HW1 4025   4.517   4.867   2.113
 1042SOL    HW2 4026   4.403   4.823   2.005
 1043SOL     OW 4027   3.968   1.296   6.334
 1043SOL    HW1 4028   4.060   1.334   6.333
 1043SOL    HW2 4029   3.973   1.196   6.329
 1044SOL     OW 4030   3.311   2.449   1.260
 1044SOL    HW1 4031   3.357   2.366   1.226
 1044SOL    HW2 4032   3.251   2.425   1.336
 1045SOL     OW 4033   2.949   0.607   1.390
 1045SOL    HW1 4034   2.875   0.634   1.452
 1045SOL    HW2 4035   2.929   0.642   1.298
 1046SOL     OW 4036   2.428   6.831   6.905
 1046SOL    HW1 4037   2.351   6.844   6.842
 1046SOL    HW2 4038   2.414   6.886   6.987
 1047SOL     OW 4039   1.579   5.322   2.999
 1047SOL    HW1 4040   1.607   5.285   3.087
 1047SOL    HW2 4041   1.612   5.416   2.989
 1048SOL     OW 4042   4.970   5.493   5.400
 1048SOL    HW1 4043   4.908   5.419   5.375
 1048SOL    HW2 4044   5.063   5.470   5.371
 1049SOL     OW 4045   6.952   3.878   5.017
 1049SOL    HW1 4046   6.924   3.965   4.978
 1049SOL    HW2 4047   0.027   3.881   5.041
 1050SOL     OW 4048   3.715   6.562   0.679
 1050SOL    HW1 4049   3.625   6.594   0.651
 1050SOL    HW2 4050   3.707   6.473   0.724
 1051SOL     OW 4051   4.145   4.789   7.007
 1051SOL    HW1 4052   4.092   4.743   6.936
 1051SOL    HW2 4053   4.211   4.725   0.025
 1052SOL     OW 4054   3.830   0.761   4.899
 1052SOL    HW1 4055   3.798   0.741   4.806
 1052SOL    HW2 4056   3.879   0.848   4.900
 1053SOL     OW 4057   5.568   5.829   3.714
 1053SOL    HW1 4058   5.539   5.788   3.800
 1053SOL    HW2 4059   5.639   5.772   3.672
 1054SOL     OW 4060   2.307   4.999   5.493
 1054SOL    HW1 4061   2.252   4.956   5.422
 1054SOL    HW2 4062   2.284   5.096   5.498
 1055SOL     OW 4063   5.564   5.108   4.402
 1055SOL    HW1 4064   5.653   5.070   4.427
 1055SOL    HW2 4065   5.519   5.047   4.336
 1056SOL     OW 4066   1.649   6.516   5.442
 1056SOL    HW1 4067   1.563   6.559   5.467
 1056SOL    HW2 4068   1.638   6.466   5.356
 1057SOL     OW 4069   3.054   3.787   3.390
 1057SOL    HW1 4070   3.067   3.780   3.291
 1057SOL    HW2 4071   2.989   3.717   3.420
 1058SOL     OW 4072   4.275   1.557   1.947
 1058SOL    HW1 4073   4.320   1.495   2.012
 1058SOL    HW2 4074   4.181   1.527   1.932
 1059SOL     OW 4075   3.787   0.364   1.639
 1059SOL    HW1 4076   3.811   0.447   1.690
 1059SOL    HW2 4077   3.823   0.371   1.546
 1060SOL     OW 4078   0.312   3.693   5.844
 1060SOL    HW1 4079   0.224   3.720   5.885
 1060SOL    HW2 4080   0.298   3.672   5.748
 1061SOL     OW 4081   3.428   4.628   1.056
 1061SOL    HW1 4082   3.335   4.638   1.093
 1061SOL    HW2 4083   3.467   4.719   1.042
 1062SOL     OW 4084   6.718   5.702   5.194
 1062SOL    HW1 4085   6.644   5.728   5.132
 1062SOL    HW2 4086   6.799   5.676   5.141
 1063SOL     OW 4087   0.800   3.626   1.180
 1063SOL    HW1 4088   0.896   3.651   1.174
 1063SOL    HW2 4089   0.743   3.706   1.159
 1064SOL     OW 4090   1.724   3.482   2.270
 1064SOL    HW1 4091   1.727   3.494   2.170
 1064SOL    HW2 4092   1.770   3.397   2.295
 1065SOL     OW 4093   5.260   6.991   3.866
 1065SOL    HW1 4094   5.334   7.002   3.932
 1065SOL    HW2 4095   5.172   6.988   3.915
 1066SOL     OW 4096   5.349   0.242   4.450
 1066SOL    HW1 4097   5.328   0.328   4.405
 1066SOL    HW2 4098   5.295   0.169   4.409
 1067SOL     OW 4099   1.607   2.479   0.931
 1067SOL    HW1 4100   1.531   2.417   0.950
 1067SOL    HW2 4101   1.623   2.537   1.011
 1068SOL     OW 4102   0.371   4.042   1.940
 1068SOL    HW1 4103   0.396   4.032   1.844
 1068SOL    HW2 4104   0.271   4.049   1.948
 1069SOL     OW 4105   4.383   4.472   1.046
 1069SOL    HW1 4106   4.359   4.401   1.113
 1069SOL    HW2 4107   4.474   4.453   1.009
 1070SOL     OW 4108   1.913   0.854   0.081
 1070SOL    HW1 4109   1.971   0.786   0.036
 1070SOL    HW2 4110   1.942   0.946   0.054
 1071SOL     OW 4111   4.018   0.032   3.110
 1071SOL    HW1 4112   4.012   0.129   3.134
 1071SOL    HW2 4113   3.930   0.002   3.072
 1072SOL     OW 4114   2.494   5.990   2.273
 1072SOL    HW1 4115   2.448   5.925   2.213
 1072SOL    HW2 4116   2.461   6.082   2.254
 1073SOL     OW 4117   3.638   5.072   2.347
 1073SOL    HW1 4118   3.609   5.154   2.298
 1073SOL    HW2 4119   3.668   5.002   2.282
 1074SOL     OW 4120   1.330   5.579   2.016
 1074SOL    HW1 4121   1.351   5.610   1.924
 1074SOL    HW2 4122   1.365   5.486   2.029
 1075SOL     OW 4123   4.895   5.236   3.206
 1075SOL    HW1 4124   4.815   5.188   3.242
 1075SOL    HW2 4125   4.901   5.221   3.107
 1076SOL     OW 4126   1.272   4.266   5.031
 1076SOL    HW1 4127   1.308   4.331   5.097
 1076SOL    HW2 4128   1.174   4.256   5.043
 1077SOL     OW 4129   5.605   6.431   0.504
 1077SOL    HW1 4130   5.545   6.413   0.426
 1077SOL    HW2 4131   5.549   6.442   0.587
 1078SOL     OW 4132   1.715   1.311   2.421
 1078SOL    HW1 4133   1.671   1.222   2.431
 1078SOL    HW2 4134   1.708   1.362   2.508
 1079SOL     OW 4135   2.515   5.611   3.633
 1079SOL    HW1 4136   2.559   5.526   3.660
 1079SOL    HW2 4137   2.419   5.609   3.661
 1080SOL     OW 4138   3.157   5.491   3.692
 1080SOL    HW1 4139   3.110   5.441   3.620
 1080SOL    HW2 4140   3.231   5.545   3.652
 1081SOL     OW 4141   1.287   1.192   5.776
 1081SOL    HW1 4142   1.322   1.203   5.683
 1081SOL    HW2 4143   1.292   1.279   5.825
 1082SOL     OW 4144   1.212   6.942   5.503
 1082SOL    HW1 4145   1.227   0.012   5.541
 1082SOL    HW2 4146   1.200   6.949   5.404
 1083SOL     OW 4147   3.530   3.420   2.187
 1083SOL    HW1 4148   3.437   3.447   2.212
 1083SOL    HW2 4149   3.584   3.502   2.167
 1084SOL     OW 4150   6.231   5.107   1.108
 1084SOL    HW1 4151   6.183   5.139   1.026
 1084SOL    HW2 4152   6.300   5.040   1.083
 1085SOL     OW 4153   2.235   4.685   4.042
 1085SOL    HW1 4154   2.330   4.654   4.030
 1085SOL    HW2 4155   2.190   4.690   3.953
 1086SOL     OW 4156   5.889   5.525   3.523
 1086SOL    HW1 4157   5.974   5.554   3.567
 1086SOL    HW2 4158   5.910   5.471   3.441
 1087SOL     OW 4159   4.993   3.097   5.109
 1087SOL    HW1 4160   5.091   3.114   5.105
 1087SOL    HW2 4161   4.944   3.184   5.119
 1088SOL     OW 4162   4.989   4.450   3.257
 1088SOL    HW1 4163   4.962   4.357   3.281
 1088SOL    HW2 4164   4.913   4.495   3.209
 1089SOL     OW 4165   0.164   0.280   4.424
 1089SOL    HW1 4166   0.203   0.231   4.347
 1089SOL    HW2 4167   0.219   0.361   4.444
 1090SOL     OW 4168   2.586   1.243   4.984
 1090SOL    HW1 4169   2.621   1.197   5.065
 1090SOL    HW2 4170   2.580   1.341   5.001
 1091SOL     OW 4171   1.446   2.058   3.994
 1091SOL    HW1 4172   1.544   2.048   4.014
 1091SOL    HW2 4173   1.419   1.993   3.923
 1092SOL     OW 4174   2.108   3.811   1.146
 1092SOL    HW1 4175   2.061   3.728   1.177
 1092SOL    HW2 4176   2.198   3.816   1.188
 1093SOL     OW 4177   1.700   2.382   2.413
 1093SOL    HW1 4178   1.626   2.447   2.397
 1093SOL    HW2 4179   1.787   2.424   2.386
 1094SOL     OW 4180   0.435   6.623   1.658
 1094SOL    HW1 4181   0.529   6.646   1.684
 1094SOL    HW2 4182   0.411   6.534   1.694
 1095SOL     OW 4183   6.117   2.746   6.504
 1095SOL    HW1 4184   6.100   2.693   6.587
 1095SOL    HW2 4185   6.139   2.684   6.428
 1096SOL     OW 4186   3.786   5.313   0.956
 1096SOL    HW1 4187   3.832   5.391   0.911
 1096SOL    HW2 4188   3.855   5.248   0.988
 1097SOL     OW 4189   1.653   5.376   4.864
 1097SOL    HW1 4190   1.622   5.398   4.957
 1097SOL    HW2 4191   1.575   5.380   4.801
 1098SOL     OW 4192   5.256   2.528   0.928
 1098SOL    HW1 4193   5.268   2.486   0.838
 1098SOL    HW2 4194   5.245   2.456   0.997
 1099SOL     OW 4195   3.996   2.191   4.537
 1099SOL    HW1 4196   4.059   2.215   4.463
 1099SOL    HW2 4197   4.020   2.241   4.620
 1100SOL     OW 4198   0.757   1.093   6.399
 1100SOL    HW1 4199   0.819   1.110   6.475
 1100SOL    HW2 4200   0.780   1.006   6.355
 1101SOL     OW 4201   5.352   3.102   1.294
 1101SOL    HW1 4202   5.302   3.139   1.215
 1101SOL    HW2 4203   5.381   3.177   1.353
 1102SOL     OW 4204   1.098   4.823   4.029
 1102SOL    HW1 4205   1.026   4.874   3.982
 1102SOL    HW2 4206   1.099   4.729   3.997
 1103SOL     OW 4207   1.824   1.599   2.259
 1103SOL    HW1 4208   1.850   1.564   2.169
 1103SOL    HW2 4209   1.727   1.580   2.275
 1104SOL     OW 4210   2.259   4.463   6.126
 1104SOL    HW1 4211   2.191   4.393   6.101
 1104SOL    HW2 4212   2.233   4.551   6.085
 1105SOL     OW 4213   5.063   4.114   6.983
 1105SOL    HW1 4214   5.004   4.162   6.919
 1105SOL    HW2 4215   5.156   4.151   6.978
 1106SOL     OW 4216   0.179   2.289   6.110
 1106SOL    HW1 4217   0.141   2.219   6.170
 1106SOL    HW2 4218   0.162   2.380   6.150
 1107SOL     OW 4219   0.867   0.316   6.876
 1107SOL    HW1 4220   0.831   0.247   6.940
 1107SOL    HW2 4221   0.893   0.271   6.791
 1108SOL     OW 4222   2.405   0.688   5.550
 1108SOL    HW1 4223   2.342   0.692   5.628
 1108SOL    HW2 4224   2.499   0.691   5.583
 1109SOL     OW 4225   4.156   6.044   4.384
 1109SOL    HW1 4226   4.106   5.982   4.444
 1109SOL    HW2 4227   4.151   6.137   4.421
 1110SOL     OW 4228   2.655   2.743   1.463
 1110SOL    HW1 4229   2.608   2.737   1.375
 1110SOL    HW2 4230   2.750   2.715   1.452
 1111SOL     OW 4231   5.505   6.968   6.766
 1111SOL    HW1 4232   5.561   6.903   6.818
 1111SOL    HW2 4233   5.436   7.008   6.825
 1112SOL     OW 4234   6.010   0.813   2.880
 1112SOL    HW1 4235   5.956   0.881   2.832
 1112SOL    HW2 4236   5.950   0.747   2.925
 1113SOL     OW 4237   6.283   3.315   2.430
 1113SOL    HW1 4238   6.350   3.313   2.357
 1113SOL    HW2 4239   6.212   3.247   2.412
 1114SOL     OW 4240   5.402   0.910   6.596
 1114SOL    HW1 4241   5.413   0.811   6.598
 1114SOL    HW2 4242   5.430   0.946   6.507
 1115SOL     OW 4243   4.267   2.766   0.527
 1115SOL    HW1 4244   4.179   2.771   0.479
 1115SOL    HW2 4245   4.264   2.825   0.607
 1116SOL     OW 4246   5.168   5.892   3.980
 1116SOL    HW1 4247   5.207   5.889   4.072
 1116SOL    HW2 4248   5.220   5.831   3.919
 1117SOL     OW 4249   2.541   2.674   1.705
 1117SOL    HW1 4250   2.523   2.767   1.740
 1117SOL    HW2 4251   2.605   2.680   1.629
 1118SOL     OW 4252   1.888   5.304   2.942
 1118SOL    HW1 4253   1.871   5.209   2.915
 1118SOL    HW2 4254   1.969   5.338   2.894
 1119SOL     OW 4255   4.258   3.978   1.712
 1119SOL    HW1 4256   4.307   4.056   1.751
 1119SOL    HW2 4257   4.192   4.010   1.644
 1120SOL     OW 4258   5.313   0.212   6.145
 1120SOL    HW1 4259   5.240   0.205   6.213
 1120SOL    HW2 4260   5.365   0.126   6.142
 1121SOL     OW 4261   5.091   2.542   1.930
 1121SOL    HW1 4262   5.014   2.484   1.958
 1121SOL    HW2 4263   5.157   2.487   1.879
 1122SOL     OW 4264   5.811   2.940   6.482
 1122SOL    HW1 4265   5.840   2.983   6.568
 1122SOL    HW2 4266   5.888   2.889   6.443
 1123SOL     OW 4267   4.665   1.509   1.966
 1123SOL    HW1 4268   4.671   1.424   1.912
 1123SOL    HW2 4269   4.692   1.586   1.909
 1124SOL     OW 4270   6.647   3.530   5.021
 1124SOL    HW1 4271   6.613   3.595   4.953
 1124SOL    HW2 4272   6.591   3.448   5.020
 1125SOL     OW 4273   2.915   2.714   5.410
 1125SOL    HW1 4274   2.904   2.666   5.497
 1125SOL    HW2 4275   2.835   2.697   5.352
 1126SOL     OW 4276   4.472   6.978   0.363
 1126SOL    HW1 4277   4.475   6.941   0.455
 1126SOL    HW2 4278   4.457   6.904   0.297
 1127SOL     OW 4279   2.422   4.458   6.753
 1127SOL    HW1 4280   2.465   4.530   6.698
 1127SOL    HW2 4281   2.435   4.370   6.707
 1128SOL     OW 4282   4.210   2.322   4.039
 1128SOL    HW1 4283   4.268   2.401   4.061
 1128SOL    HW2 4284   4.186   2.325   3.941
 1129SOL     OW 4285   4.372   0.340   0.545
 1129SOL    HW1 4286   4.306   0.376   0.479
 1129SOL    HW2 4287   4.377   0.402   0.624
 1130SOL     OW 4288   1.414   3.872   1.264
 1130SOL    HW1 4289   1.480   3.804   1.296
 1130SOL    HW2 4290   1.458   3.962   1.261
 1131SOL     OW 4291   0.260   5.838   5.895
 1131SOL    HW1 4292   0.196   5.907   5.861
 1131SOL    HW2 4293   0.331   5.883   5.949
 1132SOL     OW 4294   5.084   6.840   5.717
 1132SOL    HW1 4295   5.184   6.846   5.711
 1132SOL    HW2 4296   5.049   6.918   5.768
 1133SOL     OW 4297   0.574   2.459   1.039
 1133SOL    HW1 4298   0.645   2.399   1.002
 1133SOL    HW2 4299   0.570   2.543   0.985
 1134SOL     OW 4300   5.576   2.610   6.605
 1134SOL    HW1 4301   5.582   2.710   6.614
 1134SOL    HW2 4302   5.491   2.586   6.558
 1135SOL     OW 4303   3.068   2.097   3.434
 1135SOL    HW1 4304   3.042   2.137   3.522
 1135SOL    HW2 4305   3.028   2.006   3.425
 1136SOL     OW 4306   2.309   5.753   3.861
 1136SOL    HW1 4307   2.316   5.827   3.928
 1136SOL    HW2 4308   2.253   5.783   3.784
 1137SOL     OW 4309   1.107   1.876   6.959
 1137SOL    HW1 4310   1.089   1.853   0.033
 1137SOL    HW2 4311   1.195   1.837   6.932
 1138SOL     OW 4312   2.420   3.587   6.216
 1138SOL    HW1 4313   2.385   3.647   6.288
 1138SOL    HW2 4314   2.498   3.630   6.171
 1139SOL     OW 4315   1.223   6.121   3.106
 1139SOL    HW1 4316   1.135   6.074   3.102
 1139SOL    HW2 4317   1.217   6.197   3.170
 1140SOL     OW 4318   3.440   1.932   3.288
 1140SOL    HW1 4319   3.519   1.981   3.324
 1140SOL    HW2 4320   3.382   1.994   3.235
 1141SOL     OW 4321   5.245   5.703   6.013
 1141SOL    HW1 4322   5.261   5.695   5.915
 1141SOL    HW2 4323   5.198   5.789   6.033
 1142SOL     OW 4324   5.064   0.604   4.390
 1142SOL    HW1 4325   4.968   0.625   4.375
 1142SOL    HW2 4326   5.074   0.557   4.477
 1143SOL     OW 4327   4.319   2.271   2.754
 1143SOL    HW1 4328   4.334   2.175   2.731
 1143SOL    HW2 4329   4.261   2.278   2.835
 1144SOL     OW 4330   0.178   4.296   4.066
 1144SOL    HW1 4331   0.270   4.281   4.032
 1144SOL    HW2 4332   0.124   4.213   4.053
 1145SOL     OW 4333   7.001   5.703   3.860
 1145SOL    HW1 4334   0.062   5.760   3.868
 1145SOL    HW2 4335   6.921   5.762   3.850
 1146SOL     OW 4336   6.173   2.072   0.654
 1146SOL    HW1 4337   6.258   2.117   0.627
 1146SOL    HW2 4338   6.096   2.129   0.627
 1147SOL     OW 4339   1.115   3.674   1.802
 1147SOL    HW1 4340   1.163   3.737   1.863
 1147SOL    HW2 4341   1.133   3.580   1.830
 1148SOL     OW 4342   3.601   5.803   6.130
 1148SOL    HW1 4343   3.685   5.789   6.079
 1148SOL    HW2 4344   3.584   5.726   6.191
 1149SOL     OW 4345   6.344   3.401   3.124
 1149SOL    HW1 4346   6.417   3.368   3.064
 1149SOL    HW2 4347   6.279   3.327   3.141
 1150SOL     OW 4348   2.442   4.928   1.084
 1150SOL    HW1 4349   2.499   4.992   1.135
 1150SOL    HW2 4350   2.482   4.912   0.994
 1151SOL     OW 4351   5.821   5.758   6.100
 1151SOL    HW1 4352   5.823   5.852   6.067
 1151SOL    HW2 4353   5.764   5.753   6.182
 1152SOL     OW 4354   1.119   0.309   5.022
 1152SOL    HW1 4355   1.100   0.311   4.924
 1152SOL    HW2 4356   1.218   0.307   5.038
 1153SOL     OW 4357   2.389   6.219   3.174
 1153SOL    HW1 4358   2.347   6.264   3.095
 1153SOL    HW2 4359   2.346   6.253   3.258
 1154SOL     OW 4360   0.620   3.853   2.048
 1154SOL    HW1 4361   0.522   3.858   2.067
 1154SOL    HW2 4362   0.664   3.794   2.115
 1155SOL     OW 4363   3.156   5.889   0.488
 1155SOL    HW1 4364   3.078   5.951   0.494
 1155SOL    HW2 4365   3.184   5.879   0.392
 1156SOL     OW 4366   2.445   0.488   3.973
 1156SOL    HW1 4367   2.381   0.508   3.899
 1156SOL    HW2 4368   2.516   0.426   3.940
 1157SOL     OW 4369   6.859   2.272   4.762
 1157SOL    HW1 4370   6.830   2.307   4.674
 1157SOL    HW2 4371   6.956   2.293   4.777
 1158SOL     OW 4372   5.541   4.612   5.766
 1158SOL    HW1 4373   5.576   4.689   5.820
 1158SOL    HW2 4374   5.580   4.615   5.674
 1159SOL     OW 4375   3.438   6.465   2.721
 1159SOL    HW1 4376   3.444   6.396   2.793
 1159SOL    HW2 4377   3.372   6.536   2.749
 1160SOL     OW 4378   3.737   3.937   2.250
 1160SOL    HW1 4379   3.750   3.999   2.328
 1160SOL    HW2 4380   3.759   3.844   2.277
 1161SOL     OW 4381   5.660   0.299   4.782
 1161SOL    HW1 4382   5.692   0.384   4.740
 1161SOL    HW2 4383   5.618   0.240   4.713
 1162SOL     OW 4384   3.238   3.378   1.025
 1162SOL    HW1 4385   3.206   3.413   0.937
 1162SOL    HW2 4386   3.159   3.362   1.084
 1163SOL     OW 4387   4.978   2.197   1.753
 1163SOL    HW1 4388   5.045   2.149   1.808
 1163SOL    HW2 4389   5.023   2.270   1.701
 1164SOL     OW 4390   5.575   3.153   2.935
 1164SOL    HW1 4391   5.531   3.218   2.874
 1164SOL    HW2 4392   5.514   3.075   2.951
 1165SOL     OW 4393   1.077   3.420   3.573
 1165SOL    HW1 4394   1.160   3.402   3.626
 1165SOL    HW2 4395   1.002   3.365   3.611
 1166SOL     OW 4396   4.493   2.144   6.383
 1166SOL    HW1 4397   4.533   2.063   6.426
 1166SOL    HW2 4398   4.528   2.154   6.290
 1167SOL     OW 4399   3.635   0.934   5.439
 1167SOL    HW1 4400   3.705   0.899   5.377
 1167SOL    HW2 4401   3.566   0.863   5.455
 1168SOL     OW 4402   6.401   6.492   3.038
 1168SOL    HW1 4403   6.337   6.510   3.112
 1168SOL    HW2 4404   6.477   6.436   3.072
 1169SOL     OW 4405   0.271   3.297   0.909
 1169SOL    HW1 4406   0.342   3.360   0.938
 1169SOL    HW2 4407   0.196   3.347   0.868
 1170SOL     OW 4408   3.720   1.213   2.944
 1170SOL    HW1 4409   3.649   1.248   2.882
 1170SOL    HW2 4410   3.785   1.286   2.965
 1171SOL     OW 4411   3.144   6.248   1.181
 1171SOL    HW1 4412   3.230   6.275   1.225
 1171SOL    HW2 4413   3.067   6.272   1.240
 1172SOL     OW 4414   4.132   3.783   4.153
 1172SOL    HW1 4415   4.086   3.856   4.204
 1172SOL    HW2 4416   4.125   3.802   4.055
 1173SOL     OW 4417   3.335   0.440   5.631
 1173SOL    HW1 4418   3.390   0.357   5.619
 1173SOL    HW2 4419   3.322   0.484   5.542
 1174SOL     OW 4420   2.416   5.779   0.892
 1174SOL    HW1 4421   2.489   5.728   0.847
 1174SOL    HW2 4422   2.399   5.864   0.843
 1175SOL     OW 4423   5.824   4.362   6.824
 1175SOL    HW1 4424   5.917   4.325   6.829
 1175SOL    HW2 4425   5.758   4.291   6.849
 1176SOL     OW 4426   5.533   5.073   1.006
 1176SOL    HW1 4427   5.507   5.142   1.074
 1176SOL    HW2 4428   5.481   5.089   0.922
 1177SOL     OW 4429   6.827   2.668   5.429
 1177SOL    HW1 4430   6.825   2.768   5.434
 1177SOL    HW2 4431   6.735   2.633   5.411
 1178SOL     OW 4432   4.849   3.872   2.425
 1178SOL    HW1 4433   4.864   3.785   2.379
 1178SOL    HW2 4434   4.836   3.944   2.357
 1179SOL     OW 4435   1.744   3.751   1.035
 1179SOL    HW1 4436   1.807   3.724   1.108
 1179SOL    HW2 4437   1.653   3.716   1.056
 1180SOL     OW 4438   1.997   1.328   3.343
 1180SOL    HW1 4439   1.928   1.273   3.297
 1180SOL    HW2 4440   2.045   1.385   3.276
 1181SOL     OW 4441   0.835   5.005   4.163
 1181SOL    HW1 4442   0.807   5.040   4.252
 1181SOL    HW2 4443   0.777   4.928   4.137
 1182SOL     OW 4444   2.277   4.239   3.629
 1182SOL    HW1 4445   2.241   4.176   3.699
 1182SOL    HW2 4446   2.202   4.293   3.591
 1183SOL     OW 4447   4.539   5.756   1.270
 1183SOL    HW1 4448   4.557   5.815   1.191
 1183SOL    HW2 4449   4.494   5.809   1.341
 1184SOL     OW 4450   3.153   2.846   5.466
 1184SOL    HW1 4451   3.064   2.807   5.442
 1184SOL    HW2 4452   3.187   2.902   5.390
 1185SOL     OW 4453   2.219   0.408   0.407
 1185SOL    HW1 4454   2.156   0.389   0.482
 1185SOL    HW2 4455   2.264   0.496   0.423
 1186SOL     OW 4456   5.981   0.098   5.147
 1186SOL    HW1 4457   5.962   0.171   5.213
 1186SOL    HW2 4458   6.002   0.139   5.058
 1187SOL     OW 4459   5.904   6.298   4.727
 1187SOL    HW1 4460   5.854   6.371   4.774
 1187SOL    HW2 4461   6.001   6.321   4.722
 1188SOL     OW 4462   2.197   6.902   6.211
 1188SOL    HW1 4463   2.250   6.932   6.133
 1188SOL    HW2 4464   2.225   6.810   6.237
 1189SOL     OW 4465   5.671   1.336   1.639
 1189SOL    HW1 4466   5.656   1.284   1.555
 1189SOL    HW2 4467   5.589   1.391   1.659
 1190SOL     OW 4468   3.974   5.198   3.404
 1190SOL    HW1 4469   3.972   5.264   3.330
 1190SOL    HW2 4470   3.885   5.151   3.410
 1191SOL     OW 4471   3.139   5.017   6.294
 1191SOL    HW1 4472   3.093   5.038   6.208
 1191SOL    HW2 4473   3.075   5.028   6.370
 1192SOL     OW 4474   5.997   4.894   3.117
 1192SOL    HW1 4475   6.000   4.976   3.174
 1192SOL    HW2 4476   6.018   4.814   3.173
 1193SOL     OW 4477   5.281   7.018   4.678
 1193SOL    HW1 4478   5.347   0.015   4.751
 1193SOL    HW2 4479   5.280   6.920   4.658
 1194SOL     OW 4480   6.099   0.316   0.885
 1194SOL    HW1 4481   6.042   0.250   0.836
 1194SOL    HW2 4482   6.095   0.405   0.840
 1195SOL     OW 4483   6.169   1.123   6.296
 1195SOL    HW1 4484   6.209   1.191   6.235
 1195SOL    HW2 4485   6.074   1.105   6.269
 1196SOL     OW 4486   0.426   4.640   2.381
 1196SOL    HW1 4487   0.432   4.563   2.445
 1196SOL    HW2 4488   0.516   4.683   2.373
 1197SOL     OW 4489   3.817   6.085   5.502
 1197SOL    HW1 4490   3.786   5.997   5.536
 1197SOL    HW2 4491   3.810   6.086   5.402
 1198SOL     OW 4492   3.316   2.148   2.873
 1198SOL    HW1 4493   3.235   2.120   2.924
 1198SOL    HW2 4494   3.289   2.211   2.800
 1199SOL     OW 4495   3.003   3.588   2.050
 1199SOL    HW1 4496   3.055   3.531   1.986
 1199SOL    HW2 4497   2.920   3.540   2.078
 1200SOL     OW 4498   4.573   4.139   5.484
 1200SOL    HW1 4499   4.598   4.150   5.580
 1200SOL    HW2 4500   4.497   4.200   5.462
 1201SOL     OW 4501   1.513   1.423   4.990
 1201SOL    HW1 4502   1.488   1.338   5.035
 1201SOL    HW2 4503   1.440   1.449   4.925
 1202SOL     OW 4504   5.362   0.322   5.769
 1202SOL    HW1 4505   5.318   0.242   5.727
 1202SOL    HW2 4506   5.294   0.377   5.816
 1203SOL     OW 4507   5.389   0.533   0.959
 1203SOL    HW1 4508   5.316   0.593   0.992
 1203SOL    HW2 4509   5.463   0.589   0.920
 1204SOL     OW 4510   3.614   1.615   0.356
 1204SOL    HW1 4511   3.688   1.548   0.350
 1204SOL    HW2 4512   3.528   1.568   0.377
 1205SOL     OW 4513   5.550   2.726   5.846
 1205SOL    HW1 4514   5.522   2.751   5.939
 1205SOL    HW2 4515   5.468   2.713   5.790
 1206SOL     OW 4516   1.859   1.631   4.622
 1206SOL    HW1 4517   1.810   1.576   4.689
 1206SOL    HW2 4518   1.794   1.683   4.567
 1207SOL     OW 4519   6.224   6.915   0.237
 1207SOL    HW1 4520   6.283   6.975   0.183
 1207SOL    HW2 4521   6.164   6.863   0.176
 1208SOL     OW 4522   3.573   3.711   3.144
 1208SOL    HW1 4523   3.643   3.640   3.149
 1208SOL    HW2 4524   3.607   3.789   3.091
 1209SOL     OW 4525   6.125   6.107   5.354
 1209SOL    HW1 4526   6.044   6.077   5.405
 1209SOL    HW2 4527   6.190   6.032   5.347
 1210SOL     OW 4528   3.622   0.314   2.704
 1210SOL    HW1 4529   3.674   0.230   2.721
 1210SOL    HW2 4530   3.526   0.291   2.688
 1211SOL     OW 4531   1.280   3.350   4.288
 1211SOL    HW1 4532   1.226   3.273   4.320
 1211SOL    HW2 4533   1.248   3.434   4.333
 1212SOL     OW 4534   1.503   3.765   5.604
 1212SOL    HW1 4535   1.585   3.752   5.549
 1212SOL    HW2 4536   1.515   3.721   5.693
 1213SOL     OW 4537   6.720   2.825   5.151
 1213SOL    HW1 4538   6.720   2.824   5.251
 1213SOL    HW2 4539   6.759   2.739   5.116
 1214SOL     OW 4540   1.869   3.682   4.797
 1214SOL    HW1 4541   1.874   3.613   4.725
 1214SOL    HW2 4542   1.878   3.773   4.757
 1215SOL     OW 4543   2.633   4.738   2.334
 1215SOL    HW1 4544   2.655   4.776   2.244
 1215SOL    HW2 4545   2.587   4.808   2.389
 1216SOL     OW 4546   1.656   6.738   1.395
 1216SOL    HW1 4547   1.690   6.822   1.437
 1216SOL    HW2 4548   1.592   6.693   1.458
 1217SOL     OW 4549   1.592   6.404   0.172
 1217SOL    HW1 4550   1.676   6.450   0.199
 1217SOL    HW2 4551   1.526   6.471   0.137
 1218SOL     OW 4552   0.669   3.462   4.827
 1218SOL    HW1 4553   0.725   3.544   4.840
 1218SOL    HW2 4554   0.728   3.383   4.815
 1219SOL     OW 4555   4.302   5.535   0.436
 1219SOL    HW1 4556   4.231   5.590   0.482
 1219SOL    HW2 4557   4.387   5.588   0.432
 1220SOL     OW 4558   5.636   3.199   2.623
 1220SOL    HW1 4559   5.614   3.117   2.675
 1220SOL    HW2 4560   5.629   3.279   2.682
 1221SOL     OW 4561   5.986   3.928   0.324
 1221SOL    HW1 4562   5.958   3.837   0.292
 1221SOL    HW2 4563   5.966   3.996   0.253
 1222SOL     OW 4564   6.862   6.478   0.549
 1222SOL    HW1 4565   6.903   6.538   0.618
 1222SOL    HW2 4566   6.866   6.523   0.460
 1223SOL     OW 4567   6.149   6.662   6.483
 1223SOL    HW1 4568   6.185   6.712   6.405
 1223SOL    HW2 4569   6.202   6.685   6.565
 1224SOL     OW 4570   4.081   6.020   0.241
 1224SOL    HW1 4571   4.017   6.052   0.311
 1224SOL    HW2 4572   4.035   6.020   0.152
 1225SOL     OW 4573   4.195   1.885   0.571
 1225SOL    HW1 4574   4.176   1.831   0.653
 1225SOL    HW2 4575   4.245   1.829   0.505
 1226SOL     OW 4576   5.883   6.329   1.172
 1226SOL    HW1 4577   5.918   6.422   1.178
 1226SOL    HW2 4578   5.875   6.303   1.076
 1227SOL     OW 4579   5.741   4.366   5.636
 1227SOL    HW1 4580   5.734   4.281   5.584
 1227SOL    HW2 4581   5.699   4.353   5.726
 1228SOL     OW 4582   3.810   3.139   2.113
 1228SOL    HW1 4583   3.805   3.110   2.018
 1228SOL    HW2 4584   3.834   3.061   2.171
 1229SOL     OW 4585   2.089   6.120   2.404
 1229SOL    HW1 4586   2.160   6.173   2.359
 1229SOL    HW2 4587   2.025   6.182   2.450
 1230SOL     OW 4588   5.338   5.075   2.270
 1230SOL    HW1 4589   5.268   5.075   2.341
 1230SOL    HW2 4590   5.428   5.061   2.313
 1231SOL     OW 4591   1.530   2.620   6.275
 1231SOL    HW1 4592   1.444   2.627   6.224
 1231SOL    HW2 4593   1.510   2.607   6.373
 1232SOL     OW 4594   3.651   0.775   5.113
 1232SOL    HW1 4595   3.556   0.792   5.089
 1232SOL    HW2 4596   3.702   0.749   5.030
 1233SOL     OW 4597   0.902   4.424   3.454
 1233SOL    HW1 4598   0.946   4.509   3.427
 1233SOL    HW2 4599   0.803   4.438   3.464
 1234SOL     OW 4600   6.829   3.467   6.872
 1234SOL    HW1 4601   6.896   3.450   6.944
 1234SOL    HW2 4602   6.794   3.560   6.882
 1235SOL     OW 4603   6.101   4.693   0.212
 1235SOL    HW1 4604   6.099   4.618   0.146
 1235SOL    HW2 4605   6.052   4.771   0.174
 1236SOL     OW 4606   3.156   1.164   0.282
 1236SOL    HW1 4607   3.103   1.163   0.367
 1236SOL    HW2 4608   3.166   1.258   0.250
 1237SOL     OW 4609   1.416   0.387   4.705
 1237SOL    HW1 4610   1.450   0.443   4.629
 1237SOL    HW2 4611   1.492   0.344   4.752
 1238SOL     OW 4612   0.450   0.120   3.225
 1238SOL    HW1 4613   0.479   0.127   3.321
 1238SOL    HW2 4614   0.527   0.141   3.166
 1239SOL     OW 4615   6.665   5.256   4.479
 1239SOL    HW1 4616   6.618   5.270   4.391
 1239SOL    HW2 4617   6.625   5.317   4.548
 1240SOL     OW 4618   6.019   5.649   3.140
 1240SOL    HW1 4619   5.985   5.723   3.082
 1240SOL    HW2 4620   5.982   5.562   3.106
 1241SOL     OW 4621   6.539   5.399   4.688
 1241SOL    HW1 4622   6.596   5.477   4.714
 1241SOL    HW2 4623   6.459   5.394   4.748
 1242SOL     OW 4624   1.291   3.280   0.006
 1242SOL    HW1 4625   1.327   3.305   0.095
 1242SOL    HW2 4626   1.258   3.186   0.008
 1243SOL     OW 4627   0.949   3.836   5.485
 1243SOL    HW1 4628   0.897   3.800   5.563
 1243SOL    HW2 4629   1.047   3.819   5.499
 1244SOL     OW 4630   5.710   6.406   5.082
 1244SOL    HW1 4631   5.775   6.330   5.079
 1244SOL    HW2 4632   5.693   6.438   4.989
 1245SOL     OW 4633   5.491   5.990   1.136
 1245SOL    HW1 4634   5.420   5.924   1.161
 1245SOL    HW2 4635   5.451   6.065   1.083
 1246SOL     OW 4636   4.808   1.315   0.720
 1246SOL    HW1 4637   4.760   1.304   0.633
 1246SOL    HW2 4638   4.876   1.388   0.712
 1247SOL     OW 4639   6.483   6.826   3.794
 1247SOL    HW1 4640   6.470   6.734   3.757
 1247SOL    HW2 4641   6.560   6.870   3.749
 1248SOL     OW 4642   0.059   0.112   4.621
 1248SOL    HW1 4643   0.087   0.165   4.542
 1248SOL    HW2 4644   7.003   0.053   4.597
 1249SOL     OW 4645   0.534   4.857   1.196
 1249SOL    HW1 4646   0.557   4.765   1.229
 1249SOL    HW2 4647   0.615   4.915   1.200
 1250SOL     OW 4648   5.605   3.686   5.143
 1250SOL    HW1 4649   5.611   3.605   5.201
 1250SOL    HW2 4650   5.690   3.697   5.092
 1251SOL     OW 4651   1.930   0.886   2.813
 1251SOL    HW1 4652   1.899   0.951   2.882
 1251SOL    HW2 4653   1.947   0.933   2.726
 1252SOL     OW 4654   2.808   5.355   6.718
 1252SOL    HW1 4655   2.780   5.411   6.796
 1252SOL    HW2 4656   2.773   5.396   6.633
 1253SOL     OW 4657   2.948   0.861   0.788
 1253SOL    HW1 4658   2.959   0.830   0.693
 1253SOL    HW2 4659   2.860   0.907   0.798
 1254SOL     OW 4660   6.358   1.654   2.448
 1254SOL    HW1 4661   6.295   1.681   2.521
 1254SOL    HW2 4662   6.436   1.605   2.488
 1255SOL     OW 4663   5.434   2.237   4.841
 1255SOL    HW1 4664   5.384   2.226   4.756
 1255SOL    HW2 4665   5.371   2.267   4.913
 1256SOL     OW 4666   0.376   5.971   4.030
 1256SOL    HW1 4667   0.408   6.060   3.998
 1256SOL    HW2 4668   0.454   5.917   4.062
 1257SOL     OW 4669   0.321   4.397   3.521
 1257SOL    HW1 4670   0.325   4.467   3.449
 1257SOL    HW2 4671   0.412   4.361   3.538
 1258SOL     OW 4672   2.676   6.163   3.944
 1258SOL    HW1 4673   2.667   6.068   3.972
 1258SOL    HW2 4674   2.681   6.168   3.845
 1259SOL     OW 4675   4.633   0.546   4.973
 1259SOL    HW1 4676   4.696   0.612   5.013
 1259SOL    HW2 4677   4.570   0.513   5.043
 1260SOL     OW 4678   2.219   0.560   2.175
 1260SOL    HW1 4679   2.237   0.466   2.202
 1260SOL    HW2 4680   2.121   0.579   2.183
 1261SOL     OW 4681   0.269   3.868   6.478
 1261SOL    HW1 4682   0.192   3.805   6.485
 1261SOL    HW2 4683   0.316   3.853   6.391
 1262SOL     OW 4684   4.783   5.115   1.047
 1262SOL    HW1 4685   4.725   5.051   1.099
 1262SOL    HW2 4686   4.801   5.076   0.956
 1263SOL     OW 4687   6.827   2.433   0.632
 1263SOL    HW1 4688   6.795   2.431   0.727
 1263SOL    HW2 4689   6.899   2.366   0.620
 1264SOL     OW 4690   0.899   4.095   3.260
 1264SOL    HW1 4691   0.990   4.091   3.301
 1264SOL    HW2 4692   0.841   4.023   3.299
 1265SOL     OW 4693   0.158   3.623   4.194
 1265SOL    HW1 4694   0.107   3.698   4.152
 1265SOL    HW2 4695   0.188   3.559   4.123
 1266SOL     OW 4696   2.986   1.614   5.666
 1266SOL    HW1 4697   3.016   1.545   5.600
 1266SOL    HW2 4698   3.066   1.662   5.703
 1267SOL     OW 4699   6.993   5.307   2.834
 1267SOL    HW1 4700   0.012   5.293   2.743
 1267SOL    HW2 4701   6.895   5.287   2.830
 1268SOL     OW 4702   5.646   2.411   6.836
 1268SOL    HW1 4703   5.597   2.455   6.761
 1268SOL    HW2 4704   5.585   2.348   6.884
 1269SOL     OW 4705   6.748   6.698   4.779
 1269SOL    HW1 4706   6.798   6.713   4.864
 1269SOL    HW2 4707   6.651   6.718   4.794
 1270SOL     OW 4708   2.204   4.181   4.699
 1270SOL    HW1 4709   2.224   4.099   4.754
 1270SOL    HW2 4710   2.123   4.226   4.735
 1271SOL     OW 4711   3.156   1.750   2.823
 1271SOL    HW1 4712   3.201   1.718   2.906
 1271SOL    HW2 4713   3.119   1.841   2.838
 1272SOL     OW 4714   0.472   5.532   0.619
 1272SOL    HW1 4715   0.521   5.461   0.669
 1272SOL    HW2 4716   0.490   5.621   0.661
 1273SOL     OW 4717   2.838   4.513   0.582
 1273SOL    HW1 4718   2.762   4.486   0.641
 1273SOL    HW2 4719   2.922   4.471   0.615
 1274SOL     OW 4720   0.018   2.903   1.747
 1274SOL    HW1 4721   0.000   2.949   1.659
 1274SOL    HW2 4722   6.953   2.874   1.787
 1275SOL     OW 4723   4.506   0.597   3.976
 1275SOL    HW1 4724   4.491   0.501   3.997
 1275SOL    HW2 4725   4.557   0.640   4.050
 1276SOL     OW 4726   6.876   0.699   2.723
 1276SOL    HW1 4727   6.818   0.733   2.797
 1276SOL    HW2 4728   6.955   0.650   2.762
 1277SOL     OW 4729   0.284   0.994   4.705
 1277SOL    HW1 4730   0.218   1.047   4.759
 1277SOL    HW2 4731   0.253   0.900   4.698
 1278SOL     OW 4732   1.522   1.897   5.355
 1278SOL    HW1 4733   1.603   1.929   5.403
 1278SOL    HW2 4734   1.487   1.815   5.400
 1279SOL     OW 4735   2.719   6.612   0.692
 1279SOL    HW1 4736   2.805   6.661   0.677
 1279SOL    HW2 4737   2.716   6.530   0.634
 1280SOL     OW 4738   1.715   0.718   2.713
 1280SOL    HW1 4739   1.768   0.729   2.629
 1280SOL    HW2 4740   1.774   0.737   2.792
 1281SOL     OW 4741   1.483   5.803   3.023
 1281SOL    HW1 4742   1.530   5.825   3.108
 1281SOL    HW2 4743   1.441   5.886   2.986
 1282SOL     OW 4744   0.327   1.179   0.971
 1282SOL    HW1 4745   0.321   1.089   0.928
 1282SOL    HW2 4746   0.239   1.204   1.011
 1283SOL     OW 4747   5.420   3.794   5.673
 1283SOL    HW1 4748   5.381   3.750   5.593
 1283SOL    HW2 4749   5.350   3.799   5.745
 1284SOL     OW 4750   2.932   2.309   1.652
 1284SOL    HW1 4751   2.941   2.374   1.727
 1284SOL    HW2 4752   2.948   2.216   1.687
 1285SOL     OW 4753   5.292   3.310   6.449
 1285SOL    HW1 4754   5.350   3.230   6.434
 1285SOL    HW2 4755   5.228   3.292   6.523
 1286SOL     OW 4756   4.957   4.488   2.146
 1286SOL    HW1 4757   4.885   4.426   2.115
 1286SOL    HW2 4758   4.917   4.575   2.174
 1287SOL     OW 4759   6.022   4.956   6.295
 1287SOL    HW1 4760   5.980   5.019   6.361
 1287SOL    HW2 4761   5.999   4.862   6.320
 1288SOL     OW 4762   0.445   3.256   0.231
 1288SOL    HW1 4763   0.542   3.267   0.213
 1288SOL    HW2 4764   0.432   3.211   0.319
 1289SOL     OW 4765   0.543   6.479   2.023
 1289SOL    HW1 4766   0.617   6.530   1.980
 1289SOL    HW2 4767   0.532   6.391   1.976
 1290SOL     OW 4768   0.229   0.369   6.677
 1290SOL    HW1 4769   0.171   0.288   6.673
 1290SOL    HW2 4770   0.181   0.446   6.635
 1291SOL     OW 4771   2.290   5.131   6.317
 1291SOL    HW1 4772   2.330   5.099   6.232
 1291SOL    HW2 4773   2.317   5.070   6.392
 1292SOL     OW 4774   6.951   4.443   1.709
 1292SOL    HW1 4775   6.941   4.515   1.777
 1292SOL    HW2 4776   6.929   4.479   1.619
 1293SOL     OW 4777   2.406   0.959   6.442
 1293SOL    HW1 4778   2.354   0.992   6.363
 1293SOL    HW2 4779   2.360   0.985   6.526
 1294SOL     OW 4780   0.026   3.265   2.194
 1294SOL    HW1 4781   6.992   3.182   2.183
 1294SOL    HW2 4782   0.122   3.243   2.176
 1295SOL     OW 4783   6.095   3.867   2.714
 1295SOL    HW1 4784   6.137   3.822   2.793
 1295SOL    HW2 4785   5.997   3.876   2.730
 1296SOL     OW 4786   2.973   1.546   6.102
 1296SOL    HW1 4787   3.036   1.510   6.033
 1296SOL    HW2 4788   2.989   1.500   6.190
 1297SOL     OW 4789   5.575   1.873   5.726
 1297SOL    HW1 4790   5.506   1.927   5.774
 1297SOL    HW2 4791   5.530   1.809   5.663
 1298SOL     OW 4792   6.157   3.368   4.135
 1298SOL    HW1 4793   6.211   3.423   4.071
 1298SOL    HW2 4794   6.123   3.286   4.087
 1299SOL     OW 4795   2.022   4.272   3.340
 1299SOL    HW1 4796   2.117   4.239   3.342
 1299SOL    HW2 4797   2.008   4.335   3.416
 1300SOL     OW 4798   3.337   3.655   1.974
 1300SOL    HW1 4799   3.295   3.576   1.930
 1300SOL    HW2 4800   3.278   3.735   1.962
 1301SOL     OW 4801   1.374   6.457   3.007
 1301SOL    HW1 4802   1.306   6.407   3.061
 1301SOL    HW2 4803   1.463   6.451   3.052
 1302SOL     OW 4804   2.458   6.598   4.637
 1302SOL    HW1 4805   2.376   6.568   4.588
 1302SOL    HW2 4806   2.534   6.537   4.614
 1303SOL     OW 4807   3.761   1.317   1.023
 1303SOL    HW1 4808   3.712   1.403   1.038
 1303SOL    HW2 4809   3.707   1.258   0.963
 1304SOL     OW 4810   1.143   0.705   6.233
 1304SOL    HW1 4811   1.158   0.616   6.275
 1304SOL    HW2 4812   1.070   0.753   6.281
 1305SOL     OW 4813   5.345   6.140   4.973
 1305SOL    HW1 4814   5.252   6.134   5.009
 1305SOL    HW2 4815   5.343   6.182   4.883
 1306SOL     OW 4816   1.283   3.605   5.108
 1306SOL    HW1 4817   1.213   3.533   5.103
 1306SOL    HW2 4818   1.346   3.585   5.183
 1307SOL     OW 4819   1.732   3.313   4.960
 1307SOL    HW1 4820   1.805   3.364   5.006
 1307SOL    HW2 4821   1.656   3.299   5.023
 1308SOL     OW 4822   4.319   5.921   4.168
 1308SOL    HW1 4823   4.418   5.936   4.173
 1308SOL    HW2 4824   4.273   5.972   4.241
 1309SOL     OW 4825   6.046   3.150   5.554
 1309SOL    HW1 4826   6.060   3.109   5.644
 1309SOL    HW2 4827   5.951   3.179   5.544
 1310SOL     OW 4828   5.683   3.632   4.614
 1310SOL    HW1 4829   5.589   3.649   4.587
 1310SOL    HW2 4830   5.696   3.534   4.629
 1311SOL     OW 4831   5.637   6.928   4.254
 1311SOL    HW1 4832   5.691   6.844   4.263
 1311SOL    HW2 4833   5.685   7.004   4.298
 1312SOL     OW 4834   0.759   0.753   6.521
 1312SOL    HW1 4835   0.691   0.825   6.529
 1312SOL    HW2 4836   0.804   0.739   6.609
 1313SOL     OW 4837   3.147   5.398   5.213
 1313SOL    HW1 4838   3.114   5.480   5.165
 1313SOL    HW2 4839   3.110   5.316   5.170
 1314SOL     OW 4840   1.698   1.587   5.845
 1314SOL    HW1 4841   1.790   1.552   5.830
 1314SOL    HW2 4842   1.632   1.531   5.793
 1315SOL     OW 4843   0.836   0.906   0.692
 1315SOL    HW1 4844   0.801   0.933   0.782
 1315SOL    HW2 4845   0.935   0.923   0.688
 1316SOL     OW 4846   2.190   6.924   3.496
 1316SOL    HW1 4847   2.151   6.879   3.416
 1316SOL    HW2 4848   2.127   6.916   3.573
 1317SOL     OW 4849   0.626   4.355   4.575
 1317SOL    HW1 4850   0.617   4.265   4.532
 1317SOL    HW2 4851   0.705   4.355   4.636
 1318SOL     OW 4852   0.417   0.749   0.610
 1318SOL    HW1 4853   0.349   0.697   0.662
 1318SOL    HW2 4854   0.391   0.751   0.514
 1319SOL     OW 4855   6.376   0.777   0.467
 1319SOL    HW1 4856   6.348   0.829   0.386
 1319SOL    HW2 4857   6.294   0.751   0.519
 1320SOL     OW 4858   5.768   4.573   0.100
 1320SOL    HW1 4859   5.718   4.617   0.176
 1320SOL    HW2 4860   5.761   4.474   0.109
 1321SOL     OW 4861   4.485   3.163   6.914
 1321SOL    HW1 4862   4.427   3.090   6.877
 1321SOL    HW2 4863   4.511   3.226   6.840
 1322SOL     OW 4864   5.914   0.911   3.234
 1322SOL    HW1 4865   5.848   0.976   3.273
 1322SOL    HW2 4866   6.005   0.928   3.272
 1323SOL     OW 4867   5.532   1.634   5.550
 1323SOL    HW1 4868   5.490   1.568   5.612
 1323SOL    HW2 4869   5.495   1.622   5.458
 1324SOL     OW 4870   1.588   2.184   1.701
 1324SOL    HW1 4871   1.540   2.101   1.671
 1324SOL    HW2 4872   1.673   2.158   1.747
 1325SOL     OW 4873   1.576   6.799   2.786
 1325SOL    HW1 4874   1.661   6.807   2.734
 1325SOL    HW2 4875   1.500   6.835   2.731
 1326SOL     OW 4876   4.915   2.522   4.497
 1326SOL    HW1 4877   4.831   2.557   4.455
 1326SOL    HW2 4878   4.992   2.581   4.472
 1327SOL     OW 4879   2.433   5.039   2.233
 1327SOL    HW1 4880   2.528   5.037   2.265
 1327SOL    HW2 4881   2.374   5.072   2.307
 1328SOL     OW 4882   1.424   2.336   6.676
 1328SOL    HW1 4883   1.453   2.244   6.703
 1328SOL    HW2 4884   1.417   2.394   6.758
 1329SOL     OW 4885   6.811   1.314   0.821
 1329SOL    HW1 4886   6.790   1.408   0.792
 1329SOL    HW2 4887   6.728   1.270   0.855
 1330SOL     OW 4888   6.601   0.342   0.942
 1330SOL    HW1 4889   6.597   0.390   1.030
 1330SOL    HW2 4890   6.584   0.408   0.869
 1331SOL     OW 4891   5.188   1.413   2.768
 1331SOL    HW1 4892   5.261   1.370   2.822
 1331SOL    HW2 4893   5.099   1.379   2.798
 1332SOL     OW 4894   4.091   1.128   0.985
 1332SOL    HW1 4895   4.002   1.083   0.983
 1332SOL    HW2 4896   4.121   1.140   1.079
 1333SOL     OW 4897   3.620   4.202   5.133
 1333SOL    HW1 4898   3.700   4.147   5.160
 1333SOL    HW2 4899   3.599   4.184   5.037
 1334SOL     OW 4900   1.454   3.308   5.112
 1334SOL    HW1 4901   1.475   3.223   5.160
 1334SOL    HW2 4902   1.390   3.362   5.167
 1335SOL     OW 4903   2.349   6.525   2.672
 1335SOL    HW1 4904   2.445   6.496   2.671
 1335SOL    HW2 4905   2.338   6.601   2.736
 1336SOL     OW 4906   1.379   1.337   6.914
 1336SOL    HW1 4907   1.434   1.330   6.831
 1336SOL    HW2 4908   1.283   1.319   6.892
 1337SOL     OW 4909   1.824   2.626   5.793
 1337SOL    HW1 4910   1.881   2.577   5.727
 1337SOL    HW2 4911   1.881   2.663   5.866
 1338SOL     OW 4912   4.437   4.024   6.464
 1338SOL    HW1 4913   4.404   3.940   6.421
 1338SOL    HW2 4914   4.458   4.091   6.393
 1339SOL     OW 4915   0.053   4.872   6.667
 1339SOL    HW1 4916   0.063   4.904   6.761
 1339SOL    HW2 4917   6.993   4.913   6.627
 1340SOL     OW 4918   0.949   1.808   0.809
 1340SOL    HW1 4919   0.850   1.792   0.817
 1340SOL    HW2 4920   0.980   1.783   0.718
 1341SOL     OW 4921   3.655   1.146   4.846
 1341SOL    HW1 4922   3.728   1.118   4.784
 1341SOL    HW2 4923   3.685   1.227   4.897
 1342SOL     OW 4924   1.407   6.034   5.872
 1342SOL    HW1 4925   1.311   6.005   5.866
 1342SOL    HW2 4926   1.438   6.026   5.966
 1343SOL     OW 4927   3.536   6.662   2.315
 1343SOL    HW1 4928   3.556   6.754   2.282
 1343SOL    HW2 4929   3.438   6.653   2.334
 1344SOL     OW 4930   6.238   1.881   2.894
 1344SOL    HW1 4931   6.327   1.925   2.878
 1344SOL    HW2 4932   6.234   1.848   2.988
 1345SOL     OW 4933   0.574   1.140   3.650
 1345SOL    HW1 4934   0.490   1.127   3.597
 1345SOL    HW2 4935   0.653   1.113   3.595
 1346SOL     OW 4936   0.918   6.491   3.127
 1346SOL    HW1 4937   0.944   6.403   3.089
 1346SOL    HW2 4938   0.998   6.534   3.169
 1347SOL     OW 4939   6.534   6.734   3.154
 1347SOL    HW1 4940   6.614   6.738   3.093
 1347SOL    HW2 4941   6.470   6.665   3.121
 1348SOL     OW 4942   5.897   4.962   4.382
 1348SOL    HW1 4943   5.977   4.994   4.431
 1348SOL    HW2 4944   5.896   5.002   4.290
 1349SOL     OW 4945   4.489   2.512   0.278
 1349SOL    HW1 4946   4.464   2.419   0.306
 1349SOL    HW2 4947   4.406   2.563   0.255
 1350SOL     OW 4948   3.218   4.587   6.640
 1350SOL    HW1 4949   3.125   4.621   6.628
 1350SOL    HW2 4950   3.238   4.519   6.569
 1351SOL     OW 4951   0.903   0.391   3.064
 1351SOL    HW1 4952   0.976   0.380   2.996
 1351SOL    HW2 4953   0.853   0.475   3.046
 1352SOL     OW 4954   6.681   0.529   3.963
 1352SOL    HW1 4955   6.614   0.597   3.933
 1352SOL    HW2 4956   6.773   0.561   3.944
 1353SOL     OW 4957   6.617   4.067   5.151
 1353SOL    HW1 4958   6.574   4.089   5.238
 1353SOL    HW2 4959   6.603   3.970   5.130
 1354SOL     OW 4960   6.465   1.020   0.995
 1354SOL    HW1 4961   6.436   0.925   0.981
 1354SOL    HW2 4962   6.385   1.078   1.004
 1355SOL     OW 4963   5.297   4.308   0.648
 1355SOL    HW1 4964   5.208   4.265   0.634
 1355SOL    HW2 4965   5.338   4.272   0.732
 1356SOL     OW 4966   3.313   3.813   2.903
 1356SOL    HW1 4967   3.264   3.811   2.815
 1356SOL    HW2 4968   3.410   3.827   2.885
 1357SOL     OW 4969   2.749   3.274   6.135
 1357SOL    HW1 4970   2.673   3.324   6.094
 1357SOL    HW2 4971   2.718   3.231   6.220
 1358SOL     OW 4972   2.411   2.799   6.466
 1358SOL    HW1 4973   2.322   2.834   6.437
 1358SOL    HW2 4974   2.482   2.829   6.402
 1359SOL     OW 4975   6.111   3.757   1.882
 1359SOL    HW1 4976   6.029   3.790   1.928
 1359SOL    HW2 4977   6.121   3.803   1.794
 1360SOL     OW 4978   3.884   3.532   2.863
 1360SOL    HW1 4979   3.909   3.455   2.805
 1360SOL    HW2 4980   3.789   3.558   2.845
 1361SOL     OW 4981   0.775   6.995   6.142
 1361SOL    HW1 4982   0.741   6.934   6.071
 1361SOL    HW2 4983   0.732   6.972   6.229
 1362SOL     OW 4984   2.869   3.460   5.566
 1362SOL    HW1 4985   2.802   3.395   5.603
 1362SOL    HW2 4986   2.961   3.423   5.577
 1363SOL     OW 4987   6.742   6.075   3.244
 1363SOL    HW1 4988   6.653   6.037   3.272
 1363SOL    HW2 4989   6.787   6.011   3.182
 1364SOL     OW 4990   6.896   3.421   0.596
 1364SOL    HW1 4991   6.910   3.510   0.639
 1364SOL    HW2 4992   6.845   3.433   0.511
 1365SOL     OW 4993   1.242   3.333   5.498
 1365SOL    HW1 4994   1.316   3.360   5.559
 1365SOL    HW2 4995   1.241   3.234   5.488
 1366SOL     OW 4996   0.010   3.162   1.212
 1366SOL    HW1 4997   7.012   3.167   1.114
 1366SOL    HW2 4998   0.096   3.115   1.226
 1367SOL     OW 4999   1.477   4.410   3.750
 1367SOL    HW1 5000   1.576   4.398   3.745
 1367SOL    HW2 5001   1.453   4.505   3.728
 1368SOL     OW 5002   6.352   6.880   4.743
 1368SOL    HW1 5003   6.399   6.954   4.692
 1368SOL    HW2 5004   6.403   6.795   4.731
 1369SOL     OW 5005   1.976   6.207   1.965
 1369SOL    HW1 5006   1.878   6.219   1.947
 1369SOL    HW2 5007   2.024   6.293   1.950
 1370SOL     OW 5008   0.226   2.232   3.668
 1370SOL    HW1 5009   0.152   2.246   3.602
 1370SOL    HW2 5010   0.312   2.266   3.631
 1371SOL     OW 5011   6.023   0.853   4.478
 1371SOL    HW1 5012   6.080   0.831   4.557
 1371SOL    HW2 5013   6.016   0.952   4.469
 1372SOL     OW 5014   6.279   2.903   0.663
 1372SOL    HW1 5015   6.365   2.903   0.715
 1372SOL    HW2 5016   6.213   2.842   0.707
 1373SOL     OW 5017   4.400   2.202   1.189
 1373SOL    HW1 5018   4.436   2.266   1.256
 1373SOL    HW2 5019   4.300   2.204   1.190
 1374SOL     OW 5020   5.352   4.081   0.880
 1374SOL    HW1 5021   5.418   4.125   0.941
 1374SOL    HW2 5022   5.365   3.981   0.884
 1375SOL     OW 5023   6.778   5.579   6.233
 1375SOL    HW1 5024   6.779   5.678   6.245
 1375SOL    HW2 5025   6.813   5.556   6.142
 1376SOL     OW 5026   2.768   4.357   5.991
 1376SOL    HW1 5027   2.702   4.327   6.060
 1376SOL    HW2 5028   2.815   4.439   6.023
 1377SOL     OW 5029   0.996   2.637   3.824
 1377SOL    HW1 5030   0.965   2.564   3.885
 1377SOL    HW2 5031   1.016   2.719   3.879
 1378SOL     OW 5032   4.115   2.251   4.819
 1378SOL    HW1 5033   4.128   2.342   4.859
 1378SOL    HW2 5034   4.203   2.218   4.784
 1379SOL     OW 5035   4.674   5.823   2.189
 1379SOL    HW1 5036   4.651   5.740   2.138
 1379SOL    HW2 5037   4.688   5.799   2.286
 1380SOL     OW 5038   6.295   6.448   2.352
 1380SOL    HW1 5039   6.324   6.497   2.271
 1380SOL    HW2 5040   6.232   6.505   2.405
 1381SOL     OW 5041   5.746   2.260   6.209
 1381SOL    HW1 5042   5.838   2.294   6.193
 1381SOL    HW2 5043   5.708   2.304   6.290
 1382SOL     OW 5044   4.397   2.897   1.502
 1382SOL    HW1 5045   4.375   2.973   1.440
 1382SOL    HW2 5046   4.400   2.931   1.596
 1383SOL     OW 5047   1.602   6.426   1.732
 1383SOL    HW1 5048   1.616   6.348   1.671
 1383SOL    HW2 5049   1.505   6.448   1.738
 1384SOL     OW 5050   4.392   0.500   0.794
 1384SOL    HW1 5051   4.372   0.589   0.754
 1384SOL    HW2 5052   4.441   0.512   0.880
 1385SOL     OW 5053   2.211   4.998   3.903
 1385SOL    HW1 5054   2.190   4.998   4.001
 1385SOL    HW2 5055   2.176   5.081   3.861
 1386SOL     OW 5056   3.080   6.397   3.940
 1386SOL    HW1 5057   3.144   6.337   3.892
 1386SOL    HW2 5058   3.019   6.442   3.874
 1387SOL     OW 5059   3.845   5.675   1.169
 1387SOL    HW1 5060   3.775   5.670   1.098
 1387SOL    HW2 5061   3.877   5.769   1.179
 1388SOL     OW 5062   6.132   6.677   1.263
 1388SOL    HW1 5063   6.122   6.776   1.266
 1388SOL    HW2 5064   6.183   6.651   1.181
 1389SOL     OW 5065   5.366   1.401   3.138
 1389SOL    HW1 5066   5.372   1.501   3.132
 1389SOL    HW2 5067   5.419   1.361   3.064
 1390SOL     OW 5068   0.392   3.443   0.000
 1390SOL    HW1 5069   0.377   3.403   0.091
 1390SOL    HW2 5070   0.481   3.414   6.987
 1391SOL     OW 5071   6.493   0.713   3.923
 1391SOL    HW1 5072   6.452   0.774   3.855
 1391SOL    HW2 5073   6.525   0.767   4.001
 1392SOL     OW 5074   5.140   5.962   6.000
 1392SOL    HW1 5075   5.213   6.029   5.991
 1392SOL    HW2 5076   5.056   6.007   6.032
 1393SOL     OW 5077   6.315   4.964   5.339
 1393SOL    HW1 5078   6.335   4.991   5.245
 1393SOL    HW2 5079   6.227   5.002   5.367
 1394SOL     OW 5080   3.206   6.188   5.071
 1394SOL    HW1 5081   3.208   6.269   5.128
 1394SOL    HW2 5082   3.177   6.109   5.126
 1395SOL     OW 5083   2.394   4.318   5.775
 1395SOL    HW1 5084   2.387   4.355   5.868
 1395SOL    HW2 5085   2.351   4.381   5.711
 1396SOL     OW 5086   2.026   0.621   3.892
 1396SOL    HW1 5087   1.972   0.696   3.854
 1396SOL    HW2 5088   2.027   0.629   3.992
 1397SOL     OW 5089   0.215   0.567   3.865
 1397SOL    HW1 5090   0.278   0.554   3.789
 1397SOL    HW2 5091   0.218   0.663   3.894
 1398SOL     OW 5092   1.927   1.069   5.767
 1398SOL    HW1 5093   1.909   0.995   5.832
 1398SOL    HW2 5094   1.841   1.102   5.729
 1399SOL     OW 5095   4.209   6.697   0.885
 1399SOL    HW1 5096   4.195   6.690   0.984
 1399SOL    HW2 5097   4.123   6.680   0.838
 1400SOL     OW 5098   6.683   1.969   2.745
 1400SOL    HW1 5099   6.749   2.040   2.767
 1400SOL    HW2 5100   6.731   1.887   2.713
 1401SOL     OW 5101   6.867   1.929   5.104
 1401SOL    HW1 5102   6.833   1.849   5.056
 1401SOL    HW2 5103   6.966   1.932   5.099
 1402SOL     OW 5104   0.786   4.424   0.503
 1402SOL    HW1 5105   0.867   4.442   0.559
 1402SOL    HW2 5106   0.704   4.440   0.556
 1403SOL     OW 5107   3.180   1.296   1.649
 1403SOL    HW1 5108   3.279   1.306   1.638
 1403SOL    HW2 5109   3.134   1.375   1.608
 1404SOL     OW 5110   5.245   6.976   0.251
 1404SOL    HW1 5111   5.282   0.017   0.319
 1404SOL    HW2 5112   5.153   6.948   0.278
 1405SOL     OW 5113   2.041   3.334   1.130
 1405SOL    HW1 5114   1.980   3.406   1.163
 1405SOL    HW2 5115   2.123   3.331   1.187
 1406SOL     OW 5116   1.339   5.135   1.731
 1406SOL    HW1 5117   1.409   5.207   1.730
 1406SOL    HW2 5118   1.288   5.140   1.817
 1407SOL     OW 5119   0.807   2.164   1.681
 1407SOL    HW1 5120   0.865   2.240   1.651
 1407SOL    HW2 5121   0.726   2.200   1.728
 1408SOL     OW 5122   5.253   1.308   5.977
 1408SOL    HW1 5123   5.184   1.327   5.906
 1408SOL    HW2 5124   5.318   1.240   5.943
 1409SOL     OW 5125   0.535   0.211   5.072
 1409SOL    HW1 5126   0.610   0.150   5.046
 1409SOL    HW2 5127   0.450   0.159   5.075
 1410SOL     OW 5128   2.372   3.746   6.657
 1410SOL    HW1 5129   2.459   3.790   6.635
 1410SOL    HW2 5130   2.309   3.755   6.580
 1411SOL     OW 5131   3.045   6.576   2.484
 1411SOL    HW1 5132   3.120   6.601   2.422
 1411SOL    HW2 5133   3.047   6.636   2.564
 1412SOL     OW 5134   0.398   2.425   0.676
 1412SOL    HW1 5135   0.345   2.501   0.638
 1412SOL    HW2 5136   0.486   2.418   0.627
 1413SOL     OW 5137   2.284   0.972   4.709
 1413SOL    HW1 5138   2.200   1.015   4.676
 1413SOL    HW2 5139   2.328   0.923   4.634
 1414SOL     OW 5140   2.255   0.771   1.177
 1414SOL    HW1 5141   2.185   0.842   1.173
 1414SOL    HW2 5142   2.305   0.777   1.263
 1415SOL     OW 5143   2.575   1.087   4.777
 1415SOL    HW1 5144   2.581   1.145   4.858
 1415SOL    HW2 5145   2.509   1.013   4.794
 1416SOL     OW 5146   4.391   4.616   4.378
 1416SOL    HW1 5147   4.450   4.549   4.422
 1416SOL    HW2 5148   4.441   4.660   4.303
 1417SOL     OW 5149   2.112   1.851   0.194
 1417SOL    HW1 5150   2.127   1.950   0.196
 1417SOL    HW2 5151   2.158   1.811   0.115
 1418SOL     OW 5152   2.895   3.564   3.556
 1418SOL    HW1 5153   2.820   3.504   3.584
 1418SOL    HW2 5154   2.945   3.522   3.480
 1419SOL     OW 5155   3.034   6.330   4.566
 1419SOL    HW1 5156   3.126   6.368   4.553
 1419SOL    HW2 5157   3.031   6.237   4.528
 1420SOL     OW 5158   2.039   6.464   1.447
 1420SOL    HW1 5159   1.985   6.387   1.413
 1420SOL    HW2 5160   1.982   6.522   1.505
 1421SOL     OW 5161   2.144   3.427   3.248
 1421SOL    HW1 5162   2.194   3.420   3.335
 1421SOL    HW2 5163   2.124   3.523   3.229
 1422SOL     OW 5164   2.121   4.232   1.383
 1422SOL    HW1 5165   2.075   4.299   1.441
 1422SOL    HW2 5166   2.107   4.256   1.287
 1423SOL     OW 5167   5.135   6.480   2.763
 1423SOL    HW1 5168   5.069   6.452   2.693
 1423SOL    HW2 5169   5.090   6.541   2.828
 1424SOL     OW 5170   6.358   4.120   4.671
 1424SOL    HW1 5171   6.380   4.112   4.574
 1424SOL    HW2 5172   6.351   4.217   4.696
 1425SOL     OW 5173   1.514   6.165   4.538
 1425SOL    HW1 5174   1.545   6.096   4.603
 1425SOL    HW2 5175   1.464   6.121   4.464
 1426SOL     OW 5176   1.325   2.075   5.698
 1426SOL    HW1 5177   1.363   2.159   5.660
 1426SOL    HW2 5178   1.241   2.051   5.649
 1427SOL     OW 5179   0.103   7.009   3.280
 1427SOL    HW1 5180   0.034   0.047   3.238
 1427SOL    HW2 5181   0.069   6.976   3.368
 1428SOL     OW 5182   5.514   2.725   0.777
 1428SOL    HW1 5183   5.477   2.816   0.798
 1428SOL    HW2 5184   5.490   2.662   0.851
 1429SOL     OW 5185   5.618   2.083   0.413
 1429SOL    HW1 5186   5.643   2.171   0.372
 1429SOL    HW2 5187   5.536   2.048   0.369
 1430SOL     OW 5188   1.712   4.681   4.299
 1430SOL    HW1 5189   1.660   4.746   4.354
 1430SOL    HW2 5190   1.650   4.630   4.239
 1431SOL     OW 5191   1.850   1.840   1.157
 1431SOL    HW1 5192   1.781   1.818   1.226
 1431SOL    HW2 5193   1.834   1.932   1.123
 1432SOL     OW 5194   3.535   1.316   2.783
 1432SOL    HW1 5195   3.568   1.406   2.754
 1432SOL    HW2 5196   3.456   1.291   2.728
 1433SOL     OW 5197   4.354   1.642   3.765
 1433SOL    HW1 5198   4.358   1.629   3.864
 1433SOL    HW2 5199   4.405   1.569   3.720
 1434SOL     OW 5200   6.648   0.886   5.503
 1434SOL    HW1 5201   6.613   0.799   5.538
 1434SOL    HW2 5202   6.745   0.875   5.478
 1435SOL     OW 5203   5.730   0.818   2.233
 1435SOL    HW1 5204   5.662   0.803   2.305
 1435SOL    HW2 5205   5.726   0.913   2.203
 1436SOL     OW 5206   5.787   3.959   0.767
 1436SOL    HW1 5207   5.820   3.988   0.678
 1436SOL    HW2 5208   5.769   3.861   0.766
 1437SOL     OW 5209   2.351   2.772   3.511
 1437SOL    HW1 5210   2.362   2.688   3.565
 1437SOL    HW2 5211   2.298   2.839   3.563
 1438SOL     OW 5212   3.011   6.871   1.351
 1438SOL    HW1 5213   2.941   6.902   1.415
 1438SOL    HW2 5214   3.074   6.810   1.399
 1439SOL     OW 5215   6.888   5.504   0.953
 1439SOL    HW1 5216   6.972   5.476   0.999
 1439SOL    HW2 5217   6.890   5.473   0.858
 1440SOL     OW 5218   3.005   3.946   0.627
 1440SOL    HW1 5219   3.068   3.916   0.556
 1440SOL    HW2 5220   2.944   3.871   0.652
 1441SOL     OW 5221   5.834   0.479   2.728
 1441SOL    HW1 5222   5.917   0.510   2.775
 1441SOL    HW2 5223   5.827   0.380   2.735
 1442SOL     OW 5224   6.774   5.539   0.067
 1442SOL    HW1 5225   6.789   5.460   0.126
 1442SOL    HW2 5226   6.862   5.579   0.042
 1443SOL     OW 5227   0.705   2.401   2.479
 1443SOL    HW1 5228   0.675   2.495   2.496
 1443SOL    HW2 5229   0.796   2.401   2.438
 1444SOL     OW 5230   5.302   6.903   0.760
 1444SOL    HW1 5231   5.360   6.884   0.681
 1444SOL    HW2 5232   5.338   6.981   0.810
 1445SOL     OW 5233   1.058   3.129   2.485
 1445SOL    HW1 5234   1.003   3.048   2.505
 1445SOL    HW2 5235   1.044   3.197   2.556
 1446SOL     OW 5236   6.277   0.983   6.499
 1446SOL    HW1 5237   6.229   1.030   6.425
 1446SOL    HW2 5238   6.220   0.985   6.582
 1447SOL     OW 5239   6.131   5.680   4.184
 1447SOL    HW1 5240   6.230   5.670   4.178
 1447SOL    HW2 5241   6.087   5.608   4.130
 1448SOL     OW 5242   6.686   2.996   4.836
 1448SOL    HW1 5243   6.620   2.989   4.761
 1448SOL    HW2 5244   6.767   2.943   4.814
 1449SOL     OW 5245   1.489   4.040   5.575
 1449SOL    HW1 5246   1.447   4.047   5.665
 1449SOL    HW2 5247   1.518   3.946   5.558
 1450SOL     OW 5248   1.280   2.139   7.005
 1450SOL    HW1 5249   1.326   2.123   6.917
 1450SOL    HW2 5250   1.309   2.070   0.049
 1451SOL     OW 5251   1.518   6.270   2.742
 1451SOL    HW1 5252   1.616   6.266   2.724
 1451SOL    HW2 5253   1.483   6.361   2.717
 1452SOL     OW 5254   4.324   2.685   5.329
 1452SOL    HW1 5255   4.247   2.635   5.290
 1452SOL    HW2 5256   4.343   2.650   5.421
 1453SOL     OW 5257   0.296   4.405   5.593
 1453SOL    HW1 5258   0.386   4.448   5.597
 1453SOL    HW2 5259   0.306   4.309   5.565
 1454SOL     OW 5260   1.791   1.985   2.640
 1454SOL    HW1 5261   1.833   2.035   2.716
 1454SOL    HW2 5262   1.807   1.887   2.652
 1455SOL     OW 5263   1.787   6.747   2.270
 1455SOL    HW1 5264   1.778   6.804   2.352
 1455SOL    HW2 5265   1.883   6.720   2.260
 1456SOL     OW 5266   6.483   6.759   5.753
 1456SOL    HW1 5267   6.418   6.828   5.723
 1456SOL    HW2 5268   6.463   6.672   5.707
 1457SOL     OW 5269   1.758   4.908   0.205
 1457SOL    HW1 5270   1.827   4.929   0.274
 1457SOL    HW2 5271   1.704   4.830   0.235
 1458SOL     OW 5272   5.392   4.720   5.383
 1458SOL    HW1 5273   5.421   4.813   5.405
 1458SOL    HW2 5274   5.471   4.659   5.385
 1459SOL     OW 5275   4.148   0.071   5.907
 1459SOL    HW1 5276   4.169   7.011   5.961
 1459SOL    HW2 5277   4.139   0.150   5.969
 1460SOL     OW 5278   1.574   6.746   4.874
 1460SOL    HW1 5279   1.524   6.668   4.911
 1460SOL    HW2 5280   1.642   6.777   4.941
 1461SOL     OW 5281   0.252   4.084   3.111
 1461SOL    HW1 5282   0.208   4.146   3.176
 1461SOL    HW2 5283   0.346   4.114   3.094
 1462SOL     OW 5284   1.319   0.782   6.547
 1462SOL    HW1 5285   1.248   0.743   6.488
 1462SOL    HW2 5286   1.409   0.750   6.518
 1463SOL     OW 5287   1.050   4.626   5.746
 1463SOL    HW1 5288   1.133   4.672   5.778
 1463SOL    HW2 5289   1.029   4.549   5.806
 1464SOL     OW 5290   6.979   4.914   2.474
 1464SOL    HW1 5291   6.956   4.920   2.571
 1464SOL    HW2 5292   0.047   4.869   2.463
 1465SOL     OW 5293   1.817   1.681   3.628
 1465SOL    HW1 5294   1.776   1.760   3.673
 1465SOL    HW2 5295   1.745   1.625   3.587
 1466SOL     OW 5296   3.784   1.610   1.821
 1466SOL    HW1 5297   3.737   1.640   1.904
 1466SOL    HW2 5298   3.858   1.673   1.801
 1467SOL     OW 5299   1.971   1.217   4.024
 1467SOL    HW1 5300   1.973   1.296   4.084
 1467SOL    HW2 5301   1.944   1.245   3.932
 1468SOL     OW 5302   2.057   5.724   1.937
 1468SOL    HW1 5303   1.988   5.669   1.984
 1468SOL    HW2 5304   2.063   5.814   1.981
 1469SOL     OW 5305   6.696   6.432   2.672
 1469SOL    HW1 5306   6.736   6.380   2.747
 1469SOL    HW2 5307   6.759   6.504   2.644
 1470SOL     OW 5308   0.032   2.115   1.984
 1470SOL    HW1 5309   7.015   2.184   2.045
 1470SOL    HW2 5310   7.008   2.120   1.895
 1471SOL     OW 5311   0.908   0.364   0.438
 1471SOL    HW1 5312   0.990   0.397   0.484
 1471SOL    HW2 5313   0.877   0.279   0.482
 1472SOL     OW 5314   3.041   5.632   0.220
 1472SOL    HW1 5315   3.112   5.583   0.271
 1472SOL    HW2 5316   2.980   5.566   0.177
 1473SOL     OW 5317   2.923   5.782   5.178
 1473SOL    HW1 5318   2.920   5.739   5.268
 1473SOL    HW2 5319   2.843   5.841   5.167
 1474SOL     OW 5320   4.106   4.510   1.289
 1474SOL    HW1 5321   4.028   4.494   1.228
 1474SOL    HW2 5322   4.128   4.426   1.338
 1475SOL     OW 5323   5.346   1.232   0.065
 1475SOL    HW1 5324   5.276   1.287   0.018
 1475SOL    HW2 5325   5.415   1.293   0.105
 1476SOL     OW 5326   2.377   1.075   1.286
 1476SOL    HW1 5327   2.379   0.977   1.306
 1476SOL    HW2 5328   2.304   1.118   1.340
 1477SOL     OW 5329   3.483   6.678   7.018
 1477SOL    HW1 5330   3.460   6.734   0.076
 1477SOL    HW2 5331   3.403   6.628   6.988
 1478SOL     OW 5332   5.566   6.375   5.607
 1478SOL    HW1 5333   5.555   6.294   5.550
 1478SOL    HW2 5334   5.623   6.442   5.560
 1479SOL     OW 5335   3.330   3.385   1.544
 1479SOL    HW1 5336   3.278   3.459   1.588
 1479SOL    HW2 5337   3.428   3.399   1.560
 1480SOL     OW 5338   2.574   0.021   5.691
 1480SOL    HW1 5339   2.611   6.998   5.609
 1480SOL    HW2 5340   2.649   0.049   5.750
 1481SOL     OW 5341   5.856   3.594   5.562
 1481SOL    HW1 5342   5.773   3.538   5.564
 1481SOL    HW2 5343   5.844   3.668   5.496
 1482SOL     OW 5344   4.470   0.556   1.068
 1482SOL    HW1 5345   4.440   0.540   1.162
 1482SOL    HW2 5346   4.549   0.499   1.047
 1483SOL     OW 5347   5.918   2.332   5.131
 1483SOL    HW1 5348   5.966   2.349   5.045
 1483SOL    HW2 5349   5.819   2.327   5.113
 1484SOL     OW 5350   4.807   5.144   3.907
 1484SOL    HW1 5351   4.809   5.117   3.811
 1484SOL    HW2 5352   4.712   5.160   3.935
 1485SOL     OW 5353   5.276   0.685   3.958
 1485SOL    HW1 5354   5.191   0.641   3.930
 1485SOL    HW2 5355   5.295   0.664   4.054
 1486SOL     OW 5356   4.893   0.285   3.284
 1486SOL    HW1 5357   4.980   0.316   3.324
 1486SOL    HW2 5358   4.826   0.272   3.357
 1487SOL     OW 5359   0.225   1.530   0.032
 1487SOL    HW1 5360   0.186   1.561   0.118
 1487SOL    HW2 5361   0.306   1.474   0.049
 1488SOL     OW 5362   4.772   0.542   3.572
 1488SOL    HW1 5363   4.866   0.577   3.573
 1488SOL    HW2 5364   4.738   0.541   3.478
 1489SOL     OW 5365   4.365   4.450   5.750
 1489SOL    HW1 5366   4.348   4.534   5.801
 1489SOL    HW2 5367   4.461   4.446   5.723
 1490SOL     OW 5368   0.389   3.693   0.665
 1490SOL    HW1 5369   0.475   3.646   0.686
 1490SOL    HW2 5370   0.335   3.636   0.603
 1491SOL     OW 5371   6.457   3.747   2.692
 1491SOL    HW1 5372   6.427   3.793   2.608
 1491SOL    HW2 5373   6.544   3.701   2.676
 1492SOL     OW 5374   6.479   0.175   2.382
 1492SOL    HW1 5375   6.530   0.176   2.468
 1492SOL    HW2 5376   6.490   0.086   2.338
 1493SOL     OW 5377   3.667   0.792   6.273
 1493SOL    HW1 5378   3.736   0.820   6.340
 1493SOL    HW2 5379   3.705   0.723   6.212
 1494SOL     OW 5380   5.942   2.951   6.750
 1494SOL    HW1 5381   5.936   2.852   6.736
 1494SOL    HW2 5382   5.905   2.975   6.839
 1495SOL     OW 5383   6.701   4.568   4.611
 1495SOL    HW1 5384   6.729   4.494   4.549
 1495SOL    HW2 5385   6.776   4.634   4.619
 1496SOL     OW 5386   0.981   0.801   0.030
 1496SOL    HW1 5387   0.908   0.750   7.006
 1496SOL    HW2 5388   1.049   0.736   0.065
 1497SOL     OW 5389   5.062   2.776   2.075
 1497SOL    HW1 5390   5.057   2.687   2.028
 1497SOL    HW2 5391   4.976   2.793   2.123
 1498SOL     OW 5392   2.901   4.253   1.075
 1498SOL    HW1 5393   2.918   4.219   0.982
 1498SOL    HW2 5394   2.803   4.246   1.095
 1499SOL     OW 5395   0.617   3.343   6.567
 1499SOL    HW1 5396   0.717   3.346   6.563
 1499SOL    HW2 5397   0.581   3.309   6.480
 1500SOL     OW 5398   0.959   6.362   6.460
 1500SOL    HW1 5399   0.923   6.308   6.536
 1500SOL    HW2 5400   0.887   6.376   6.392
 1501SOL     OW 5401   6.199   1.961   6.161
 1501SOL    HW1 5402   6.240   1.900   6.093
 1501SOL    HW2 5403   6.209   2.056   6.131
 1502SOL     OW 5404   5.342   1.190   6.649
 1502SOL    HW1 5405   5.348   1.092   6.631
 1502SOL    HW2 5406   5.424   1.235   6.614
 1503SOL     OW 5407   0.746   3.222   2.712
 1503SOL    HW1 5408   0.792   3.294   2.661
 1503SOL    HW2 5409   0.682   3.263   2.777
 1504SOL     OW 5410   0.727   0.322   3.257
 1504SOL    HW1 5411   0.709   0.228   3.229
 1504SOL    HW2 5412   0.787   0.365   3.189
 1505SOL     OW 5413   5.018   0.131   5.722
 1505SOL    HW1 5414   5.104   0.125   5.671
 1505SOL    HW2 5415   5.037   0.125   5.820
 1506SOL     OW 5416   1.234   0.083   0.072
 1506SOL    HW1 5417   1.172   0.049   0.002
 1506SOL    HW2 5418   1.329   0.074   0.040
 1507SOL     OW 5419   6.699   1.783   5.263
 1507SOL    HW1 5420   6.748   1.868   5.246
 1507SOL    HW2 5421   6.624   1.799   5.328
 1508SOL     OW 5422   6.795   1.939   1.356
 1508SOL    HW1 5423   6.737   1.924   1.276
 1508SOL    HW2 5424   6.767   1.878   1.430
 1509SOL     OW 5425   4.617   2.087   4.754
 1509SOL    HW1 5426   4.643   2.169   4.703
 1509SOL    HW2 5427   4.545   2.109   4.819
 1510SOL     OW 5428   5.321   6.595   4.629
 1510SOL    HW1 5429   5.415   6.563   4.636
 1510SOL    HW2 5430   5.264   6.546   4.695
 1511SOL     OW 5431   3.467   3.166   4.112
 1511SOL    HW1 5432   3.382   3.156   4.062
 1511SOL    HW2 5433   3.490   3.263   4.121
 1512SOL     OW 5434   6.266   5.513   1.935
 1512SOL    HW1 5435   6.219   5.432   1.899
 1512SOL    HW2 5436   6.305   5.565   1.859
 1513SOL     OW 5437   3.320   0.231   4.684
 1513SOL    HW1 5438   3.277   0.148   4.650
 1513SOL    HW2 5439   3.286   0.252   4.775
 1514SOL     OW 5440   3.913   2.640   5.644
 1514SOL    HW1 5441   3.969   2.678   5.570
 1514SOL    HW2 5442   3.821   2.679   5.640
 1515SOL     OW 5443   6.198   1.200   2.488
 1515SOL    HW1 5444   6.259   1.174   2.413
 1515SOL    HW2 5445   6.120   1.250   2.453
 1516SOL     OW 5446   5.485   5.230   5.341
 1516SOL    HW1 5447   5.511   5.208   5.247
 1516SOL    HW2 5448   5.548   5.299   5.378
 1517SOL     OW 5449   4.219   6.251   3.169
 1517SOL    HW1 5450   4.131   6.212   3.141
 1517SOL    HW2 5451   4.277   6.179   3.208
 1518SOL     OW 5452   6.461   3.345   0.751
 1518SOL    HW1 5453   6.484   3.311   0.841
 1518SOL    HW2 5454   6.417   3.435   0.759
 1519SOL     OW 5455   6.599   4.307   1.331
 1519SOL    HW1 5456   6.682   4.252   1.333
 1519SOL    HW2 5457   6.529   4.260   1.276
 1520SOL     OW 5458   0.808   4.445   1.402
 1520SOL    HW1 5459   0.878   4.488   1.345
 1520SOL    HW2 5460   0.841   4.438   1.496
 1521SOL     OW 5461   1.802   4.958   6.921
 1521SOL    HW1 5462   1.899   4.957   6.946
 1521SOL    HW2 5463   1.746   4.958   7.005
 1522SOL     OW 5464   6.073   5.544   4.878
 1522SOL    HW1 5465   5.999   5.509   4.820
 1522SOL    HW2 5466   6.048   5.633   4.916
 1523SOL     OW 5467   3.623   6.718   6.538
 1523SOL    HW1 5468   3.596   6.775   6.460
 1523SOL    HW2 5469   3.574   6.748   6.620
 1524SOL     OW 5470   2.792   2.086   2.599
 1524SOL    HW1 5471   2.708   2.032   2.604
 1524SOL    HW2 5472   2.837   2.070   2.511
 1525SOL     OW 5473   5.437   2.982   0.805
 1525SOL    HW1 5474   5.364   2.974   0.873
 1525SOL    HW2 5475   5.410   3.048   0.735
 1526SOL     OW 5476   6.864   0.733   6.556
 1526SOL    HW1 5477   6.927   0.778   6.493
 1526SOL    HW2 5478   6.916   0.685   6.626
 1527SOL     OW 5479   3.455   0.784   4.574
 1527SOL    HW1 5480   3.360   0.766   4.603
 1527SOL    HW2 5481   3.457   0.797   4.475
 1528SOL     OW 5482   4.219   4.720   1.884
 1528SOL    HW1 5483   4.306   4.677   1.861
 1528SOL    HW2 5484   4.161   4.724   1.802
 1529SOL     OW 5485   4.736   1.332   6.796
 1529SOL    HW1 5486   4.659   1.396   6.797
 1529SOL    HW2 5487   4.730   1.271   6.876
 1530SOL     OW 5488   3.144   1.249   1.069
 1530SOL    HW1 5489   3.121   1.179   1.137
 1530SOL    HW2 5490   3.206   1.316   1.110
 1531SOL     OW 5491   4.637   1.037   4.965
 1531SOL    HW1 5492   4.702   1.113   4.973
 1531SOL    HW2 5493   4.642   0.981   5.048
 1532SOL     OW 5494   3.466   4.241   5.758
 1532SOL    HW1 5495   3.379   4.260   5.712
 1532SOL    HW2 5496   3.487   4.144   5.749
 1533SOL     OW 5497   5.544   5.350   0.486
 1533SOL    HW1 5498   5.450   5.333   0.456
 1533SOL    HW2 5499   5.608   5.301   0.427
 1534SOL     OW 5500   3.194   5.409   5.993
 1534SOL    HW1 5501   3.237   5.345   5.928
 1534SOL    HW2 5502   3.265   5.455   6.046
 1535SOL     OW 5503   5.403   5.953   4.623
 1535SOL    HW1 5504   5.408   5.856   4.644
 1535SOL    HW2 5505   5.466   6.004   4.682
 1536SOL     OW 5506   4.016   4.848   6.298
 1536SOL    HW1 5507   4.054   4.814   6.212
 1536SOL    HW2 5508   4.080   4.913   6.340
 1537SOL     OW 5509   4.379   5.891   3.789
 1537SOL    HW1 5510   4.399   5.794   3.804
 1537SOL    HW2 5511   4.464   5.943   3.782
 1538SOL     OW 5512   3.530   0.062   6.688
 1538SOL    HW1 5513   3.436   0.098   6.696
 1538SOL    HW2 5514   3.542   7.007   6.751
 1539SOL     OW 5515   5.046   3.086   2.350
 1539SOL    HW1 5516   4.998   3.125   2.428
 1539SOL    HW2 5517   5.008   3.124   2.265
 1540SOL     OW 5518   0.339   6.540   5.202
 1540SOL    HW1 5519   0.395   6.467   5.239
 1540SOL    HW2 5520   0.324   6.525   5.104
 1541SOL     OW 5521   3.170   3.905   4.127
 1541SOL    HW1 5522   3.200   4.000   4.126
 1541SOL    HW2 5523   3.155   3.876   4.222
 1542SOL     OW 5524   6.666   0.328   2.021
 1542SOL    HW1 5525   6.650   0.250   2.083
 1542SOL    HW2 5526   6.691   0.294   1.931
 1543SOL     OW 5527   3.833   5.321   5.269
 1543SOL    HW1 5528   3.797   5.410   5.297
 1543SOL    HW2 5529   3.806   5.301   5.175
 1544SOL     OW 5530   3.379   4.124   3.595
 1544SOL    HW1 5531   3.410   4.029   3.588
 1544SOL    HW2 5532   3.417   4.177   3.519
 1545SOL     OW 5533   4.701   0.836   2.874
 1545SOL    HW1 5534   4.655   0.890   2.944
 1545SOL    HW2 5535   4.655   0.748   2.863
 1546SOL     OW 5536   5.479   6.333   6.029
 1546SOL    HW1 5537   5.568   6.288   6.018
 1546SOL    HW2 5538   5.439   6.307   6.117
 1547SOL     OW 5539   1.385   3.538   1.515
 1547SOL    HW1 5540   1.469   3.547   1.461
 1547SOL    HW2 5541   1.396   3.463   1.580
 1548SOL     OW 5542   5.154   3.798   0.154
 1548SOL    HW1 5543   5.253   3.785   0.148
 1548SOL    HW2 5544   5.110   3.754   0.076
 1549SOL     OW 5545   4.015   1.155   2.325
 1549SOL    HW1 5546   3.964   1.158   2.239
 1549SOL    HW2 5547   3.952   1.163   2.402
 1550SOL     OW 5548   3.613   3.553   1.302
 1550SOL    HW1 5549   3.628   3.531   1.398
 1550SOL    HW2 5550   3.589   3.650   1.294
 1551SOL     OW 5551   1.724   4.781   6.713
 1551SOL    HW1 5552   1.727   4.837   6.630
 1551SOL    HW2 5553   1.731   4.840   6.794
 1552SOL     OW 5554   1.740   5.583   0.739
 1552SOL    HW1 5555   1.715   5.658   0.678
 1552SOL    HW2 5556   1.784   5.510   0.686
 1553SOL     OW 5557   6.785   1.697   6.348
 1553SOL    HW1 5558   6.723   1.680   6.425
 1553SOL    HW2 5559   6.841   1.777   6.368
 1554SOL     OW 5560   3.298   2.090   3.576
 1554SOL    HW1 5561   3.353   2.173   3.578
 1554SOL    HW2 5562   3.252   2.082   3.488
 1555SOL     OW 5563   5.653   3.363   6.547
 1555SOL    HW1 5564   5.665   3.265   6.566
 1555SOL    HW2 5565   5.679   3.382   6.453
 1556SOL     OW 5566   1.396   1.627   6.302
 1556SOL    HW1 5567   1.305   1.612   6.264
 1556SOL    HW2 5568   1.451   1.682   6.240
 1557SOL     OW 5569   2.151   3.471   5.576
 1557SOL    HW1 5570   2.091   3.449   5.652
 1557SOL    HW2 5571   2.242   3.432   5.593
 1558SOL     OW 5572   5.935   0.815   4.848
 1558SOL    HW1 5573   5.866   0.816   4.776
 1558SOL    HW2 5574   6.025   0.832   4.809
 1559SOL     OW 5575   1.923   2.988   6.732
 1559SOL    HW1 5576   1.954   3.083   6.737
 1559SOL    HW2 5577   1.827   2.983   6.760
 1560SOL     OW 5578   6.719   0.123   5.767
 1560SOL    HW1 5579   6.722   0.095   5.863
 1560SOL    HW2 5580   6.798   0.084   5.719
 1561SOL     OW 5581   5.101   6.380   3.474
 1561SOL    HW1 5582   5.132   6.364   3.568
 1561SOL    HW2 5583   5.180   6.405   3.418
 1562SOL     OW 5584   4.944   6.375   2.538
 1562SOL    HW1 5585   4.969   6.345   2.446
 1562SOL    HW2 5586   4.935   6.296   2.598
 1563SOL     OW 5587   3.044   0.675   5.324
 1563SOL    HW1 5588   3.058   0.689   5.226
 1563SOL    HW2 5589   2.975   0.605   5.339
 1564SOL     OW 5590   1.602   0.691   3.383
 1564SOL    HW1 5591   1.575   0.608   3.433
 1564SOL    HW2 5592   1.529   0.716   3.320
 1565SOL     OW 5593   4.569   4.381   3.244
 1565SOL    HW1 5594   4.488   4.409   3.191
 1565SOL    HW2 5595   4.628   4.324   3.188
 1566SOL     OW 5596   5.613   4.238   3.120
 1566SOL    HW1 5597   5.515   4.224   3.106
 1566SOL    HW2 5598   5.646   4.175   3.190
 1567SOL     OW 5599   6.462   6.333   0.600
 1567SOL    HW1 5600   6.472   6.242   0.641
 1567SOL    HW2 5601   6.552   6.376   0.592
 1568SOL     OW 5602   1.133   0.165   0.328
 1568SOL    HW1 5603   1.036   0.147   0.344
 1568SOL    HW2 5604   1.154   0.150   0.231
 1569SOL     OW 5605   4.648   6.361   3.355
 1569SOL    HW1 5606   4.697   6.331   3.273
 1569SOL    HW2 5607   4.714   6.386   3.426
 1570SOL     OW 5608   1.755   0.297   1.064
 1570SOL    HW1 5609   1.848   0.273   1.093
 1570SOL    HW2 5610   1.734   0.251   0.978
 1571SOL     OW 5611   5.586   3.211   1.046
 1571SOL    HW1 5612   5.608   3.183   0.953
 1571SOL    HW2 5613   5.574   3.311   1.049
 1572SOL     OW 5614   0.419   0.174   2.297
 1572SOL    HW1 5615   0.446   0.082   2.325
 1572SOL    HW2 5616   0.499   0.234   2.298
 1573SOL     OW 5617   4.959   1.601   1.869
 1573SOL    HW1 5618   4.896   1.558   1.805
 1573SOL    HW2 5619   4.908   1.665   1.927
 1574SOL     OW 5620   6.637   1.438   1.669
 1574SOL    HW1 5621   6.620   1.475   1.760
 1574SOL    HW2 5622   6.727   1.469   1.637
 1575SOL     OW 5623   2.667   1.473   0.592
 1575SOL    HW1 5624   2.599   1.412   0.551
 1575SOL    HW2 5625   2.629   1.513   0.676
 1576SOL     OW 5626   6.418   6.523   4.484
 1576SOL    HW1 5627   6.484   6.578   4.433
 1576SOL    HW2 5628   6.326   6.562   4.473
 1577SOL     OW 5629   2.814   1.734   4.246
 1577SOL    HW1 5630   2.805   1.833   4.252
 1577SOL    HW2 5631   2.774   1.702   4.160
 1578SOL     OW 5632   6.365   3.161   5.740
 1578SOL    HW1 5633   6.343   3.253   5.708
 1578SOL    HW2 5634   6.396   3.105   5.663
 1579SOL     OW 5635   0.156   1.592   3.333
 1579SOL    HW1 5636   0.248   1.624   3.355
 1579SOL    HW2 5637   0.093   1.620   3.406
 1580SOL     OW 5638   2.801   3.790   5.247
 1580SOL    HW1 5639   2.841   3.877   5.217
 1580SOL    HW2 5640   2.715   3.807   5.294
 1581SOL     OW 5641   0.134   4.632   4.498
 1581SOL    HW1 5642   0.079   4.607   4.418
 1581SOL    HW2 5643   0.229   4.647   4.470
 1582SOL     OW 5644   1.354   6.384   4.538
 1582SOL    HW1 5645   1.374   6.455   4.470
 1582SOL    HW2 5646   1.427   6.316   4.536
 1583SOL     OW 5647   1.215   2.731   4.190
 1583SOL    HW1 5648   1.196   2.693   4.280
 1583SOL    HW2 5649   1.279   2.671   4.141
 1584SOL     OW 5650   1.839   6.631   4.722
 1584SOL    HW1 5651   1.832   6.560   4.793
 1584SOL    HW2 5652   1.840   6.721   4.765
 1585SOL     OW 5653   5.675   1.506   3.564
 1585SOL    HW1 5654   5.649   1.558   3.483
 1585SOL    HW2 5655   5.593   1.465   3.605
 1586SOL     OW 5656   3.747   4.011   1.940
 1586SOL    HW1 5657   3.811   4.027   2.016
 1586SOL    HW2 5658   3.790   3.951   1.873
 1587SOL     OW 5659   2.958   5.063   6.493
 1587SOL    HW1 5660   2.925   5.155   6.515
 1587SOL    HW2 5661   2.972   5.011   6.577
 1588SOL     OW 5662   4.442   1.667   3.451
 1588SOL    HW1 5663   4.528   1.718   3.452
 1588SOL    HW2 5664   4.450   1.588   3.512
 1589SOL     OW 5665   5.459   4.165   3.542
 1589SOL    HW1 5666   5.417   4.195   3.457
 1589SOL    HW2 5667   5.443   4.232   3.614
 1590SOL     OW 5668   1.706   0.149   6.051
 1590SOL    HW1 5669   1.802   0.146   6.077
 1590SOL    HW2 5670   1.656   0.076   6.099
 1591SOL     OW 5671   1.640   5.291   3.284
 1591SOL    HW1 5672   1.719   5.350   3.301
 1591SOL    HW2 5673   1.662   5.197   3.312
 1592SOL     OW 5674   2.480   4.132   1.741
 1592SOL    HW1 5675   2.579   4.142   1.745
 1592SOL    HW2 5676   2.446   4.177   1.658
 1593SOL     OW 5677   0.899   6.563   3.414
 1593SOL    HW1 5678   0.857   6.494   3.472
 1593SOL    HW2 5679   0.835   6.637   3.398
 1594SOL     OW 5680   0.394   4.681   3.087
 1594SOL    HW1 5681   0.471   4.645   3.035
 1594SOL    HW2 5682   0.396   4.781   3.088
 1595SOL     OW 5683   0.586   4.791   6.250
 1595SOL    HW1 5684   0.548   4.843   6.327
 1595SOL    HW2 5685   0.586   4.694   6.273
 1596SOL     OW 5686   1.218   3.752   5.528
 1596SOL    HW1 5687   1.223   3.778   5.432
 1596SOL    HW2 5688   1.310   3.741   5.565
 1597SOL     OW 5689   2.959   5.620   0.530
 1597SOL    HW1 5690   3.022   5.659   0.463
 1597SOL    HW2 5691   2.991   5.640   0.622
 1598SOL     OW 5692   0.429   4.006   0.363
 1598SOL    HW1 5693   0.508   3.975   0.416
 1598SOL    HW2 5694   0.397   4.093   0.399
 1599SOL     OW 5695   4.450   3.623   5.456
 1599SOL    HW1 5696   4.457   3.529   5.423
 1599SOL    HW2 5697   4.364   3.663   5.423
 1600SOL     OW 5698   4.943   2.175   4.622
 1600SOL    HW1 5699   4.882   2.175   4.543
 1600SOL    HW2 5700   4.907   2.238   4.692
 1601SOL     OW 5701   0.901   5.195   4.736
 1601SOL    HW1 5702   0.863   5.146   4.815
 1601SOL    HW2 5703   0.948   5.131   4.676
 1602SOL     OW 5704   1.980   5.601   4.428
 1602SOL    HW1 5705   2.023   5.655   4.355
 1602SOL    HW2 5706   1.918   5.660   4.480
 1603SOL     OW 5707   1.442   6.167   2.067
 1603SOL    HW1 5708   1.539   6.173   2.045
 1603SOL    HW2 5709   1.389   6.153   1.983
 1604SOL     OW 5710   5.877   4.956   6.623
 1604SOL    HW1 5711   5.869   4.857   6.611
 1604SOL    HW2 5712   5.954   4.976   6.684
 1605SOL     OW 5713   6.391   0.142   1.880
 1605SOL    HW1 5714   6.424   0.053   1.851
 1605SOL    HW2 5715   6.400   0.151   1.979
 1606SOL     OW 5716   4.283   1.043   5.312
 1606SOL    HW1 5717   4.207   0.994   5.355
 1606SOL    HW2 5718   4.268   1.141   5.321
 1607SOL     OW 5719   5.264   2.507   1.368
 1607SOL    HW1 5720   5.336   2.567   1.334
 1607SOL    HW2 5721   5.186   2.562   1.399
 1608SOL     OW 5722   1.363   0.586   5.717
 1608SOL    HW1 5723   1.273   0.628   5.732
 1608SOL    HW2 5724   1.403   0.561   5.805
 1609SOL     OW 5725   5.518   1.398   6.522
 1609SOL    HW1 5726   5.571   1.398   6.607
 1609SOL    HW2 5727   5.575   1.364   6.447
 1610SOL     OW 5728   5.393   4.402   5.348
 1610SOL    HW1 5729   5.456   4.463   5.396
 1610SOL    HW2 5730   5.436   4.313   5.336
 1611SOL     OW 5731   3.949   3.568   1.929
 1611SOL    HW1 5732   3.982   3.488   1.980
 1611SOL    HW2 5733   4.025   3.631   1.914
 1612SOL     OW 5734   2.761   1.002   5.497
 1612SOL    HW1 5735   2.683   1.055   5.531
 1612SOL    HW2 5736   2.820   1.061   5.441
 1613SOL     OW 5737   2.363   5.621   1.257
 1613SOL    HW1 5738   2.365   5.606   1.356
 1613SOL    HW2 5739   2.276   5.664   1.232
 1614SOL     OW 5740   6.755   4.042   0.307
 1614SOL    HW1 5741   6.757   4.133   0.349
 1614SOL    HW2 5742   6.660   4.016   0.289
 1615SOL     OW 5743   6.766   4.823   1.407
 1615SOL    HW1 5744   6.745   4.745   1.464
 1615SOL    HW2 5745   6.682   4.871   1.381
 1616SOL     OW 5746   4.581   1.761   5.830
 1616SOL    HW1 5747   4.586   1.755   5.929
 1616SOL    HW2 5748   4.537   1.678   5.794
 1617SOL     OW 5749   5.932   0.069   1.947
 1617SOL    HW1 5750   5.904   0.059   1.852
 1617SOL    HW2 5751   5.969   7.004   1.981
 1618SOL     OW 5752   0.626   3.865   1.102
 1618SOL    HW1 5753   0.545   3.914   1.069
 1618SOL    HW2 5754   0.695   3.864   1.029
 1619SOL     OW 5755   1.553   2.716   4.195
 1619SOL    HW1 5756   1.651   2.701   4.186
 1619SOL    HW2 5757   1.503   2.654   4.135
 1620SOL     OW 5758   2.154   5.798   0.590
 1620SOL    HW1 5759   2.121   5.714   0.548
 1620SOL    HW2 5760   2.250   5.813   0.563
 1621SOL     OW 5761   0.522   0.927   6.818
 1621SOL    HW1 5762   0.539   1.015   6.862
 1621SOL    HW2 5763   0.595   0.863   6.843
 1622SOL     OW 5764   1.557   1.890   4.802
 1622SOL    HW1 5765   1.574   1.798   4.767
 1622SOL    HW2 5766   1.641   1.926   4.842
 1623SOL     OW 5767   2.586   2.945   6.134
 1623SOL    HW1 5768   2.506   2.985   6.179
 1623SOL    HW2 5769   2.646   2.904   6.203
 1624SOL     OW 5770   2.507   0.736   6.353
 1624SOL    HW1 5771   2.466   0.821   6.387
 1624SOL    HW2 5772   2.590   0.757   6.302
 1625SOL     OW 5773   1.514   5.081   2.848
 1625SOL    HW1 5774   1.441   5.135   2.805
 1625SOL    HW2 5775   1.561   5.137   2.916
 1626SOL     OW 5776   1.914   1.699   6.526
 1626SOL    HW1 5777   1.932   1.643   6.607
 1626SOL    HW2 5778   1.966   1.784   6.533
 1627SOL     OW 5779   6.722   1.756   4.389
 1627SOL    HW1 5780   6.757   1.820   4.321
 1627SOL    HW2 5781   6.748   1.787   4.481
 1628SOL     OW 5782   4.040   5.207   6.865
 1628SOL    HW1 5783   4.034   5.197   6.964
 1628SOL    HW2 5784   4.128   5.172   6.833
 1629SOL     OW 5785   2.755   1.999   3.993
 1629SOL    HW1 5786   2.663   1.974   4.023
 1629SOL    HW2 5787   2.807   2.034   4.071
 1630SOL     OW 5788   0.832   5.977   5.731
 1630SOL    HW1 5789   0.823   6.074   5.752
 1630SOL    HW2 5790   0.823   5.924   5.816
 1631SOL     OW 5791   6.842   0.413   5.684
 1631SOL    HW1 5792   6.772   0.481   5.706
 1631SOL    HW2 5793   6.812   0.323   5.718
 1632SOL     OW 5794   0.137   1.362   6.631
 1632SOL    HW1 5795   0.087   1.294   6.577
 1632SOL    HW2 5796   0.073   1.410   6.691
 1633SOL     OW 5797   5.481   2.790   2.950
 1633SOL    HW1 5798   5.473   2.690   2.944
 1633SOL    HW2 5799   5.484   2.828   2.857
 1634SOL     OW 5800   4.252   5.950   5.539
 1634SOL    HW1 5801   4.223   6.032   5.588
 1634SOL    HW2 5802   4.279   5.974   5.446
 1635SOL     OW 5803   6.315   5.379   4.854
 1635SOL    HW1 5804   6.288   5.299   4.801
 1635SOL    HW2 5805   6.235   5.437   4.870
 1636SOL     OW 5806   2.458   4.322   1.530
 1636SOL    HW1 5807   2.418   4.351   1.443
 1636SOL    HW2 5808   2.509   4.397   1.571
 1637SOL     OW 5809   6.687   1.801   2.968
 1637SOL    HW1 5810   6.771   1.752   2.946
 1637SOL    HW2 5811   6.665   1.864   2.894
 1638SOL     OW 5812   0.406   3.604   4.277
 1638SOL    HW1 5813   0.440   3.511   4.295
 1638SOL    HW2 5814   0.311   3.598   4.244
 1639SOL     OW 5815   5.277   6.139   2.309
 1639SOL    HW1 5816   5.191   6.091   2.326
 1639SOL    HW2 5817   5.353   6.075   2.319
 1640SOL     OW 5818   6.039   1.919   0.231
 1640SOL    HW1 5819   6.115   1.858   0.251
 1640SOL    HW2 5820   6.065   1.980   0.156
 1641SOL     OW 5821   5.896   2.922   4.009
 1641SOL    HW1 5822   5.936   2.865   3.937
 1641SOL    HW2 5823   5.814   2.876   4.045
 1642SOL     OW 5824   6.630   3.318   0.151
 1642SOL    HW1 5825   6.617   3.414   0.126
 1642SOL    HW2 5826   6.566   3.261   0.100
 1643SOL     OW 5827   3.583   6.291   4.786
 1643SOL    HW1 5828   3.625   6.238   4.712
 1643SOL    HW2 5829   3.542   6.228   4.853
 1644SOL     OW 5830   2.366   2.672   1.309
 1644SOL    HW1 5831   2.279   2.706   1.273
 1644SOL    HW2 5832   2.412   2.616   1.239
 1645SOL     OW 5833   3.339   6.679   5.427
 1645SOL    HW1 5834   3.358   6.688   5.329
 1645SOL    HW2 5835   3.248   6.715   5.447
 1646SOL     OW 5836   2.999   5.129   1.207
 1646SOL    HW1 5837   2.905   5.139   1.241
 1646SOL    HW2 5838   3.007   5.042   1.157
 1647SOL     OW 5839   5.429   2.455   4.011
 1647SOL    HW1 5840   5.449   2.387   3.941
 1647SOL    HW2 5841   5.407   2.410   4.097
 1648SOL     OW 5842   5.370   6.387   1.806
 1648SOL    HW1 5843   5.453   6.378   1.861
 1648SOL    HW2 5844   5.394   6.389   1.709
 1649SOL     OW 5845   3.200   0.447   2.818
 1649SOL    HW1 5846   3.244   0.431   2.906
 1649SOL    HW2 5847   3.106   0.479   2.834
 1650SOL     OW 5848   3.115   6.682   4.247
 1650SOL    HW1 5849   3.172   6.601   4.229
 1650SOL    HW2 5850   3.077   6.715   4.160
 1651SOL     OW 5851   0.712   0.609   1.231
 1651SOL    HW1 5852   0.646   0.606   1.156
 1651SOL    HW2 5853   0.783   0.676   1.210
 1652SOL     OW 5854   1.698   1.750   0.842
 1652SOL    HW1 5855   1.741   1.664   0.870
 1652SOL    HW2 5856   1.766   1.823   0.843
 1653SOL     OW 5857   0.495   5.444   1.485
 1653SOL    HW1 5858   0.500   5.362   1.542
 1653SOL    HW2 5859   0.476   5.418   1.390
 1654SOL     OW 5860   6.964   2.976   2.409
 1654SOL    HW1 5861   6.952   2.999   2.312
 1654SOL    HW2 5862   0.017   3.031   2.447
 1655SOL     OW 5863   5.356   3.708   6.005
 1655SOL    HW1 5864   5.392   3.618   5.978
 1655SOL    HW2 5865   5.278   3.695   6.067
 1656SOL     OW 5866   1.777   4.190   3.277
 1656SOL    HW1 5867   1.789   4.130   3.198
 1656SOL    HW2 5868   1.866   4.226   3.305
 1657SOL     OW 5869   0.608   1.415   5.147
 1657SOL    HW1 5870   0.617   1.441   5.051
 1657SOL    HW2 5871   0.512   1.413   5.173
 1658SOL     OW 5872   6.857   0.096   2.833
 1658SOL    HW1 5873   6.917   0.016   2.827
 1658SOL    HW2 5874   6.765   0.066   2.860
 1659SOL     OW 5875   3.370   1.855   6.259
 1659SOL    HW1 5876   3.379   1.951   6.285
 1659SOL    HW2 5877   3.308   1.847   6.181
 1660SOL     OW 5878   1.404   5.611   3.923
 1660SOL    HW1 5879   1.478   5.629   3.859
 1660SOL    HW2 5880   1.356   5.527   3.896
 1661SOL     OW 5881   3.410   1.755   1.785
 1661SOL    HW1 5882   3.425   1.692   1.709
 1661SOL    HW2 5883   3.480   1.827   1.783
 1662SOL     OW 5884   5.955   1.273   3.405
 1662SOL    HW1 5885   6.049   1.264   3.372
 1662SOL    HW2 5886   5.952   1.339   3.480
 1663SOL     OW 5887   2.679   0.490   3.184
 1663SOL    HW1 5888   2.621   0.561   3.144
 1663SOL    HW2 5889   2.623   0.409   3.203
 1664SOL     OW 5890   1.936   0.324   4.243
 1664SOL    HW1 5891   1.904   0.232   4.266
 1664SOL    HW2 5892   2.003   0.319   4.170
 1665SOL     OW 5893   6.928   1.459   3.209
 1665SOL    HW1 5894   6.945   1.369   3.170
 1665SOL    HW2 5895   7.015   1.507   3.220
 1666SOL     OW 5896   6.267   2.813   0.276
 1666SOL    HW1 5897   6.258   2.732   0.333
 1666SOL    HW2 5898   6.303   2.889   0.331
 1667SOL     OW 5899   5.325   0.095   0.461
 1667SOL    HW1 5900   5.391   0.053   0.522
 1667SOL    HW2 5901   5.361   0.183   0.429
 1668SOL     OW 5902   4.974   6.705   4.863
 1668SOL    HW1 5903   4.939   6.684   4.772
 1668SOL    HW2 5904   4.926   6.786   4.899
 1669SOL     OW 5905   6.162   6.631   0.431
 1669SOL    HW1 5906   6.111   6.709   0.395
 1669SOL    HW2 5907   6.229   6.663   0.498
 1670SOL     OW 5908   6.672   5.754   5.714
 1670SOL    HW1 5909   6.616   5.675   5.740
 1670SOL    HW2 5910   6.690   5.751   5.616
 1671SOL     OW 5911   4.276   2.607   1.090
 1671SOL    HW1 5912   4.245   2.547   1.163
 1671SOL    HW2 5913   4.250   2.701   1.111
 1672SOL     OW 5914   2.096   3.731   2.700
 1672SOL    HW1 5915   2.149   3.780   2.631
 1672SOL    HW2 5916   2.118   3.767   2.791
 1673SOL     OW 5917   0.561   2.700   4.796
 1673SOL    HW1 5918   0.624   2.717   4.872
 1673SOL    HW2 5919   0.580   2.609   4.758
 1674SOL     OW 5920   1.771   3.825   1.440
 1674SOL    HW1 5921   1.718   3.790   1.517
 1674SOL    HW2 5922   1.783   3.924   1.451
 1675SOL     OW 5923   4.761   0.234   6.495
 1675SOL    HW1 5924   4.670   0.226   6.453
 1675SOL    HW2 5925   4.776   0.328   6.524
 1676SOL     OW 5926   2.915   1.513   2.777
 1676SOL    HW1 5927   3.002   1.550   2.744
 1676SOL    HW2 5928   2.884   1.442   2.714
 1677SOL     OW 5929   5.040   1.915   5.237
 1677SOL    HW1 5930   5.022   2.013   5.249
 1677SOL    HW2 5931   4.961   1.863   5.270
 1678SOL     OW 5932   5.674   4.542   4.212
 1678SOL    HW1 5933   5.659   4.637   4.184
 1678SOL    HW2 5934   5.715   4.491   4.137
 1679SOL     OW 5935   1.683   3.667   5.388
 1679SOL    HW1 5936   1.680   3.744   5.324
 1679SOL    HW2 5937   1.767   3.672   5.442
 1680SOL     OW 5938   0.810   1.358   4.327
 1680SOL    HW1 5939   0.847   1.440   4.283
 1680SOL    HW2 5940   0.833   1.278   4.271
 1681SOL     OW 5941   6.697   5.553   1.374
 1681SOL    HW1 5942   6.621   5.617   1.363
 1681SOL    HW2 5943   6.725   5.520   1.283
 1682SOL     OW 5944   0.132   2.866   4.697
 1682SOL    HW1 5945   0.097   2.915   4.777
 1682SOL    HW2 5946   0.230   2.851   4.707
 1683SOL     OW 5947   4.067   4.901   0.546
 1683SOL    HW1 5948   4.148   4.851   0.576
 1683SOL    HW2 5949   3.985   4.848   0.567
 1684SOL     OW 5950   1.223   6.388   3.647
 1684SOL    HW1 5951   1.154   6.445   3.692
 1684SOL    HW2 5952   1.179   6.306   3.611
 1685SOL     OW 5953   1.546   1.223   6.433
 1685SOL    HW1 5954   1.633   1.267   6.458
 1685SOL    HW2 5955   1.565   1.143   6.376
 1686SOL     OW 5956   1.549   5.395   5.685
 1686SOL    HW1 5957   1.582   5.352   5.601
 1686SOL    HW2 5958   1.578   5.340   5.764
 1687SOL     OW 5959   2.026   2.884   1.958
 1687SOL    HW1 5960   2.125   2.873   1.947
 1687SOL    HW2 5961   2.006   2.916   2.050
 1688SOL     OW 5962   1.323   1.655   3.206
 1688SOL    HW1 5963   1.399   1.720   3.201
 1688SOL    HW2 5964   1.317   1.617   3.298
 1689SOL     OW 5965   3.468   1.385   2.263
 1689SOL    HW1 5966   3.501   1.469   2.219
 1689SOL    HW2 5967   3.510   1.376   2.353
 1690SOL     OW 5968   1.267   2.666   3.443
 1690SOL    HW1 5969   1.172   2.694   3.429
 1690SOL    HW2 5970   1.319   2.743   3.481
 1691SOL     OW 5971   4.909   4.188   3.253
 1691SOL    HW1 5972   4.992   4.135   3.240
 1691SOL    HW2 5973   4.839   4.158   3.188
 1692SOL     OW 5974   6.818   0.243   1.177
 1692SOL    HW1 5975   6.799   0.339   1.154
 1692SOL    HW2 5976   6.750   0.211   1.243
 1693SOL     OW 5977   1.878   2.795   2.981
 1693SOL    HW1 5978   1.864   2.894   2.978
 1693SOL    HW2 5979   1.832   2.757   3.061
 1694SOL     OW 5980   4.207   6.277   4.083
 1694SOL    HW1 5981   4.281   6.270   4.016
 1694SOL    HW2 5982   4.145   6.351   4.057
 1695SOL     OW 5983   2.575   1.626   4.572
 1695SOL    HW1 5984   2.506   1.639   4.501
 1695SOL    HW2 5985   2.549   1.548   4.629
 1696SOL     OW 5986   4.994   5.413   0.652
 1696SOL    HW1 5987   4.985   5.414   0.752
 1696SOL    HW2 5988   5.085   5.446   0.627
 1697SOL     OW 5989   0.396   6.671   1.294
 1697SOL    HW1 5990   0.475   6.679   1.354
 1697SOL    HW2 5991   0.340   6.593   1.324
 1698SOL     OW 5992   4.564   1.982   1.271
 1698SOL    HW1 5993   4.484   1.931   1.304
 1698SOL    HW2 5994   4.533   2.064   1.222
 1699SOL     OW 5995   2.687   2.052   1.651
 1699SOL    HW1 5996   2.626   2.130   1.642
 1699SOL    HW2 5997   2.747   2.065   1.731
 1700SOL     OW 5998   6.485   2.104   3.197
 1700SOL    HW1 5999   6.567   2.050   3.214
 1700SOL    HW2 6000   6.433   2.114   3.282
 1701SOL     OW 6001   5.672   2.755   4.712
 1701SOL    HW1 6002   5.625   2.667   4.714
 1701SOL    HW2 6003   5.766   2.743   4.745
 1702SOL     OW 6004   6.104   3.712   0.724
 1702SOL    HW1 6005   6.093   3.616   0.699
 1702SOL    HW2 6006   6.051   3.730   0.807
 1703SOL     OW 6007   3.118   4.064   2.136
 1703SOL    HW1 6008   3.042   4.109   2.090
 1703SOL    HW2 6009   3.190   4.043   2.069
 1704SOL     OW 6010   0.017   1.078   0.702
 1704SOL    HW1 6011   6.946   1.098   0.734
 1704SOL    HW2 6012   0.070   1.040   0.777
 1705SOL     OW 6013   3.360   2.157   1.696
 1705SOL    HW1 6014   3.388   2.253   1.705
 1705SOL    HW2 6015   3.440   2.099   1.687
 1706SOL     OW 6016   4.115   0.282   1.491
 1706SOL    HW1 6017   4.155   0.352   1.432
 1706SOL    HW2 6018   4.144   0.296   1.585
 1707SOL     OW 6019   4.022   1.461   1.853
 1707SOL    HW1 6020   4.030   1.407   1.769
 1707SOL    HW2 6021   3.926   1.489   1.865
 1708SOL     OW 6022   6.031   6.289   3.129
 1708SOL    HW1 6023   5.997   6.373   3.086
 1708SOL    HW2 6024   6.114   6.259   3.081
 1709SOL     OW 6025   2.453   6.670   1.848
 1709SOL    HW1 6026   2.355   6.679   1.829
 1709SOL    HW2 6027   2.479   6.574   1.844
 1710SOL     OW 6028   6.954   4.017   2.991
 1710SOL    HW1 6029   7.000   4.053   3.071
 1710SOL    HW2 6030   7.018   3.963   2.936
 1711SOL     OW 6031   1.378   4.433   5.212
 1711SOL    HW1 6032   1.386   4.463   5.308
 1711SOL    HW2 6033   1.462   4.386   5.185
 1712SOL     OW 6034   0.813   3.804   6.424
 1712SOL    HW1 6035   0.785   3.860   6.502
 1712SOL    HW2 6036   0.732   3.772   6.375
 1713SOL     OW 6037   2.308   1.974   1.398
 1713SOL    HW1 6038   2.291   2.068   1.371
 1713SOL    HW2 6039   2.223   1.921   1.388
 1714SOL     OW 6040   3.949   1.657   6.341
 1714SOL    HW1 6041   3.912   1.599   6.413
 1714SOL    HW2 6042   3.905   1.636   6.254
 1715SOL     OW 6043   6.917   3.121   2.873
 1715SOL    HW1 6044   7.003   3.079   2.900
 1715SOL    HW2 6045   6.885   3.078   2.788
 1716SOL     OW 6046   5.735   6.472   1.526
 1716SOL    HW1 6047   5.670   6.523   1.469
 1716SOL    HW2 6048   5.826   6.476   1.484
 1717SOL     OW 6049   2.645   6.261   6.561
 1717SOL    HW1 6050   2.627   6.358   6.577
 1717SOL    HW2 6051   2.618   6.237   6.468
 1718SOL     OW 6052   1.917   2.501   0.549
 1718SOL    HW1 6053   1.894   2.461   0.638
 1718SOL    HW2 6054   1.834   2.506   0.492
 1719SOL     OW 6055   2.454   3.755   1.254
 1719SOL    HW1 6056   2.407   3.831   1.297
 1719SOL    HW2 6057   2.508   3.788   1.177
 1720SOL     OW 6058   6.360   1.934   1.338
 1720SOL    HW1 6059   6.329   1.964   1.247
 1720SOL    HW2 6060   6.378   2.014   1.395
 1721SOL     OW 6061   1.530   6.698   2.304
 1721SOL    HW1 6062   1.494   6.611   2.272
 1721SOL    HW2 6063   1.630   6.697   2.299
 1722SOL     OW 6064   4.921   0.794   3.182
 1722SOL    HW1 6065   4.846   0.825   3.241
 1722SOL    HW2 6066   4.948   0.869   3.121
 1723SOL     OW 6067   6.688   1.838   3.888
 1723SOL    HW1 6068   6.736   1.881   3.811
 1723SOL    HW2 6069   6.623   1.771   3.852
 1724SOL     OW 6070   6.094   0.996   0.607
 1724SOL    HW1 6071   6.032   1.068   0.637
 1724SOL    HW2 6072   6.177   0.998   0.663
 1725SOL     OW 6073   3.360   4.342   0.297
 1725SOL    HW1 6074   3.360   4.398   0.380
 1725SOL    HW2 6075   3.432   4.374   0.236
 1726SOL     OW 6076   6.634   4.196   4.224
 1726SOL    HW1 6077   6.728   4.181   4.194
 1726SOL    HW2 6078   6.596   4.275   4.175
 1727SOL     OW 6079   3.770   3.027   4.139
 1727SOL    HW1 6080   3.694   3.046   4.201
 1727SOL    HW2 6081   3.735   3.008   4.047
 1728SOL     OW 6082   5.021   4.528   4.224
 1728SOL    HW1 6083   4.948   4.591   4.253
 1728SOL    HW2 6084   5.094   4.580   4.180
 1729SOL     OW 6085   2.105   3.954   3.641
 1729SOL    HW1 6086   2.124   3.859   3.618
 1729SOL    HW2 6087   2.006   3.968   3.651
 1730SOL     OW 6088   6.747   0.664   5.237
 1730SOL    HW1 6089   6.799   0.699   5.314
 1730SOL    HW2 6090   6.663   0.717   5.226
 1731SOL     OW 6091   1.322   5.161   2.301
 1731SOL    HW1 6092   1.237   5.141   2.349
 1731SOL    HW2 6093   1.390   5.195   2.366
 1732SOL     OW 6094   2.223   4.117   6.501
 1732SOL    HW1 6095   2.301   4.087   6.447
 1732SOL    HW2 6096   2.239   4.210   6.534
 1733SOL     OW 6097   1.880   3.254   2.335
 1733SOL    HW1 6098   1.943   3.236   2.260
 1733SOL    HW2 6099   1.930   3.254   2.422
 1734SOL     OW 6100   4.387   3.031   1.734
 1734SOL    HW1 6101   4.458   3.053   1.801
 1734SOL    HW2 6102   4.299   3.022   1.782
 1735SOL     OW 6103   5.761   5.541   1.961
 1735SOL    HW1 6104   5.772   5.442   1.973
 1735SOL    HW2 6105   5.672   5.569   1.997
 1736SOL     OW 6106   5.115   2.371   0.233
 1736SOL    HW1 6107   5.047   2.326   0.175
 1736SOL    HW2 6108   5.180   2.304   0.267
 1737SOL     OW 6109   3.140   0.362   4.101
 1737SOL    HW1 6110   3.135   0.454   4.138
 1737SOL    HW2 6111   3.161   0.297   4.175
 1738SOL     OW 6112   2.305   2.771   3.903
 1738SOL    HW1 6113   2.317   2.752   4.000
 1738SOL    HW2 6114   2.333   2.691   3.849
 1739SOL     OW 6115   4.659   2.497   4.932
 1739SOL    HW1 6116   4.658   2.597   4.932
 1739SOL    HW2 6117   4.578   2.463   4.979
 1740SOL     OW 6118   0.348   1.146   6.690
 1740SOL    HW1 6119   0.387   1.164   6.600
 1740SOL    HW2 6120   0.252   1.172   6.690
 1741SOL     OW 6121   2.184   1.481   2.580
 1741SOL    HW1 6122   2.207   1.433   2.495
 1741SOL    HW2 6123   2.259   1.542   2.604
 1742SOL     OW 6124   3.792   6.040   5.860
 1742SOL    HW1 6125   3.873   5.981   5.856
 1742SOL    HW2 6126   3.725   6.010   5.793
 1743SOL     OW 6127   1.988   1.201   2.358
 1743SOL    HW1 6128   2.060   1.258   2.319
 1743SOL    HW2 6129   1.916   1.260   2.394
 1744SOL     OW 6130   1.482   0.114   1.891
 1744SOL    HW1 6131   1.473   0.185   1.822
 1744SOL    HW2 6132   1.545   0.144   1.962
 1745SOL     OW 6133   6.572   1.346   4.584
 1745SOL    HW1 6134   6.616   1.378   4.500
 1745SOL    HW2 6135   6.542   1.425   4.637
 1746SOL     OW 6136   2.347   5.576   5.707
 1746SOL    HW1 6137   2.259   5.545   5.745
 1746SOL    HW2 6138   2.358   5.539   5.615
 1747SOL     OW 6139   5.292   6.931   2.390
 1747SOL    HW1 6140   5.374   6.927   2.333
 1747SOL    HW2 6141   5.312   6.980   2.475
 1748SOL     OW 6142   6.605   0.914   4.086
 1748SOL    HW1 6143   6.597   0.987   4.154
 1748SOL    HW2 6144   6.684   0.857   4.108
 1749SOL     OW 6145   3.662   6.377   5.496
 1749SOL    HW1 6146   3.684   6.283   5.521
 1749SOL    HW2 6147   3.746   6.428   5.481
 1750SOL     OW 6148   5.004   1.221   3.272
 1750SOL    HW1 6149   5.029   1.317   3.259
 1750SOL    HW2 6150   4.961   1.185   3.189
 1751SOL     OW 6151   2.999   4.837   4.323
 1751SOL    HW1 6152   2.947   4.876   4.399
 1751SOL    HW2 6153   2.936   4.815   4.248
 1752SOL     OW 6154   6.693   2.655   1.722
 1752SOL    HW1 6155   6.668   2.559   1.732
 1752SOL    HW2 6156   6.789   2.662   1.698
 1753SOL     OW 6157   0.493   1.131   0.407
 1753SOL    HW1 6158   0.586   1.122   0.442
 1753SOL    HW2 6159   0.429   1.138   0.484
 1754SOL     OW 6160   3.599   3.176   0.835
 1754SOL    HW1 6161   3.569   3.268   0.807
 1754SOL    HW2 6162   3.633   3.179   0.929
 1755SOL     OW 6163   5.681   5.284   1.727
 1755SOL    HW1 6164   5.665   5.371   1.680
 1755SOL    HW2 6165   5.763   5.242   1.690
 1756SOL     OW 6166   5.386   4.624   5.127
 1756SOL    HW1 6167   5.467   4.633   5.068
 1756SOL    HW2 6168   5.407   4.565   5.204
 1757SOL     OW 6169   2.298   6.632   4.863
 1757SOL    HW1 6170   2.373   6.639   4.798
 1757SOL    HW2 6171   2.218   6.593   4.818
 1758SOL     OW 6172   2.477   0.758   3.990
 1758SOL    HW1 6173   2.427   0.792   4.070
 1758SOL    HW2 6174   2.488   0.659   3.997
 1759SOL     OW 6175   0.165   5.170   6.259
 1759SOL    HW1 6176   0.151   5.080   6.299
 1759SOL    HW2 6177   0.107   5.237   6.306
 1760SOL     OW 6178   6.041   1.613   1.305
 1760SOL    HW1 6179   6.050   1.522   1.346
 1760SOL    HW2 6180   6.020   1.603   1.208
 1761SOL     OW 6181   6.918   0.071   0.406
 1761SOL    HW1 6182   6.836   0.017   0.387
 1761SOL    HW2 6183   6.898   0.140   0.476
 1762SOL     OW 6184   6.526   1.899   5.430
 1762SOL    HW1 6185   6.467   1.969   5.390
 1762SOL    HW2 6186   6.487   1.869   5.517
 1763SOL     OW 6187   1.526   4.102   4.096
 1763SOL    HW1 6188   1.591   4.059   4.159
 1763SOL    HW2 6189   1.447   4.041   4.083
 1764SOL     OW 6190   1.996   3.513   2.574
 1764SOL    HW1 6191   2.031   3.600   2.610
 1764SOL    HW2 6192   1.898   3.523   2.553
 1765SOL     OW 6193   3.204   1.847   6.771
 1765SOL    HW1 6194   3.189   1.812   6.679
 1765SOL    HW2 6195   3.296   1.825   6.801
 1766SOL     OW 6196   5.149   2.873   4.124
 1766SOL    HW1 6197   5.206   2.796   4.154
 1766SOL    HW2 6198   5.135   2.867   4.025
 1767SOL     OW 6199   4.864   4.015   2.649
 1767SOL    HW1 6200   4.840   3.970   2.563
 1767SOL    HW2 6201   4.959   3.992   2.672
 1768SOL     OW 6202   3.848   0.893   5.261
 1768SOL    HW1 6203   3.777   0.867   5.195
 1768SOL    HW2 6204   3.935   0.851   5.235
 1769SOL     OW 6205   4.151   2.291   4.321
 1769SOL    HW1 6206   4.156   2.290   4.221
 1769SOL    HW2 6207   4.223   2.350   4.357
 1770SOL     OW 6208   2.154   6.073   5.186
 1770SOL    HW1 6209   2.185   6.111   5.099
 1770SOL    HW2 6210   2.055   6.087   5.195
 1771SOL     OW 6211   2.666   5.554   6.558
 1771SOL    HW1 6212   2.732   5.621   6.592
 1771SOL    HW2 6213   2.573   5.588   6.574
 1772SOL     OW 6214   3.052   6.776   3.979
 1772SOL    HW1 6215   3.031   6.704   3.914
 1772SOL    HW2 6216   3.119   6.839   3.939
 1773SOL     OW 6217   2.238   4.969   5.749
 1773SOL    HW1 6218   2.293   4.904   5.802
 1773SOL    HW2 6219   2.291   4.999   5.669
 1774SOL     OW 6220   4.423   6.210   1.613
 1774SOL    HW1 6221   4.495   6.199   1.682
 1774SOL    HW2 6222   4.463   6.244   1.528
 1775SOL     OW 6223   1.687   4.148   3.532
 1775SOL    HW1 6224   1.588   4.139   3.527
 1775SOL    HW2 6225   1.726   4.134   3.441
 1776SOL     OW 6226   2.938   6.607   3.783
 1776SOL    HW1 6227   2.995   6.664   3.723
 1776SOL    HW2 6228   2.858   6.576   3.733
 1777SOL     OW 6229   3.922   5.029   5.763
 1777SOL    HW1 6230   3.925   5.129   5.759
 1777SOL    HW2 6231   3.857   4.995   5.696
 1778SOL     OW 6232   4.130   3.368   5.570
 1778SOL    HW1 6233   4.207   3.336   5.516
 1778SOL    HW2 6234   4.115   3.465   5.552
 1779SOL     OW 6235   4.409   1.012   4.552
 1779SOL    HW1 6236   4.493   1.064   4.561
 1779SOL    HW2 6237   4.382   1.006   4.456
 1780SOL     OW 6238   3.700   2.989   6.407
 1780SOL    HW1 6239   3.680   3.056   6.479
 1780SOL    HW2 6240   3.620   2.930   6.394
 1781SOL     OW 6241   4.326   5.755   3.530
 1781SOL    HW1 6242   4.333   5.783   3.626
 1781SOL    HW2 6243   4.417   5.752   3.489
 1782SOL     OW 6244   3.114   1.801   2.409
 1782SOL    HW1 6245   3.151   1.894   2.416
 1782SOL    HW2 6246   3.017   1.805   2.387
 1783SOL     OW 6247   1.739   5.212   5.818
 1783SOL    HW1 6248   1.713   5.186   5.911
 1783SOL    HW2 6249   1.822   5.162   5.792
 1784SOL     OW 6250   4.356   1.501   6.092
 1784SOL    HW1 6251   4.293   1.567   6.050
 1784SOL    HW2 6252   4.449   1.520   6.059
 1785SOL     OW 6253   6.066   3.929   3.469
 1785SOL    HW1 6254   6.118   3.925   3.384
 1785SOL    HW2 6255   5.978   3.974   3.453
 1786SOL     OW 6256   2.250   2.368   0.030
 1786SOL    HW1 6257   2.168   2.423   0.043
 1786SOL    HW2 6258   2.331   2.425   0.039
 1787SOL     OW 6259   3.278   0.831   5.098
 1787SOL    HW1 6260   3.286   0.731   5.090
 1787SOL    HW2 6261   3.255   0.869   5.009
 1788SOL     OW 6262   2.808   2.857   0.289
 1788SOL    HW1 6263   2.822   2.796   0.367
 1788SOL    HW2 6264   2.848   2.816   0.207
 1789SOL     OW 6265   5.993   1.877   3.199
 1789SOL    HW1 6266   5.995   1.831   3.110
 1789SOL    HW2 6267   6.006   1.810   3.272
 1790SOL     OW 6268   4.161   5.901   3.952
 1790SOL    HW1 6269   4.208   5.904   4.040
 1790SOL    HW2 6270   4.228   5.902   3.878
 1791SOL     OW 6271   5.736   0.727   3.117
 1791SOL    HW1 6272   5.650   0.738   3.166
 1791SOL    HW2 6273   5.793   0.808   3.132
 1792SOL     OW 6274   6.653   3.328   4.547
 1792SOL    HW1 6275   6.565   3.343   4.592
 1792SOL    HW2 6276   6.707   3.413   4.549
 1793SOL     OW 6277   6.088   6.743   3.545
 1793SOL    HW1 6278   6.058   6.648   3.555
 1793SOL    HW2 6279   6.169   6.758   3.601
 1794SOL     OW 6280   5.372   6.036   5.725
 1794SOL    HW1 6281   5.408   6.073   5.810
 1794SOL    HW2 6282   5.286   6.082   5.702
 1795SOL     OW 6283   0.848   1.873   0.412
 1795SOL    HW1 6284   0.755   1.837   0.417
 1795SOL    HW2 6285   0.914   1.802   0.437
 1796SOL     OW 6286   2.506   0.727   4.725
 1796SOL    HW1 6287   2.569   0.706   4.651
 1796SOL    HW2 6288   2.412   0.717   4.693
 1797SOL     OW 6289   1.768   6.666   0.448
 1797SOL    HW1 6290   1.679   6.633   0.478
 1797SOL    HW2 6291   1.756   6.729   0.371
 1798SOL     OW 6292   5.211   2.964   3.503
 1798SOL    HW1 6293   5.146   3.006   3.439
 1798SOL    HW2 6294   5.233   2.872   3.473
 1799SOL     OW 6295   0.033   2.522   5.938
 1799SOL    HW1 6296   0.063   2.428   5.919
 1799SOL    HW2 6297   6.956   2.529   5.923
 1800SOL     OW 6298   3.886   4.806   1.930
 1800SOL    HW1 6299   3.950   4.730   1.925
 1800SOL    HW2 6300   3.793   4.773   1.919
 1801SOL     OW 6301   0.133   0.435   1.796
 1801SOL    HW1 6302   0.165   0.500   1.864
 1801SOL    HW2 6303   0.145   0.342   1.830
 1802SOL     OW 6304   5.589   5.542   3.320
 1802SOL    HW1 6305   5.635   5.590   3.246
 1802SOL    HW2 6306   5.644   5.464   3.350
 1803SOL     OW 6307   0.838   5.848   0.002
 1803SOL    HW1 6308   0.804   5.758   6.997
 1803SOL    HW2 6309   0.842   5.907   6.943
 1804SOL     OW 6310   2.529   3.800   5.342
 1804SOL    HW1 6311   2.445   3.751   5.367
 1804SOL    HW2 6312   2.509   3.866   5.270
 1805SOL     OW 6313   5.886   3.977   6.060
 1805SOL    HW1 6314   5.830   4.029   6.124
 1805SOL    HW2 6315   5.860   4.000   5.966
 1806SOL     OW 6316   0.525   0.355   0.190
 1806SOL    HW1 6317   0.550   0.452   0.196
 1806SOL    HW2 6318   0.439   0.345   0.141
 1807SOL     OW 6319   5.460   2.564   4.937
 1807SOL    HW1 6320   5.400   2.625   4.886
 1807SOL    HW2 6321   5.491   2.490   4.877
 1808SOL     OW 6322   0.111   4.551   5.746
 1808SOL    HW1 6323   0.172   4.497   5.689
 1808SOL    HW2 6324   0.018   4.513   5.741
 1809SOL     OW 6325   2.148   2.184   4.864
 1809SOL    HW1 6326   2.103   2.108   4.817
 1809SOL    HW2 6327   2.084   2.261   4.871
 1810SOL     OW 6328   2.611   6.639   3.331
 1810SOL    HW1 6329   2.535   6.585   3.368
 1810SOL    HW2 6330   2.586   6.736   3.332
 1811SOL     OW 6331   5.931   5.540   3.927
 1811SOL    HW1 6332   6.007   5.519   3.867
 1811SOL    HW2 6333   5.854   5.479   3.906
 1812SOL     OW 6334   4.650   6.345   4.748
 1812SOL    HW1 6335   4.638   6.256   4.705
 1812SOL    HW2 6336   4.747   6.371   4.743
 1813SOL     OW 6337   6.613   4.543   1.142
 1813SOL    HW1 6338   6.702   4.554   1.186
 1813SOL    HW2 6339   6.609   4.454   1.097
 1814SOL     OW 6340   5.845   0.485   1.604
 1814SOL    HW1 6341   5.918   0.508   1.668
 1814SOL    HW2 6342   5.861   0.533   1.517
 1815SOL     OW 6343   0.267   2.033   2.479
 1815SOL    HW1 6344   0.235   1.958   2.421
 1815SOL    HW2 6345   0.363   2.020   2.500
 1816SOL     OW 6346   3.020   3.312   1.153
 1816SOL    HW1 6347   3.032   3.224   1.199
 1816SOL    HW2 6348   2.951   3.366   1.201
 1817SOL     OW 6349   2.747   6.920   2.552
 1817SOL    HW1 6350   2.831   6.959   2.589
 1817SOL    HW2 6351   2.683   6.993   2.531
 1818SOL     OW 6352   1.425   6.811   2.553
 1818SOL    HW1 6353   1.330   6.781   2.539
 1818SOL    HW2 6354   1.478   6.793   2.470
 1819SOL     OW 6355   1.594   4.279   1.455
 1819SOL    HW1 6356   1.552   4.357   1.408
 1819SOL    HW2 6357   1.525   4.231   1.508
 1820SOL     OW 6358   4.383   1.058   2.786
 1820SOL    HW1 6359   4.434   1.143   2.793
 1820SOL    HW2 6360   4.403   1.013   2.698
 1821SOL     OW 6361   0.489   1.092   1.830
 1821SOL    HW1 6362   0.439   1.006   1.837
 1821SOL    HW2 6363   0.588   1.074   1.831
 1822SOL     OW 6364   2.623   3.174   1.300
 1822SOL    HW1 6365   2.680   3.104   1.342
 1822SOL    HW2 6366   2.531   3.169   1.339
 1823SOL     OW 6367   3.177   5.914   2.994
 1823SOL    HW1 6368   3.125   5.999   3.007
 1823SOL    HW2 6369   3.255   5.913   3.056
 1824SOL     OW 6370   3.184   2.393   0.999
 1824SOL    HW1 6371   3.136   2.330   1.061
 1824SOL    HW2 6372   3.262   2.434   1.047
 1825SOL     OW 6373   0.997   1.131   2.649
 1825SOL    HW1 6374   1.057   1.199   2.607
 1825SOL    HW2 6375   0.997   1.047   2.593
 1826SOL     OW 6376   2.956   0.279   1.399
 1826SOL    HW1 6377   2.884   0.303   1.464
 1826SOL    HW2 6378   2.953   0.341   1.321
 1827SOL     OW 6379   0.133   5.477   2.318
 1827SOL    HW1 6380   0.180   5.390   2.336
 1827SOL    HW2 6381   0.162   5.544   2.386
 1828SOL     OW 6382   0.214   2.828   0.291
 1828SOL    HW1 6383   0.270   2.857   0.369
 1828SOL    HW2 6384   0.228   2.892   0.215
 1829SOL     OW 6385   4.189   0.080   2.867
 1829SOL    HW1 6386   4.126   0.050   2.939
 1829SOL    HW2 6387   4.205   0.178   2.875
 1830SOL     OW 6388   5.649   5.615   4.214
 1830SOL    HW1 6389   5.641   5.516   4.210
 1830SOL    HW2 6390   5.584   5.651   4.281
 1831SOL     OW 6391   5.983   0.313   3.056
 1831SOL    HW1 6392   5.932   0.297   2.972
 1831SOL    HW2 6393   5.971   0.235   3.118
 1832SOL     OW 6394   5.984   1.874   0.658
 1832SOL    HW1 6395   6.074   1.910   0.633
 1832SOL    HW2 6396   5.915   1.913   0.597
 1833SOL     OW 6397   5.523   0.913   5.316
 1833SOL    HW1 6398   5.455   0.879   5.251
 1833SOL    HW2 6399   5.615   0.898   5.281
 1834SOL     OW 6400   3.233   3.723   0.029
 1834SOL    HW1 6401   3.285   3.641   0.054
 1834SOL    HW2 6402   3.215   3.778   0.110
 1835SOL     OW 6403   1.823   4.265   2.140
 1835SOL    HW1 6404   1.790   4.321   2.065
 1835SOL    HW2 6405   1.893   4.202   2.107
 1836SOL     OW 6406   6.081   1.529   0.910
 1836SOL    HW1 6407   6.016   1.530   0.987
 1836SOL    HW2 6408   6.135   1.613   0.912
 1837SOL     OW 6409   0.560   2.762   3.587
 1837SOL    HW1 6410   0.563   2.712   3.501
 1837SOL    HW2 6411   0.519   2.852   3.572
 1838SOL     OW 6412   0.494   2.076   3.806
 1838SOL    HW1 6413   0.403   2.113   3.784
 1838SOL    HW2 6414   0.556   2.151   3.828
 1839SOL     OW 6415   4.429   2.363   4.747
 1839SOL    HW1 6416   4.399   2.364   4.842
 1839SOL    HW2 6417   4.381   2.290   4.698
 1840SOL     OW 6418   3.635   5.930   1.351
 1840SOL    HW1 6419   3.650   6.029   1.348
 1840SOL    HW2 6420   3.721   5.883   1.370
 1841SOL     OW 6421   2.426   2.751   4.569
 1841SOL    HW1 6422   2.385   2.775   4.657
 1841SOL    HW2 6423   2.499   2.815   4.547
 1842SOL     OW 6424   1.181   5.800   0.688
 1842SOL    HW1 6425   1.217   5.890   0.662
 1842SOL    HW2 6426   1.241   5.729   0.652
 1843SOL     OW 6427   0.846   2.036   4.503
 1843SOL    HW1 6428   0.859   2.135   4.507
 1843SOL    HW2 6429   0.869   1.996   4.591
 1844SOL     OW 6430   3.682   0.642   5.584
 1844SOL    HW1 6431   3.667   0.548   5.614
 1844SOL    HW2 6432   3.657   0.651   5.488
 1845SOL     OW 6433   2.305   0.063   5.726
 1845SOL    HW1 6434   2.403   0.079   5.726
 1845SOL    HW2 6435   2.281   0.005   5.647
 1846SOL     OW 6436   3.522   2.053   0.045
 1846SOL    HW1 6437   3.526   2.070   6.968
 1846SOL    HW2 6438   3.530   1.955   0.062
 1847SOL     OW 6439   1.689   1.161   6.808
 1847SOL    HW1 6440   1.631   1.136   6.885
 1847SOL    HW2 6441   1.651   1.124   6.724
 1848SOL     OW 6442   1.836   6.349   2.500
 1848SOL    HW1 6443   1.908   6.388   2.557
 1848SOL    HW2 6444   1.805   6.262   2.540
 1849SOL     OW 6445   4.032   1.612   0.646
 1849SOL    HW1 6446   4.006   1.526   0.690
 1849SOL    HW2 6447   4.118   1.645   0.684
 1850SOL     OW 6448   6.730   2.724   2.612
 1850SOL    HW1 6449   6.761   2.819   2.613
 1850SOL    HW2 6450   6.810   2.663   2.608
 1851SOL     OW 6451   0.271   1.348   0.785
 1851SOL    HW1 6452   0.308   1.296   0.862
 1851SOL    HW2 6453   0.291   1.445   0.798
 1852SOL     OW 6454   5.314   3.901   1.182
 1852SOL    HW1 6455   5.337   3.852   1.097
 1852SOL    HW2 6456   5.244   3.850   1.232
 1853SOL     OW 6457   0.874   2.834   2.464
 1853SOL    HW1 6458   0.877   2.805   2.368
 1853SOL    HW2 6459   0.783   2.815   2.501
 1854SOL     OW 6460   2.884   5.620   3.624
 1854SOL    HW1 6461   2.976   5.583   3.631
 1854SOL    HW2 6462   2.819   5.545   3.608
 1855SOL     OW 6463   4.463   4.120   7.009
 1855SOL    HW1 6464   4.487   4.033   0.030
 1855SOL    HW2 6465   4.426   4.103   6.917
 1856SOL     OW 6466   6.494   3.358   5.474
 1856SOL    HW1 6467   6.564   3.426   5.455
 1856SOL    HW2 6468   6.436   3.389   5.549
 1857SOL     OW 6469   3.431   1.076   5.616
 1857SOL    HW1 6470   3.457   0.982   5.638
 1857SOL    HW2 6471   3.349   1.076   5.559
 1858SOL     OW 6472   6.040   2.703   3.823
 1858SOL    HW1 6473   6.034   2.605   3.805
 1858SOL    HW2 6474   5.971   2.751   3.768
 1859SOL     OW 6475   3.999   1.549   3.436
 1859SOL    HW1 6476   4.052   1.467   3.457
 1859SOL    HW2 6477   3.911   1.522   3.395
 1860SOL     OW 6478   6.137   0.343   3.823
 1860SOL    HW1 6479   6.095   0.305   3.741
 1860SOL    HW2 6480   6.160   0.269   3.886
 1861SOL     OW 6481   4.741   6.591   2.479
 1861SOL    HW1 6482   4.799   6.512   2.496
 1861SOL    HW2 6483   4.765   6.665   2.543
 1862SOL     OW 6484   2.143   0.118   6.626
 1862SOL    HW1 6485   2.148   0.180   6.705
 1862SOL    HW2 6486   2.065   0.142   6.569
 1863SOL     OW 6487   2.123   2.134   0.168
 1863SOL    HW1 6488   2.164   2.220   0.138
 1863SOL    HW2 6489   2.025   2.135   0.149
 1864SOL     OW 6490   1.402   6.638   5.494
 1864SOL    HW1 6491   1.332   6.674   5.555
 1864SOL    HW2 6492   1.374   6.548   5.460
 1865SOL     OW 6493   3.530   0.103   5.890
 1865SOL    HW1 6494   3.585   0.176   5.851
 1865SOL    HW2 6495   3.509   0.035   5.819
 1866SOL     OW 6496   4.270   4.727   2.950
 1866SOL    HW1 6497   4.347   4.751   2.891
 1866SOL    HW2 6498   4.285   4.765   3.041
 1867SOL     OW 6499   1.282   4.518   0.643
 1867SOL    HW1 6500   1.372   4.509   0.601
 1867SOL    HW2 6501   1.290   4.516   0.742
 1868SOL     OW 6502   4.580   4.210   0.721
 1868SOL    HW1 6503   4.543   4.172   0.806
 1868SOL    HW2 6504   4.680   4.205   0.724
 1869SOL     OW 6505   6.758   2.222   5.009
 1869SOL    HW1 6506   6.746   2.317   5.038
 1869SOL    HW2 6507   6.794   2.220   4.916
 1870SOL     OW 6508   2.004   3.402   5.792
 1870SOL    HW1 6509   2.020   3.359   5.881
 1870SOL    HW2 6510   1.924   3.360   5.749
 1871SOL     OW 6511   1.085   0.060   6.626
 1871SOL    HW1 6512   1.131   0.138   6.669
 1871SOL    HW2 6513   1.011   0.029   6.686
 1872SOL     OW 6514   3.633   3.154   6.613
 1872SOL    HW1 6515   3.626   3.189   6.706
 1872SOL    HW2 6516   3.547   3.170   6.564
 1873SOL     OW 6517   4.758   1.269   5.126
 1873SOL    HW1 6518   4.757   1.294   5.029
 1873SOL    HW2 6519   4.710   1.338   5.179
 1874SOL     OW 6520   2.455   0.939   0.859
 1874SOL    HW1 6521   2.450   0.967   0.763
 1874SOL    HW2 6522   2.474   1.019   0.915
 1875SOL     OW 6523   0.409   1.165   6.962
 1875SOL    HW1 6524   0.499   1.134   6.992
 1875SOL    HW2 6525   0.401   1.152   6.863
 1876SOL     OW 6526   3.627   0.452   5.952
 1876SOL    HW1 6527   3.610   0.399   6.035
 1876SOL    HW2 6528   3.544   0.500   5.925
 1877SOL     OW 6529   0.574   0.388   2.495
 1877SOL    HW1 6530   0.476   0.373   2.505
 1877SOL    HW2 6531   0.601   0.470   2.546
 1878SOL     OW 6532   6.786   1.565   3.968
 1878SOL    HW1 6533   6.789   1.625   4.048
 1878SOL    HW2 6534   6.784   1.620   3.885
 1879SOL     OW 6535   0.990   4.152   4.065
 1879SOL    HW1 6536   1.007   4.053   4.063
 1879SOL    HW2 6537   0.950   4.177   4.153
 1880SOL     OW 6538   6.768   1.608   5.078
 1880SOL    HW1 6539   6.684   1.567   5.043
 1880SOL    HW2 6540   6.749   1.659   5.162
 1881SOL     OW 6541   5.571   2.462   3.111
 1881SOL    HW1 6542   5.612   2.487   3.024
 1881SOL    HW2 6543   5.541   2.367   3.108
 1882SOL     OW 6544   0.956   4.380   6.803
 1882SOL    HW1 6545   0.982   4.459   6.747
 1882SOL    HW2 6546   0.923   4.412   6.892
 1883SOL     OW 6547   6.371   2.445   2.849
 1883SOL    HW1 6548   6.331   2.521   2.901
 1883SOL    HW2 6549   6.420   2.384   2.911
 1884SOL     OW 6550   0.114   2.031   0.106
 1884SOL    HW1 6551   0.144   1.961   0.172
 1884SOL    HW2 6552   0.191   2.054   0.047
 1885SOL     OW 6553   1.649   1.810   6.642
 1885SOL    HW1 6554   1.678   1.906   6.637
 1885SOL    HW2 6555   1.712   1.754   6.587
 1886SOL     OW 6556   1.321   0.487   2.006
 1886SOL    HW1 6557   1.409   0.453   2.042
 1886SOL    HW2 6558   1.311   0.460   1.910
 1887SOL     OW 6559   0.660   5.154   5.622
 1887SOL    HW1 6560   0.687   5.130   5.529
 1887SOL    HW2 6561   0.572   5.200   5.621
 1888SOL     OW 6562   3.296   2.531   6.650
 1888SOL    HW1 6563   3.283   2.432   6.651
 1888SOL    HW2 6564   3.212   2.576   6.620
 1889SOL     OW 6565   0.169   3.909   5.128
 1889SOL    HW1 6566   0.222   3.876   5.206
 1889SOL    HW2 6567   0.211   3.993   5.093
 1890SOL     OW 6568   1.738   5.747   4.030
 1890SOL    HW1 6569   1.684   5.735   3.947
 1890SOL    HW2 6570   1.832   5.770   4.006
 1891SOL     OW 6571   4.691   2.539   1.540
 1891SOL    HW1 6572   4.643   2.586   1.466
 1891SOL    HW2 6573   4.625   2.503   1.606
 1892SOL     OW 6574   0.695   6.650   2.341
 1892SOL    HW1 6575   0.720   6.554   2.330
 1892SOL    HW2 6576   0.613   6.670   2.288
 1893SOL     OW 6577   3.503   2.831   1.965
 1893SOL    HW1 6578   3.491   2.927   1.937
 1893SOL    HW2 6579   3.416   2.796   1.999
 1894SOL     OW 6580   3.828   3.362   3.588
 1894SOL    HW1 6581   3.923   3.341   3.607
 1894SOL    HW2 6582   3.779   3.377   3.674
 1895SOL     OW 6583   4.104   0.083   0.547
 1895SOL    HW1 6584   4.188   0.056   0.499
 1895SOL    HW2 6585   4.027   0.029   0.512
 1896SOL     OW 6586   5.960   1.930   1.372
 1896SOL    HW1 6587   5.943   1.897   1.465
 1896SOL    HW2 6588   6.005   1.859   1.319
 1897SOL     OW 6589   2.334   5.299   1.660
 1897SOL    HW1 6590   2.414   5.240   1.672
 1897SOL    HW2 6591   2.294   5.283   1.570
 1898SOL     OW 6592   2.065   4.758   3.548
 1898SOL    HW1 6593   2.117   4.706   3.480
 1898SOL    HW2 6594   1.969   4.732   3.544
 1899SOL     OW 6595   0.231   1.753   0.678
 1899SOL    HW1 6596   0.136   1.734   0.654
 1899SOL    HW2 6597   0.235   1.835   0.735
 1900SOL     OW 6598   2.195   0.555   0.108
 1900SOL    HW1 6599   2.185   0.626   0.038
 1900SOL    HW2 6600   2.127   0.483   0.092
 1901SOL     OW 6601   2.239   1.983   0.825
 1901SOL    HW1 6602   2.291   1.993   0.910
 1901SOL    HW2 6603   2.300   1.946   0.754
 1902SOL     OW 6604   2.280   1.029   4.289
 1902SOL    HW1 6605   2.358   1.062   4.342
 1902SOL    HW2 6606   2.275   0.929   4.297
 1903SOL     OW 6607   0.763   3.199   3.025
 1903SOL    HW1 6608   0.828   3.273   3.042
 1903SOL    HW2 6609   0.674   3.238   3.001
 1904SOL     OW 6610   5.488   5.246   3.190
 1904SOL    HW1 6611   5.519   5.295   3.272
 1904SOL    HW2 6612   5.389   5.241   3.190
 1905SOL     OW 6613   0.772   0.224   3.587
 1905SOL    HW1 6614   0.811   0.316   3.588
 1905SOL    HW2 6615   0.811   0.171   3.662
 1906SOL     OW 6616   3.262   0.799   5.605
 1906SOL    HW1 6617   3.289   0.774   5.512
 1906SOL    HW2 6618   3.344   0.818   5.659
 1907SOL     OW 6619   4.167   2.499   1.328
 1907SOL    HW1 6620   4.087   2.555   1.349
 1907SOL    HW2 6621   4.215   2.476   1.412
 1908SOL     OW 6622   3.671   5.963   6.350
 1908SOL    HW1 6623   3.640   5.910   6.271
 1908SOL    HW2 6624   3.769   5.979   6.343
 1909SOL     OW 6625   0.807   3.227   3.688
 1909SOL    HW1 6626   0.718   3.239   3.644
 1909SOL    HW2 6627   0.854   3.148   3.647
 1910SOL     OW 6628   0.089   5.957   5.691
 1910SOL    HW1 6629   0.097   5.907   5.605
 1910SOL    HW2 6630   0.001   5.934   5.735
 1911SOL     OW 6631   0.025   3.568   4.418
 1911SOL    HW1 6632   0.077   3.614   4.346
 1911SOL    HW2 6633   0.078   3.491   4.453
 1912SOL     OW 6634   2.930   5.806   1.850
 1912SOL    HW1 6635   2.966   5.715   1.872
 1912SOL    HW2 6636   2.986   5.849   1.780
 1913SOL     OW 6637   2.931   0.803   4.984
 1913SOL    HW1 6638   2.878   0.824   5.067
 1913SOL    HW2 6639   2.959   0.707   4.987
 1914SOL     OW 6640   3.595   3.466   0.213
 1914SOL    HW1 6641   3.686   3.427   0.200
 1914SOL    HW2 6642   3.546   3.414   0.283
 1915SOL     OW 6643   4.761   3.070   6.182
 1915SOL    HW1 6644   4.783   3.108   6.272
 1915SOL    HW2 6645   4.678   3.015   6.189
 1916SOL     OW 6646   4.656   6.274   1.019
 1916SOL    HW1 6647   4.671   6.309   1.112
 1916SOL    HW2 6648   4.640   6.351   0.957
 1917SOL     OW 6649   2.260   3.333   0.062
 1917SOL    HW1 6650   2.235   3.259   0.125
 1917SOL    HW2 6651   2.305   3.294   7.003
 1918SOL     OW 6652   0.575   0.969   4.801
 1918SOL    HW1 6653   0.634   1.000   4.727
 1918SOL    HW2 6654   0.483   0.950   4.765
 1919SOL     OW 6655   1.846   1.333   1.559
 1919SOL    HW1 6656   1.812   1.376   1.475
 1919SOL    HW2 6657   1.867   1.403   1.627
 1920SOL     OW 6658   6.214   3.626   3.032
 1920SOL    HW1 6659   6.284   3.694   3.010
 1920SOL    HW2 6660   6.258   3.538   3.051
 1921SOL     OW 6661   1.808   2.806   0.040
 1921SOL    HW1 6662   1.730   2.769   0.090
 1921SOL    HW2 6663   1.865   2.731   0.006
 1922SOL     OW 6664   3.039   3.380   1.732
 1922SOL    HW1 6665   2.969   3.348   1.796
 1922SOL    HW2 6666   3.056   3.310   1.663
 1923SOL     OW 6667   4.163   1.559   6.698
 1923SOL    HW1 6668   4.228   1.555   6.775
 1923SOL    HW2 6669   4.193   1.630   6.634
 1924SOL     OW 6670   4.788   0.085   0.587
 1924SOL    HW1 6671   4.699   0.128   0.572
 1924SOL    HW2 6672   4.779   0.016   0.659
 1925SOL     OW 6673   1.321   4.797   1.830
 1925SOL    HW1 6674   1.243   4.750   1.790
 1925SOL    HW2 6675   1.318   4.894   1.804
 1926SOL     OW 6676   3.033   0.150   1.768
 1926SOL    HW1 6677   3.006   0.225   1.829
 1926SOL    HW2 6678   3.122   0.171   1.727
 1927SOL     OW 6679   2.553   3.846   0.588
 1927SOL    HW1 6680   2.594   3.773   0.533
 1927SOL    HW2 6681   2.454   3.842   0.580
 1928SOL     OW 6682   5.392   4.819   4.236
 1928SOL    HW1 6683   5.315   4.779   4.186
 1928SOL    HW2 6684   5.436   4.747   4.291
 1929SOL     OW 6685   2.281   0.586   1.906
 1929SOL    HW1 6686   2.254   0.595   2.002
 1929SOL    HW2 6687   2.380   0.587   1.899
 1930SOL     OW 6688   5.503   3.060   6.870
 1930SOL    HW1 6689   5.512   3.016   6.959
 1930SOL    HW2 6690   5.576   3.127   6.858
 1931SOL     OW 6691   1.061   2.120   6.795
 1931SOL    HW1 6692   1.015   2.205   6.820
 1931SOL    HW2 6693   1.125   2.094   6.867
 1932SOL     OW 6694   4.922   2.732   3.363
 1932SOL    HW1 6695   5.004   2.743   3.419
 1932SOL    HW2 6696   4.854   2.800   3.392
 1933SOL     OW 6697   0.821   2.151   0.447
 1933SOL    HW1 6698   0.831   2.052   0.447
 1933SOL    HW2 6699   0.901   2.193   0.405
 1934SOL     OW 6700   0.367   1.111   5.320
 1934SOL    HW1 6701   0.391   1.165   5.400
 1934SOL    HW2 6702   0.440   1.046   5.299
 1935SOL     OW 6703   4.360   4.821   3.777
 1935SOL    HW1 6704   4.458   4.801   3.776
 1935SOL    HW2 6705   4.346   4.918   3.759
 1936SOL     OW 6706   4.891   3.768   4.141
 1936SOL    HW1 6707   4.831   3.848   4.148
 1936SOL    HW2 6708   4.863   3.711   4.064
 1937SOL     OW 6709   4.377   6.314   0.021
 1937SOL    HW1 6710   4.326   6.344   0.101
 1937SOL    HW2 6711   4.350   6.221   7.019
 1938SOL     OW 6712   0.834   2.104   0.755
 1938SOL    HW1 6713   0.852   2.180   0.693
 1938SOL    HW2 6714   0.920   2.069   0.791
 1939SOL     OW 6715   0.554   6.041   4.286
 1939SOL    HW1 6716   0.478   6.098   4.255
 1939SOL    HW2 6717   0.553   5.954   4.235
 1940SOL     OW 6718   5.779   4.486   1.473
 1940SOL    HW1 6719   5.790   4.453   1.567
 1940SOL    HW2 6720   5.685   4.472   1.443
 1941SOL     OW 6721   0.976   3.000   3.685
 1941SOL    HW1 6722   0.965   2.906   3.653
 1941SOL    HW2 6723   1.058   3.006   3.743
 1942SOL     OW 6724   5.388   4.197   2.725
 1942SOL    HW1 6725   5.371   4.174   2.821
 1942SOL    HW2 6726   5.486   4.204   2.710
 1943SOL     OW 6727   1.229   1.868   2.614
 1943SOL    HW1 6728   1.277   1.955   2.611
 1943SOL    HW2 6729   1.276   1.806   2.677
 1944SOL     OW 6730   6.431   4.388   6.838
 1944SOL    HW1 6731   6.410   4.322   6.765
 1944SOL    HW2 6732   6.451   4.339   6.923
 1945SOL     OW 6733   3.682   6.791   1.308
 1945SOL    HW1 6734   3.646   6.736   1.383
 1945SOL    HW2 6735   3.626   6.873   1.297
 1946SOL     OW 6736   5.846   6.261   1.651
 1946SOL    HW1 6737   5.906   6.211   1.589
 1946SOL    HW2 6738   5.804   6.338   1.602
 1947SOL     OW 6739   6.385   5.665   4.208
 1947SOL    HW1 6740   6.408   5.762   4.208
 1947SOL    HW2 6741   6.406   5.625   4.298
 1948SOL     OW 6742   5.687   4.602   2.584
 1948SOL    HW1 6743   5.718   4.678   2.640
 1948SOL    HW2 6744   5.594   4.619   2.552
 1949SOL     OW 6745   3.960   3.975   0.373
 1949SOL    HW1 6746   4.058   3.972   0.393
 1949SOL    HW2 6747   3.928   3.884   0.346
 1950SOL     OW 6748   4.089   3.278   3.616
 1950SOL    HW1 6749   4.047   3.206   3.562
 1950SOL    HW2 6750   4.148   3.334   3.558
 1951SOL     OW 6751   6.697   4.080   5.568
 1951SOL    HW1 6752   6.779   4.083   5.626
 1951SOL    HW2 6753   6.625   4.135   5.610
 1952SOL     OW 6754   5.172   4.438   1.465
 1952SOL    HW1 6755   5.204   4.518   1.414
 1952SOL    HW2 6756   5.161   4.361   1.403
 1953SOL     OW 6757   0.205   1.355   6.250
 1953SOL    HW1 6758   0.303   1.365   6.232
 1953SOL    HW2 6759   0.172   1.272   6.203
 1954SOL     OW 6760   5.504   0.598   1.627
 1954SOL    HW1 6761   5.443   0.532   1.584
 1954SOL    HW2 6762   5.472   0.617   1.720
 1955SOL     OW 6763   0.101   1.443   1.222
 1955SOL    HW1 6764   0.177   1.438   1.287
 1955SOL    HW2 6765   0.103   1.363   1.161
 1956SOL     OW 6766   4.622   6.899   2.724
 1956SOL    HW1 6767   4.717   6.880   2.699
 1956SOL    HW2 6768   4.561   6.858   2.656
 1957SOL     OW 6769   5.262   3.528   4.257
 1957SOL    HW1 6770   5.169   3.560   4.276
 1957SOL    HW2 6771   5.289   3.459   4.325
 1958SOL     OW 6772   4.804   1.734   1.514
 1958SOL    HW1 6773   4.790   1.721   1.416
 1958SOL    HW2 6774   4.865   1.812   1.528
 1959SOL     OW 6775   6.495   6.295   3.943
 1959SOL    HW1 6776   6.436   6.214   3.941
 1959SOL    HW2 6777   6.447   6.370   3.989
 1960SOL     OW 6778   6.778   2.772   3.134
 1960SOL    HW1 6779   6.751   2.868   3.126
 1960SOL    HW2 6780   6.874   2.761   3.108
 1961SOL     OW 6781   6.369   4.487   4.270
 1961SOL    HW1 6782   6.384   4.538   4.354
 1961SOL    HW2 6783   6.271   4.472   4.256
 1962SOL     OW 6784   1.105   5.902   2.562
 1962SOL    HW1 6785   1.039   5.852   2.506
 1962SOL    HW2 6786   1.149   5.972   2.506
 1963SOL     OW 6787   0.858   1.641   1.332
 1963SOL    HW1 6788   0.949   1.606   1.311
 1963SOL    HW2 6789   0.816   1.584   1.402
 1964SOL     OW 6790   5.164   4.611   1.840
 1964SOL    HW1 6791   5.242   4.648   1.789
 1964SOL    HW2 6792   5.081   4.622   1.786
 1965SOL     OW 6793   1.268   3.454   4.021
 1965SOL    HW1 6794   1.259   3.429   4.118
 1965SOL    HW2 6795   1.334   3.394   3.977
 1966SOL     OW 6796   1.646   4.810   1.075
 1966SOL    HW1 6797   1.658   4.904   1.105
 1966SOL    HW2 6798   1.695   4.748   1.137
 1967SOL     OW 6799   6.996   2.055   3.866
 1967SOL    HW1 6800   0.006   2.034   3.773
 1967SOL    HW2 6801   7.003   2.153   3.883
 1968SOL     OW 6802   2.512   1.122   5.529
 1968SOL    HW1 6803   2.518   1.137   5.430
 1968SOL    HW2 6804   2.435   1.174   5.566
 1969SOL     OW 6805   3.122   0.805   2.236
 1969SOL    HW1 6806   3.030   0.844   2.246
 1969SOL    HW2 6807   3.149   0.808   2.140
 1970SOL     OW 6808   6.663   6.677   5.231
 1970SOL    HW1 6809   6.743   6.628   5.196
 1970SOL    HW2 6810   6.582   6.653   5.177
 1971SOL     OW 6811   0.516   0.048   5.384
 1971SOL    HW1 6812   0.502   0.114   5.310
 1971SOL    HW2 6813   0.603   0.068   5.429
 1972SOL     OW 6814   5.603   2.246   1.455
 1972SOL    HW1 6815   5.659   2.165   1.475
 1972SOL    HW2 6816   5.515   2.237   1.502
 1973SOL     OW 6817   2.409   3.886   1.610
 1973SOL    HW1 6818   2.356   3.907   1.528
 1973SOL    HW2 6819   2.433   3.970   1.658
 1974SOL     OW 6820   4.613   6.833   4.595
 1974SOL    HW1 6821   4.531   6.785   4.563
 1974SOL    HW2 6822   4.617   6.924   4.553
 1975SOL     OW 6823   2.039   2.881   3.923
 1975SOL    HW1 6824   2.062   2.974   3.950
 1975SOL    HW2 6825   2.117   2.839   3.876
 1976SOL     OW 6826   5.822   6.998   6.689
 1976SOL    HW1 6827   5.830   0.064   6.736
 1976SOL    HW2 6828   5.759   6.939   6.738
 1977SOL     OW 6829   2.527   3.311   6.321
 1977SOL    HW1 6830   2.515   3.392   6.263
 1977SOL    HW2 6831   2.588   3.333   6.397
 1978SOL     OW 6832   1.912   5.890   3.221
 1978SOL    HW1 6833   1.833   5.951   3.215
 1978SOL    HW2 6834   1.884   5.804   3.264
 1979SOL     OW 6835   6.213   4.858   7.012
 1979SOL    HW1 6836   6.116   4.834   7.012
 1979SOL    HW2 6837   6.263   4.794   6.954
 1980SOL     OW 6838   3.390   0.568   2.673
 1980SOL    HW1 6839   3.479   0.548   2.713
 1980SOL    HW2 6840   3.318   0.526   2.728
 1981SOL     OW 6841   5.319   2.691   2.662
 1981SOL    HW1 6842   5.296   2.651   2.751
 1981SOL    HW2 6843   5.237   2.729   2.620
 1982SOL     OW 6844   7.006   4.073   4.017
 1982SOL    HW1 6845   7.016   4.050   3.920
 1982SOL    HW2 6846   6.932   4.139   4.027
 1983SOL     OW 6847   0.562   0.115   0.769
 1983SOL    HW1 6848   0.650   0.105   0.815
 1983SOL    HW2 6849   0.494   0.057   0.813
 1984SOL     OW 6850   5.209   2.387   4.960
 1984SOL    HW1 6851   5.113   2.389   4.987
 1984SOL    HW2 6852   5.255   2.471   4.991
 1985SOL     OW 6853   6.488   5.243   1.798
 1985SOL    HW1 6854   6.564   5.281   1.852
 1985SOL    HW2 6855   6.418   5.209   1.860
 1986SOL     OW 6856   2.707   0.963   6.617
 1986SOL    HW1 6857   2.676   0.905   6.542
 1986SOL    HW2 6858   2.632   0.979   6.681
 1987SOL     OW 6859   1.898   1.255   3.754
 1987SOL    HW1 6860   1.925   1.339   3.707
 1987SOL    HW2 6861   1.956   1.180   3.725
 1988SOL     OW 6862   6.811   1.427   1.222
 1988SOL    HW1 6863   6.907   1.410   1.201
 1988SOL    HW2 6864   6.763   1.458   1.140
 1989SOL     OW 6865   3.023   5.899   4.790
 1989SOL    HW1 6866   3.021   5.980   4.847
 1989SOL    HW2 6867   2.941   5.897   4.732
 1990SOL     OW 6868   3.829   7.012   0.487
 1990SOL    HW1 6869   3.823   6.978   0.581
 1990SOL    HW2 6870   3.768   6.960   0.428
 1991SOL     OW 6871   2.535   4.871   0.018
 1991SOL    HW1 6872   2.581   4.815   6.970
 1991SOL    HW2 6873   2.532   4.966   7.009
 1992SOL     OW 6874   0.101   6.721   0.956
 1992SOL    HW1 6875   0.192   6.718   0.997
 1992SOL    HW2 6876   0.085   6.811   0.916
 1993SOL     OW 6877   2.797   2.014   4.325
 1993SOL    HW1 6878   2.879   2.052   4.368
 1993SOL    HW2 6879   2.721   2.016   4.390
 1994SOL     OW 6880   4.853   2.019   0.769
 1994SOL    HW1 6881   4.845   2.085   0.844
 1994SOL    HW2 6882   4.921   1.949   0.792
 1995SOL     OW 6883   5.711   3.051   4.560
 1995SOL    HW1 6884   5.724   2.952   4.564
 1995SOL    HW2 6885   5.730   3.084   4.467
 1996SOL     OW 6886   2.801   1.652   1.524
 1996SOL    HW1 6887   2.767   1.649   1.618
 1996SOL    HW2 6888   2.742   1.710   1.469
 1997SOL     OW 6889   3.243   1.577   4.139
 1997SOL    HW1 6890   3.303   1.641   4.091
 1997SOL    HW2 6891   3.171   1.629   4.186
 1998SOL     OW 6892   1.330   3.493   1.178
 1998SOL    HW1 6893   1.408   3.555   1.187
 1998SOL    HW2 6894   1.261   3.515   1.247
 1999SOL     OW 6895   0.063   1.116   4.804
 1999SOL    HW1 6896   0.104   1.206   4.823
 1999SOL    HW2 6897   6.996   1.129   4.760
 2000SOL     OW 6898   4.141   3.730   5.904
 2000SOL    HW1 6899   4.064   3.669   5.923
 2000SOL    HW2 6900   4.183   3.759   5.990
 2001SOL     OW 6901   1.409   1.605   6.952
 2001SOL    HW1 6902   1.423   1.507   6.956
 2001SOL    HW2 6903   1.397   1.641   0.023
 2002SOL     OW 6904   0.733   5.626   0.978
 2002SOL    HW1 6905   0.774   5.536   0.965
 2002SOL    HW2 6906   0.634   5.617   0.986
 2003SOL     OW 6907   6.094   5.333   2.280
 2003SOL    HW1 6908   6.132   5.425   2.293
 2003SOL    HW2 6909   6.088   5.313   2.182
 2004SOL     OW 6910   4.405   0.961   3.768
 2004SOL    HW1 6911   4.378   0.867   3.787
 2004SOL    HW2 6912   4.367   1.022   3.837
 2005SOL     OW 6913   6.886   5.917   0.187
 2005SOL    HW1 6914   6.824   5.994   0.171
 2005SOL    HW2 6915   6.835   5.832   0.190
 2006SOL     OW 6916   5.181   0.099   4.235
 2006SOL    HW1 6917   5.107   0.088   4.302
 2006SOL    HW2 6918   5.153   0.058   4.148
 2007SOL     OW 6919   5.218   4.102   1.451
 2007SOL    HW1 6920   5.268   4.170   1.398
 2007SOL    HW2 6921   5.231   4.119   1.549
 2008SOL     OW 6922   2.120   3.377   4.102
 2008SOL    HW1 6923   2.128   3.468   4.062
 2008SOL    HW2 6924   2.120   3.384   4.202
 2009SOL     OW 6925   5.475   6.042   1.861
 2009SOL    HW1 6926   5.545   6.065   1.794
 2009SOL    HW2 6927   5.488   6.098   1.943
 2010SOL     OW 6928   1.647   1.832   1.340
 2010SOL    HW1 6929   1.608   1.924   1.339
 2010SOL    HW2 6930   1.652   1.799   1.434
 2011SOL     OW 6931   6.923   7.000   5.647
 2011SOL    HW1 6932   6.876   6.952   5.573
 2011SOL    HW2 6933   7.020   7.009   5.624
 2012SOL     OW 6934   1.649   4.032   2.275
 2012SOL    HW1 6935   1.721   3.974   2.236
 2012SOL    HW2 6936   1.683   4.077   2.358
 2013SOL     OW 6937   7.000   3.069   3.314
 2013SOL    HW1 6938   6.907   3.094   3.284
 2013SOL    HW2 6939   0.017   3.144   3.367
 2014SOL     OW 6940   3.068   0.495   3.184
 2014SOL    HW1 6941   3.003   0.463   3.252
 2014SOL    HW2 6942   3.116   0.417   3.144
 2015SOL     OW 6943   3.740   0.500   0.959
 2015SOL    HW1 6944   3.775   0.552   1.037
 2015SOL    HW2 6945   3.686   0.560   0.900
 2016SOL     OW 6946   1.418   6.030   5.599
 2016SOL    HW1 6947   1.438   6.053   5.695
 2016SOL    HW2 6948   1.425   5.931   5.588
 2017SOL     OW 6949   4.169   0.351   3.596
 2017SOL    HW1 6950   4.249   0.403   3.564
 2017SOL    HW2 6951   4.162   0.358   3.695
 2018SOL     OW 6952   6.882   2.157   3.436
 2018SOL    HW1 6953   6.850   2.079   3.489
 2018SOL    HW2 6954   6.805   2.199   3.388
 2019SOL     OW 6955   6.400   4.627   6.911
 2019SOL    HW1 6956   6.416   4.528   6.905
 2019SOL    HW2 6957   6.359   4.659   6.826
 2020SOL     OW 6958   0.994   5.776   6.239
 2020SOL    HW1 6959   1.053   5.825   6.303
 2020SOL    HW2 6960   0.961   5.692   6.282
 2021SOL     OW 6961   6.252   6.536   3.285
 2021SOL    HW1 6962   6.189   6.467   3.320
 2021SOL    HW2 6963   6.200   6.609   3.240
 2022SOL     OW 6964   1.574   4.282   5.168
 2022SOL    HW1 6965   1.518   4.199   5.160
 2022SOL    HW2 6966   1.648   4.266   5.233
 2023SOL     OW 6967   0.255   6.533   6.732
 2023SOL    HW1 6968   0.246   6.632   6.742
 2023SOL    HW2 6969   0.169   6.489   6.758
 2024SOL     OW 6970   0.555   5.811   4.167
 2024SOL    HW1 6971   0.583   5.751   4.092
 2024SOL    HW2 6972   0.545   5.758   4.251
 2025SOL     OW 6973   3.071   0.614   3.584
 2025SOL    HW1 6974   3.093   0.688   3.647
 2025SOL    HW2 6975   2.974   0.618   3.559
 2026SOL     OW 6976   5.906   1.118   6.235
 2026SOL    HW1 6977   5.913   1.214   6.205
 2026SOL    HW2 6978   5.903   1.058   6.155
 2027SOL     OW 6979   0.610   5.992   1.747
 2027SOL    HW1 6980   0.681   5.998   1.817
 2027SOL    HW2 6981   0.626   5.911   1.691
 2028SOL     OW 6982   3.789   5.947   2.932
 2028SOL    HW1 6983   3.718   5.982   2.871
 2028SOL    HW2 6984   3.845   5.879   2.883
 2029SOL     OW 6985   6.622   1.369   6.864
 2029SOL    HW1 6986   6.687   1.385   6.938
 2029SOL    HW2 6987   6.541   1.426   6.877
 2030SOL     OW 6988   2.946   6.320   2.617
 2030SOL    HW1 6989   2.951   6.403   2.562
 2030SOL    HW2 6990   2.872   6.261   2.583
 2031SOL     OW 6991   7.010   5.775   2.300
 2031SOL    HW1 6992   7.016   5.720   2.216
 2031SOL    HW2 6993   0.069   5.757   2.357
 2032SOL     OW 6994   3.538   1.775   0.094
 2032SOL    HW1 6995   3.486   1.737   0.171
 2032SOL    HW2 6996   3.628   1.731   0.091
 2033SOL     OW 6997   1.621   1.108   0.282
 2033SOL    HW1 6998   1.624   1.017   0.323
 2033SOL    HW2 6999   1.559   1.107   0.204
 2034SOL     OW 7000   1.400   5.022   5.385
 2034SOL    HW1 7001   1.348   4.942   5.415
 2034SOL    HW2 7002   1.470   5.044   5.453
 2035SOL     OW 7003   6.965   0.317   2.112
 2035SOL    HW1 7004   6.974   0.238   2.051
 2035SOL    HW2 7005   6.922   0.392   2.062
 2036SOL     OW 7006   0.943   3.392   3.108
 2036SOL    HW1 7007   0.925   3.479   3.061
 2036SOL    HW2 7008   0.977   3.411   3.201
 2037SOL     OW 7009   0.237   3.010   6.284
 2037SOL    HW1 7010   0.272   2.983   6.194
 2037SOL    HW2 7011   0.143   2.977   6.295
 2038SOL     OW 7012   2.852   1.274   0.095
 2038SOL    HW1 7013   2.820   1.244   0.185
 2038SOL    HW2 7014   2.823   1.368   0.080
 2039SOL     OW 7015   0.191   5.791   2.023
 2039SOL    HW1 7016   0.151   5.839   1.945
 2039SOL    HW2 7017   0.129   5.718   2.052
 2040SOL     OW 7018   1.959   2.622   6.931
 2040SOL    HW1 7019   1.918   2.545   6.979
 2040SOL    HW2 7020   2.005   2.590   6.849
 2041SOL     OW 7021   2.059   6.520   5.606
 2041SOL    HW1 7022   2.111   6.523   5.691
 2041SOL    HW2 7023   2.080   6.602   5.551
 2042SOL     OW 7024   5.094   0.276   5.958
 2042SOL    HW1 7025   5.007   0.324   5.959
 2042SOL    HW2 7026   5.153   0.311   6.031
 2043SOL     OW 7027   6.597   2.633   1.360
 2043SOL    HW1 7028   6.676   2.691   1.381
 2043SOL    HW2 7029   6.628   2.548   1.317
 2044SOL     OW 7030   5.753   1.007   1.608
 2044SOL    HW1 7031   5.725   0.917   1.574
 2044SOL    HW2 7032   5.683   1.075   1.584
 2045SOL     OW 7033   1.450   5.402   5.376
 2045SOL    HW1 7034   1.370   5.462   5.373
 2045SOL    HW2 7035   1.516   5.431   5.306
 2046SOL     OW 7036   0.198   1.878   5.672
 2046SOL    HW1 7037   0.284   1.925   5.652
 2046SOL    HW2 7038   0.204   1.832   5.760
 2047SOL     OW 7039   6.464   2.437   0.759
 2047SOL    HW1 7040   6.558   2.409   0.737
 2047SOL    HW2 7041   6.427   2.376   0.828
 2048SOL     OW 7042   0.611   1.869   4.660
 2048SOL    HW1 7043   0.554   1.823   4.592
 2048SOL    HW2 7044   0.665   1.801   4.711
 2049SOL     OW 7045   4.565   1.286   4.555
 2049SOL    HW1 7046   4.638   1.353   4.567
 2049SOL    HW2 7047   4.476   1.331   4.563
 2050SOL     OW 7048   0.315   2.051   4.278
 2050SOL    HW1 7049   0.389   2.080   4.217
 2050SOL    HW2 7050   0.284   2.129   4.332
 2051SOL     OW 7051   2.345   6.480   0.308
 2051SOL    HW1 7052   2.397   6.451   0.388
 2051SOL    HW2 7053   2.247   6.478   0.330
 2052SOL     OW 7054   1.897   3.130   0.627
 2052SOL    HW1 7055   1.891   3.033   0.603
 2052SOL    HW2 7056   1.856   3.145   0.717
 2053SOL     OW 7057   0.878   5.444   4.580
 2053SOL    HW1 7058   0.910   5.356   4.614
 2053SOL    HW2 7059   0.805   5.479   4.640
 2054SOL     OW 7060   3.522   2.867   2.278
 2054SOL    HW1 7061   3.591   2.880   2.350
 2054SOL    HW2 7062   3.564   2.817   2.202
 2055SOL     OW 7063   0.083   2.675   5.065
 2055SOL    HW1 7064   0.114   2.747   5.128
 2055SOL    HW2 7065   0.162   2.634   5.020
 2056SOL     OW 7066   4.085   4.685   0.773
 2056SOL    HW1 7067   4.136   4.761   0.814
 2056SOL    HW2 7068   4.118   4.599   0.812
 2057SOL     OW 7069   5.642   2.743   4.411
 2057SOL    HW1 7070   5.620   2.725   4.507
 2057SOL    HW2 7071   5.736   2.775   4.404
 2058SOL     OW 7072   0.683   6.027   2.918
 2058SOL    HW1 7073   0.725   6.027   3.009
 2058SOL    HW2 7074   0.754   6.018   2.848
 2059SOL     OW 7075   2.460   0.330   5.531
 2059SOL    HW1 7076   2.419   0.248   5.491
 2059SOL    HW2 7077   2.414   0.352   5.617
 2060SOL     OW 7078   1.098   3.362   0.303
 2060SOL    HW1 7079   1.186   3.367   0.256
 2060SOL    HW2 7080   1.025   3.352   0.236
 2061SOL     OW 7081   2.048   2.805   2.570
 2061SOL    HW1 7082   1.953   2.833   2.558
 2061SOL    HW2 7083   2.061   2.768   2.662
 2062SOL     OW 7084   6.891   4.969   5.123
 2062SOL    HW1 7085   6.869   5.005   5.032
 2062SOL    HW2 7086   6.901   4.870   5.118
 2063SOL     OW 7087   1.567   6.360   5.213
 2063SOL    HW1 7088   1.485   6.367   5.271
 2063SOL    HW2 7089   1.605   6.268   5.220
 2064SOL     OW 7090   1.047   3.893   4.035
 2064SOL    HW1 7091   1.144   3.899   4.060
 2064SOL    HW2 7092   1.032   3.809   3.983
 2065SOL     OW 7093   5.388   2.937   5.218
 2065SOL    HW1 7094   5.458   2.867   5.213
 2065SOL    HW2 7095   5.323   2.914   5.291
 2066SOL     OW 7096   5.839   3.784   5.780
 2066SOL    HW1 7097   5.881   3.719   5.717
 2066SOL    HW2 7098   5.858   3.757   5.874
 2067SOL     OW 7099   6.359   4.771   1.885
 2067SOL    HW1 7100   6.383   4.674   1.882
 2067SOL    HW2 7101   6.289   4.790   1.816
 2068SOL     OW 7102   3.599   1.310   4.161
 2068SOL    HW1 7103   3.695   1.312   4.190
 2068SOL    HW2 7104   3.594   1.302   4.062
 2069SOL     OW 7105   0.137   1.702   4.489
 2069SOL    HW1 7106   0.129   1.606   4.516
 2069SOL    HW2 7107   0.119   1.710   4.391
 2070SOL     OW 7108   1.355   3.014   1.539
 2070SOL    HW1 7109   1.388   3.056   1.624
 2070SOL    HW2 7110   1.301   3.081   1.488
 2071SOL     OW 7111   6.701   1.094   6.057
 2071SOL    HW1 7112   6.697   1.125   6.152
 2071SOL    HW2 7113   6.629   1.027   6.041
 2072SOL     OW 7114   4.011   4.580   5.308
 2072SOL    HW1 7115   3.947   4.506   5.292
 2072SOL    HW2 7116   3.975   4.641   5.379
 2073SOL     OW 7117   3.680   6.332   6.481
 2073SOL    HW1 7118   3.659   6.245   6.437
 2073SOL    HW2 7119   3.682   6.405   6.412
 2074SOL     OW 7120   1.634   3.234   5.802
 2074SOL    HW1 7121   1.666   3.328   5.810
 2074SOL    HW2 7122   1.687   3.175   5.863
 2075SOL     OW 7123   7.006   2.660   2.004
 2075SOL    HW1 7124   0.029   2.585   2.053
 2075SOL    HW2 7125   0.034   2.745   2.020
 2076SOL     OW 7126   5.873   0.381   5.099
 2076SOL    HW1 7127   5.824   0.466   5.080
 2076SOL    HW2 7128   5.854   0.352   5.192
 2077SOL     OW 7129   0.514   2.761   1.258
 2077SOL    HW1 7130   0.469   2.802   1.179
 2077SOL    HW2 7131   0.513   2.661   1.249
 2078SOL     OW 7132   1.752   4.880   5.835
 2078SOL    HW1 7133   1.689   4.940   5.884
 2078SOL    HW2 7134   1.725   4.875   5.739
 2079SOL     OW 7135   5.080   1.068   1.943
 2079SOL    HW1 7136   5.180   1.064   1.951
 2079SOL    HW2 7137   5.050   1.163   1.949
 2080SOL     OW 7138   2.756   2.283   4.823
 2080SOL    HW1 7139   2.684   2.346   4.851
 2080SOL    HW2 7140   2.746   2.197   4.874
 2081SOL     OW 7141   0.203   6.627   3.269
 2081SOL    HW1 7142   0.196   6.704   3.206
 2081SOL    HW2 7143   0.254   6.553   3.225
 2082SOL     OW 7144   0.771   6.381   2.336
 2082SOL    HW1 7145   0.762   6.281   2.338
 2082SOL    HW2 7146   0.856   6.405   2.290
 2083SOL     OW 7147   0.333   6.204   3.389
 2083SOL    HW1 7148   0.320   6.246   3.479
 2083SOL    HW2 7149   0.336   6.105   3.399
 2084SOL     OW 7150   1.103   1.553   1.382
 2084SOL    HW1 7151   1.178   1.491   1.361
 2084SOL    HW2 7152   1.079   1.546   1.479
 2085SOL     OW 7153   5.179   5.962   0.323
 2085SOL    HW1 7154   5.236   5.879   0.323
 2085SOL    HW2 7155   5.082   5.936   0.321
 2086SOL     OW 7156   3.859   6.826   0.137
 2086SOL    HW1 7157   3.823   6.762   0.069
 2086SOL    HW2 7158   3.865   6.917   0.097
 2087SOL     OW 7159   4.080   2.065   6.915
 2087SOL    HW1 7160   4.094   2.032   6.822
 2087SOL    HW2 7161   3.983   2.066   6.936
 2088SOL     OW 7162   0.133   5.609   5.988
 2088SOL    HW1 7163   0.066   5.602   5.914
 2088SOL    HW2 7164   0.196   5.684   5.969
 2089SOL     OW 7165   3.924   2.718   5.330
 2089SOL    HW1 7166   3.998   2.677   5.277
 2089SOL    HW2 7167   3.952   2.810   5.359
 2090SOL     OW 7168   4.623   3.365   5.384
 2090SOL    HW1 7169   4.701   3.390   5.442
 2090SOL    HW2 7170   4.604   3.439   5.320
 2091SOL     OW 7171   6.505   5.756   1.323
 2091SOL    HW1 7172   6.480   5.850   1.296
 2091SOL    HW2 7173   6.427   5.696   1.311
 2092SOL     OW 7174   4.912   3.974   1.040
 2092SOL    HW1 7175   4.843   3.998   0.972
 2092SOL    HW2 7176   4.872   3.976   1.131
 2093SOL     OW 7177   3.805   1.904   2.369
 2093SOL    HW1 7178   3.846   1.989   2.402
 2093SOL    HW2 7179   3.861   1.867   2.295
 2094SOL     OW 7180   5.850   3.096   7.017
 2094SOL    HW1 7181   5.828   3.107   0.093
 2094SOL    HW2 7182   5.938   3.049   7.008
 2095SOL     OW 7183   5.989   6.402   4.131
 2095SOL    HW1 7184   6.037   6.316   4.118
 2095SOL    HW2 7185   5.892   6.390   4.110
 2096SOL     OW 7186   4.493   6.121   2.225
 2096SOL    HW1 7187   4.410   6.102   2.172
 2096SOL    HW2 7188   4.573   6.091   2.173
 2097SOL     OW 7189   1.998   4.702   6.732
 2097SOL    HW1 7190   2.012   4.628   6.797
 2097SOL    HW2 7191   1.900   4.719   6.720
 2098SOL     OW 7192   4.188   5.876   3.334
 2098SOL    HW1 7193   4.261   5.856   3.399
 2098SOL    HW2 7194   4.126   5.944   3.373
 2099SOL     OW 7195   4.523   1.700   0.179
 2099SOL    HW1 7196   4.462   1.636   0.132
 2099SOL    HW2 7197   4.566   1.653   0.257
 2100SOL     OW 7198   5.749   1.043   0.454
 2100SOL    HW1 7199   5.666   1.080   0.412
 2100SOL    HW2 7200   5.818   1.026   0.382
 2101SOL     OW 7201   0.061   6.195   0.992
 2101SOL    HW1 7202   0.141   6.230   1.040
 2101SOL    HW2 7203   0.087   6.115   0.938
 2102SOL     OW 7204   3.896   2.979   1.532
 2102SOL    HW1 7205   3.881   2.946   1.439
 2102SOL    HW2 7206   3.933   2.906   1.589
 2103SOL     OW 7207   2.874   4.954   6.962
 2103SOL    HW1 7208   2.871   5.053   6.976
 2103SOL    HW2 7209   2.925   4.911   0.015
 2104SOL     OW 7210   2.094   4.558   2.857
 2104SOL    HW1 7211   2.067   4.526   2.948
 2104SOL    HW2 7212   2.014   4.598   2.811
 2105SOL     OW 7213   5.264   4.430   0.269
 2105SOL    HW1 7214   5.317   4.436   0.354
 2105SOL    HW2 7215   5.176   4.476   0.282
 2106SOL     OW 7216   5.029   3.351   1.419
 2106SOL    HW1 7217   5.102   3.362   1.353
 2106SOL    HW2 7218   5.059   3.383   1.509
 2107SOL     OW 7219   4.921   3.667   6.001
 2107SOL    HW1 7220   4.996   3.680   6.065
 2107SOL    HW2 7221   4.954   3.619   5.920
 2108SOL     OW 7222   5.665   6.794   6.204
 2108SOL    HW1 7223   5.679   6.709   6.154
 2108SOL    HW2 7224   5.702   6.870   6.151
 2109SOL     OW 7225   3.292   5.445   2.548
 2109SOL    HW1 7226   3.350   5.509   2.498
 2109SOL    HW2 7227   3.276   5.364   2.492
 2110SOL     OW 7228   3.944   0.761   6.909
 2110SOL    HW1 7229   3.972   0.696   6.979
 2110SOL    HW2 7230   4.009   0.837   6.905
 2111SOL     OW 7231   1.105   3.019   5.988
 2111SOL    HW1 7232   1.058   3.108   5.990
 2111SOL    HW2 7233   1.057   2.957   5.926
 2112SOL     OW 7234   6.119   1.090   0.337
 2112SOL    HW1 7235   6.042   1.037   0.301
 2112SOL    HW2 7236   6.140   1.059   0.429
 2113SOL     OW 7237   1.910   6.803   4.289
 2113SOL    HW1 7238   1.832   6.770   4.235
 2113SOL    HW2 7239   1.914   6.753   4.376
 2114SOL     OW 7240   2.366   2.659   6.926
 2114SOL    HW1 7241   2.412   2.636   7.012
 2114SOL    HW2 7242   2.354   2.576   6.871
 2115SOL     OW 7243   0.823   4.686   2.668
 2115SOL    HW1 7244   0.785   4.595   2.653
 2115SOL    HW2 7245   0.808   4.713   2.763
 2116SOL     OW 7246   1.247   2.149   0.558
 2116SOL    HW1 7247   1.179   2.200   0.505
 2116SOL    HW2 7248   1.211   2.058   0.579
 2117SOL     OW 7249   5.375   2.310   2.884
 2117SOL    HW1 7250   5.320   2.388   2.853
 2117SOL    HW2 7251   5.427   2.273   2.806
 2118SOL     OW 7252   6.736   3.628   2.570
 2118SOL    HW1 7253   6.808   3.559   2.572
 2118SOL    HW2 7254   6.719   3.655   2.476
 2119SOL     OW 7255   2.408   0.600   6.587
 2119SOL    HW1 7256   2.455   0.651   6.515
 2119SOL    HW2 7257   2.468   0.527   6.621
 2120SOL     OW 7258   6.483   2.168   1.797
 2120SOL    HW1 7259   6.502   2.260   1.831
 2120SOL    HW2 7260   6.500   2.102   1.869
 2121SOL     OW 7261   1.667   1.307   6.071
 2121SOL    HW1 7262   1.651   1.385   6.011
 2121SOL    HW2 7263   1.620   1.226   6.035
 2122SOL     OW 7264   6.106   0.451   5.297
 2122SOL    HW1 7265   6.084   0.375   5.358
 2122SOL    HW2 7266   6.185   0.501   5.332
 2123SOL     OW 7267   0.532   5.732   2.865
 2123SOL    HW1 7268   0.551   5.672   2.943
 2123SOL    HW2 7269   0.561   5.825   2.887
 2124SOL     OW 7270   3.579   2.812   5.763
 2124SOL    HW1 7271   3.502   2.866   5.728
 2124SOL    HW2 7272   3.564   2.792   5.860
 2125SOL     OW 7273   1.910   5.645   3.562
 2125SOL    HW1 7274   1.927   5.742   3.578
 2125SOL    HW2 7275   1.909   5.596   3.649
 2126SOL     OW 7276   3.485   3.335   0.422
 2126SOL    HW1 7277   3.388   3.310   0.421
 2126SOL    HW2 7278   3.536   3.265   0.473
 2127SOL     OW 7279   0.141   3.153   5.910
 2127SOL    HW1 7280   0.161   3.237   5.961
 2127SOL    HW2 7281   0.225   3.099   5.901
 2128SOL     OW 7282   5.506   4.133   1.127
 2128SOL    HW1 7283   5.441   4.057   1.137
 2128SOL    HW2 7284   5.591   4.109   1.174
 2129SOL     OW 7285   4.840   3.796   3.723
 2129SOL    HW1 7286   4.907   3.855   3.677
 2129SOL    HW2 7287   4.801   3.845   3.801
 2130SOL     OW 7288   2.228   1.303   1.691
 2130SOL    HW1 7289   2.319   1.305   1.650
 2130SOL    HW2 7290   2.182   1.391   1.674
 2131SOL     OW 7291   5.560   1.829   6.027
 2131SOL    HW1 7292   5.631   1.876   6.081
 2131SOL    HW2 7293   5.497   1.897   5.989
 2132SOL     OW 7294   2.703   1.341   6.564
 2132SOL    HW1 7295   2.763   1.281   6.511
 2132SOL    HW2 7296   2.678   1.421   6.509
 2133SOL     OW 7297   2.281   1.680   1.909
 2133SOL    HW1 7298   2.258   1.666   1.813
 2133SOL    HW2 7299   2.357   1.744   1.916
 2134SOL     OW 7300   0.272   6.596   4.009
 2134SOL    HW1 7301   0.315   6.530   4.071
 2134SOL    HW2 7302   0.332   6.676   3.999
 2135SOL     OW 7303   0.990   0.918   3.682
 2135SOL    HW1 7304   1.023   1.006   3.647
 2135SOL    HW2 7305   0.994   0.919   3.782
 2136SOL     OW 7306   0.868   3.676   4.901
 2136SOL    HW1 7307   0.947   3.693   4.843
 2136SOL    HW2 7308   0.821   3.762   4.920
 2137SOL     OW 7309   1.245   6.139   5.431
 2137SOL    HW1 7310   1.308   6.098   5.497
 2137SOL    HW2 7311   1.153   6.142   5.470
 2138SOL     OW 7312   6.731   3.074   0.862
 2138SOL    HW1 7313   6.824   3.047   0.885
 2138SOL    HW2 7314   6.715   3.168   0.892
 2139SOL     OW 7315   2.679   0.669   4.527
 2139SOL    HW1 7316   2.722   0.583   4.554
 2139SOL    HW2 7317   2.749   0.731   4.490
 2140SOL     OW 7318   2.570   5.818   3.433
 2140SOL    HW1 7319   2.539   5.746   3.495
 2140SOL    HW2 7320   2.575   5.905   3.482
 2141SOL     OW 7321   6.354   2.751   1.266
 2141SOL    HW1 7322   6.276   2.693   1.241
 2141SOL    HW2 7323   6.432   2.693   1.289
 2142SOL     OW 7324   1.320   1.632   3.481
 2142SOL    HW1 7325   1.256   1.595   3.548
 2142SOL    HW2 7326   1.382   1.697   3.526
 2143SOL     OW 7327   3.929   6.904   1.586
 2143SOL    HW1 7328   3.974   6.970   1.646
 2143SOL    HW2 7329   3.964   6.813   1.604
 2144SOL     OW 7330   1.162   0.415   2.937
 2144SOL    HW1 7331   1.190   0.319   2.928
 2144SOL    HW2 7332   1.161   0.441   3.034
 2145SOL     OW 7333   3.300   5.564   4.100
 2145SOL    HW1 7334   3.216   5.612   4.126
 2145SOL    HW2 7335   3.377   5.628   4.105
 2146SOL     OW 7336   2.789   3.429   2.038
 2146SOL    HW1 7337   2.801   3.377   1.953
 2146SOL    HW2 7338   2.702   3.478   2.035
 2147SOL     OW 7339   0.781   1.840   6.635
 2147SOL    HW1 7340   0.748   1.898   6.560
 2147SOL    HW2 7341   0.706   1.822   6.699
 2148SOL     OW 7342   4.861   3.610   3.905
 2148SOL    HW1 7343   4.842   3.649   3.815
 2148SOL    HW2 7344   4.857   3.510   3.900
 2149SOL     OW 7345   4.003   0.815   2.101
 2149SOL    HW1 7346   3.930   0.747   2.098
 2149SOL    HW2 7347   4.085   0.777   2.059
 2150SOL     OW 7348   3.827   1.802   2.922
 2150SOL    HW1 7349   3.801   1.802   2.825
 2150SOL    HW2 7350   3.744   1.805   2.978
 2151SOL     OW 7351   3.929   2.304   6.056
 2151SOL    HW1 7352   3.975   2.353   6.129
 2151SOL    HW2 7353   3.921   2.363   5.975
 2152SOL     OW 7354   6.011   6.568   1.974
 2152SOL    HW1 7355   6.100   6.590   1.934
 2152SOL    HW2 7356   5.966   6.497   1.919
 2153SOL     OW 7357   4.539   1.854   3.731
 2153SOL    HW1 7358   4.502   1.767   3.696
 2153SOL    HW2 7359   4.619   1.880   3.677
 2154SOL     OW 7360   3.164   5.275   4.806
 2154SOL    HW1 7361   3.215   5.263   4.891
 2154SOL    HW2 7362   3.145   5.186   4.765
 2155SOL     OW 7363   1.955   4.513   0.328
 2155SOL    HW1 7364   1.895   4.573   0.381
 2155SOL    HW2 7365   2.048   4.520   0.363
 2156SOL     OW 7366   1.757   0.558   1.692
 2156SOL    HW1 7367   1.839   0.516   1.731
 2156SOL    HW2 7368   1.676   0.521   1.736
 2157SOL     OW 7369   6.999   1.451   5.408
 2157SOL    HW1 7370   0.041   1.520   5.442
 2157SOL    HW2 7371   6.905   1.485   5.418
 2158SOL     OW 7372   4.110   0.137   1.152
 2158SOL    HW1 7373   4.072   0.095   1.235
 2158SOL    HW2 7374   4.057   0.218   1.129
 2159SOL     OW 7375   1.728   6.996   4.667
 2159SOL    HW1 7376   1.777   7.018   4.752
 2159SOL    HW2 7377   1.687   6.905   4.675
 2160SOL     OW 7378   3.666   4.113   1.253
 2160SOL    HW1 7379   3.641   4.182   1.321
 2160SOL    HW2 7380   3.765   4.097   1.257
 2161SOL     OW 7381   4.859   3.892   3.350
 2161SOL    HW1 7382   4.927   3.892   3.423
 2161SOL    HW2 7383   4.776   3.939   3.382
 2162SOL     OW 7384   2.148   0.634   6.701
 2162SOL    HW1 7385   2.127   0.717   6.650
 2162SOL    HW2 7386   2.243   0.607   6.682
 2163SOL     OW 7387   1.895   0.203   0.259
 2163SOL    HW1 7388   1.966   0.147   0.300
 2163SOL    HW2 7389   1.817   0.210   0.321
 2164SOL     OW 7390   1.764   0.613   6.575
 2164SOL    HW1 7391   1.723   0.693   6.620
 2164SOL    HW2 7392   1.797   0.550   6.645
 2165SOL     OW 7393   1.092   0.645   2.436
 2165SOL    HW1 7394   1.076   0.602   2.347
 2165SOL    HW2 7395   1.046   0.734   2.438
 2166SOL     OW 7396   1.400   2.263   5.224
 2166SOL    HW1 7397   1.382   2.246   5.127
 2166SOL    HW2 7398   1.314   2.277   5.272
 2167SOL     OW 7399   2.632   0.600   2.317
 2167SOL    HW1 7400   2.713   0.620   2.262
 2167SOL    HW2 7401   2.562   0.669   2.301
 2168SOL     OW 7402   5.907   3.669   4.431
 2168SOL    HW1 7403   5.830   3.645   4.490
 2168SOL    HW2 7404   5.928   3.591   4.371
 2169SOL     OW 7405   5.609   2.921   5.551
 2169SOL    HW1 7406   5.642   2.949   5.461
 2169SOL    HW2 7407   5.574   2.828   5.546
 2170SOL     OW 7408   4.646   4.864   5.317
 2170SOL    HW1 7409   4.733   4.909   5.297
 2170SOL    HW2 7410   4.651   4.823   5.408
 2171SOL     OW 7411   6.571   3.585   0.119
 2171SOL    HW1 7412   6.581   3.673   0.072
 2171SOL    HW2 7413   6.493   3.589   0.182
 2172SOL     OW 7414   3.151   1.451   0.248
 2172SOL    HW1 7415   3.064   1.459   0.297
 2172SOL    HW2 7416   3.145   1.499   0.160
 2173SOL     OW 7417   4.067   0.435   5.570
 2173SOL    HW1 7418   4.013   0.376   5.630
 2173SOL    HW2 7419   4.158   0.395   5.557
 2174SOL     OW 7420   6.590   4.848   4.256
 2174SOL    HW1 7421   6.539   4.917   4.206
 2174SOL    HW2 7422   6.590   4.762   4.205
 2175SOL     OW 7423   2.552   0.010   3.174
 2175SOL    HW1 7424   2.593   7.014   3.085
 2175SOL    HW2 7425   2.625   0.014   3.243
 2176SOL     OW 7426   2.296   2.425   2.682
 2176SOL    HW1 7427   2.230   2.422   2.607
 2176SOL    HW2 7428   2.351   2.342   2.682
 2177SOL     OW 7429   6.875   2.019   1.082
 2177SOL    HW1 7430   6.953   2.076   1.057
 2177SOL    HW2 7431   6.855   2.030   1.180
 2178SOL     OW 7432   0.825   5.138   0.351
 2178SOL    HW1 7433   0.732   5.171   0.366
 2178SOL    HW2 7434   0.833   5.104   0.257
 2179SOL     OW 7435   1.332   5.521   4.267
 2179SOL    HW1 7436   1.266   5.596   4.258
 2179SOL    HW2 7437   1.423   5.553   4.241
 2180SOL     OW 7438   3.065   3.576   2.703
 2180SOL    HW1 7439   3.139   3.544   2.762
 2180SOL    HW2 7440   2.977   3.549   2.743
 2181SOL     OW 7441   4.729   5.725   5.826
 2181SOL    HW1 7442   4.810   5.730   5.769
 2181SOL    HW2 7443   4.719   5.631   5.861
 2182SOL     OW 7444   6.959   4.090   6.398
 2182SOL    HW1 7445   7.019   4.081   6.478
 2182SOL    HW2 7446   6.973   4.179   6.356
 2183SOL     OW 7447   3.237   2.796   0.460
 2183SOL    HW1 7448   3.149   2.789   0.505
 2183SOL    HW2 7449   3.238   2.736   0.379
 2184SOL     OW 7450   3.620   1.437   6.367
 2184SOL    HW1 7451   3.643   1.349   6.326
 2184SOL    HW2 7452   3.677   1.509   6.326
 2185SOL     OW 7453   1.667   0.441   0.494
 2185SOL    HW1 7454   1.690   0.344   0.488
 2185SOL    HW2 7455   1.627   0.460   0.584
 2186SOL     OW 7456   0.035   4.895   2.848
 2186SOL    HW1 7457   6.978   4.859   2.796
 2186SOL    HW2 7458   0.058   4.986   2.814
 2187SOL     OW 7459   6.506   1.763   0.712
 2187SOL    HW1 7460   6.420   1.732   0.753
 2187SOL    HW2 7461   6.487   1.799   0.620
 2188SOL     OW 7462   5.332   6.461   3.349
 2188SOL    HW1 7463   5.312   6.559   3.353
 2188SOL    HW2 7464   5.404   6.438   3.414
 2189SOL     OW 7465   2.008   0.167   5.815
 2189SOL    HW1 7466   2.051   0.256   5.801
 2189SOL    HW2 7467   1.970   0.163   5.908
 2190SOL     OW 7468   6.686   2.379   1.221
 2190SOL    HW1 7469   6.773   2.379   1.172
 2190SOL    HW2 7470   6.677   2.294   1.272
 2191SOL     OW 7471   3.408   2.900   6.358
 2191SOL    HW1 7472   3.405   2.858   6.267
 2191SOL    HW2 7473   3.405   2.829   6.428
 2192SOL     OW 7474   4.086   5.871   5.138
 2192SOL    HW1 7475   4.144   5.790   5.128
 2192SOL    HW2 7476   4.004   5.846   5.191
 2193SOL     OW 7477   0.872   5.093   5.768
 2193SOL    HW1 7478   0.785   5.126   5.731
 2193SOL    HW2 7479   0.871   4.993   5.773
 2194SOL     OW 7480   2.308   6.219   0.900
 2194SOL    HW1 7481   2.291   6.180   0.991
 2194SOL    HW2 7482   2.283   6.316   0.900
 2195SOL     OW 7483   1.378   5.633   2.575
 2195SOL    HW1 7484   1.288   5.599   2.549
 2195SOL    HW2 7485   1.439   5.631   2.495
 2196SOL     OW 7486   3.579   1.757   5.983
 2196SOL    HW1 7487   3.633   1.840   5.987
 2196SOL    HW2 7488   3.560   1.734   5.887
 2197SOL     OW 7489   4.903   4.747   1.456
 2197SOL    HW1 7490   4.935   4.696   1.536
 2197SOL    HW2 7491   4.893   4.685   1.379
 2198SOL     OW 7492   6.826   4.508   0.296
 2198SOL    HW1 7493   6.729   4.512   0.276
 2198SOL    HW2 7494   6.871   4.592   0.266
 2199SOL     OW 7495   4.759   6.878   0.747
 2199SOL    HW1 7496   4.704   6.796   0.733
 2199SOL    HW2 7497   4.853   6.852   0.770
 2200SOL     OW 7498   4.084   0.796   4.614
 2200SOL    HW1 7499   4.007   0.856   4.592
 2200SOL    HW2 7500   4.145   0.843   4.678
 2201SOL     OW 7501   6.072   3.126   2.387
 2201SOL    HW1 7502   6.047   3.203   2.328
 2201SOL    HW2 7503   6.034   3.042   2.349
 2202SOL     OW 7504   3.961   5.728   3.750
 2202SOL    HW1 7505   3.976   5.805   3.812
 2202SOL    HW2 7506   3.921   5.652   3.801
 2203SOL     OW 7507   3.549   2.039   2.992
 2203SOL    HW1 7508   3.467   2.096   2.984
 2203SOL    HW2 7509   3.522   1.943   2.993
 2204SOL     OW 7510   2.737   1.930   0.256
 2204SOL    HW1 7511   2.819   1.942   0.200
 2204SOL    HW2 7512   2.677   2.009   0.245
 2205SOL     OW 7513   2.163   6.572   0.517
 2205SOL    HW1 7514   2.094   6.502   0.535
 2205SOL    HW2 7515   2.121   6.648   0.467
 2206SOL     OW 7516   3.010   3.369   6.920
 2206SOL    HW1 7517   3.060   3.423   6.853
 2206SOL    HW2 7518   3.071   3.302   6.961
 2207SOL     OW 7519   1.641   4.727   6.210
 2207SOL    HW1 7520   1.666   4.778   6.292
 2207SOL    HW2 7521   1.541   4.719   6.205
 2208SOL     OW 7522   0.372   3.602   2.107
 2208SOL    HW1 7523   0.407   3.523   2.157
 2208SOL    HW2 7524   0.413   3.685   2.143
 2209SOL     OW 7525   1.334   5.572   6.332
 2209SOL    HW1 7526   1.350   5.616   6.421
 2209SOL    HW2 7527   1.385   5.486   6.328
 2210SOL     OW 7528   1.278   5.724   3.463
 2210SOL    HW1 7529   1.198   5.671   3.492
 2210SOL    HW2 7530   1.272   5.817   3.498
 2211SOL     OW 7531   5.771   1.567   5.742
 2211SOL    HW1 7532   5.769   1.497   5.670
 2211SOL    HW2 7533   5.682   1.614   5.745
 2212SOL     OW 7534   1.012   0.252   5.822
 2212SOL    HW1 7535   0.964   0.337   5.801
 2212SOL    HW2 7536   0.946   0.177   5.826
 2213SOL     OW 7537   3.998   2.196   3.487
 2213SOL    HW1 7538   3.991   2.225   3.392
 2213SOL    HW2 7539   3.927   2.128   3.506
 2214SOL     OW 7540   5.751   6.899   4.627
 2214SOL    HW1 7541   5.689   6.976   4.640
 2214SOL    HW2 7542   5.837   6.931   4.588
 2215SOL     OW 7543   6.751   2.067   5.536
 2215SOL    HW1 7544   6.844   2.053   5.502
 2215SOL    HW2 7545   6.687   2.014   5.480
 2216SOL     OW 7546   0.997   6.856   1.062
 2216SOL    HW1 7547   1.087   6.850   1.020
 2216SOL    HW2 7548   0.987   6.782   1.129
 2217SOL     OW 7549   4.602   0.190   1.284
 2217SOL    HW1 7550   4.511   0.219   1.252
 2217SOL    HW2 7551   4.666   0.190   1.207
 2218SOL     OW 7552   0.986   6.007   6.612
 2218SOL    HW1 7553   0.920   6.049   6.550
 2218SOL    HW2 7554   1.010   6.073   6.684
 2219SOL     OW 7555   1.832   4.018   3.045
 2219SOL    HW1 7556   1.847   3.923   3.073
 2219SOL    HW2 7557   1.751   4.022   2.985
 2220SOL     OW 7558   0.027   1.775   5.317
 2220SOL    HW1 7559   0.089   1.736   5.385
 2220SOL    HW2 7560   7.009   1.859   5.353
 2221SOL     OW 7561   6.743   2.211   1.421
 2221SOL    HW1 7562   6.829   2.255   1.444
 2221SOL    HW2 7563   6.754   2.112   1.424
 2222SOL     OW 7564   4.513   6.388   2.218
 2222SOL    HW1 7565   4.560   6.420   2.135
 2222SOL    HW2 7566   4.505   6.288   2.216
 2223SOL     OW 7567   5.932   5.269   4.140
 2223SOL    HW1 7568   5.863   5.321   4.191
 2223SOL    HW2 7569   5.910   5.172   4.144
 2224SOL     OW 7570   2.210   4.736   1.698
 2224SOL    HW1 7571   2.126   4.786   1.721
 2224SOL    HW2 7572   2.241   4.764   1.607
 2225SOL     OW 7573   6.519   5.171   2.320
 2225SOL    HW1 7574   6.499   5.257   2.273
 2225SOL    HW2 7575   6.536   5.099   2.253
 2226SOL     OW 7576   3.714   3.178   1.095
 2226SOL    HW1 7577   3.662   3.234   1.159
 2226SOL    HW2 7578   3.807   3.214   1.087
 2227SOL     OW 7579   6.742   3.729   5.617
 2227SOL    HW1 7580   6.797   3.776   5.548
 2227SOL    HW2 7581   6.665   3.682   5.573
 2228SOL     OW 7582   3.037   4.827   5.906
 2228SOL    HW1 7583   3.129   4.803   5.938
 2228SOL    HW2 7584   3.034   4.821   5.806
 2229SOL     OW 7585   4.306   1.159   3.196
 2229SOL    HW1 7586   4.241   1.164   3.271
 2229SOL    HW2 7587   4.258   1.147   3.109
 2230SOL     OW 7588   0.759   6.354   5.139
 2230SOL    HW1 7589   0.764   6.306   5.227
 2230SOL    HW2 7590   0.673   6.332   5.094
 2231SOL     OW 7591   1.868   0.043   1.964
 2231SOL    HW1 7592   1.936   7.002   1.925
 2231SOL    HW2 7593   1.883   0.135   1.928
 2232SOL     OW 7594   6.454   2.661   2.640
 2232SOL    HW1 7595   6.431   2.599   2.715
 2232SOL    HW2 7596   6.552   2.679   2.640
 2233SOL     OW 7597   3.554   6.452   0.483
 2233SOL    HW1 7598   3.522   6.360   0.504
 2233SOL    HW2 7599   3.477   6.508   0.453
 2234SOL     OW 7600   3.603   1.436   0.792
 2234SOL    HW1 7601   3.537   1.506   0.821
 2234SOL    HW2 7602   3.678   1.480   0.742
 2235SOL     OW 7603   0.802   0.079   0.922
 2235SOL    HW1 7604   0.756   0.147   0.980
 2235SOL    HW2 7605   0.858   0.019   0.979
 2236SOL     OW 7606   1.048   4.581   1.314
 2236SOL    HW1 7607   0.998   4.659   1.276
 2236SOL    HW2 7608   1.129   4.562   1.258
 2237SOL     OW 7609   6.503   3.019   4.638
 2237SOL    HW1 7610   6.538   3.109   4.612
 2237SOL    HW2 7611   6.413   3.030   4.682
 2238SOL     OW 7612   0.638   5.805   2.062
 2238SOL    HW1 7613   0.589   5.850   2.136
 2238SOL    HW2 7614   0.574   5.783   1.988
 2239SOL     OW 7615   4.114   4.969   3.533
 2239SOL    HW1 7616   4.116   4.881   3.487
 2239SOL    HW2 7617   4.055   5.032   3.482
 2240SOL     OW 7618   6.475   4.835   3.113
 2240SOL    HW1 7619   6.434   4.926   3.104
 2240SOL    HW2 7620   6.402   4.767   3.125
 2241SOL     OW 7621   0.103   6.758   1.979
 2241SOL    HW1 7622   0.097   6.659   1.962
 2241SOL    HW2 7623   0.015   6.801   1.959
 2242SOL     OW 7624   4.743   1.840   3.037
 2242SOL    HW1 7625   4.837   1.823   3.067
 2242SOL    HW2 7626   4.723   1.780   2.959
 2243SOL     OW 7627   2.690   5.979   5.124
 2243SOL    HW1 7628   2.699   6.038   5.044
 2243SOL    HW2 7629   2.691   6.035   5.207
 2244SOL     OW 7630   2.663   0.093   4.617
 2244SOL    HW1 7631   2.740   0.103   4.679
 2244SOL    HW2 7632   2.654   7.019   4.590
 2245SOL     OW 7633   0.601   1.427   2.505
 2245SOL    HW1 7634   0.637   1.490   2.435
 2245SOL    HW2 7635   0.532   1.474   2.560
 2246SOL     OW 7636   0.975   3.915   6.214
 2246SOL    HW1 7637   0.930   3.864   6.287
 2246SOL    HW2 7638   1.074   3.902   6.220
 2247SOL     OW 7639   2.202   2.848   6.239
 2247SOL    HW1 7640   2.233   2.904   6.162
 2247SOL    HW2 7641   2.163   2.906   6.310
 2248SOL     OW 7642   4.639   3.772   5.818
 2248SOL    HW1 7643   4.561   3.824   5.854
 2248SOL    HW2 7644   4.665   3.701   5.883
 2249SOL     OW 7645   5.475   5.873   3.229
 2249SOL    HW1 7646   5.429   5.901   3.313
 2249SOL    HW2 7647   5.408   5.837   3.164
 2250SOL     OW 7648   6.420   4.131   1.117
 2250SOL    HW1 7649   6.332   4.116   1.163
 2250SOL    HW2 7650   6.422   4.080   1.031
 2251SOL     OW 7651   5.898   0.943   0.246
 2251SOL    HW1 7652   5.845   0.952   0.162
 2251SOL    HW2 7653   5.937   0.851   0.252
 2252SOL     OW 7654   5.593   2.734   5.123
 2252SOL    HW1 7655   5.670   2.682   5.159
 2252SOL    HW2 7656   5.528   2.672   5.079
 2253SOL     OW 7657   3.044   2.922   6.947
 2253SOL    HW1 7658   3.136   2.889   6.969
 2253SOL    HW2 7659   3.028   2.912   6.849
 2254SOL     OW 7660   2.271   3.757   6.413
 2254SOL    HW1 7661   2.179   3.728   6.388
 2254SOL    HW2 7662   2.287   3.851   6.382
 2255SOL     OW 7663   6.087   2.694   2.056
 2255SOL    HW1 7664   6.053   2.607   2.092
 2255SOL    HW2 7665   6.143   2.676   1.975
 2256SOL     OW 7666   4.215   4.820   2.123
 2256SOL    HW1 7667   4.208   4.777   2.033
 2256SOL    HW2 7668   4.276   4.766   2.181
 2257SOL     OW 7669   1.839   4.037   3.736
 2257SOL    HW1 7670   1.824   4.076   3.826
 2257SOL    HW2 7671   1.769   4.068   3.673
 2258SOL     OW 7672   2.006   5.640   5.202
 2258SOL    HW1 7673   2.098   5.622   5.236
 2258SOL    HW2 7674   1.958   5.701   5.266
 2259SOL     OW 7675   5.549   3.577   0.042
 2259SOL    HW1 7676   5.636   3.568   7.016
 2259SOL    HW2 7677   5.518   3.672   0.039
 2260SOL     OW 7678   5.232   4.780   1.383
 2260SOL    HW1 7679   5.177   4.780   1.299
 2260SOL    HW2 7680   5.310   4.841   1.372
 2261SOL     OW 7681   5.515   6.914   0.599
 2261SOL    HW1 7682   5.605   6.943   0.568
 2261SOL    HW2 7683   5.523   6.828   0.649
 2262SOL     OW 7684   4.874   2.426   4.182
 2262SOL    HW1 7685   4.802   2.493   4.164
 2262SOL    HW2 7686   4.952   2.444   4.121
 2263SOL     OW 7687   1.253   5.231   5.549
 2263SOL    HW1 7688   1.284   5.155   5.492
 2263SOL    HW2 7689   1.329   5.294   5.564
 2264SOL     OW 7690   3.173   3.179   3.554
 2264SOL    HW1 7691   3.200   3.100   3.610
 2264SOL    HW2 7692   3.255   3.225   3.521
 2265SOL     OW 7693   0.349   0.081   2.012
 2265SOL    HW1 7694   0.402   0.038   2.086
 2265SOL    HW2 7695   0.265   0.120   2.049
 2266SOL     OW 7696   5.769   0.541   0.367
 2266SOL    HW1 7697   5.807   0.491   0.445
 2266SOL    HW2 7698   5.672   0.559   0.383
 2267SOL     OW 7699   6.359   2.388   5.159
 2267SOL    HW1 7700   6.338   2.463   5.097
 2267SOL    HW2 7701   6.356   2.302   5.110
 2268SOL     OW 7702   0.125   6.230   0.121
 2268SOL    HW1 7703   0.049   6.281   0.162
 2268SOL    HW2 7704   0.179   6.291   0.064
 2269SOL     OW 7705   6.500   5.683   6.071
 2269SOL    HW1 7706   6.557   5.604   6.090
 2269SOL    HW2 7707   6.447   5.667   5.987
 2270SOL     OW 7708   3.254   3.486   2.220
 2270SOL    HW1 7709   3.197   3.506   2.300
 2270SOL    HW2 7710   3.223   3.541   2.143
 2271SOL     OW 7711   6.288   4.515   2.145
 2271SOL    HW1 7712   6.268   4.436   2.087
 2271SOL    HW2 7713   6.298   4.485   2.240
 2272SOL     OW 7714   5.397   2.027   5.895
 2272SOL    HW1 7715   5.392   2.126   5.886
 2272SOL    HW2 7716   5.305   1.988   5.891
 2273SOL     OW 7717   0.196   1.323   3.431
 2273SOL    HW1 7718   0.174   1.304   3.527
 2273SOL    HW2 7719   0.174   1.419   3.411
 2274SOL     OW 7720   1.394   3.333   4.816
 2274SOL    HW1 7721   1.417   3.315   4.912
 2274SOL    HW2 7722   1.372   3.430   4.804
 2275SOL     OW 7723   5.690   6.161   3.940
 2275SOL    HW1 7724   5.764   6.094   3.944
 2275SOL    HW2 7725   5.604   6.117   3.967
 2276SOL     OW 7726   4.193   4.282   1.428
 2276SOL    HW1 7727   4.136   4.200   1.434
 2276SOL    HW2 7728   4.239   4.297   1.516
 2277SOL     OW 7729   3.275   3.154   6.971
 2277SOL    HW1 7730   3.332   3.232   6.995
 2277SOL    HW2 7731   3.283   3.084   0.021
 2278SOL     OW 7732   5.174   6.008   1.267
 2278SOL    HW1 7733   5.215   6.044   1.184
 2278SOL    HW2 7734   5.169   5.908   1.262
 2279SOL     OW 7735   5.942   2.880   5.169
 2279SOL    HW1 7736   5.881   2.803   5.153
 2279SOL    HW2 7737   5.913   2.958   5.113
 2280SOL     OW 7738   6.050   6.014   5.820
 2280SOL    HW1 7739   6.128   5.960   5.788
 2280SOL    HW2 7740   6.050   6.103   5.775
 2281SOL     OW 7741   3.575   2.205   1.383
 2281SOL    HW1 7742   3.557   2.106   1.380
 2281SOL    HW2 7743   3.553   2.239   1.475
 2282SOL     OW 7744   4.819   5.652   3.204
 2282SOL    HW1 7745   4.742   5.595   3.174
 2282SOL    HW2 7746   4.879   5.598   3.263
 2283SOL     OW 7747   0.502   3.206   3.640
 2283SOL    HW1 7748   0.471   3.195   3.734
 2283SOL    HW2 7749   0.479   3.298   3.608
 2284SOL     OW 7750   2.269   2.243   1.851
 2284SOL    HW1 7751   2.212   2.175   1.806
 2284SOL    HW2 7752   2.276   2.324   1.794
 2285SOL     OW 7753   1.672   3.473   1.106
 2285SOL    HW1 7754   1.638   3.483   1.012
 2285SOL    HW2 7755   1.659   3.379   1.136
 2286SOL     OW 7756   6.548   6.415   4.909
 2286SOL    HW1 7757   6.641   6.396   4.941
 2286SOL    HW2 7758   6.482   6.381   4.975
 2287SOL     OW 7759   2.298   2.609   1.973
 2287SOL    HW1 7760   2.375   2.588   2.033
 2287SOL    HW2 7761   2.289   2.708   1.965
 2288SOL     OW 7762   0.062   6.339   2.586
 2288SOL    HW1 7763   0.115   6.372   2.664
 2288SOL    HW2 7764   7.010   6.404   2.565
 2289SOL     OW 7765   5.297   2.014   2.623
 2289SOL    HW1 7766   5.357   2.002   2.544
 2289SOL    HW2 7767   5.220   2.072   2.597
 2290SOL     OW 7768   2.946   3.754   3.066
 2290SOL    HW1 7769   2.930   3.658   3.045
 2290SOL    HW2 7770   2.918   3.811   2.988
 2291SOL     OW 7771   2.208   2.297   1.008
 2291SOL    HW1 7772   2.141   2.367   1.033
 2291SOL    HW2 7773   2.261   2.329   0.929
 2292SOL     OW 7774   4.052   1.804   2.773
 2292SOL    HW1 7775   4.132   1.855   2.806
 2292SOL    HW2 7776   3.980   1.805   2.842
 2293SOL     OW 7777   5.588   1.433   0.445
 2293SOL    HW1 7778   5.656   1.504   0.466
 2293SOL    HW2 7779   5.524   1.424   0.522
 2294SOL     OW 7780   0.787   2.514   6.135
 2294SOL    HW1 7781   0.760   2.465   6.052
 2294SOL    HW2 7782   0.772   2.455   6.215
 2295SOL     OW 7783   6.723   0.042   2.084
 2295SOL    HW1 7784   6.654   6.992   2.078
 2295SOL    HW2 7785   6.759   0.046   2.177
 2296SOL     OW 7786   2.698   5.408   3.586
 2296SOL    HW1 7787   2.730   5.316   3.606
 2296SOL    HW2 7788   2.640   5.407   3.505
 2297SOL     OW 7789   4.318   4.897   5.754
 2297SOL    HW1 7790   4.407   4.922   5.714
 2297SOL    HW2 7791   4.328   4.812   5.806
 2298SOL     OW 7792   3.779   3.460   4.643
 2298SOL    HW1 7793   3.815   3.441   4.552
 2298SOL    HW2 7794   3.822   3.398   4.709
 2299SOL     OW 7795   5.254   3.116   5.050
 2299SOL    HW1 7796   5.275   3.047   5.119
 2299SOL    HW2 7797   5.280   3.083   4.959
 2300SOL     OW 7798   4.424   6.401   3.014
 2300SOL    HW1 7799   4.356   6.345   3.063
 2300SOL    HW2 7800   4.420   6.379   2.917
 2301SOL     OW 7801   3.522   3.260   4.520
 2301SOL    HW1 7802   3.510   3.302   4.430
 2301SOL    HW2 7803   3.619   3.238   4.534
 2302SOL     OW 7804   4.959   1.751   0.237
 2302SOL    HW1 7805   4.882   1.771   0.176
 2302SOL    HW2 7806   4.925   1.739   0.330
 2303SOL     OW 7807   2.449   1.925   0.611
 2303SOL    HW1 7808   2.511   1.889   0.542
 2303SOL    HW2 7809   2.465   2.023   0.622
 2304SOL     OW 7810   6.570   5.945   2.363
 2304SOL    HW1 7811   6.536   5.893   2.285
 2304SOL    HW2 7812   6.563   6.043   2.344
 2305SOL     OW 7813   1.552   1.162   5.318
 2305SOL    HW1 7814   1.615   1.085   5.324
 2305SOL    HW2 7815   1.595   1.243   5.358
 2306SOL     OW 7816   2.936   4.772   3.464
 2306SOL    HW1 7817   3.022   4.796   3.418
 2306SOL    HW2 7818   2.943   4.796   3.560
 2307SOL     OW 7819   1.008   2.679   5.589
 2307SOL    HW1 7820   1.026   2.701   5.685
 2307SOL    HW2 7821   1.092   2.689   5.536
 2308SOL     OW 7822   2.506   4.466   1.799
 2308SOL    HW1 7823   2.409   4.444   1.811
 2308SOL    HW2 7824   2.559   4.381   1.792
 2309SOL     OW 7825   1.324   6.957   4.069
 2309SOL    HW1 7826   1.309   0.030   4.040
 2309SOL    HW2 7827   1.366   6.957   4.160
 2310SOL     OW 7828   4.555   6.880   1.151
 2310SOL    HW1 7829   4.472   6.917   1.193
 2310SOL    HW2 7830   4.578   6.933   1.070
 2311SOL     OW 7831   2.434   6.244   1.349
 2311SOL    HW1 7832   2.481   6.190   1.420
 2311SOL    HW2 7833   2.479   6.228   1.261
 2312SOL     OW 7834   3.632   5.530   2.521
 2312SOL    HW1 7835   3.711   5.518   2.460
 2312SOL    HW2 7836   3.612   5.443   2.567
 2313SOL     OW 7837   5.383   4.755   2.082
 2313SOL    HW1 7838   5.315   4.712   2.141
 2313SOL    HW2 7839   5.336   4.812   2.014
 2314SOL     OW 7840   3.025   6.082   3.668
 2314SOL    HW1 7841   3.051   6.042   3.580
 2314SOL    HW2 7842   3.096   6.146   3.698
 2315SOL     OW 7843   4.365   3.377   6.254
 2315SOL    HW1 7844   4.444   3.375   6.316
 2315SOL    HW2 7845   4.382   3.318   6.176
 2316SOL     OW 7846   5.600   2.921   3.164
 2316SOL    HW1 7847   5.555   2.888   3.082
 2316SOL    HW2 7848   5.532   2.959   3.227
 2317SOL     OW 7849   1.911   4.609   3.225
 2317SOL    HW1 7850   1.853   4.559   3.290
 2317SOL    HW2 7851   1.961   4.543   3.168
 2318SOL     OW 7852   0.055   0.821   3.690
 2318SOL    HW1 7853   0.046   0.725   3.663
 2318SOL    HW2 7854   0.030   0.831   3.786
 2319SOL     OW 7855   1.420   4.634   4.514
 2319SOL    HW1 7856   1.342   4.578   4.485
 2319SOL    HW2 7857   1.403   4.729   4.488
 2320SOL     OW 7858   0.018   3.012   3.815
 2320SOL    HW1 7859   0.030   2.932   3.756
 2320SOL    HW2 7860   0.027   2.985   3.911
 2321SOL     OW 7861   2.871   0.007   5.345
 2321SOL    HW1 7862   2.831   0.092   5.309
 2321SOL    HW2 7863   2.804   6.955   5.339
 2322SOL     OW 7864   1.064   0.575   5.059
 2322SOL    HW1 7865   1.092   0.587   5.154
 2322SOL    HW2 7866   1.070   0.479   5.033
 2323SOL     OW 7867   4.345   5.861   2.079
 2323SOL    HW1 7868   4.281   5.934   2.105
 2323SOL    HW2 7869   4.411   5.897   2.012
 2324SOL     OW 7870   0.312   5.400   2.903
 2324SOL    HW1 7871   0.389   5.337   2.909
 2324SOL    HW2 7872   0.226   5.348   2.905
 2325SOL     OW 7873   1.036   3.635   0.885
 2325SOL    HW1 7874   1.067   3.696   0.812
 2325SOL    HW2 7875   0.987   3.689   0.954
 2326SOL     OW 7876   0.934   5.191   0.050
 2326SOL    HW1 7877   0.965   5.099   0.025
 2326SOL    HW2 7878   0.996   5.259   0.011
 2327SOL     OW 7879   5.080   2.830   3.818
 2327SOL    HW1 7880   5.060   2.732   3.824
 2327SOL    HW2 7881   5.158   2.844   3.756
 2328SOL     OW 7882   4.171   1.075   2.979
 2328SOL    HW1 7883   4.088   1.026   2.953
 2328SOL    HW2 7884   4.239   1.069   2.906
 2329SOL     OW 7885   1.186   5.781   3.868
 2329SOL    HW1 7886   1.260   5.722   3.902
 2329SOL    HW2 7887   1.193   5.870   3.912
 2330SOL     OW 7888   0.993   4.368   2.903
 2330SOL    HW1 7889   1.030   4.279   2.930
 2330SOL    HW2 7890   1.063   4.419   2.852
 2331SOL     OW 7891   0.549   4.518   5.361
 2331SOL    HW1 7892   0.647   4.531   5.348
 2331SOL    HW2 7893   0.514   4.588   5.424
 2332SOL     OW 7894   5.224   2.628   6.105
 2332SOL    HW1 7895   5.311   2.675   6.120
 2332SOL    HW2 7896   5.239   2.549   6.046
 2333SOL     OW 7897   1.086   5.545   3.485
 2333SOL    HW1 7898   1.086   5.499   3.396
 2333SOL    HW2 7899   0.992   5.549   3.520
 2334SOL     OW 7900   3.255   6.891   6.889
 2334SOL    HW1 7901   3.292   6.907   6.980
 2334SOL    HW2 7902   3.180   6.825   6.894
 2335SOL     OW 7903   4.979   6.969   3.481
 2335SOL    HW1 7904   4.945   6.875   3.476
 2335SOL    HW2 7905   5.018   6.994   3.393
 2336SOL     OW 7906   4.948   1.237   6.024
 2336SOL    HW1 7907   4.917   1.198   5.937
 2336SOL    HW2 7908   5.005   1.317   6.006
 2337SOL     OW 7909   5.377   6.970   2.870
 2337SOL    HW1 7910   5.326   6.996   2.952
 2337SOL    HW2 7911   5.401   6.873   2.875
 2338SOL     OW 7912   0.782   6.752   6.475
 2338SOL    HW1 7913   0.849   6.704   6.418
 2338SOL    HW2 7914   0.781   6.849   6.451
 2339SOL     OW 7915   3.450   4.469   6.897
 2339SOL    HW1 7916   3.519   4.434   6.833
 2339SOL    HW2 7917   3.361   4.468   6.852
 2340SOL     OW 7918   3.835   5.622   5.008
 2340SOL    HW1 7919   3.819   5.526   5.028
 2340SOL    HW2 7920   3.917   5.631   4.952
 2341SOL     OW 7921   5.353   5.384   1.203
 2341SOL    HW1 7922   5.435   5.432   1.235
 2341SOL    HW2 7923   5.302   5.443   1.140
 2342SOL     OW 7924   6.381   0.375   5.180
 2342SOL    HW1 7925   6.384   0.454   5.242
 2342SOL    HW2 7926   6.374   0.291   5.234
 2343SOL     OW 7927   1.394   5.928   1.044
 2343SOL    HW1 7928   1.444   5.951   0.961
 2343SOL    HW2 7929   1.412   5.996   1.115
 2344SOL     OW 7930   1.850   1.961   2.156
 2344SOL    HW1 7931   1.759   1.921   2.168
 2344SOL    HW2 7932   1.845   2.060   2.167
 2345SOL     OW 7933   2.070   0.839   4.575
 2345SOL    HW1 7934   2.006   0.835   4.652
 2345SOL    HW2 7935   2.020   0.829   4.490
 2346SOL     OW 7936   5.179   3.839   5.787
 2346SOL    HW1 7937   5.220   3.887   5.865
 2346SOL    HW2 7938   5.122   3.903   5.735
 2347SOL     OW 7939   1.275   2.596   1.763
 2347SOL    HW1 7940   1.316   2.505   1.775
 2347SOL    HW2 7941   1.218   2.617   1.843
 2348SOL     OW 7942   2.591   6.549   2.247
 2348SOL    HW1 7943   2.638   6.587   2.326
 2348SOL    HW2 7944   2.544   6.623   2.198
 2349SOL     OW 7945   6.113   6.710   5.635
 2349SOL    HW1 7946   6.173   6.758   5.699
 2349SOL    HW2 7947   6.165   6.681   5.555
 2350SOL     OW 7948   2.684   0.400   5.690
 2350SOL    HW1 7949   2.598   0.355   5.665
 2350SOL    HW2 7950   2.752   0.330   5.713
 2351SOL     OW 7951   2.313   5.364   4.132
 2351SOL    HW1 7952   2.306   5.341   4.229
 2351SOL    HW2 7953   2.409   5.370   4.106
 2352SOL     OW 7954   0.849   4.016   2.887
 2352SOL    HW1 7955   0.832   3.928   2.933
 2352SOL    HW2 7956   0.944   4.043   2.902
 2353SOL     OW 7957   2.992   4.459   5.591
 2353SOL    HW1 7958   2.902   4.427   5.620
 2353SOL    HW2 7959   3.012   4.424   5.499
 2354SOL     OW 7960   3.087   2.236   0.544
 2354SOL    HW1 7961   3.185   2.250   0.537
 2354SOL    HW2 7962   3.039   2.295   0.479
 2355SOL     OW 7963   0.581   6.484   0.767
 2355SOL    HW1 7964   0.614   6.429   0.690
 2355SOL    HW2 7965   0.494   6.448   0.799
 2356SOL     OW 7966   2.988   5.242   3.246
 2356SOL    HW1 7967   3.077   5.272   3.213
 2356SOL    HW2 7968   2.937   5.320   3.283
 2357SOL     OW 7969   6.599   4.331   2.030
 2357SOL    HW1 7970   6.547   4.395   1.973
 2357SOL    HW2 7971   6.655   4.272   1.971
 2358SOL     OW 7972   3.789   1.390   5.677
 2358SOL    HW1 7973   3.835   1.405   5.590
 2358SOL    HW2 7974   3.780   1.292   5.694
 2359SOL     OW 7975   1.684   1.558   5.189
 2359SOL    HW1 7976   1.619   1.516   5.125
 2359SOL    HW2 7977   1.744   1.621   5.139
 2360SOL     OW 7978   4.201   4.448   0.846
 2360SOL    HW1 7979   4.271   4.460   0.916
 2360SOL    HW2 7980   4.205   4.355   0.810
 2361SOL     OW 7981   2.959   6.636   1.948
 2361SOL    HW1 7982   2.925   6.670   2.036
 2361SOL    HW2 7983   2.961   6.711   1.882
 2362SOL     OW 7984   4.061   5.651   4.305
 2362SOL    HW1 7985   4.065   5.744   4.343
 2362SOL    HW2 7986   4.087   5.586   4.376
 2363SOL     OW 7987   3.255   3.340   0.710
 2363SOL    HW1 7988   3.262   3.316   0.613
 2363SOL    HW2 7989   3.226   3.259   0.762
 2364SOL     OW 7990   3.986   1.770   2.196
 2364SOL    HW1 7991   3.982   1.822   2.111
 2364SOL    HW2 7992   4.052   1.695   2.186
 2365SOL     OW 7993   5.951   3.392   4.323
 2365SOL    HW1 7994   5.989   3.347   4.403
 2365SOL    HW2 7995   6.019   3.396   4.250
 2366SOL     OW 7996   2.523   4.158   5.334
 2366SOL    HW1 7997   2.587   4.122   5.403
 2366SOL    HW2 7998   2.482   4.083   5.284
 2367SOL     OW 7999   0.799   4.137   6.283
 2367SOL    HW1 8000   0.860   4.059   6.270
 2367SOL    HW2 8001   0.704   4.107   6.275
 2368SOL     OW 8002   5.595   0.106   4.589
 2368SOL    HW1 8003   5.649   0.135   4.510
 2368SOL    HW2 8004   5.505   0.074   4.559
 2369SOL     OW 8005   3.050   1.090   3.505
 2369SOL    HW1 8006   2.991   1.022   3.549
 2369SOL    HW2 8007   3.042   1.176   3.554
 2370SOL     OW 8008   5.526   2.656   1.270
 2370SOL    HW1 8009   5.530   2.640   1.171
 2370SOL    HW2 8010   5.553   2.750   1.289
 2371SOL     OW 8011   0.749   6.839   2.802
 2371SOL    HW1 8012   0.727   6.779   2.725
 2371SOL    HW2 8013   0.815   6.908   2.773
 2372SOL     OW 8014   6.741   1.540   5.898
 2372SOL    HW1 8015   6.643   1.541   5.879
 2372SOL    HW2 8016   6.768   1.448   5.926
 2373SOL     OW 8017   6.348   6.620   6.276
 2373SOL    HW1 8018   6.398   6.569   6.206
 2373SOL    HW2 8019   6.372   6.585   6.366
 2374SOL     OW 8020   6.479   5.892   2.743
 2374SOL    HW1 8021   6.568   5.847   2.740
 2374SOL    HW2 8022   6.492   5.991   2.752
 2375SOL     OW 8023   1.250   0.860   4.137
 2375SOL    HW1 8024   1.178   0.815   4.084
 2375SOL    HW2 8025   1.225   0.860   4.234
 2376SOL     OW 8026   5.881   2.038   2.694
 2376SOL    HW1 8027   5.980   2.037   2.709
 2376SOL    HW2 8028   5.860   1.989   2.609
 2377SOL     OW 8029   4.566   4.900   6.008
 2377SOL    HW1 8030   4.646   4.847   6.037
 2377SOL    HW2 8031   4.535   4.957   6.084
 2378SOL     OW 8032   6.790   1.198   0.589
 2378SOL    HW1 8033   6.810   1.265   0.660
 2378SOL    HW2 8034   6.853   1.211   0.512
 2379SOL     OW 8035   6.866   5.468   0.677
 2379SOL    HW1 8036   6.789   5.484   0.615
 2379SOL    HW2 8037   6.892   5.371   0.672
 2380SOL     OW 8038   4.922   4.447   4.826
 2380SOL    HW1 8039   4.933   4.425   4.729
 2380SOL    HW2 8040   4.941   4.543   4.842
 2381SOL     OW 8041   2.839   5.355   5.289
 2381SOL    HW1 8042   2.739   5.352   5.282
 2381SOL    HW2 8043   2.879   5.291   5.224
 2382SOL     OW 8044   1.442   6.269   2.316
 2382SOL    HW1 8045   1.421   6.216   2.234
 2382SOL    HW2 8046   1.533   6.309   2.307
 2383SOL     OW 8047   5.111   5.690   4.963
 2383SOL    HW1 8048   5.079   5.732   5.048
 2383SOL    HW2 8049   5.211   5.682   4.966
 2384SOL     OW 8050   0.920   1.597   1.595
 2384SOL    HW1 8051   0.915   1.559   1.687
 2384SOL    HW2 8052   0.902   1.695   1.599
 2385SOL     OW 8053   0.356   2.259   0.375
 2385SOL    HW1 8054   0.417   2.181   0.392
 2385SOL    HW2 8055   0.331   2.301   0.461
 2386SOL     OW 8056   4.212   5.539   4.088
 2386SOL    HW1 8057   4.305   5.577   4.077
 2386SOL    HW2 8058   4.170   5.578   4.169
 2387SOL     OW 8059   1.064   1.723   3.192
 2387SOL    HW1 8060   1.043   1.750   3.098
 2387SOL    HW2 8061   1.161   1.700   3.200
 2388SOL     OW 8062   6.591   2.321   6.209
 2388SOL    HW1 8063   6.528   2.370   6.269
 2388SOL    HW2 8064   6.551   2.234   6.181
 2389SOL     OW 8065   5.034   4.999   3.837
 2389SOL    HW1 8066   4.948   5.022   3.884
 2389SOL    HW2 8067   5.048   4.900   3.840
 2390SOL     OW 8068   4.745   4.113   6.165
 2390SOL    HW1 8069   4.766   4.039   6.102
 2390SOL    HW2 8070   4.751   4.081   6.259
 2391SOL     OW 8071   3.346   3.348   5.842
 2391SOL    HW1 8072   3.308   3.387   5.926
 2391SOL    HW2 8073   3.445   3.359   5.842
 2392SOL     OW 8074   3.546   5.552   5.001
 2392SOL    HW1 8075   3.624   5.595   4.955
 2392SOL    HW2 8076   3.568   5.456   5.019
 2393SOL     OW 8077   3.701   5.156   0.737
 2393SOL    HW1 8078   3.787   5.118   0.703
 2393SOL    HW2 8079   3.717   5.200   0.826
 2394SOL     OW 8080   0.430   3.453   3.400
 2394SOL    HW1 8081   0.342   3.492   3.371
 2394SOL    HW2 8082   0.448   3.478   3.495
 2395SOL     OW 8083   0.421   3.075   6.007
 2395SOL    HW1 8084   0.479   3.105   6.082
 2395SOL    HW2 8085   0.426   2.975   5.998
 2396SOL     OW 8086   5.751   1.389   5.513
 2396SOL    HW1 8087   5.768   1.293   5.494
 2396SOL    HW2 8088   5.795   1.445   5.442
 2397SOL     OW 8089   0.737   4.858   5.410
 2397SOL    HW1 8090   0.817   4.867   5.350
 2397SOL    HW2 8091   0.768   4.832   5.502
 2398SOL     OW 8092   2.941   5.364   4.190
 2398SOL    HW1 8093   2.981   5.370   4.099
 2398SOL    HW2 8094   3.001   5.409   4.256
 2399SOL     OW 8095   2.771   2.335   3.492
 2399SOL    HW1 8096   2.840   2.265   3.511
 2399SOL    HW2 8097   2.754   2.387   3.576
 2400SOL     OW 8098   1.236   3.889   0.145
 2400SOL    HW1 8099   1.249   3.878   0.047
 2400SOL    HW2 8100   1.185   3.973   0.163
 2401SOL     OW 8101   3.957   6.809   5.180
 2401SOL    HW1 8102   3.945   6.908   5.194
 2401SOL    HW2 8103   4.045   6.792   5.137
 2402SOL     OW 8104   0.930   2.077   1.958
 2402SOL    HW1 8105   0.852   2.032   1.915
 2402SOL    HW2 8106   1.013   2.058   1.906
 2403SOL     OW 8107   3.424   3.630   2.545
 2403SOL    HW1 8108   3.364   3.709   2.540
 2403SOL    HW2 8109   3.371   3.546   2.531
 2404SOL     OW 8110   6.831   1.030   0.902
 2404SOL    HW1 8111   6.782   1.115   0.885
 2404SOL    HW2 8112   6.776   0.953   0.868
 2405SOL     OW 8113   2.688   4.215   0.441
 2405SOL    HW1 8114   2.653   4.304   0.413
 2405SOL    HW2 8115   2.788   4.214   0.433
 2406SOL     OW 8116   1.937   0.273   4.647
 2406SOL    HW1 8117   2.012   0.310   4.700
 2406SOL    HW2 8118   1.968   0.191   4.599
 2407SOL     OW 8119   3.747   1.511   3.322
 2407SOL    HW1 8120   3.682   1.460   3.378
 2407SOL    HW2 8121   3.707   1.598   3.294
 2408SOL     OW 8122   2.220   6.589   4.048
 2408SOL    HW1 8123   2.273   6.599   3.964
 2408SOL    HW2 8124   2.186   6.679   4.076
 2409SOL     OW 8125   2.333   2.456   0.783
 2409SOL    HW1 8126   2.344   2.553   0.804
 2409SOL    HW2 8127   2.312   2.445   0.686
 2410SOL     OW 8128   6.664   3.228   5.849
 2410SOL    HW1 8129   6.573   3.196   5.821
 2410SOL    HW2 8130   6.713   3.261   5.769
 2411SOL     OW 8131   2.736   3.399   6.992
 2411SOL    HW1 8132   2.709   3.303   6.992
 2411SOL    HW2 8133   2.829   3.408   6.956
 2412SOL     OW 8134   2.495   2.113   6.714
 2412SOL    HW1 8135   2.560   2.051   6.758
 2412SOL    HW2 8136   2.545   2.178   6.656
 2413SOL     OW 8137   0.081   2.659   6.457
 2413SOL    HW1 8138   0.021   2.620   6.526
 2413SOL    HW2 8139   0.172   2.674   6.496
 2414SOL     OW 8140   6.232   2.511   4.214
 2414SOL    HW1 8141   6.294   2.528   4.291
 2414SOL    HW2 8142   6.171   2.435   4.237
 2415SOL     OW 8143   2.841   6.134   1.280
 2415SOL    HW1 8144   2.886   6.194   1.347
 2415SOL    HW2 8145   2.811   6.189   1.202
 2416SOL     OW 8146   6.789   3.346   2.977
 2416SOL    HW1 8147   6.825   3.260   2.943
 2416SOL    HW2 8148   6.691   3.338   2.994
 2417SOL     OW 8149   3.669   2.605   0.515
 2417SOL    HW1 8150   3.624   2.587   0.428
 2417SOL    HW2 8151   3.709   2.520   0.550
 2418SOL     OW 8152   5.059   4.309   5.887
 2418SOL    HW1 8153   4.987   4.291   5.954
 2418SOL    HW2 8154   5.027   4.281   5.796
 2419SOL     OW 8155   1.965   6.324   4.363
 2419SOL    HW1 8156   1.867   6.305   4.365
 2419SOL    HW2 8157   2.010   6.275   4.438
 2420SOL     OW 8158   3.559   5.322   2.680
 2420SOL    HW1 8159   3.573   5.233   2.722
 2420SOL    HW2 8160   3.465   5.352   2.697
 2421SOL     OW 8161   3.220   7.006   4.637
 2421SOL    HW1 8162   3.223   6.908   4.658
 2421SOL    HW2 8163   3.134   0.006   4.590
 2422SOL     OW 8164   3.944   6.643   2.313
 2422SOL    HW1 8165   4.014   6.581   2.349
 2422SOL    HW2 8166   3.860   6.634   2.367
 2423SOL     OW 8167   1.713   5.405   2.330
 2423SOL    HW1 8168   1.698   5.393   2.232
 2423SOL    HW2 8169   1.801   5.364   2.356
 2424SOL     OW 8170   5.173   0.863   6.769
 2424SOL    HW1 8171   5.240   0.875   6.696
 2424SOL    HW2 8172   5.220   0.867   6.857
 2425SOL     OW 8173   4.527   5.495   5.736
 2425SOL    HW1 8174   4.513   5.442   5.652
 2425SOL    HW2 8175   4.541   5.592   5.712
 2426SOL     OW 8176   0.973   5.126   5.499
 2426SOL    HW1 8177   0.944   5.127   5.595
 2426SOL    HW2 8178   1.069   5.154   5.494
 2427SOL     OW 8179   5.478   0.358   6.444
 2427SOL    HW1 8180   5.493   0.264   6.475
 2427SOL    HW2 8181   5.415   0.359   6.367
 2428SOL     OW 8182   0.122   1.360   3.796
 2428SOL    HW1 8183   0.192   1.296   3.829
 2428SOL    HW2 8184   0.031   1.325   3.819
 2429SOL     OW 8185   5.731   5.272   1.988
 2429SOL    HW1 8186   5.706   5.285   1.892
 2429SOL    HW2 8187   5.653   5.293   2.046
 2430SOL     OW 8188   5.999   2.857   0.343
 2430SOL    HW1 8189   6.083   2.889   0.299
 2430SOL    HW2 8190   6.007   2.760   0.363
 2431SOL     OW 8191   6.221   2.169   1.820
 2431SOL    HW1 8192   6.316   2.155   1.845
 2431SOL    HW2 8193   6.185   2.086   1.777
 2432SOL     OW 8194   3.611   5.595   2.214
 2432SOL    HW1 8195   3.555   5.560   2.140
 2432SOL    HW2 8196   3.615   5.695   2.209
 2433SOL     OW 8197   6.674   5.753   0.237
 2433SOL    HW1 8198   6.687   5.664   0.193
 2433SOL    HW2 8199   6.601   5.803   0.189
 2434SOL     OW 8200   3.916   2.110   2.827
 2434SOL    HW1 8201   3.997   2.115   2.768
 2434SOL    HW2 8202   3.834   2.098   2.770
 2435SOL     OW 8203   5.759   0.361   6.481
 2435SOL    HW1 8204   5.664   0.386   6.500
 2435SOL    HW2 8205   5.761   0.283   6.419
 2436SOL     OW 8206   0.843   1.288   1.161
 2436SOL    HW1 8207   0.886   1.371   1.125
 2436SOL    HW2 8208   0.850   1.288   1.261
 2437SOL     OW 8209   6.678   5.963   2.021
 2437SOL    HW1 8210   6.639   6.050   1.991
 2437SOL    HW2 8211   6.743   5.978   2.095
 2438SOL     OW 8212   3.045   1.826   4.379
 2438SOL    HW1 8213   2.954   1.803   4.345
 2438SOL    HW2 8214   3.046   1.922   4.407
 2439SOL     OW 8215   0.317   4.849   6.663
 2439SOL    HW1 8216   0.324   4.759   6.706
 2439SOL    HW2 8217   0.222   4.867   6.638
 2440SOL     OW 8218   4.168   1.220   4.709
 2440SOL    HW1 8219   4.195   1.130   4.744
 2440SOL    HW2 8220   4.081   1.247   4.750
 2441SOL     OW 8221   6.064   6.936   6.817
 2441SOL    HW1 8222   6.135   7.005   6.799
 2441SOL    HW2 8223   5.989   6.948   6.752
 2442SOL     OW 8224   4.860   3.486   2.043
 2442SOL    HW1 8225   4.846   3.426   1.964
 2442SOL    HW2 8226   4.842   3.581   2.018
 2443SOL     OW 8227   2.310   0.991   7.002
 2443SOL    HW1 8228   2.380   1.016   6.934
 2443SOL    HW2 8229   2.269   1.075   0.017
 2444SOL     OW 8230   3.803   5.524   0.474
 2444SOL    HW1 8231   3.735   5.463   0.515
 2444SOL    HW2 8232   3.862   5.561   0.546
 2445SOL     OW 8233   0.177   2.098   1.283
 2445SOL    HW1 8234   0.132   2.028   1.339
 2445SOL    HW2 8235   0.209   2.171   1.342
 2446SOL     OW 8236   1.219   3.542   2.317
 2446SOL    HW1 8237   1.124   3.516   2.300
 2446SOL    HW2 8238   1.251   3.601   2.242
 2447SOL     OW 8239   2.051   0.666   0.543
 2447SOL    HW1 8240   2.125   0.677   0.476
 2447SOL    HW2 8241   1.999   0.583   0.522
 2448SOL     OW 8242   6.008   2.119   4.193
 2448SOL    HW1 8243   6.090   2.170   4.220
 2448SOL    HW2 8244   6.032   2.053   4.122
 2449SOL     OW 8245   2.200   4.506   1.858
 2449SOL    HW1 8246   2.117   4.452   1.842
 2449SOL    HW2 8247   2.210   4.573   1.785
 2450SOL     OW 8248   2.379   5.923   6.130
 2450SOL    HW1 8249   2.469   5.965   6.128
 2450SOL    HW2 8250   2.389   5.823   6.126
 2451SOL     OW 8251   0.852   0.458   4.009
 2451SOL    HW1 8252   0.893   0.382   3.958
 2451SOL    HW2 8253   0.757   0.470   3.980
 2452SOL     OW 8254   2.339   2.569   3.699
 2452SOL    HW1 8255   2.383   2.485   3.732
 2452SOL    HW2 8256   2.240   2.561   3.710
 2453SOL     OW 8257   6.996   2.234   0.606
 2453SOL    HW1 8258   0.006   2.211   0.514
 2453SOL    HW2 8259   6.998   2.152   0.663
 2454SOL     OW 8260   3.317   5.516   0.646
 2454SOL    HW1 8261   3.363   5.601   0.619
 2454SOL    HW2 8262   3.385   5.450   0.678
 2455SOL     OW 8263   3.356   1.223   6.974
 2455SOL    HW1 8264   3.258   1.202   6.976
 2455SOL    HW2 8265   3.400   1.173   6.899
 2456SOL     OW 8266   1.102   4.092   6.559
 2456SOL    HW1 8267   1.045   4.168   6.527
 2456SOL    HW2 8268   1.151   4.119   6.641
 2457SOL     OW 8269   5.341   1.482   5.697
 2457SOL    HW1 8270   5.378   1.502   5.788
 2457SOL    HW2 8271   5.256   1.533   5.684
 2458SOL     OW 8272   0.778   0.646   3.085
 2458SOL    HW1 8273   0.682   0.663   3.107
 2458SOL    HW2 8274   0.836   0.716   3.126
 2459SOL     OW 8275   3.109   5.600   6.860
 2459SOL    HW1 8276   3.160   5.514   6.855
 2459SOL    HW2 8277   3.169   5.672   6.893
 2460SOL     OW 8278   0.666   1.167   6.850
 2460SOL    HW1 8279   0.763   1.148   6.833
 2460SOL    HW2 8280   0.651   1.266   6.847
 2461SOL     OW 8281   4.304   0.245   4.563
 2461SOL    HW1 8282   4.255   0.162   4.589
 2461SOL    HW2 8283   4.257   0.325   4.601
 2462SOL     OW 8284   0.747   4.817   0.507
 2462SOL    HW1 8285   0.725   4.755   0.583
 2462SOL    HW2 8286   0.846   4.825   0.499
 2463SOL     OW 8287   6.785   1.388   0.057
 2463SOL    HW1 8288   6.716   1.378   0.129
 2463SOL    HW2 8289   6.834   1.475   0.069
 2464SOL     OW 8290   0.628   2.993   2.919
 2464SOL    HW1 8291   0.669   3.057   2.984
 2464SOL    HW2 8292   0.664   3.011   2.827
 2465SOL     OW 8293   6.710   5.462   6.469
 2465SOL    HW1 8294   6.629   5.406   6.451
 2465SOL    HW2 8295   6.735   5.512   6.386
 2466SOL     OW 8296   1.598   1.812   1.897
 2466SOL    HW1 8297   1.592   1.712   1.901
 2466SOL    HW2 8298   1.568   1.851   1.984
 2467SOL     OW 8299   4.397   1.807   6.114
 2467SOL    HW1 8300   4.453   1.772   6.189
 2467SOL    HW2 8301   4.312   1.755   6.108
 2468SOL     OW 8302   3.816   0.410   6.649
 2468SOL    HW1 8303   3.793   0.455   6.735
 2468SOL    HW2 8304   3.824   0.311   6.664
 2469SOL     OW 8305   4.441   2.948   6.076
 2469SOL    HW1 8306   4.352   2.905   6.063
 2469SOL    HW2 8307   4.481   2.918   6.162
 2470SOL     OW 8308   4.017   4.393   6.047
 2470SOL    HW1 8309   3.960   4.453   5.992
 2470SOL    HW2 8310   3.959   4.330   6.099
 2471SOL     OW 8311   3.888   6.933   0.745
 2471SOL    HW1 8312   3.940   7.003   0.793
 2471SOL    HW2 8313   3.896   6.846   0.793
 2472SOL     OW 8314   4.661   2.613   4.095
 2472SOL    HW1 8315   4.706   2.648   4.012
 2472SOL    HW2 8316   4.583   2.556   4.069
 2473SOL     OW 8317   1.312   4.289   4.720
 2473SOL    HW1 8318   1.370   4.213   4.691
 2473SOL    HW2 8319   1.328   4.308   4.817
 2474SOL     OW 8320   1.246   5.581   0.494
 2474SOL    HW1 8321   1.216   5.504   0.551
 2474SOL    HW2 8322   1.333   5.559   0.451
 2475SOL     OW 8323   4.309   0.757   0.738
 2475SOL    HW1 8324   4.292   0.834   0.799
 2475SOL    HW2 8325   4.239   0.754   0.667
 2476SOL     OW 8326   5.395   0.381   2.730
 2476SOL    HW1 8327   5.384   0.377   2.829
 2476SOL    HW2 8328   5.401   0.477   2.701
 2477SOL     OW 8329   3.994   0.576   3.480
 2477SOL    HW1 8330   4.042   0.663   3.490
 2477SOL    HW2 8331   4.033   0.509   3.543
 2478SOL     OW 8332   4.421   0.946   2.534
 2478SOL    HW1 8333   4.476   0.867   2.507
 2478SOL    HW2 8334   4.393   0.997   2.453
 2479SOL     OW 8335   0.946   2.672   1.312
 2479SOL    HW1 8336   0.943   2.716   1.222
 2479SOL    HW2 8337   0.902   2.582   1.307
 2480SOL     OW 8338   3.914   2.828   1.293
 2480SOL    HW1 8339   3.912   2.741   1.342
 2480SOL    HW2 8340   3.875   2.815   1.201
 2481SOL     OW 8341   2.616   0.420   1.293
 2481SOL    HW1 8342   2.683   0.398   1.222
 2481SOL    HW2 8343   2.541   0.354   1.290
 2482SOL     OW 8344   5.228   3.375   0.151
 2482SOL    HW1 8345   5.317   3.402   0.113
 2482SOL    HW2 8346   5.191   3.299   0.097
 2483SOL     OW 8347   1.305   1.953   0.192
 2483SOL    HW1 8348   1.224   1.894   0.190
 2483SOL    HW2 8349   1.387   1.898   0.179
 2484SOL     OW 8350   3.271   0.611   0.756
 2484SOL    HW1 8351   3.272   0.685   0.689
 2484SOL    HW2 8352   3.247   0.525   0.710
 2485SOL     OW 8353   4.948   3.020   0.447
 2485SOL    HW1 8354   4.912   3.098   0.498
 2485SOL    HW2 8355   5.022   3.050   0.387
 2486SOL     OW 8356   0.628   5.555   5.729
 2486SOL    HW1 8357   0.584   5.485   5.672
 2486SOL    HW2 8358   0.645   5.519   5.820
 2487SOL     OW 8359   3.635   6.059   0.450
 2487SOL    HW1 8360   3.699   6.120   0.404
 2487SOL    HW2 8361   3.684   5.979   0.485
 2488SOL     OW 8362   0.392   3.264   1.763
 2488SOL    HW1 8363   0.474   3.207   1.768
 2488SOL    HW2 8364   0.324   3.231   1.829
 2489SOL     OW 8365   0.835   5.780   3.473
 2489SOL    HW1 8366   0.805   5.685   3.462
 2489SOL    HW2 8367   0.889   5.807   3.393
 2490SOL     OW 8368   0.529   6.070   1.333
 2490SOL    HW1 8369   0.627   6.085   1.347
 2490SOL    HW2 8370   0.494   6.134   1.265
 2491SOL     OW 8371   3.924   4.496   1.102
 2491SOL    HW1 8372   3.874   4.578   1.073
 2491SOL    HW2 8373   3.950   4.443   1.022
 2492SOL     OW 8374   4.434   3.508   1.249
 2492SOL    HW1 8375   4.389   3.547   1.330
 2492SOL    HW2 8376   4.365   3.480   1.183
 2493SOL     OW 8377   6.704   0.159   1.389
 2493SOL    HW1 8378   6.772   0.209   1.443
 2493SOL    HW2 8379   6.618   0.153   1.441
 2494SOL     OW 8380   6.133   3.937   2.186
 2494SOL    HW1 8381   6.118   3.983   2.273
 2494SOL    HW2 8382   6.176   3.848   2.203
 2495SOL     OW 8383   5.792   5.786   3.531
 2495SOL    HW1 8384   5.835   5.696   3.517
 2495SOL    HW2 8385   5.739   5.811   3.450
 2496SOL     OW 8386   0.632   3.303   6.875
 2496SOL    HW1 8387   0.715   3.358   6.887
 2496SOL    HW2 8388   0.596   3.316   6.783
 2497SOL     OW 8389   0.331   6.934   1.234
 2497SOL    HW1 8390   0.365   6.845   1.262
 2497SOL    HW2 8391   0.390   7.006   1.271
 2498SOL     OW 8392   3.630   2.177   5.787
 2498SOL    HW1 8393   3.676   2.242   5.726
 2498SOL    HW2 8394   3.566   2.121   5.734
 2499SOL     OW 8395   5.816   3.474   2.314
 2499SOL    HW1 8396   5.842   3.566   2.286
 2499SOL    HW2 8397   5.829   3.465   2.413
 2500SOL     OW 8398   3.908   3.766   6.158
 2500SOL    HW1 8399   3.961   3.796   6.237
 2500SOL    HW2 8400   3.878   3.845   6.105
 2501SOL     OW 8401   5.215   5.749   0.041
 2501SOL    HW1 8402   5.238   5.732   0.136
 2501SOL    HW2 8403   5.222   5.664   7.010
 2502SOL     OW 8404   2.054   0.593   4.980
 2502SOL    HW1 8405   1.982   0.661   4.961
 2502SOL    HW2 8406   2.111   0.625   5.055
 2503SOL     OW 8407   3.136   6.748   4.950
 2503SOL    HW1 8408   3.059   6.732   4.889
 2503SOL    HW2 8409   3.183   6.661   4.967
 2504SOL     OW 8410   3.647   5.901   3.215
 2504SOL    HW1 8411   3.679   5.927   3.124
 2504SOL    HW2 8412   3.668   5.974   3.280
 2505SOL     OW 8413   0.368   6.129   2.697
 2505SOL    HW1 8414   0.465   6.125   2.672
 2505SOL    HW2 8415   0.314   6.078   2.630
 2506SOL     OW 8416   6.727   2.941   6.305
 2506SOL    HW1 8417   6.781   3.017   6.342
 2506SOL    HW2 8418   6.645   2.928   6.361
 2507SOL     OW 8419   6.889   3.634   0.251
 2507SOL    HW1 8420   6.923   3.723   0.220
 2507SOL    HW2 8421   6.937   3.562   0.201
 2508SOL     OW 8422   2.750   1.542   3.722
 2508SOL    HW1 8423   2.842   1.580   3.712
 2508SOL    HW2 8424   2.690   1.580   3.652
 2509SOL     OW 8425   0.003   4.809   1.308
 2509SOL    HW1 8426   0.066   4.847   1.375
 2509SOL    HW2 8427   6.931   4.812   1.345
 2510SOL     OW 8428   3.007   4.886   1.094
 2510SOL    HW1 8429   3.037   4.826   1.020
 2510SOL    HW2 8430   3.014   4.838   1.181
 2511SOL     OW 8431   2.637   1.309   3.833
 2511SOL    HW1 8432   2.572   1.337   3.904
 2511SOL    HW2 8433   2.663   1.388   3.778
 2512SOL     OW 8434   4.275   3.986   5.597
 2512SOL    HW1 8435   4.237   3.939   5.677
 2512SOL    HW2 8436   4.201   4.021   5.540
 2513SOL     OW 8437   1.611   5.584   4.512
 2513SOL    HW1 8438   1.685   5.640   4.549
 2513SOL    HW2 8439   1.650   5.507   4.461
 2514SOL     OW 8440   0.617   4.091   4.464
 2514SOL    HW1 8441   0.712   4.059   4.456
 2514SOL    HW2 8442   0.557   4.031   4.411
 2515SOL     OW 8443   1.819   6.349   0.640
 2515SOL    HW1 8444   1.836   6.377   0.546
 2515SOL    HW2 8445   1.727   6.376   0.667
 2516SOL     OW 8446   4.974   1.396   2.253
 2516SOL    HW1 8447   4.965   1.317   2.314
 2516SOL    HW2 8448   4.934   1.476   2.297
 2517SOL     OW 8449   1.013   0.828   6.001
 2517SOL    HW1 8450   1.076   0.778   6.060
 2517SOL    HW2 8451   0.922   0.830   6.043
 2518SOL     OW 8452   1.082   5.643   1.062
 2518SOL    HW1 8453   1.018   5.582   1.015
 2518SOL    HW2 8454   1.128   5.701   0.994
 2519SOL     OW 8455   3.261   0.355   1.731
 2519SOL    HW1 8456   3.235   0.380   1.637
 2519SOL    HW2 8457   3.333   0.416   1.763
 2520SOL     OW 8458   3.238   1.854   0.753
 2520SOL    HW1 8459   3.181   1.912   0.812
 2520SOL    HW2 8460   3.239   1.893   0.661
 2521SOL     OW 8461   3.067   0.957   5.262
 2521SOL    HW1 8462   3.135   0.945   5.189
 2521SOL    HW2 8463   3.053   0.870   5.308
 2522SOL     OW 8464   1.369   1.228   5.521
 2522SOL    HW1 8465   1.413   1.171   5.452
 2522SOL    HW2 8466   1.270   1.228   5.505
 2523SOL     OW 8467   1.173   2.877   0.895
 2523SOL    HW1 8468   1.229   2.831   0.826
 2523SOL    HW2 8469   1.185   2.976   0.886
 2524SOL     OW 8470   6.979   6.588   4.907
 2524SOL    HW1 8471   6.980   6.675   4.857
 2524SOL    HW2 8472   6.940   6.602   4.998
 2525SOL     OW 8473   0.870   2.516   5.041
 2525SOL    HW1 8474   0.959   2.534   5.085
 2525SOL    HW2 8475   0.797   2.558   5.095
 2526SOL     OW 8476   1.615   4.518   6.824
 2526SOL    HW1 8477   1.616   4.567   6.737
 2526SOL    HW2 8478   1.521   4.494   6.848
 2527SOL     OW 8479   5.878   6.821   5.600
 2527SOL    HW1 8480   5.956   6.760   5.589
 2527SOL    HW2 8481   5.880   6.862   5.691
 2528SOL     OW 8482   5.700   4.958   6.384
 2528SOL    HW1 8483   5.729   4.942   6.478
 2528SOL    HW2 8484   5.615   5.010   6.384
 2529SOL     OW 8485   0.003   6.426   6.777
 2529SOL    HW1 8486   6.956   6.406   6.708
 2529SOL    HW2 8487   6.979   6.447   6.864
 2530SOL     OW 8488   2.775   6.187   4.952
 2530SOL    HW1 8489   2.753   6.264   5.012
 2530SOL    HW2 8490   2.875   6.182   4.940
 2531SOL     OW 8491   5.935   6.237   5.083
 2531SOL    HW1 8492   6.013   6.180   5.058
 2531SOL    HW2 8493   5.962   6.300   5.156
 2532SOL     OW 8494   0.186   6.342   0.576
 2532SOL    HW1 8495   0.129   6.387   0.645
 2532SOL    HW2 8496   0.128   6.287   0.515
 2533SOL     OW 8497   4.286   0.106   3.358
 2533SOL    HW1 8498   4.305   0.030   3.296
 2533SOL    HW2 8499   4.332   0.188   3.325
 2534SOL     OW 8500   3.739   1.418   1.625
 2534SOL    HW1 8501   3.742   1.476   1.706
 2534SOL    HW2 8502   3.787   1.332   1.643
 2535SOL     OW 8503   3.675   3.639   6.475
 2535SOL    HW1 8504   3.605   3.573   6.499
 2535SOL    HW2 8505   3.762   3.614   6.518
 2536SOL     OW 8506   1.033   1.495   6.381
 2536SOL    HW1 8507   0.946   1.518   6.426
 2536SOL    HW2 8508   1.039   1.545   6.295
 2537SOL     OW 8509   3.259   0.130   6.273
 2537SOL    HW1 8510   3.208   0.199   6.222
 2537SOL    HW2 8511   3.269   0.048   6.217
 2538SOL     OW 8512   0.067   3.949   3.373
 2538SOL    HW1 8513   0.166   3.942   3.388
 2538SOL    HW2 8514   0.020   3.884   3.433
 2539SOL     OW 8515   5.709   1.049   4.108
 2539SOL    HW1 8516   5.614   1.038   4.078
 2539SOL    HW2 8517   5.713   1.123   4.176
 2540SOL     OW 8518   4.030   2.048   2.583
 2540SOL    HW1 8519   4.088   2.017   2.507
 2540SOL    HW2 8520   3.992   1.968   2.630
 2541SOL     OW 8521   3.383   0.663   4.847
 2541SOL    HW1 8522   3.372   0.762   4.833
 2541SOL    HW2 8523   3.442   0.626   4.775
 2542SOL     OW 8524   3.692   3.330   6.299
 2542SOL    HW1 8525   3.614   3.285   6.343
 2542SOL    HW2 8526   3.685   3.320   6.200
 2543SOL     OW 8527   0.420   0.814   3.660
 2543SOL    HW1 8528   0.347   0.825   3.592
 2543SOL    HW2 8529   0.389   0.851   3.748
 2544SOL     OW 8530   0.663   5.945   0.546
 2544SOL    HW1 8531   0.604   5.987   0.478
 2544SOL    HW2 8532   0.737   6.007   0.570
 2545SOL     OW 8533   1.646   6.825   2.052
 2545SOL    HW1 8534   1.683   6.790   2.138
 2545SOL    HW2 8535   1.714   6.883   2.008
 2546SOL     OW 8536   6.878   1.202   2.005
 2546SOL    HW1 8537   6.779   1.194   2.019
 2546SOL    HW2 8538   6.906   1.148   1.926
 2547SOL     OW 8539   0.647   3.998   6.991
 2547SOL    HW1 8540   0.601   3.911   6.978
 2547SOL    HW2 8541   0.745   3.987   6.976
 2548SOL     OW 8542   1.129   6.641   4.584
 2548SOL    HW1 8543   1.114   6.599   4.674
 2548SOL    HW2 8544   1.146   6.739   4.596
 2549SOL     OW 8545   0.725   0.244   1.133
 2549SOL    HW1 8546   0.633   0.239   1.172
 2549SOL    HW2 8547   0.780   0.167   1.168
 2550SOL     OW 8548   6.771   0.160   0.102
 2550SOL    HW1 8549   6.785   0.072   0.148
 2550SOL    HW2 8550   6.856   0.213   0.106
 2551SOL     OW 8551   3.416   4.685   0.074
 2551SOL    HW1 8552   3.418   4.616   0.001
 2551SOL    HW2 8553   3.356   4.760   0.048
 2552SOL     OW 8554   1.702   5.924   4.409
 2552SOL    HW1 8555   1.618   5.871   4.400
 2552SOL    HW2 8556   1.725   5.967   4.322
 2553SOL     OW 8557   3.830   3.479   5.571
 2553SOL    HW1 8558   3.829   3.486   5.472
 2553SOL    HW2 8559   3.924   3.492   5.604
 2554SOL     OW 8560   2.951   0.469   0.476
 2554SOL    HW1 8561   2.950   0.441   0.379
 2554SOL    HW2 8562   2.862   0.451   0.516
 2555SOL     OW 8563   6.242   1.039   4.989
 2555SOL    HW1 8564   6.246   0.983   4.907
 2555SOL    HW2 8565   6.252   0.981   5.070
 2556SOL     OW 8566   4.340   6.493   0.360
 2556SOL    HW1 8567   4.426   6.457   0.323
 2556SOL    HW2 8568   4.274   6.419   0.372
 2557SOL     OW 8569   1.621   3.952   0.588
 2557SOL    HW1 8570   1.550   3.977   0.522
 2557SOL    HW2 8571   1.598   3.865   0.631
 2558SOL     OW 8572   4.966   1.305   4.742
 2558SOL    HW1 8573   5.023   1.240   4.791
 2558SOL    HW2 8574   4.987   1.398   4.774
 2559SOL     OW 8575   0.809   4.559   5.352
 2559SOL    HW1 8576   0.860   4.474   5.367
 2559SOL    HW2 8577   0.870   4.637   5.365
 2560SOL     OW 8578   5.284   2.432   5.932
 2560SOL    HW1 8579   5.217   2.367   5.897
 2560SOL    HW2 8580   5.373   2.412   5.893
 2561SOL     OW 8581   2.370   5.223   5.174
 2561SOL    HW1 8582   2.470   5.217   5.178
 2561SOL    HW2 8583   2.330   5.135   5.202
 2562SOL     OW 8584   2.921   4.886   1.611
 2562SOL    HW1 8585   2.851   4.816   1.630
 2562SOL    HW2 8586   2.991   4.846   1.552
 2563SOL     OW 8587   3.322   1.758   0.300
 2563SOL    HW1 8588   3.358   1.800   0.383
 2563SOL    HW2 8589   3.248   1.695   0.324
 2564SOL     OW 8590   1.888   5.860   6.934
 2564SOL    HW1 8591   1.962   5.810   6.888
 2564SOL    HW2 8592   1.893   5.843   0.011
 2565SOL     OW 8593   1.319   0.001   6.451
 2565SOL    HW1 8594   1.364   6.947   6.499
 2565SOL    HW2 8595   1.226   0.012   6.487
 2566SOL     OW 8596   2.182   0.289   0.921
 2566SOL    HW1 8597   2.224   0.373   0.955
 2566SOL    HW2 8598   2.125   0.249   0.994
 2567SOL     OW 8599   0.917   0.341   0.763
 2567SOL    HW1 8600   0.995   0.344   0.700
 2567SOL    HW2 8601   0.927   0.412   0.832
 2568SOL     OW 8602   4.633   1.938   6.518
 2568SOL    HW1 8603   4.652   1.892   6.604
 2568SOL    HW2 8604   4.607   1.871   6.449
 2569SOL     OW 8605   2.941   0.475   2.655
 2569SOL    HW1 8606   2.883   0.551   2.625
 2569SOL    HW2 8607   2.924   0.456   2.751
 2570SOL     OW 8608   5.719   0.038   6.093
 2570SOL    HW1 8609   5.817   0.053   6.080
 2570SOL    HW2 8610   5.681   0.110   6.151
 2571SOL     OW 8611   2.399   5.109   4.849
 2571SOL    HW1 8612   2.315   5.154   4.880
 2571SOL    HW2 8613   2.462   5.098   4.927
 2572SOL     OW 8614   2.881   5.646   1.562
 2572SOL    HW1 8615   2.830   5.675   1.643
 2572SOL    HW2 8616   2.944   5.719   1.533
 2573SOL     OW 8617   0.381   1.961   1.118
 2573SOL    HW1 8618   0.356   1.869   1.147
 2573SOL    HW2 8619   0.313   2.027   1.151
 2574SOL     OW 8620   5.875   4.126   0.949
 2574SOL    HW1 8621   5.834   4.215   0.930
 2574SOL    HW2 8622   5.837   4.058   0.886
 2575SOL     OW 8623   5.297   6.137   0.146
 2575SOL    HW1 8624   5.246   6.071   0.202
 2575SOL    HW2 8625   5.383   6.160   0.191
 2576SOL     OW 8626   4.542   6.583   4.285
 2576SOL    HW1 8627   4.498   6.587   4.374
 2576SOL    HW2 8628   4.642   6.580   4.297
 2577SOL     OW 8629   3.961   6.155   2.193
 2577SOL    HW1 8630   3.980   6.057   2.179
 2577SOL    HW2 8631   3.918   6.192   2.111
 2578SOL     OW 8632   4.124   1.511   4.185
 2578SOL    HW1 8633   4.155   1.526   4.278
 2578SOL    HW2 8634   4.064   1.586   4.157
 2579SOL     OW 8635   1.454   6.546   3.519
 2579SOL    HW1 8636   1.412   6.606   3.451
 2579SOL    HW2 8637   1.395   6.466   3.533
 2580SOL     OW 8638   2.556   4.339   6.479
 2580SOL    HW1 8639   2.476   4.366   6.424
 2580SOL    HW2 8640   2.525   4.291   6.561
 2581SOL     OW 8641   2.526   5.110   1.637
 2581SOL    HW1 8642   2.621   5.138   1.627
 2581SOL    HW2 8643   2.519   5.043   1.711
 2582SOL     OW 8644   0.319   4.682   1.412
 2582SOL    HW1 8645   0.264   4.708   1.491
 2582SOL    HW2 8646   0.260   4.646   1.340
 2583SOL     OW 8647   0.678   1.440   6.764
 2583SOL    HW1 8648   0.585   1.476   6.774
 2583SOL    HW2 8649   0.728   1.497   6.698
 2584SOL     OW 8650   4.281   5.740   5.894
 2584SOL    HW1 8651   4.253   5.684   5.816
 2584SOL    HW2 8652   4.267   5.689   5.979
 2585SOL     OW 8653   3.482   3.857   0.326
 2585SOL    HW1 8654   3.529   3.808   0.253
 2585SOL    HW2 8655   3.493   3.806   0.412
 2586SOL     OW 8656   3.277   0.537   5.372
 2586SOL    HW1 8657   3.182   0.562   5.391
 2586SOL    HW2 8658   3.285   0.500   5.279
 2587SOL     OW 8659   5.755   1.080   3.377
 2587SOL    HW1 8660   5.844   1.124   3.367
 2587SOL    HW2 8661   5.683   1.149   3.372
 2588SOL     OW 8662   4.174   1.895   5.896
 2588SOL    HW1 8663   4.148   1.940   5.982
 2588SOL    HW2 8664   4.259   1.935   5.862
 2589SOL     OW 8665   1.573   6.849   5.518
 2589SOL    HW1 8666   1.641   6.850   5.592
 2589SOL    HW2 8667   1.518   6.766   5.525
 2590SOL     OW 8668   3.528   5.019   0.127
 2590SOL    HW1 8669   3.535   5.004   0.226
 2590SOL    HW2 8670   3.601   4.969   0.080
 2591SOL     OW 8671   6.881   4.870   3.288
 2591SOL    HW1 8672   6.927   4.793   3.331
 2591SOL    HW2 8673   6.945   4.947   3.279
 2592SOL     OW 8674   2.903   4.557   6.777
 2592SOL    HW1 8675   2.902   4.556   6.677
 2592SOL    HW2 8676   2.963   4.484   6.811
 2593SOL     OW 8677   3.504   5.816   0.610
 2593SOL    HW1 8678   3.604   5.809   0.608
 2593SOL    HW2 8679   3.467   5.792   0.520
 2594SOL     OW 8680   2.300   3.917   5.681
 2594SOL    HW1 8681   2.329   3.821   5.679
 2594SOL    HW2 8682   2.371   3.973   5.722
 2595SOL     OW 8683   0.056   1.172   4.065
 2595SOL    HW1 8684   0.054   1.109   4.143
 2595SOL    HW2 8685   6.984   1.197   4.041
 2596SOL     OW 8686   2.516   2.224   1.503
 2596SOL    HW1 8687   2.461   2.308   1.506
 2596SOL    HW2 8688   2.488   2.169   1.424
 2597SOL     OW 8689   0.585   5.212   6.005
 2597SOL    HW1 8690   0.633   5.293   5.971
 2597SOL    HW2 8691   0.516   5.240   6.072
 2598SOL     OW 8692   6.922   1.427   2.177
 2598SOL    HW1 8693   6.950   1.338   2.142
 2598SOL    HW2 8694   6.916   1.424   2.276
 2599SOL     OW 8695   1.767   5.886   0.679
 2599SOL    HW1 8696   1.777   5.853   0.585
 2599SOL    HW2 8697   1.823   5.968   0.692
 2600SOL     OW 8698   5.797   2.397   4.574
 2600SOL    HW1 8699   5.812   2.391   4.476
 2600SOL    HW2 8700   5.706   2.433   4.593
 2601SOL     OW 8701   1.331   1.512   1.099
 2601SOL    HW1 8702   1.349   1.414   1.092
 2601SOL    HW2 8703   1.232   1.529   1.093
 2602SOL     OW 8704   1.556   4.922   4.722
 2602SOL    HW1 8705   1.487   4.892   4.657
 2602SOL    HW2 8706   1.599   5.006   4.690
 2603SOL     OW 8707   3.132   1.203   2.972
 2603SOL    HW1 8708   3.047   1.230   2.927
 2603SOL    HW2 8709   3.115   1.128   3.035
 2604SOL     OW 8710   4.726   1.673   2.776
 2604SOL    HW1 8711   4.752   1.761   2.736
 2604SOL    HW2 8712   4.626   1.670   2.787
 2605SOL     OW 8713   1.546   3.069   2.773
 2605SOL    HW1 8714   1.494   3.145   2.812
 2605SOL    HW2 8715   1.510   3.046   2.683
 2606SOL     OW 8716   5.917   5.198   1.625
 2606SOL    HW1 8717   5.948   5.248   1.544
 2606SOL    HW2 8718   5.912   5.101   1.603
 2607SOL     OW 8719   0.406   1.542   1.022
 2607SOL    HW1 8720   0.458   1.474   1.073
 2607SOL    HW2 8721   0.355   1.600   1.086
 2608SOL     OW 8722   3.461   5.599   6.875
 2608SOL    HW1 8723   3.397   5.523   6.883
 2608SOL    HW2 8724   3.538   5.585   6.937
 2609SOL     OW 8725   6.378   1.212   1.891
 2609SOL    HW1 8726   6.385   1.249   1.984
 2609SOL    HW2 8727   6.282   1.196   1.868
 2610SOL     OW 8728   0.719   4.718   4.153
 2610SOL    HW1 8729   0.644   4.710   4.219
 2610SOL    HW2 8730   0.718   4.638   4.093
 2611SOL     OW 8731   4.435   6.499   6.768
 2611SOL    HW1 8732   4.378   6.580   6.778
 2611SOL    HW2 8733   4.460   6.465   6.859
 2612SOL     OW 8734   5.737   6.348   4.114
 2612SOL    HW1 8735   5.704   6.286   4.043
 2612SOL    HW2 8736   5.708   6.315   4.203
 2613SOL     OW 8737   2.321   5.407   6.389
 2613SOL    HW1 8738   2.321   5.324   6.332
 2613SOL    HW2 8739   2.370   5.389   6.474
 2614SOL     OW 8740   5.753   1.330   6.358
 2614SOL    HW1 8741   5.786   1.399   6.294
 2614SOL    HW2 8742   5.817   1.253   6.360
 2615SOL     OW 8743   0.357   2.995   1.491
 2615SOL    HW1 8744   0.454   2.982   1.469
 2615SOL    HW2 8745   0.343   3.087   1.527
 2616SOL     OW 8746   0.958   1.884   5.801
 2616SOL    HW1 8747   0.982   1.801   5.751
 2616SOL    HW2 8748   1.028   1.904   5.869
 2617SOL     OW 8749   4.912   0.763   0.540
 2617SOL    HW1 8750   4.840   0.754   0.609
 2617SOL    HW2 8751   4.993   0.714   0.571
 2618SOL     OW 8752   1.147   6.281   4.701
 2618SOL    HW1 8753   1.077   6.340   4.741
 2618SOL    HW2 8754   1.212   6.336   4.649
 2619SOL     OW 8755   4.033   1.884   1.943
 2619SOL    HW1 8756   3.964   1.956   1.938
 2619SOL    HW2 8757   4.115   1.912   1.893
 2620SOL     OW 8758   6.799   0.044   2.341
 2620SOL    HW1 8759   6.771   0.012   2.431
 2620SOL    HW2 8760   6.782   0.143   2.333
 2621SOL     OW 8761   1.045   4.747   2.510
 2621SOL    HW1 8762   0.961   4.724   2.559
 2621SOL    HW2 8763   1.097   4.814   2.563
 2622SOL     OW 8764   3.431   3.255   5.614
 2622SOL    HW1 8765   3.376   3.278   5.695
 2622SOL    HW2 8766   3.390   3.177   5.567
 2623SOL     OW 8767   0.600   0.177   4.080
 2623SOL    HW1 8768   0.554   0.264   4.062
 2623SOL    HW2 8769   0.656   0.185   4.163
 2624SOL     OW 8770   6.552   2.057   4.458
 2624SOL    HW1 8771   6.509   2.113   4.529
 2624SOL    HW2 8772   6.651   2.058   4.471
 2625SOL     OW 8773   1.904   5.201   5.477
 2625SOL    HW1 8774   1.881   5.247   5.391
 2625SOL    HW2 8775   1.870   5.107   5.474
 2626SOL     OW 8776   6.763   6.677   5.683
 2626SOL    HW1 8777   6.669   6.698   5.709
 2626SOL    HW2 8778   6.796   6.744   5.617
 2627SOL     OW 8779   1.140   0.558   6.460
 2627SOL    HW1 8780   1.066   0.514   6.510
 2627SOL    HW2 8781   1.226   0.513   6.480
 2628SOL     OW 8782   1.941   3.478   4.608
 2628SOL    HW1 8783   2.003   3.543   4.565
 2628SOL    HW2 8784   1.894   3.424   4.538
 2629SOL     OW 8785   3.866   3.634   3.465
 2629SOL    HW1 8786   3.808   3.587   3.399
 2629SOL    HW2 8787   3.812   3.662   3.544
 2630SOL     OW 8788   3.612   1.344   3.881
 2630SOL    HW1 8789   3.692   1.295   3.846
 2630SOL    HW2 8790   3.587   1.417   3.818
 2631SOL     OW 8791   5.826   0.840   6.678
 2631SOL    HW1 8792   5.807   0.751   6.719
 2631SOL    HW2 8793   5.766   0.909   6.719
 2632SOL     OW 8794   5.930   3.749   1.576
 2632SOL    HW1 8795   5.863   3.772   1.647
 2632SOL    HW2 8796   5.920   3.653   1.551
 2633SOL     OW 8797   6.522   2.079   5.064
 2633SOL    HW1 8798   6.545   2.001   5.006
 2633SOL    HW2 8799   6.601   2.140   5.070
 2634SOL     OW 8800   0.881   6.207   4.004
 2634SOL    HW1 8801   0.900   6.146   4.081
 2634SOL    HW2 8802   0.794   6.254   4.020
 2635SOL     OW 8803   6.523   5.282   4.256
 2635SOL    HW1 8804   6.566   5.240   4.177
 2635SOL    HW2 8805   6.427   5.301   4.236
 2636SOL     OW 8806   3.447   1.109   6.752
 2636SOL    HW1 8807   3.495   1.025   6.728
 2636SOL    HW2 8808   3.449   1.172   6.675
 2637SOL     OW 8809   6.543   1.396   3.984
 2637SOL    HW1 8810   6.632   1.443   3.978
 2637SOL    HW2 8811   6.483   1.429   3.912
 2638SOL     OW 8812   0.481   0.213   4.464
 2638SOL    HW1 8813   0.444   0.293   4.512
 2638SOL    HW2 8814   0.411   0.174   4.405
 2639SOL     OW 8815   4.833   4.991   5.489
 2639SOL    HW1 8816   4.823   4.902   5.532
 2639SOL    HW2 8817   4.830   5.063   5.559
 2640SOL     OW 8818   0.058   0.036   5.118
 2640SOL    HW1 8819   0.158   0.032   5.113
 2640SOL    HW2 8820   0.023   6.972   5.155
 2641SOL     OW 8821   4.807   2.174   1.066
 2641SOL    HW1 8822   4.817   2.160   1.164
 2641SOL    HW2 8823   4.893   2.204   1.027
 2642SOL     OW 8824   6.575   0.795   3.452
 2642SOL    HW1 8825   6.600   0.701   3.430
 2642SOL    HW2 8826   6.515   0.831   3.381
 2643SOL     OW 8827   0.904   3.493   4.203
 2643SOL    HW1 8828   0.894   3.393   4.201
 2643SOL    HW2 8829   0.838   3.534   4.140
 2644SOL     OW 8830   4.447   5.431   5.109
 2644SOL    HW1 8831   4.538   5.422   5.070
 2644SOL    HW2 8832   4.422   5.347   5.156
 2645SOL     OW 8833   5.376   4.896   3.899
 2645SOL    HW1 8834   5.303   4.890   3.967
 2645SOL    HW2 8835   5.352   4.842   3.819
 2646SOL     OW 8836   0.887   3.736   6.731
 2646SOL    HW1 8837   0.922   3.670   6.665
 2646SOL    HW2 8838   0.787   3.736   6.729
 2647SOL     OW 8839   5.123   0.050   1.817
 2647SOL    HW1 8840   5.182   7.020   1.755
 2647SOL    HW2 8841   5.051   7.012   1.852
 2648SOL     OW 8842   0.502   6.594   3.388
 2648SOL    HW1 8843   0.501   6.682   3.341
 2648SOL    HW2 8844   0.430   6.593   3.458
 2649SOL     OW 8845   5.184   3.159   1.946
 2649SOL    HW1 8846   5.181   3.134   2.043
 2649SOL    HW2 8847   5.123   3.099   1.895
 2650SOL     OW 8848   2.943   5.422   4.795
 2650SOL    HW1 8849   3.020   5.359   4.801
 2650SOL    HW2 8850   2.877   5.389   4.727
 2651SOL     OW 8851   3.700   1.350   6.660
 2651SOL    HW1 8852   3.768   1.398   6.605
 2651SOL    HW2 8853   3.683   1.260   6.621
 2652SOL     OW 8854   4.677   3.765   5.547
 2652SOL    HW1 8855   4.661   3.792   5.642
 2652SOL    HW2 8856   4.593   3.727   5.509
 2653SOL     OW 8857   3.523   6.217   5.734
 2653SOL    HW1 8858   3.527   6.144   5.803
 2653SOL    HW2 8859   3.436   6.210   5.684
 2654SOL     OW 8860   5.184   6.432   0.612
 2654SOL    HW1 8861   5.127   6.411   0.692
 2654SOL    HW2 8862   5.168   6.363   0.542
 2655SOL     OW 8863   4.841   5.871   3.366
 2655SOL    HW1 8864   4.819   5.782   3.326
 2655SOL    HW2 8865   4.853   5.938   3.293
 2656SOL     OW 8866   3.662   5.640   3.713
 2656SOL    HW1 8867   3.722   5.615   3.636
 2656SOL    HW2 8868   3.694   5.594   3.795
 2657SOL     OW 8869   2.017   3.323   0.451
 2657SOL    HW1 8870   1.979   3.274   0.529
 2657SOL    HW2 8871   2.016   3.421   0.468
 2658SOL     OW 8872   5.140   3.882   6.829
 2658SOL    HW1 8873   5.070   3.822   6.789
 2658SOL    HW2 8874   5.098   3.942   6.896
 2659SOL     OW 8875   5.299   2.754   4.790
 2659SOL    HW1 8876   5.277   2.729   4.696
 2659SOL    HW2 8877   5.300   2.853   4.800
 2660SOL     OW 8878   0.150   0.959   0.931
 2660SOL    HW1 8879   0.213   0.882   0.940
 2660SOL    HW2 8880   0.122   0.990   1.022
 2661SOL     OW 8881   1.278   0.749   2.146
 2661SOL    HW1 8882   1.199   0.792   2.101
 2661SOL    HW2 8883   1.290   0.657   2.111
 2662SOL     OW 8884   2.745   0.332   3.610
 2662SOL    HW1 8885   2.658   0.369   3.578
 2662SOL    HW2 8886   2.730   0.277   3.692
 2663SOL     OW 8887   3.721   6.751   5.778
 2663SOL    HW1 8888   3.699   6.653   5.777
 2663SOL    HW2 8889   3.646   6.801   5.821
 2664SOL     OW 8890   4.300   2.738   5.871
 2664SOL    HW1 8891   4.254   2.814   5.825
 2664SOL    HW2 8892   4.237   2.660   5.875
 2665SOL     OW 8893   2.400   3.347   5.586
 2665SOL    HW1 8894   2.450   3.273   5.630
 2665SOL    HW2 8895   2.454   3.382   5.509
 2666SOL     OW 8896   1.820   3.160   1.921
 2666SOL    HW1 8897   1.897   3.119   1.872
 2666SOL    HW2 8898   1.756   3.088   1.949
 2667SOL     OW 8899   0.218   4.949   3.662
 2667SOL    HW1 8900   0.224   4.966   3.761
 2667SOL    HW2 8901   0.122   4.950   3.634
 2668SOL     OW 8902   5.648   2.887   4.153
 2668SOL    HW1 8903   5.651   2.839   4.240
 2668SOL    HW2 8904   5.627   2.822   4.079
 2669SOL     OW 8905   2.876   5.720   6.630
 2669SOL    HW1 8906   2.967   5.680   6.645
 2669SOL    HW2 8907   2.885   5.804   6.575
 2670SOL     OW 8908   6.150   1.859   5.618
 2670SOL    HW1 8909   6.056   1.885   5.638
 2670SOL    HW2 8910   6.169   1.873   5.520
 2671SOL     OW 8911   3.965   6.215   6.434
 2671SOL    HW1 8912   3.987   6.123   6.400
 2671SOL    HW2 8913   3.994   6.283   6.366
 2672SOL     OW 8914   3.401   0.817   1.610
 2672SOL    HW1 8915   3.349   0.740   1.648
 2672SOL    HW2 8916   3.472   0.844   1.675
 2673SOL     OW 8917   4.962   0.330   2.642
 2673SOL    HW1 8918   4.960   0.429   2.655
 2673SOL    HW2 8919   5.004   0.286   2.722
 2674SOL     OW 8920   1.702   5.185   3.694
 2674SOL    HW1 8921   1.682   5.152   3.786
 2674SOL    HW2 8922   1.798   5.210   3.686
 2675SOL     OW 8923   0.565   0.093   3.483
 2675SOL    HW1 8924   0.535   0.064   3.573
 2675SOL    HW2 8925   0.644   0.154   3.492
 2676SOL     OW 8926   3.088   3.525   2.437
 2676SOL    HW1 8927   3.012   3.490   2.383
 2676SOL    HW2 8928   3.058   3.542   2.531
 2677SOL     OW 8929   2.764   4.702   0.957
 2677SOL    HW1 8930   2.863   4.710   0.945
 2677SOL    HW2 8931   2.744   4.662   1.046
 2678SOL     OW 8932   7.008   2.706   2.412
 2678SOL    HW1 8933   0.084   2.716   2.429
 2678SOL    HW2 8934   6.966   2.797   2.409
 2679SOL     OW 8935   2.167   5.348   2.824
 2679SOL    HW1 8936   2.225   5.413   2.873
 2679SOL    HW2 8937   2.212   5.321   2.739
 2680SOL     OW 8938   1.140   2.568   0.444
 2680SOL    HW1 8939   1.109   2.531   0.531
 2680SOL    HW2 8940   1.217   2.630   0.459
 2681SOL     OW 8941   1.222   2.827   5.124
 2681SOL    HW1 8942   1.318   2.852   5.111
 2681SOL    HW2 8943   1.199   2.750   5.064
 2682SOL     OW 8944   4.713   4.237   2.604
 2682SOL    HW1 8945   4.773   4.167   2.644
 2682SOL    HW2 8946   4.706   4.223   2.506
 2683SOL     OW 8947   2.220   4.366   2.690
 2683SOL    HW1 8948   2.138   4.311   2.678
 2683SOL    HW2 8949   2.199   4.446   2.746
 2684SOL     OW 8950   5.640   6.863   1.787
 2684SOL    HW1 8951   5.563   6.827   1.734
 2684SOL    HW2 8952   5.641   6.963   1.780
 2685SOL     OW 8953   6.608   4.874   4.626
 2685SOL    HW1 8954   6.636   4.809   4.555
 2685SOL    HW2 8955   6.599   4.965   4.586
 2686SOL     OW 8956   1.053   1.506   4.956
 2686SOL    HW1 8957   0.967   1.530   4.910
 2686SOL    HW2 8958   1.038   1.497   5.054
 2687SOL     OW 8959   4.051   0.038   1.398
 2687SOL    HW1 8960   3.991   7.007   1.458
 2687SOL    HW2 8961   4.072   0.126   1.441
 2688SOL     OW 8962   3.478   2.076   0.854
 2688SOL    HW1 8963   3.520   2.158   0.814
 2688SOL    HW2 8964   3.456   2.095   0.950
 2689SOL     OW 8965   0.678   4.191   2.736
 2689SOL    HW1 8966   0.741   4.134   2.789
 2689SOL    HW2 8967   0.729   4.265   2.692
 2690SOL     OW 8968   3.029   2.906   6.649
 2690SOL    HW1 8969   3.109   2.965   6.658
 2690SOL    HW2 8970   2.959   2.952   6.595
 2691SOL     OW 8971   0.319   4.649   4.237
 2691SOL    HW1 8972   0.229   4.609   4.222
 2691SOL    HW2 8973   0.360   4.672   4.149
 2692SOL     OW 8974   2.628   6.131   3.246
 2692SOL    HW1 8975   2.634   6.031   3.244
 2692SOL    HW2 8976   2.536   6.159   3.220
 2693SOL     OW 8977   2.140   4.906   4.162
 2693SOL    HW1 8978   2.179   4.824   4.120
 2693SOL    HW2 8979   2.128   4.890   4.260
 2694SOL     OW 8980   4.040   6.091   3.522
 2694SOL    HW1 8981   4.057   6.181   3.482
 2694SOL    HW2 8982   4.079   6.088   3.614
 2695SOL     OW 8983   6.348   0.030   2.967
 2695SOL    HW1 8984   6.309   0.118   2.939
 2695SOL    HW2 8985   6.311   0.004   3.056
 2696SOL     OW 8986   4.878   3.800   6.701
 2696SOL    HW1 8987   4.821   3.744   6.641
 2696SOL    HW2 8988   4.818   3.853   6.761
 2697SOL     OW 8989   4.320   1.381   1.324
 2697SOL    HW1 8990   4.365   1.394   1.413
 2697SOL    HW2 8991   4.378   1.418   1.252
 2698SOL     OW 8992   1.700   5.132   6.698
 2698SOL    HW1 8993   1.718   5.229   6.713
 2698SOL    HW2 8994   1.725   5.080   6.779
 2699SOL     OW 8995   3.041   5.528   1.898
 2699SOL    HW1 8996   3.014   5.452   1.957
 2699SOL    HW2 8997   3.098   5.493   1.824
 2700SOL     OW 8998   2.258   1.727   0.598
 2700SOL    HW1 8999   2.267   1.661   0.673
 2700SOL    HW2 9000   2.327   1.799   0.608
 2701SOL     OW 9001   5.264   2.634   5.287
 2701SOL    HW1 9002   5.186   2.578   5.313
 2701SOL    HW2 9003   5.254   2.663   5.192
 2702SOL     OW 9004   1.467   1.620   3.800
 2702SOL    HW1 9005   1.498   1.571   3.882
 2702SOL    HW2 9006   1.377   1.587   3.774
 2703SOL     OW 9007   1.516   5.713   1.185
 2703SOL    HW1 9008   1.478   5.621   1.199
 2703SOL    HW2 9009   1.441   5.778   1.171
 2704SOL     OW 9010   6.793   5.756   2.520
 2704SOL    HW1 9011   6.876   5.748   2.464
 2704SOL    HW2 9012   6.730   5.820   2.476
 2705SOL     OW 9013   6.865   1.302   5.976
 2705SOL    HW1 9014   6.792   1.233   5.985
 2705SOL    HW2 9015   6.935   1.285   6.045
 2706SOL     OW 9016   6.016   4.322   4.534
 2706SOL    HW1 9017   6.108   4.304   4.500
 2706SOL    HW2 9018   5.986   4.246   4.591
 2707SOL     OW 9019   4.002   6.702   3.674
 2707SOL    HW1 9020   4.045   6.714   3.763
 2707SOL    HW2 9021   4.040   6.769   3.610
 2708SOL     OW 9022   6.079   2.930   6.989
 2708SOL    HW1 9023   6.138   2.874   0.025
 2708SOL    HW2 9024   6.085   2.900   6.894
 2709SOL     OW 9025   5.020   6.599   6.109
 2709SOL    HW1 9026   5.120   6.610   6.111
 2709SOL    HW2 9027   4.979   6.676   6.061
 2710SOL     OW 9028   1.771   2.819   3.858
 2710SOL    HW1 9029   1.792   2.748   3.791
 2710SOL    HW2 9030   1.856   2.858   3.893
 2711SOL     OW 9031   3.241   1.794   3.391
 2711SOL    HW1 9032   3.148   1.810   3.357
 2711SOL    HW2 9033   3.306   1.844   3.334
 2712SOL     OW 9034   3.509   5.333   1.900
 2712SOL    HW1 9035   3.519   5.343   1.801
 2712SOL    HW2 9036   3.450   5.406   1.935
 2713SOL     OW 9037   4.447   4.291   6.596
 2713SOL    HW1 9038   4.511   4.297   6.519
 2713SOL    HW2 9039   4.357   4.263   6.564
 2714SOL     OW 9040   4.000   3.860   6.405
 2714SOL    HW1 9041   3.978   3.787   6.470
 2714SOL    HW2 9042   3.978   3.948   6.445
 2715SOL     OW 9043   5.626   1.900   0.994
 2715SOL    HW1 9044   5.708   1.861   0.951
 2715SOL    HW2 9045   5.653   1.949   1.077
 2716SOL     OW 9046   4.634   2.654   2.873
 2716SOL    HW1 9047   4.714   2.713   2.882
 2716SOL    HW2 9048   4.618   2.634   2.777
 2717SOL     OW 9049   0.236   0.316   2.129
 2717SOL    HW1 9050   0.301   0.272   2.191
 2717SOL    HW2 9051   0.143   0.293   2.156
 2718SOL     OW 9052   0.158   1.231   5.542
 2718SOL    HW1 9053   0.134   1.278   5.457
 2718SOL    HW2 9054   0.258   1.225   5.550
 2719SOL     OW 9055   1.843   4.197   2.406
 2719SOL    HW1 9056   1.852   4.271   2.473
 2719SOL    HW2 9057   1.834   4.236   2.314
 2720SOL     OW 9058   1.125   6.931   4.571
 2720SOL    HW1 9059   1.131   0.009   4.563
 2720SOL    HW2 9060   1.217   6.892   4.564
 2721SOL     OW 9061   3.173   6.436   1.660
 2721SOL    HW1 9062   3.175   6.421   1.759
 2721SOL    HW2 9063   3.142   6.529   1.641
 2722SOL     OW 9064   4.585   5.837   6.446
 2722SOL    HW1 9065   4.616   5.792   6.362
 2722SOL    HW2 9066   4.650   5.907   6.473
 2723SOL     OW 9067   3.167   6.623   6.673
 2723SOL    HW1 9068   3.089   6.590   6.619
 2723SOL    HW2 9069   3.234   6.664   6.613
 2724SOL     OW 9070   1.172   5.886   6.432
 2724SOL    HW1 9071   1.255   5.868   6.485
 2724SOL    HW2 9072   1.116   5.952   6.481
 2725SOL     OW 9073   5.097   4.068   4.219
 2725SOL    HW1 9074   5.112   4.060   4.317
 2725SOL    HW2 9075   5.135   3.987   4.173
 2726SOL     OW 9076   0.899   2.138   1.375
 2726SOL    HW1 9077   0.965   2.162   1.304
 2726SOL    HW2 9078   0.880   2.040   1.371
 2727SOL     OW 9079   1.931   4.309   3.835
 2727SOL    HW1 9080   1.868   4.308   3.912
 2727SOL    HW2 9081   2.000   4.237   3.847
 2728SOL     OW 9082   5.063   5.959   6.572
 2728SOL    HW1 9083   5.103   6.028   6.632
 2728SOL    HW2 9084   5.135   5.922   6.513
 2729SOL     OW 9085   6.303   6.244   6.963
 2729SOL    HW1 9086   6.281   6.146   6.968
 2729SOL    HW2 9087   6.230   6.291   6.914
 2730SOL     OW 9088   0.810   5.817   1.175
 2730SOL    HW1 9089   0.800   5.759   1.095
 2730SOL    HW2 9090   0.722   5.820   1.224
 2731SOL     OW 9091   3.052   3.468   3.322
 2731SOL    HW1 9092   3.139   3.430   3.353
 2731SOL    HW2 9093   3.033   3.436   3.229
 2732SOL     OW 9094   5.202   1.682   1.332
 2732SOL    HW1 9095   5.239   1.719   1.418
 2732SOL    HW2 9096   5.166   1.757   1.277
 2733SOL     OW 9097   6.438   1.297   5.330
 2733SOL    HW1 9098   6.431   1.305   5.429
 2733SOL    HW2 9099   6.474   1.382   5.292
 2734SOL     OW 9100   3.577   6.053   1.642
 2734SOL    HW1 9101   3.569   6.124   1.572
 2734SOL    HW2 9102   3.507   5.983   1.627
 2735SOL     OW 9103   1.372   2.327   0.723
 2735SOL    HW1 9104   1.391   2.307   0.819
 2735SOL    HW2 9105   1.322   2.250   0.682
 2736SOL     OW 9106   5.750   6.024   4.334
 2736SOL    HW1 9107   5.791   5.946   4.287
 2736SOL    HW2 9108   5.814   6.101   4.332
 2737SOL     OW 9109   2.660   2.244   6.012
 2737SOL    HW1 9110   2.695   2.323   6.062
 2737SOL    HW2 9111   2.631   2.272   5.921
 2738SOL     OW 9112   6.445   6.938   2.282
 2738SOL    HW1 9113   6.503   6.857   2.286
 2738SOL    HW2 9114   6.396   6.939   2.194
 2739SOL     OW 9115   0.902   5.425   0.928
 2739SOL    HW1 9116   0.976   5.387   0.873
 2739SOL    HW2 9117   0.857   5.351   0.980
 2740SOL     OW 9118   0.714   5.435   2.438
 2740SOL    HW1 9119   0.809   5.419   2.412
 2740SOL    HW2 9120   0.709   5.517   2.495
 2741SOL     OW 9121   1.058   1.661   4.579
 2741SOL    HW1 9122   1.101   1.718   4.648
 2741SOL    HW2 9123   1.038   1.715   4.498
 2742SOL     OW 9124   2.991   5.039   1.829
 2742SOL    HW1 9125   2.984   4.953   1.881
 2742SOL    HW2 9126   3.015   5.019   1.735
 2743SOL     OW 9127   6.853   4.664   1.843
 2743SOL    HW1 9128   6.862   4.755   1.885
 2743SOL    HW2 9129   6.827   4.598   1.913
 2744SOL     OW 9130   3.695   3.630   2.141
 2744SOL    HW1 9131   3.645   3.683   2.072
 2744SOL    HW2 9132   3.793   3.645   2.129
 2745SOL     OW 9133   6.269   1.313   5.623
 2745SOL    HW1 9134   6.334   1.370   5.573
 2745SOL    HW2 9135   6.186   1.365   5.643
 2746SOL     OW 9136   0.607   1.483   4.461
 2746SOL    HW1 9137   0.662   1.454   4.383
 2746SOL    HW2 9138   0.664   1.537   4.524
 2747SOL     OW 9139   4.227   5.903   6.634
 2747SOL    HW1 9140   4.264   5.890   6.542
 2747SOL    HW2 9141   4.137   5.862   6.640
 2748SOL     OW 9142   4.706   0.343   1.523
 2748SOL    HW1 9143   4.656   0.383   1.600
 2748SOL    HW2 9144   4.642   0.298   1.461
 2749SOL     OW 9145   1.360   3.571   0.543
 2749SOL    HW1 9146   1.279   3.517   0.566
 2749SOL    HW2 9147   1.334   3.646   0.483
 2750SOL     OW 9148   2.551   4.591   1.517
 2750SOL    HW1 9149   2.648   4.609   1.506
 2750SOL    HW2 9150   2.527   4.594   1.614
 2751SOL     OW 9151   1.986   1.638   1.326
 2751SOL    HW1 9152   1.980   1.699   1.248
 2751SOL    HW2 9153   1.907   1.576   1.326
 2752SOL     OW 9154   4.268   4.393   6.342
 2752SOL    HW1 9155   4.244   4.479   6.386
 2752SOL    HW2 9156   4.221   4.317   6.389
 2753SOL     OW 9157   6.217   6.115   5.061
 2753SOL    HW1 9158   6.195   6.094   5.156
 2753SOL    HW2 9159   6.244   6.031   5.013
 2754SOL     OW 9160   1.056   6.835   0.127
 2754SOL    HW1 9161   1.143   6.825   0.174
 2754SOL    HW2 9162   0.997   6.898   0.178
 2755SOL     OW 9163   2.988   0.083   2.861
 2755SOL    HW1 9164   3.072   0.050   2.904
 2755SOL    HW2 9165   2.978   0.039   2.772
 2756SOL     OW 9166   4.184   6.324   0.577
 2756SOL    HW1 9167   4.212   6.298   0.669
 2756SOL    HW2 9168   4.099   6.376   0.581
 2757SOL     OW 9169   2.038   5.585   0.446
 2757SOL    HW1 9170   2.085   5.507   0.403
 2757SOL    HW2 9171   1.967   5.550   0.506
 2758SOL     OW 9172   5.027   0.442   4.594
 2758SOL    HW1 9173   5.076   0.356   4.580
 2758SOL    HW2 9174   5.029   0.467   4.691
 2759SOL     OW 9175   5.168   6.385   4.156
 2759SOL    HW1 9176   5.093   6.323   4.132
 2759SOL    HW2 9177   5.255   6.342   4.132
 2760SOL     OW 9178   1.263   5.811   2.119
 2760SOL    HW1 9179   1.352   5.846   2.144
 2760SOL    HW2 9180   1.269   5.712   2.103
 2761SOL     OW 9181   1.823   4.668   3.967
 2761SOL    HW1 9182   1.792   4.756   3.931
 2761SOL    HW2 9183   1.764   4.641   4.043
 2762SOL     OW 9184   0.943   1.051   5.348
 2762SOL    HW1 9185   0.945   0.957   5.316
 2762SOL    HW2 9186   0.876   1.103   5.294
 2763SOL     OW 9187   5.580   1.952   4.142
 2763SOL    HW1 9188   5.670   1.949   4.098
 2763SOL    HW2 9189   5.514   1.900   4.087
 2764SOL     OW 9190   5.806   0.409   1.119
 2764SOL    HW1 9191   5.890   0.356   1.124
 2764SOL    HW2 9192   5.729   0.349   1.097
 2765SOL     OW 9193   5.072   0.339   1.072
 2765SOL    HW1 9194   5.114   0.280   1.141
 2765SOL    HW2 9195   4.973   0.327   1.073
 2766SOL     OW 9196   5.748   1.656   0.544
 2766SOL    HW1 9197   5.723   1.681   0.637
 2766SOL    HW2 9198   5.779   1.737   0.495
 2767SOL     OW 9199   0.153   5.126   6.853
 2767SOL    HW1 9200   0.146   5.223   6.877
 2767SOL    HW2 9201   0.249   5.102   6.838
 2768SOL     OW 9202   5.108   1.033   0.250
 2768SOL    HW1 9203   5.169   1.000   0.177
 2768SOL    HW2 9204   5.043   0.960   0.273
 2769SOL     OW 9205   6.826   4.322   4.046
 2769SOL    HW1 9206   6.738   4.348   4.007
 2769SOL    HW2 9207   6.891   4.396   4.034
 2770SOL     OW 9208   1.875   5.778   6.402
 2770SOL    HW1 9209   1.807   5.726   6.454
 2770SOL    HW2 9210   1.843   5.872   6.390
 2771SOL     OW 9211   5.549   1.184   1.463
 2771SOL    HW1 9212   5.521   1.107   1.405
 2771SOL    HW2 9213   5.506   1.268   1.430
 2772SOL     OW 9214   4.554   1.756   0.643
 2772SOL    HW1 9215   4.501   1.751   0.559
 2772SOL    HW2 9216   4.511   1.819   0.707
 2773SOL     OW 9217   4.736   3.416   6.260
 2773SOL    HW1 9218   4.713   3.509   6.233
 2773SOL    HW2 9219   4.706   3.353   6.188
 2774SOL     OW 9220   6.529   3.012   2.928
 2774SOL    HW1 9221   6.449   3.069   2.950
 2774SOL    HW2 9222   6.556   3.028   2.833
 2775SOL     OW 9223   0.164   5.356   7.009
 2775SOL    HW1 9224   0.224   5.427   6.973
 2775SOL    HW2 9225   0.090   5.398   0.041
 2776SOL     OW 9226   4.501   5.773   5.618
 2776SOL    HW1 9227   4.581   5.814   5.662
 2776SOL    HW2 9228   4.419   5.824   5.645
 2777SOL     OW 9229   2.978   1.134   2.083
 2777SOL    HW1 9230   3.057   1.126   2.144
 2777SOL    HW2 9231   2.959   1.231   2.067
 2778SOL     OW 9232   1.799   1.126   4.973
 2778SOL    HW1 9233   1.852   1.046   5.001
 2778SOL    HW2 9234   1.835   1.208   5.017
 2779SOL     OW 9235   4.487   0.223   0.325
 2779SOL    HW1 9236   4.481   0.124   0.337
 2779SOL    HW2 9237   4.443   0.268   0.402
 2780SOL     OW 9238   6.102   5.666   5.545
 2780SOL    HW1 9239   6.049   5.708   5.471
 2780SOL    HW2 9240   6.098   5.566   5.536
 2781SOL     OW 9241   6.205   5.566   2.380
 2781SOL    HW1 9242   6.274   5.629   2.414
 2781SOL    HW2 9243   6.131   5.618   2.338
 2782SOL     OW 9244   3.092   2.654   6.324
 2782SOL    HW1 9245   3.011   2.617   6.279
 2782SOL    HW2 9246   3.082   2.646   6.423
 2783SOL     OW 9247   5.752   3.357   5.305
 2783SOL    HW1 9248   5.681   3.318   5.248
 2783SOL    HW2 9249   5.719   3.368   5.399
 2784SOL     OW 9250   2.576   1.846   1.466
 2784SOL    HW1 9251   2.501   1.871   1.405
 2784SOL    HW2 9252   2.598   1.922   1.527
 2785SOL     OW 9253   6.286   1.268   0.185
 2785SOL    HW1 9254   6.209   1.211   0.215
 2785SOL    HW2 9255   6.347   1.213   0.128
 2786SOL     OW 9256   3.965   6.709   1.334
 2786SOL    HW1 9257   4.018   6.781   1.379
 2786SOL    HW2 9258   3.881   6.748   1.298
 2787SOL     OW 9259   2.379   3.085   6.278
 2787SOL    HW1 9260   2.439   3.164   6.284
 2787SOL    HW2 9261   2.297   3.099   6.334
 2788SOL     OW 9262   1.984   3.820   0.459
 2788SOL    HW1 9263   1.962   3.900   0.514
 2788SOL    HW2 9264   1.938   3.826   0.371
 2789SOL     OW 9265   1.474   2.485   3.658
 2789SOL    HW1 9266   1.539   2.556   3.628
 2789SOL    HW2 9267   1.443   2.433   3.578
 2790SOL     OW 9268   3.177   5.471   3.144
 2790SOL    HW1 9269   3.250   5.523   3.187
 2790SOL    HW2 9270   3.212   5.384   3.109
 2791SOL     OW 9271   1.689   4.613   4.678
 2791SOL    HW1 9272   1.602   4.627   4.631
 2791SOL    HW2 9273   1.714   4.516   4.672
 2792SOL     OW 9274   1.248   0.081   4.839
 2792SOL    HW1 9275   1.253   0.111   4.744
 2792SOL    HW2 9276   1.294   0.147   4.898
 2793SOL     OW 9277   4.985   2.552   2.713
 2793SOL    HW1 9278   4.925   2.497   2.656
 2793SOL    HW2 9279   4.991   2.511   2.804
 2794SOL     OW 9280   6.683   3.012   0.400
 2794SOL    HW1 9281   6.588   3.002   0.428
 2794SOL    HW2 9282   6.730   3.073   0.464
 2795SOL     OW 9283   3.035   3.681   1.300
 2795SOL    HW1 9284   2.999   3.591   1.324
 2795SOL    HW2 9285   2.960   3.747   1.298
 2796SOL     OW 9286   6.969   4.341   2.774
 2796SOL    HW1 9287   0.040   4.308   2.795
 2796SOL    HW2 9288   6.902   4.289   2.827
 2797SOL     OW 9289   5.046   5.346   4.772
 2797SOL    HW1 9290   5.089   5.420   4.720
 2797SOL    HW2 9291   5.108   5.316   4.844
 2798SOL     OW 9292   1.216   4.127   2.199
 2798SOL    HW1 9293   1.313   4.142   2.180
 2798SOL    HW2 9294   1.206   4.096   2.294
 2799SOL     OW 9295   0.507   5.719   6.909
 2799SOL    HW1 9296   0.550   5.801   6.873
 2799SOL    HW2 9297   0.577   5.660   6.950
 2800SOL     OW 9298   4.533   4.358   6.877
 2800SOL    HW1 9299   4.492   4.337   6.788
 2800SOL    HW2 9300   4.509   4.287   6.943
 2801SOL     OW 9301   4.324   5.708   4.439
 2801SOL    HW1 9302   4.418   5.703   4.473
 2801SOL    HW2 9303   4.314   5.789   4.382
 2802SOL     OW 9304   4.574   3.353   6.745
 2802SOL    HW1 9305   4.561   3.443   6.787
 2802SOL    HW2 9306   4.490   3.325   6.699
 2803SOL     OW 9307   2.734   5.908   6.327
 2803SOL    HW1 9308   2.774   5.818   6.310
 2803SOL    HW2 9309   2.732   5.925   6.426
 2804SOL     OW 9310   0.067   4.527   4.196
 2804SOL    HW1 9311   0.122   4.454   4.155
 2804SOL    HW2 9312   7.014   4.551   4.134
 2805SOL     OW 9313   4.629   3.305   1.379
 2805SOL    HW1 9314   4.591   3.337   1.466
 2805SOL    HW2 9315   4.627   3.379   1.313
 2806SOL     OW 9316   6.111   5.099   3.644
 2806SOL    HW1 9317   6.182   5.102   3.713
 2806SOL    HW2 9318   6.116   5.180   3.586
 2807SOL     OW 9319   5.618   5.054   3.825
 2807SOL    HW1 9320   5.557   5.128   3.796
 2807SOL    HW2 9321   5.564   4.974   3.851
 2808SOL     OW 9322   4.413   1.789   2.376
 2808SOL    HW1 9323   4.444   1.733   2.299
 2808SOL    HW2 9324   4.426   1.739   2.461
 2809SOL     OW 9325   6.424   3.314   1.479
 2809SOL    HW1 9326   6.332   3.293   1.445
 2809SOL    HW2 9327   6.417   3.359   1.568
 2810SOL     OW 9328   3.447   6.586   4.786
 2810SOL    HW1 9329   3.511   6.518   4.752
 2810SOL    HW2 9330   3.385   6.543   4.853
 2811SOL     OW 9331   0.589   0.546   3.916
 2811SOL    HW1 9332   0.599   0.630   3.970
 2811SOL    HW2 9333   0.511   0.555   3.855
 2812SOL     OW 9334   5.192   3.387   1.211
 2812SOL    HW1 9335   5.219   3.480   1.189
 2812SOL    HW2 9336   5.226   3.325   1.140
 2813SOL     OW 9337   6.292   6.969   5.668
 2813SOL    HW1 9338   6.213   0.005   5.690
 2813SOL    HW2 9339   6.364   0.003   5.629
 2814SOL     OW 9340   4.350   2.942   6.846
 2814SOL    HW1 9341   4.265   2.905   6.884
 2814SOL    HW2 9342   4.415   2.867   6.829
 2815SOL     OW 9343   0.018   1.605   5.107
 2815SOL    HW1 9344   6.943   1.584   5.122
 2815SOL    HW2 9345   0.047   1.676   5.171
 2816SOL     OW 9346   6.711   6.305   3.803
 2816SOL    HW1 9347   6.787   6.283   3.864
 2816SOL    HW2 9348   6.627   6.313   3.855
 2817SOL     OW 9349   2.014   0.218   1.160
 2817SOL    HW1 9350   2.006   0.174   1.249
 2817SOL    HW2 9351   2.044   0.313   1.172
 2818SOL     OW 9352   0.092   5.909   6.933
 2818SOL    HW1 9353   0.098   5.837   6.865
 2818SOL    HW2 9354   0.004   5.955   6.925
 2819SOL     OW 9355   0.047   2.209   1.069
 2819SOL    HW1 9356   0.124   2.230   1.009
 2819SOL    HW2 9357   0.081   2.185   1.160
 2820SOL     OW 9358   1.062   1.951   2.240
 2820SOL    HW1 9359   1.058   2.049   2.222
 2820SOL    HW2 9360   1.157   1.921   2.241
 2821SOL     OW 9361   3.708   3.745   6.879
 2821SOL    HW1 9362   3.658   3.811   6.823
 2821SOL    HW2 9363   3.672   3.747   6.972
 2822SOL     OW 9364   3.883   2.374   0.324
 2822SOL    HW1 9365   3.832   2.289   0.311
 2822SOL    HW2 9366   3.865   2.435   0.247
 2823SOL     OW 9367   2.439   6.522   1.340
 2823SOL    HW1 9368   2.439   6.423   1.348
 2823SOL    HW2 9369   2.393   6.562   1.419
 2824SOL     OW 9370   2.507   1.332   4.061
 2824SOL    HW1 9371   2.415   1.295   4.057
 2824SOL    HW2 9372   2.535   1.343   4.156
 2825SOL     OW 9373   6.775   6.916   0.158
 2825SOL    HW1 9374   6.727   6.830   0.142
 2825SOL    HW2 9375   6.873   6.899   0.168
 2826SOL     OW 9376   5.481   2.284   6.624
 2826SOL    HW1 9377   5.471   2.197   6.672
 2826SOL    HW2 9378   5.427   2.354   6.671
 2827SOL     OW 9379   6.306   0.904   5.556
 2827SOL    HW1 9380   6.402   0.928   5.574
 2827SOL    HW2 9381   6.264   0.974   5.499
 2828SOL     OW 9382   3.119   1.108   6.628
 2828SOL    HW1 9383   3.059   1.027   6.624
 2828SOL    HW2 9384   3.209   1.081   6.661
 2829SOL     OW 9385   3.289   4.272   6.245
 2829SOL    HW1 9386   3.198   4.300   6.278
 2829SOL    HW2 9387   3.307   4.316   6.157
 2830SOL     OW 9388   0.432   3.543   6.618
 2830SOL    HW1 9389   0.493   3.464   6.610
 2830SOL    HW2 9390   0.442   3.601   6.537
 2831SOL     OW 9391   0.079   6.037   3.667
 2831SOL    HW1 9392   0.133   5.974   3.723
 2831SOL    HW2 9393   0.028   5.986   3.598
 2832SOL     OW 9394   0.145   1.017   1.565
 2832SOL    HW1 9395   0.050   1.007   1.536
 2832SOL    HW2 9396   0.191   0.928   1.560
 2833SOL     OW 9397   5.347   2.657   2.008
 2833SOL    HW1 9398   5.391   2.618   1.927
 2833SOL    HW2 9399   5.248   2.662   1.994
 2834SOL     OW 9400   2.953   0.454   5.855
 2834SOL    HW1 9401   3.007   0.523   5.808
 2834SOL    HW2 9402   2.864   0.493   5.880
 2835SOL     OW 9403   0.399   0.230   1.591
 2835SOL    HW1 9404   0.434   0.137   1.587
 2835SOL    HW2 9405   0.322   0.239   1.528
 2836SOL     OW 9406   6.543   0.713   1.168
 2836SOL    HW1 9407   6.472   0.697   1.236
 2836SOL    HW2 9408   6.590   0.799   1.188
 2837SOL     OW 9409   5.885   3.073   3.285
 2837SOL    HW1 9410   5.973   3.117   3.271
 2837SOL    HW2 9411   5.868   3.010   3.209
 2838SOL     OW 9412   1.760   4.060   1.862
 2838SOL    HW1 9413   1.776   4.154   1.895
 2838SOL    HW2 9414   1.838   4.030   1.809
 2839SOL     OW 9415   6.116   1.186   1.848
 2839SOL    HW1 9416   6.103   1.146   1.758
 2839SOL    HW2 9417   6.068   1.273   1.853
 2840SOL     OW 9418   0.656   0.794   4.079
 2840SOL    HW1 9419   0.656   0.891   4.054
 2840SOL    HW2 9420   0.666   0.785   4.178
 2841SOL     OW 9421   0.040   0.564   5.772
 2841SOL    HW1 9422   6.982   0.517   5.734
 2841SOL    HW2 9423   0.025   0.662   5.771
 2842SOL     OW 9424   0.326   1.778   4.003
 2842SOL    HW1 9425   0.350   1.681   4.004
 2842SOL    HW2 9426   0.409   1.833   3.990
 2843SOL     OW 9427   3.401   1.826   3.619
 2843SOL    HW1 9428   3.345   1.790   3.544
 2843SOL    HW2 9429   3.393   1.926   3.620
 2844SOL     OW 9430   1.546   4.538   0.579
 2844SOL    HW1 9431   1.565   4.598   0.656
 2844SOL    HW2 9432   1.627   4.483   0.558
 2845SOL     OW 9433   1.322   3.202   0.509
 2845SOL    HW1 9434   1.266   3.253   0.575
 2845SOL    HW2 9435   1.400   3.160   0.556
 2846SOL     OW 9436   5.168   1.591   6.651
 2846SOL    HW1 9437   5.114   1.513   6.681
 2846SOL    HW2 9438   5.158   1.666   6.717
 2847SOL     OW 9439   5.165   3.876   3.104
 2847SOL    HW1 9440   5.118   3.950   3.153
 2847SOL    HW2 9441   5.171   3.796   3.164
 2848SOL     OW 9442   0.341   4.437   6.225
 2848SOL    HW1 9443   0.328   4.353   6.278
 2848SOL    HW2 9444   0.435   4.469   6.237
 2849SOL     OW 9445   3.502   0.306   1.351
 2849SOL    HW1 9446   3.513   0.305   1.252
 2849SOL    HW2 9447   3.460   0.220   1.381
 2850SOL     OW 9448   3.223   0.164   2.405
 2850SOL    HW1 9449   3.139   0.215   2.424
 2850SOL    HW2 9450   3.240   0.163   2.306
 2851SOL     OW 9451   0.427   3.581   5.441
 2851SOL    HW1 9452   0.370   3.657   5.409
 2851SOL    HW2 9453   0.522   3.597   5.414
 2852SOL     OW 9454   5.666   4.746   0.292
 2852SOL    HW1 9455   5.592   4.723   0.355
 2852SOL    HW2 9456   5.752   4.750   0.343
 2853SOL     OW 9457   2.562   2.121   0.157
 2853SOL    HW1 9458   2.633   2.165   0.103
 2853SOL    HW2 9459   2.485   2.096   0.098
 2854SOL     OW 9460   3.072   1.865   4.037
 2854SOL    HW1 9461   3.063   1.963   4.058
 2854SOL    HW2 9462   2.996   1.837   3.979
 2855SOL     OW 9463   1.753   0.910   6.020
 2855SOL    HW1 9464   1.788   0.848   5.949
 2855SOL    HW2 9465   1.688   0.860   6.078
 2856SOL     OW 9466   2.554   2.761   5.882
 2856SOL    HW1 9467   2.558   2.779   5.784
 2856SOL    HW2 9468   2.595   2.838   5.932
 2857SOL     OW 9469   3.103   1.709   1.798
 2857SOL    HW1 9470   3.065   1.620   1.822
 2857SOL    HW2 9471   3.200   1.711   1.819
 2858SOL     OW 9472   5.975   3.451   1.790
 2858SOL    HW1 9473   5.891   3.399   1.804
 2858SOL    HW2 9474   5.992   3.509   1.870
 2859SOL     OW 9475   5.227   2.234   0.647
 2859SOL    HW1 9476   5.158   2.297   0.610
 2859SOL    HW2 9477   5.184   2.148   0.671
 2860SOL     OW 9478   3.795   1.710   0.897
 2860SOL    HW1 9479   3.746   1.759   0.824
 2860SOL    HW2 9480   3.893   1.716   0.882
 2861SOL     OW 9481   4.896   5.402   5.665
 2861SOL    HW1 9482   4.874   5.390   5.568
 2861SOL    HW2 9483   4.890   5.498   5.689
 2862SOL     OW 9484   5.156   1.675   2.822
 2862SOL    HW1 9485   5.252   1.683   2.848
 2862SOL    HW2 9486   5.142   1.589   2.772
 2863SOL     OW 9487   6.013   1.435   6.825
 2863SOL    HW1 9488   6.083   1.365   6.838
 2863SOL    HW2 9489   5.947   1.404   6.756
 2864SOL     OW 9490   3.825   0.592   1.245
 2864SOL    HW1 9491   3.757   0.665   1.244
 2864SOL    HW2 9492   3.913   0.628   1.216
 2865SOL     OW 9493   4.830   3.930   5.981
 2865SOL    HW1 9494   4.825   3.930   5.881
 2865SOL    HW2 9495   4.824   3.836   6.014
 2866SOL     OW 9496   6.405   6.317   0.168
 2866SOL    HW1 9497   6.391   6.244   0.235
 2866SOL    HW2 9498   6.367   6.289   0.080
 2867SOL     OW 9499   5.613   4.011   2.434
 2867SOL    HW1 9500   5.705   3.971   2.441
 2867SOL    HW2 9501   5.545   3.941   2.454
 2868SOL     OW 9502   0.362   3.155   5.349
 2868SOL    HW1 9503   0.295   3.093   5.390
 2868SOL    HW2 9504   0.320   3.201   5.271
 2869SOL     OW 9505   5.487   1.321   3.636
 2869SOL    HW1 9506   5.521   1.231   3.663
 2869SOL    HW2 9507   5.390   1.329   3.660
 2870SOL     OW 9508   6.884   1.453   4.695
 2870SOL    HW1 9509   6.853   1.546   4.672
 2870SOL    HW2 9510   6.860   1.433   4.790
 2871SOL     OW 9511   1.887   1.392   6.821
 2871SOL    HW1 9512   1.900   1.444   6.905
 2871SOL    HW2 9513   1.843   1.305   6.842
 2872SOL     OW 9514   2.559   1.625   3.506
 2872SOL    HW1 9515   2.587   1.550   3.445
 2872SOL    HW2 9516   2.461   1.643   3.493
 2873SOL     OW 9517   1.553   4.928   3.662
 2873SOL    HW1 9518   1.485   4.998   3.641
 2873SOL    HW2 9519   1.643   4.959   3.632
 2874SOL     OW 9520   4.315   5.067   2.869
 2874SOL    HW1 9521   4.313   4.994   2.801
 2874SOL    HW2 9522   4.410   5.090   2.890
 2875SOL     OW 9523   4.339   6.408   6.544
 2875SOL    HW1 9524   4.286   6.324   6.560
 2875SOL    HW2 9525   4.372   6.443   6.631
 2876SOL     OW 9526   0.701   0.014   1.832
 2876SOL    HW1 9527   0.797   0.040   1.825
 2876SOL    HW2 9528   0.670   0.023   1.927
 2877SOL     OW 9529   3.352   2.787   5.255
 2877SOL    HW1 9530   3.451   2.772   5.263
 2877SOL    HW2 9531   3.304   2.707   5.289
 2878SOL     OW 9532   3.769   5.208   4.420
 2878SOL    HW1 9533   3.670   5.193   4.419
 2878SOL    HW2 9534   3.788   5.300   4.454
 2879SOL     OW 9535   5.017   5.291   6.878
 2879SOL    HW1 9536   5.114   5.305   6.896
 2879SOL    HW2 9537   4.968   5.282   6.965
 2880SOL     OW 9538   6.312   6.652   0.680
 2880SOL    HW1 9539   6.287   6.569   0.730
 2880SOL    HW2 9540   6.405   6.643   0.645
 2881SOL     OW 9541   5.766   6.120   1.328
 2881SOL    HW1 9542   5.769   6.212   1.290
 2881SOL    HW2 9543   5.845   6.068   1.296
 2882SOL     OW 9544   0.660   3.642   2.249
 2882SOL    HW1 9545   0.697   3.551   2.228
 2882SOL    HW2 9546   0.586   3.633   2.315
 2883SOL     OW 9547   5.281   6.643   4.086
 2883SOL    HW1 9548   5.235   6.558   4.111
 2883SOL    HW2 9549   5.380   6.631   4.093
 2884SOL     OW 9550   0.835   5.271   2.775
 2884SOL    HW1 9551   0.739   5.269   2.750
 2884SOL    HW2 9552   0.870   5.364   2.766
 2885SOL     OW 9553   0.135   2.980   2.833
 2885SOL    HW1 9554   0.226   2.939   2.831
 2885SOL    HW2 9555   0.110   3.010   2.741
 2886SOL     OW 9556   2.019   3.682   0.023
 2886SOL    HW1 9557   2.053   3.653   6.955
 2886SOL    HW2 9558   2.044   3.614   0.092
 2887SOL     OW 9559   1.897   6.910   4.897
 2887SOL    HW1 9560   1.961   6.987   4.903
 2887SOL    HW2 9561   1.875   6.878   4.989
 2888SOL     OW 9562   0.405   4.505   6.666
 2888SOL    HW1 9563   0.406   4.539   6.760
 2888SOL    HW2 9564   0.499   4.503   6.631
 2889SOL     OW 9565   1.560   1.091   2.517
 2889SOL    HW1 9566   1.568   1.032   2.598
 2889SOL    HW2 9567   1.539   1.035   2.437
 2890SOL     OW 9568   2.689   0.642   0.829
 2890SOL    HW1 9569   2.771   0.644   0.887
 2890SOL    HW2 9570   2.612   0.680   0.880
 2891SOL     OW 9571   2.419   4.510   3.483
 2891SOL    HW1 9572   2.494   4.573   3.505
 2891SOL    HW2 9573   2.455   4.431   3.434
 2892SOL     OW 9574   5.231   3.979   0.631
 2892SOL    HW1 9575   5.269   4.013   0.717
 2892SOL    HW2 9576   5.196   3.886   0.644
 2893SOL     OW 9577   0.986   6.989   4.905
 2893SOL    HW1 9578   1.040   0.046   4.875
 2893SOL    HW2 9579   1.047   6.914   4.929
 2894SOL     OW 9580   3.399   2.869   6.756
 2894SOL    HW1 9581   3.357   2.952   6.718
 2894SOL    HW2 9582   3.457   2.826   6.687
 2895SOL     OW 9583   4.188   2.941   6.357
 2895SOL    HW1 9584   4.211   2.844   6.347
 2895SOL    HW2 9585   4.235   2.978   6.437
 2896SOL     OW 9586   2.844   4.903   6.300
 2896SOL    HW1 9587   2.771   4.867   6.358
 2896SOL    HW2 9588   2.894   4.974   6.349
 2897SOL     OW 9589   2.694   6.310   3.438
 2897SOL    HW1 9590   2.771   6.369   3.416
 2897SOL    HW2 9591   2.681   6.243   3.366
 2898SOL     OW 9592   4.668   5.095   3.275
 2898SOL    HW1 9593   4.679   5.048   3.363
 2898SOL    HW2 9594   4.576   5.133   3.269
 2899SOL     OW 9595   0.280   1.723   6.766
 2899SOL    HW1 9596   0.297   1.628   6.743
 2899SOL    HW2 9597   0.253   1.730   6.862
 2900SOL     OW 9598   0.977   4.994   5.258
 2900SOL    HW1 9599   0.982   5.036   5.168
 2900SOL    HW2 9600   0.956   5.064   5.326
 2901SOL     OW 9601   1.284   0.138   2.836
 2901SOL    HW1 9602   1.314   0.118   2.743
 2901SOL    HW2 9603   1.196   0.094   2.854
 2902SOL     OW 9604   5.866   6.302   0.877
 2902SOL    HW1 9605   5.878   6.395   0.845
 2902SOL    HW2 9606   5.768   6.279   0.879
 2903SOL     OW 9607   3.150   0.080   1.303
 2903SOL    HW1 9608   3.104   7.014   1.289
 2903SOL    HW2 9609   3.085   0.147   1.338
 2904SOL     OW 9610   2.289   2.968   5.607
 2904SOL    HW1 9611   2.232   3.042   5.643
 2904SOL    HW2 9612   2.278   2.963   5.508
 2905SOL     OW 9613   1.000   2.361   2.970
 2905SOL    HW1 9614   1.053   2.316   2.899
 2905SOL    HW2 9615   0.909   2.319   2.976
 2906SOL     OW 9616   5.389   5.072   2.665
 2906SOL    HW1 9617   5.414   5.094   2.571
 2906SOL    HW2 9618   5.455   5.007   2.704
 2907SOL     OW 9619   6.760   0.664   4.469
 2907SOL    HW1 9620   6.691   0.696   4.404
 2907SOL    HW2 9621   6.730   0.578   4.510
 2908SOL     OW 9622   4.312   6.610   4.025
 2908SOL    HW1 9623   4.341   6.587   3.932
 2908SOL    HW2 9624   4.219   6.575   4.040
 2909SOL     OW 9625   0.410   6.267   3.926
 2909SOL    HW1 9626   0.389   6.275   3.828
 2909SOL    HW2 9627   0.490   6.323   3.947
 2910SOL     OW 9628   4.452   6.837   4.234
 2910SOL    HW1 9629   4.509   6.902   4.184
 2910SOL    HW2 9630   4.496   6.747   4.231
 2911SOL     OW 9631   2.206   5.221   3.722
 2911SOL    HW1 9632   2.203   5.161   3.642
 2911SOL    HW2 9633   2.300   5.229   3.755
 2912SOL     OW 9634   3.682   6.082   0.134
 2912SOL    HW1 9635   3.694   6.065   0.036
 2912SOL    HW2 9636   3.642   6.001   0.177
 2913SOL     OW 9637   2.225   5.034   2.416
 2913SOL    HW1 9638   2.195   4.986   2.334
 2913SOL    HW2 9639   2.240   4.969   2.490
 2914SOL     OW 9640   6.072   5.323   6.513
 2914SOL    HW1 9641   6.084   5.422   6.511
 2914SOL    HW2 9642   5.982   5.299   6.478
 2915SOL     OW 9643   4.756   1.751   4.805
 2915SOL    HW1 9644   4.719   1.788   4.720
 2915SOL    HW2 9645   4.818   1.818   4.846
 2916SOL     OW 9646   6.219   5.292   5.822
 2916SOL    HW1 9647   6.149   5.222   5.836
 2916SOL    HW2 9648   6.204   5.337   5.733
 2917SOL     OW 9649   4.469   0.894   1.657
 2917SOL    HW1 9650   4.434   0.802   1.673
 2917SOL    HW2 9651   4.557   0.888   1.609
 2918SOL     OW 9652   0.209   3.294   3.198
 2918SOL    HW1 9653   0.165   3.285   3.287
 2918SOL    HW2 9654   0.308   3.279   3.208
 2919SOL     OW 9655   6.353   0.864   0.198
 2919SOL    HW1 9656   6.447   0.868   0.167
 2919SOL    HW2 9657   6.292   0.848   0.120
 2920SOL     OW 9658   3.589   1.854   2.239
 2920SOL    HW1 9659   3.513   1.841   2.303
 2920SOL    HW2 9660   3.675   1.855   2.290
 2921SOL     OW 9661   0.270   0.872   3.123
 2921SOL    HW1 9662   0.256   0.811   3.045
 2921SOL    HW2 9663   0.183   0.918   3.145
 2922SOL     OW 9664   6.001   6.468   6.993
 2922SOL    HW1 9665   6.059   6.509   0.042
 2922SOL    HW2 9666   5.916   6.435   0.013
 2923SOL     OW 9667   6.858   5.233   1.700
 2923SOL    HW1 9668   6.797   5.303   1.737
 2923SOL    HW2 9669   6.951   5.250   1.731
 2924SOL     OW 9670   6.870   1.950   6.411
 2924SOL    HW1 9671   6.942   1.969   6.477
 2924SOL    HW2 9672   6.809   2.029   6.403
 2925SOL     OW 9673   5.106   0.772   3.375
 2925SOL    HW1 9674   5.198   0.735   3.366
 2925SOL    HW2 9675   5.056   0.759   3.290
 2926SOL     OW 9676   6.784   1.203   5.484
 2926SOL    HW1 9677   6.746   1.166   5.399
 2926SOL    HW2 9678   6.764   1.300   5.490
 2927SOL     OW 9679   2.351   1.819   2.257
 2927SOL    HW1 9680   2.367   1.914   2.232
 2927SOL    HW2 9681   2.257   1.794   2.234
 2928SOL     OW 9682   6.778   2.729   6.128
 2928SOL    HW1 9683   6.764   2.814   6.178
 2928SOL    HW2 9684   6.754   2.743   6.032
 2929SOL     OW 9685   0.939   1.431   5.560
 2929SOL    HW1 9686   0.894   1.460   5.476
 2929SOL    HW2 9687   0.872   1.387   5.620
 2930SOL     OW 9688   5.148   6.483   4.821
 2930SOL    HW1 9689   5.209   6.484   4.900
 2930SOL    HW2 9690   5.076   6.551   4.833
 2931SOL     OW 9691   5.456   6.410   6.528
 2931SOL    HW1 9692   5.380   6.411   6.463
 2931SOL    HW2 9693   5.452   6.492   6.585
 2932SOL     OW 9694   1.632   4.917   1.965
 2932SOL    HW1 9695   1.573   4.931   2.044
 2932SOL    HW2 9696   1.577   4.921   1.881
 2933SOL     OW 9697   5.561   2.853   3.593
 2933SOL    HW1 9698   5.637   2.916   3.572
 2933SOL    HW2 9699   5.498   2.898   3.656
 2934SOL     OW 9700   3.574   1.246   0.431
 2934SOL    HW1 9701   3.616   1.219   0.517
 2934SOL    HW2 9702   3.516   1.326   0.446
 2935SOL     OW 9703   6.181   3.053   1.738
 2935SOL    HW1 9704   6.148   3.045   1.832
 2935SOL    HW2 9705   6.153   2.973   1.686
 2936SOL     OW 9706   4.980   5.577   1.685
 2936SOL    HW1 9707   5.044   5.614   1.618
 2936SOL    HW2 9708   4.976   5.637   1.765
 2937SOL     OW 9709   3.420   4.842   0.517
 2937SOL    HW1 9710   3.484   4.885   0.454
 2937SOL    HW2 9711   3.393   4.908   0.587
 2938SOL     OW 9712   5.004   4.896   5.751
 2938SOL    HW1 9713   4.957   4.979   5.781
 2938SOL    HW2 9714   4.941   4.839   5.699
 2939SOL     OW 9715   0.411   6.810   3.917
 2939SOL    HW1 9716   0.503   6.846   3.901
 2939SOL    HW2 9717   0.356   6.824   3.835
 2940SOL     OW 9718   6.030   0.104   5.629
 2940SOL    HW1 9719   6.086   0.177   5.590
 2940SOL    HW2 9720   5.942   0.101   5.581
 2941SOL     OW 9721   2.143   2.425   5.379
 2941SOL    HW1 9722   2.242   2.427   5.363
 2941SOL    HW2 9723   2.122   2.477   5.461
 2942SOL     OW 9724   2.387   0.758   2.310
 2942SOL    HW1 9725   2.318   0.708   2.257
 2942SOL    HW2 9726   2.357   0.764   2.405
 2943SOL     OW 9727   5.482   3.602   3.401
 2943SOL    HW1 9728   5.402   3.649   3.364
 2943SOL    HW2 9729   5.455   3.548   3.481
 2944SOL     OW 9730   2.735   5.475   5.529
 2944SOL    HW1 9731   2.809   5.456   5.463
 2944SOL    HW2 9732   2.770   5.531   5.604
 2945SOL     OW 9733   4.024   3.215   3.307
 2945SOL    HW1 9734   4.090   3.280   3.345
 2945SOL    HW2 9735   3.932   3.254   3.313
 2946SOL     OW 9736   6.906   5.389   5.925
 2946SOL    HW1 9737   6.984   5.326   5.915
 2946SOL    HW2 9738   6.919   5.467   5.865
 2947SOL     OW 9739   1.008   4.512   0.656
 2947SOL    HW1 9740   1.105   4.536   0.648
 2947SOL    HW2 9741   0.992   4.471   0.745
 2948SOL     OW 9742   6.659   3.602   5.394
 2948SOL    HW1 9743   6.614   3.658   5.325
 2948SOL    HW2 9744   6.734   3.551   5.352
 2949SOL     OW 9745   1.916   6.205   1.083
 2949SOL    HW1 9746   1.836   6.146   1.068
 2949SOL    HW2 9747   1.936   6.255   1.000
 2950SOL     OW 9748   5.375   3.332   4.698
 2950SOL    HW1 9749   5.391   3.255   4.637
 2950SOL    HW2 9750   5.286   3.321   4.742
 2951SOL     OW 9751   6.524   2.437   0.157
 2951SOL    HW1 9752   6.551   2.465   0.250
 2951SOL    HW2 9753   6.600   2.388   0.114
 2952SOL     OW 9754   1.226   5.631   4.808
 2952SOL    HW1 9755   1.208   5.680   4.893
 2952SOL    HW2 9756   1.322   5.603   4.805
 2953SOL     OW 9757   4.626   2.578   2.303
 2953SOL    HW1 9758   4.652   2.608   2.211
 2953SOL    HW2 9759   4.570   2.495   2.296
 2954SOL     OW 9760   1.044   5.503   1.319
 2954SOL    HW1 9761   1.042   5.570   1.245
 2954SOL    HW2 9762   0.955   5.500   1.364
 2955SOL     OW 9763   0.893   3.492   0.658
 2955SOL    HW1 9764   0.936   3.533   0.738
 2955SOL    HW2 9765   0.803   3.533   0.643
 2956SOL     OW 9766   6.282   5.889   2.945
 2956SOL    HW1 9767   6.256   5.795   2.966
 2956SOL    HW2 9768   6.352   5.889   2.874
 2957SOL     OW 9769   6.183   3.294   1.353
 2957SOL    HW1 9770   6.161   3.385   1.388
 2957SOL    HW2 9771   6.152   3.286   1.258
 2958SOL     OW 9772   2.645   4.749   4.832
 2958SOL    HW1 9773   2.715   4.760   4.762
 2958SOL    HW2 9774   2.686   4.709   4.914
 2959SOL     OW 9775   4.795   4.645   0.584
 2959SOL    HW1 9776   4.835   4.620   0.495
 2959SOL    HW2 9777   4.866   4.640   0.654
 2960SOL     OW 9778   2.984   0.839   6.632
 2960SOL    HW1 9779   3.011   0.755   6.678
 2960SOL    HW2 9780   2.889   0.861   6.657
 2961SOL     OW 9781   5.287   2.582   4.557
 2961SOL    HW1 9782   5.262   2.566   4.461
 2961SOL    HW2 9783   5.217   2.544   4.617
 2962SOL     OW 9784   4.332   0.699   3.788
 2962SOL    HW1 9785   4.359   0.661   3.699
 2962SOL    HW2 9786   4.390   0.661   3.859
 2963SOL     OW 9787   1.757   1.783   5.562
 2963SOL    HW1 9788   1.699   1.858   5.594
 2963SOL    HW2 9789   1.853   1.805   5.583
 2964SOL     OW 9790   1.279   6.957   1.597
 2964SOL    HW1 9791   1.315   6.927   1.685
 2964SOL    HW2 9792   1.182   6.936   1.592
 2965SOL     OW 9793   0.032   1.275   5.176
 2965SOL    HW1 9794   0.011   1.345   5.245
 2965SOL    HW2 9795   6.998   1.193   5.194
 2966SOL     OW 9796   6.211   4.846   3.955
 2966SOL    HW1 9797   6.135   4.877   3.899
 2966SOL    HW2 9798   6.271   4.924   3.976
 2967SOL     OW 9799   6.277   2.330   3.950
 2967SOL    HW1 9800   6.184   2.359   3.927
 2967SOL    HW2 9801   6.279   2.298   4.045
 2968SOL     OW 9802   0.844   4.214   5.601
 2968SOL    HW1 9803   0.927   4.193   5.550
 2968SOL    HW2 9804   0.783   4.134   5.599
 2969SOL     OW 9805   5.804   1.178   4.825
 2969SOL    HW1 9806   5.726   1.241   4.818
 2969SOL    HW2 9807   5.887   1.231   4.842
 2970SOL     OW 9808   1.506   4.252   0.077
 2970SOL    HW1 9809   1.411   4.262   0.048
 2970SOL    HW2 9810   1.531   4.330   0.135
 2971SOL     OW 9811   5.183   2.678   5.023
 2971SOL    HW1 9812   5.084   2.693   5.022
 2971SOL    HW2 9813   5.223   2.710   4.937
 2972SOL     OW 9814   6.711   5.143   6.100
 2972SOL    HW1 9815   6.710   5.241   6.082
 2972SOL    HW2 9816   6.698   5.093   6.014
 2973SOL     OW 9817   5.355   1.211   4.394
 2973SOL    HW1 9818   5.352   1.293   4.337
 2973SOL    HW2 9819   5.296   1.141   4.353
 2974SOL     OW 9820   0.237   3.556   3.029
 2974SOL    HW1 9821   0.264   3.651   3.047
 2974SOL    HW2 9822   0.182   3.522   3.104
 2975SOL     OW 9823   0.333   2.091   5.295
 2975SOL    HW1 9824   0.299   2.102   5.388
 2975SOL    HW2 9825   0.340   2.181   5.252
 2976SOL     OW 9826   3.678   1.288   2.461
 2976SOL    HW1 9827   3.689   1.197   2.419
 2976SOL    HW2 9828   3.709   1.285   2.555
 2977SOL     OW 9829   1.882   0.468   4.464
 2977SOL    HW1 9830   1.879   0.415   4.380
 2977SOL    HW2 9831   1.909   0.409   4.540
 2978SOL     OW 9832   4.288   4.799   6.637
 2978SOL    HW1 9833   4.283   4.887   6.588
 2978SOL    HW2 9834   4.204   4.786   6.689
 2979SOL     OW 9835   4.597   6.590   3.952
 2979SOL    HW1 9836   4.527   6.600   4.022
 2979SOL    HW2 9837   4.669   6.658   3.968
 2980SOL     OW 9838   1.647   5.632   3.772
 2980SOL    HW1 9839   1.667   5.581   3.688
 2980SOL    HW2 9840   1.682   5.725   3.762
 2981SOL     OW 9841   0.611   0.209   5.915
 2981SOL    HW1 9842   0.628   0.258   6.001
 2981SOL    HW2 9843   0.693   0.157   5.890
 2982SOL     OW 9844   5.034   6.096   3.126
 2982SOL    HW1 9845   4.974   6.020   3.101
 2982SOL    HW2 9846   5.006   6.178   3.076
 2983SOL     OW 9847   0.857   1.299   4.601
 2983SOL    HW1 9848   0.805   1.377   4.637
 2983SOL    HW2 9849   0.885   1.318   4.507
 2984SOL     OW 9850   4.761   5.770   1.575
 2984SOL    HW1 9851   4.683   5.710   1.594
 2984SOL    HW2 9852   4.784   5.821   1.657
 2985SOL     OW 9853   0.898   2.281   4.896
 2985SOL    HW1 9854   0.917   2.372   4.933
 2985SOL    HW2 9855   0.984   2.232   4.883
 2986SOL     OW 9856   1.799   3.942   6.682
 2986SOL    HW1 9857   1.789   3.860   6.738
 2986SOL    HW2 9858   1.896   3.966   6.676
 2987SOL     OW 9859   4.914   0.812   3.833
 2987SOL    HW1 9860   4.993   0.770   3.789
 2987SOL    HW2 9861   4.830   0.774   3.795
 2988SOL     OW 9862   0.250   6.863   3.116
 2988SOL    HW1 9863   0.255   6.926   3.039
 2988SOL    HW2 9864   0.202   6.908   3.192
 2989SOL     OW 9865   6.368   6.034   0.894
 2989SOL    HW1 9866   6.435   6.010   0.824
 2989SOL    HW2 9867   6.389   6.126   0.929
 2990SOL     OW 9868   4.373   1.153   3.552
 2990SOL    HW1 9869   4.385   1.073   3.611
 2990SOL    HW2 9870   4.456   1.169   3.499
 2991SOL     OW 9871   6.876   3.853   0.497
 2991SOL    HW1 9872   6.922   3.938   0.520
 2991SOL    HW2 9873   6.823   3.865   0.413
 2992SOL     OW 9874   2.007   5.131   5.723
 2992SOL    HW1 9875   2.058   5.045   5.721
 2992SOL    HW2 9876   1.978   5.155   5.631
 2993SOL     OW 9877   1.061   4.922   2.070
 2993SOL    HW1 9878   1.122   4.843   2.067
 2993SOL    HW2 9879   0.989   4.912   2.002
 2994SOL     OW 9880   3.854   0.966   0.384
 2994SOL    HW1 9881   3.904   0.998   0.464
 2994SOL    HW2 9882   3.755   0.973   0.401
 2995SOL     OW 9883   0.969   3.101   6.907
 2995SOL    HW1 9884   1.058   3.094   6.952
 2995SOL    HW2 9885   0.969   3.046   6.824
 2996SOL     OW 9886   2.931   6.050   4.181
 2996SOL    HW1 9887   2.844   6.081   4.143
 2996SOL    HW2 9888   2.917   5.961   4.226
 2997SOL     OW 9889   4.640   6.473   1.982
 2997SOL    HW1 9890   4.736   6.452   2.002
 2997SOL    HW2 9891   4.633   6.515   1.892
 2998SOL     OW 9892   5.262   6.259   5.265
 2998SOL    HW1 9893   5.214   6.219   5.186
 2998SOL    HW2 9894   5.197   6.273   5.339
 2999SOL     OW 9895   3.639   5.890   3.872
 2999SOL    HW1 9896   3.735   5.916   3.883
 2999SOL    HW2 9897   3.632   5.811   3.811
 3000SOL     OW 9898   1.474   3.626   6.678
 3000SOL    HW1 9899   1.527   3.603   6.760
 3000SOL    HW2 9900   1.377   3.632   6.701
 3001SOL     OW 9901   5.717   0.146   6.913
 3001SOL    HW1 9902   5.760   0.233   6.889
 3001SOL    HW2 9903   5.633   0.164   6.964
 3002SOL     OW 9904   4.313   0.731   5.311
 3002SOL    HW1 9905   4.218   0.715   5.286
 3002SOL    HW2 9906   4.318   0.754   5.408
 3003SOL     OW 9907   2.442   6.559   6.871
 3003SOL    HW1 9908   2.466   6.558   6.774
 3003SOL    HW2 9909   2.425   6.653   6.900
 3004SOL     OW 9910   0.222   5.027   3.921
 3004SOL    HW1 9911   0.310   4.980   3.926
 3004SOL    HW2 9912   0.225   5.108   3.980
 3005SOL     OW 9913   3.288   2.624   0.845
 3005SOL    HW1 9914   3.379   2.629   0.886
 3005SOL    HW2 9915   3.249   2.533   0.861
 3006SOL     OW 9916   6.372   2.228   0.241
 3006SOL    HW1 9917   6.422   2.298   0.190
 3006SOL    HW2 9918   6.274   2.238   0.224
 3007SOL     OW 9919   6.244   5.121   2.399
 3007SOL    HW1 9920   6.172   5.179   2.360
 3007SOL    HW2 9921   6.239   5.029   2.359
 3008SOL     OW 9922   3.951   0.682   6.629
 3008SOL    HW1 9923   3.957   0.730   6.716
 3008SOL    HW2 9924   3.884   0.608   6.635
 3009SOL     OW 9925   0.726   6.433   2.612
 3009SOL    HW1 9926   0.653   6.501   2.616
 3009SOL    HW2 9927   0.740   6.406   2.516
 3010SOL     OW 9928   3.793   5.948   3.492
 3010SOL    HW1 9929   3.734   5.994   3.559
 3010SOL    HW2 9930   3.874   6.004   3.475
 3011SOL     OW 9931   5.550   1.073   0.248
 3011SOL    HW1 9932   5.629   1.076   0.186
 3011SOL    HW2 9933   5.467   1.097   0.197
 3012SOL     OW 9934   1.417   4.044   5.020
 3012SOL    HW1 9935   1.438   4.013   5.113
 3012SOL    HW2 9936   1.356   4.124   5.026
 3013SOL     OW 9937   5.546   5.726   3.976
 3013SOL    HW1 9938   5.617   5.680   3.923
 3013SOL    HW2 9939   5.542   5.687   4.068
 3014SOL     OW 9940   5.115   2.534   4.065
 3014SOL    HW1 9941   5.101   2.549   3.967
 3014SOL    HW2 9942   5.212   2.514   4.081
 3015SOL     OW 9943   3.566   2.332   0.746
 3015SOL    HW1 9944   3.513   2.414   0.721
 3015SOL    HW2 9945   3.659   2.341   0.709
 3016SOL     OW 9946   3.237   5.996   4.648
 3016SOL    HW1 9947   3.149   5.964   4.683
 3016SOL    HW2 9948   3.249   5.965   4.554
 3017SOL     OW 9949   1.055   5.143   1.614
 3017SOL    HW1 9950   1.011   5.054   1.597
 3017SOL    HW2 9951   1.125   5.132   1.685
 3018SOL     OW 9952   3.138   7.003   5.901
 3018SOL    HW1 9953   3.124   0.025   5.812
 3018SOL    HW2 9954   3.053   6.962   5.932
 3019SOL     OW 9955   2.323   6.783   0.945
 3019SOL    HW1 9956   2.387   6.806   0.871
 3019SOL    HW2 9957   2.332   6.849   1.019
 3020SOL     OW 9958   3.399   3.951   1.605
 3020SOL    HW1 9959   3.338   3.908   1.539
 3020SOL    HW2 9960   3.368   4.044   1.624
 3021SOL     OW 9961   2.143   1.312   0.568
 3021SOL    HW1 9962   2.141   1.322   0.468
 3021SOL    HW2 9963   2.217   1.366   0.606
 3022SOL     OW 9964   4.157   6.012   2.841
 3022SOL    HW1 9965   4.182   5.991   2.936
 3022SOL    HW2 9966   4.110   5.933   2.801
 3023SOL     OW 9967   3.675   6.530   2.504
 3023SOL    HW1 9968   3.610   6.494   2.572
 3023SOL    HW2 9969   3.624   6.579   2.433
 3024SOL     OW 9970   3.613   0.330   6.201
 3024SOL    HW1 9971   3.563   0.304   6.284
 3024SOL    HW2 9972   3.678   0.257   6.178
 3025SOL     OW 9973   3.537   2.501   0.313
 3025SOL    HW1 9974   3.501   2.487   0.221
 3025SOL    HW2 9975   3.536   2.413   0.362
 3026SOL     OW 9976   1.813   2.390   0.783
 3026SOL    HW1 9977   1.801   2.291   0.778
 3026SOL    HW2 9978   1.726   2.433   0.807
 3027SOL     OW 9979   4.097   0.960   1.641
 3027SOL    HW1 9980   4.163   1.025   1.604
 3027SOL    HW2 9981   4.019   0.952   1.578
 3028SOL     OW 9982   1.114   4.587   6.682
 3028SOL    HW1 9983   1.161   4.631   6.759
 3028SOL    HW2 9984   1.166   4.506   6.654
 3029SOL     OW 9985   0.089   4.883   4.791
 3029SOL    HW1 9986   0.155   4.958   4.794
 3029SOL    HW2 9987   0.137   4.795   4.795
 3030SOL     OW 9988   0.543   2.397   5.657
 3030SOL    HW1 9989   0.467   2.445   5.700
 3030SOL    HW2 9990   0.630   2.433   5.692
 3031SOL     OW 9991   0.233   3.662   0.935
 3031SOL    HW1 9992   0.283   3.676   0.850
 3031SOL    HW2 9993   0.293   3.679   1.013
 3032SOL     OW 9994   5.106   0.098   0.615
 3032SOL    HW1 9995   5.198   0.104   0.575
 3032SOL    HW2 9996   5.042   0.066   0.546
 3033SOL     OW 9997   1.242   2.554   0.744
 3033SOL    HW1 9998   1.263   2.633   0.685
 3033SOL    HW2 9999   1.303   2.478   0.720
 3034SOL     OW10000   2.199   6.240   3.882
 3034SOL    HW110001   2.266   6.196   3.943
 3034SOL    HW210002   2.177   6.331   3.917
 3035SOL     OW10003   6.845   3.070   0.190
 3035SOL    HW110004   6.770   3.061   0.255
 3035SOL    HW210005   6.813   3.118   0.109
 3036SOL     OW10006   1.614   3.187   6.920
 3036SOL    HW110007   1.663   3.228   6.842
 3036SOL    HW210008   1.680   3.145   6.982
 3037SOL     OW10009   5.977   5.619   5.198
 3037SOL    HW110010   5.944   5.669   5.278
 3037SOL    HW210011   5.979   5.679   5.119
 3038SOL     OW10012   5.918   6.543   6.530
 3038SOL    HW110013   5.847   6.602   6.491
 3038SOL    HW210014   6.008   6.583   6.512
 3039SOL     OW10015   6.512   3.712   2.297
 3039SOL    HW110016   6.546   3.706   2.204
 3039SOL    HW210017   6.414   3.692   2.299
 3040SOL     OW10018   5.139   3.767   6.182
 3040SOL    HW110019   5.104   3.857   6.157
 3040SOL    HW210020   5.185   3.773   6.271
 3041SOL     OW10021   2.325   2.531   5.683
 3041SOL    HW110022   2.341   2.496   5.591
 3041SOL    HW210023   2.313   2.630   5.680
 3042SOL     OW10024   5.268   6.849   1.749
 3042SOL    HW110025   5.289   6.832   1.845
 3042SOL    HW210026   5.352   6.842   1.695
 3043SOL     OW10027   0.560   5.359   0.844
 3043SOL    HW110028   0.488   5.309   0.892
 3043SOL    HW210029   0.561   5.454   0.876
 3044SOL     OW10030   2.926   4.635   6.065
 3044SOL    HW110031   2.826   4.638   6.063
 3044SOL    HW210032   2.962   4.714   6.016
 3045SOL     OW10033   4.891   0.598   2.435
 3045SOL    HW110034   4.825   0.601   2.360
 3045SOL    HW210035   4.849   0.634   2.518
 3046SOL     OW10036   1.709   2.227   5.697
 3046SOL    HW110037   1.727   2.235   5.795
 3046SOL    HW210038   1.737   2.312   5.651
 3047SOL     OW10039   4.842   6.021   2.536
 3047SOL    HW110040   4.797   5.940   2.572
 3047SOL    HW210041   4.775   6.095   2.527
 3048SOL     OW10042   3.462   3.055   1.829
 3048SOL    HW110043   3.544   3.037   1.774
 3048SOL    HW210044   3.482   3.128   1.895
 3049SOL     OW10045   1.365   6.190   1.595
 3049SOL    HW110046   1.348   6.091   1.594
 3049SOL    HW210047   1.447   6.210   1.541
 3050SOL     OW10048   3.617   0.400   3.813
 3050SOL    HW110049   3.658   0.458   3.743
 3050SOL    HW210050   3.544   0.451   3.859
 3051SOL     OW10051   2.780   3.634   0.115
 3051SOL    HW110052   2.760   3.545   0.074
 3051SOL    HW210053   2.696   3.673   0.153
 3052SOL     OW10054   4.377   0.937   2.110
 3052SOL    HW110055   4.404   0.992   2.031
 3052SOL    HW210056   4.362   0.997   2.189
 3053SOL     OW10057   6.465   0.541   6.552
 3053SOL    HW110058   6.517   0.468   6.596
 3053SOL    HW210059   6.447   0.516   6.457
 3054SOL     OW10060   0.937   2.613   0.747
 3054SOL    HW110061   1.021   2.566   0.722
 3054SOL    HW210062   0.949   2.712   0.738
 3055SOL     OW10063   4.650   6.896   3.660
 3055SOL    HW110064   4.593   6.878   3.741
 3055SOL    HW210065   4.604   6.963   3.602
 3056SOL     OW10066   0.120   0.507   6.480
 3056SOL    HW110067   0.187   0.547   6.417
 3056SOL    HW210068   0.117   0.408   6.466
 3057SOL     OW10069   4.224   5.528   2.740
 3057SOL    HW110070   4.240   5.551   2.644
 3057SOL    HW210071   4.136   5.481   2.749
 3058SOL     OW10072   6.884   5.613   1.560
 3058SOL    HW110073   6.849   5.562   1.481
 3058SOL    HW210074   6.808   5.637   1.620
 3059SOL     OW10075   1.977   2.357   5.155
 3059SOL    HW110076   1.943   2.445   5.120
 3059SOL    HW210077   2.024   2.372   5.242
 3060SOL     OW10078   0.609   6.187   0.307
 3060SOL    HW110079   0.643   6.129   0.233
 3060SOL    HW210080   0.602   6.281   0.274
 3061SOL     OW10081   6.551   1.067   4.983
 3061SOL    HW110082   6.483   1.022   4.926
 3061SOL    HW210083   6.578   1.154   4.941
 3062SOL     OW10084   1.544   7.008   0.313
 3062SOL    HW110085   1.457   6.998   0.361
 3062SOL    HW210086   1.533   6.978   0.218
 3063SOL     OW10087   2.659   5.425   1.723
 3063SOL    HW110088   2.699   5.506   1.766
 3063SOL    HW210089   2.712   5.344   1.749
 3064SOL     OW10090   6.234   3.492   3.875
 3064SOL    HW110091   6.190   3.536   3.796
 3064SOL    HW210092   6.259   3.398   3.850
 3065SOL     OW10093   1.654   0.818   6.716
 3065SOL    HW110094   1.733   0.873   6.742
 3065SOL    HW210095   1.595   0.871   6.654
 3066SOL     OW10096   5.645   4.802   0.733
 3066SOL    HW110097   5.701   4.719   0.730
 3066SOL    HW210098   5.705   4.882   0.731
 3067SOL     OW10099   3.340   1.794   4.398
 3067SOL    HW110100   3.365   1.718   4.458
 3067SOL    HW210101   3.240   1.799   4.392
 3068SOL     OW10102   5.576   6.038   0.555
 3068SOL    HW110103   5.589   5.941   0.573
 3068SOL    HW210104   5.664   6.086   0.562
 3069SOL     OW10105   6.727   6.328   1.502
 3069SOL    HW110106   6.766   6.237   1.485
 3069SOL    HW210107   6.633   6.331   1.467
 3070SOL     OW10108   1.816   1.263   2.098
 3070SOL    HW110109   1.721   1.273   2.125
 3070SOL    HW210110   1.870   1.228   2.174
 3071SOL     OW10111   6.197   6.257   3.774
 3071SOL    HW110112   6.252   6.232   3.695
 3071SOL    HW210113   6.202   6.355   3.789
 3072SOL     OW10114   0.783   6.661   0.649
 3072SOL    HW110115   0.733   6.581   0.681
 3072SOL    HW210116   0.781   6.665   0.550
 3073SOL     OW10117   0.826   3.188   4.908
 3073SOL    HW110118   0.797   3.095   4.888
 3073SOL    HW210119   0.917   3.186   4.950
 3074SOL     OW10120   5.711   3.049   0.746
 3074SOL    HW110121   5.627   3.009   0.782
 3074SOL    HW210122   5.758   2.982   0.688
 3075SOL     OW10123   1.860   6.263   1.375
 3075SOL    HW110124   1.859   6.224   1.283
 3075SOL    HW210125   1.790   6.333   1.382
 3076SOL     OW10126   6.526   0.640   4.281
 3076SOL    HW110127   6.485   0.575   4.344
 3076SOL    HW210128   6.564   0.592   4.202
 3077SOL     OW10129   5.214   5.140   2.879
 3077SOL    HW110130   5.290   5.132   2.814
 3077SOL    HW210131   5.186   5.049   2.909
 3078SOL     OW10132   2.088   3.075   1.189
 3078SOL    HW110133   2.133   3.098   1.276
 3078SOL    HW210134   2.050   3.158   1.148
 3079SOL     OW10135   1.937   2.870   4.381
 3079SOL    HW110136   1.859   2.858   4.319
 3079SOL    HW210137   1.905   2.867   4.476
 3080SOL     OW10138   5.674   4.597   2.909
 3080SOL    HW110139   5.583   4.572   2.877
 3080SOL    HW210140   5.681   4.697   2.913
 3081SOL     OW10141   0.562   4.001   6.228
 3081SOL    HW110142   0.471   3.960   6.218
 3081SOL    HW210143   0.623   3.962   6.160
 3082SOL     OW10144   3.785   6.572   3.577
 3082SOL    HW110145   3.860   6.614   3.628
 3082SOL    HW210146   3.783   6.474   3.595
 3083SOL     OW10147   4.072   6.340   3.429
 3083SOL    HW110148   4.098   6.421   3.480
 3083SOL    HW210149   4.104   6.349   3.334
 3084SOL     OW10150   4.784   4.612   4.537
 3084SOL    HW110151   4.777   4.663   4.452
 3084SOL    HW210152   4.762   4.672   4.614
 3085SOL     OW10153   0.443   4.426   2.540
 3085SOL    HW110154   0.429   4.487   2.617
 3085SOL    HW210155   0.506   4.353   2.566
 3086SOL     OW10156   4.244   1.654   1.534
 3086SOL    HW110157   4.322   1.635   1.594
 3086SOL    HW210158   4.225   1.574   1.477
 3087SOL     OW10159   0.688   4.801   3.846
 3087SOL    HW110160   0.757   4.873   3.845
 3087SOL    HW210161   0.643   4.797   3.757
 3088SOL     OW10162   2.258   5.003   5.199
 3088SOL    HW110163   2.167   4.992   5.158
 3088SOL    HW210164   2.324   4.948   5.148
 3089SOL     OW10165   0.830   2.726   0.344
 3089SOL    HW110166   0.844   2.799   0.412
 3089SOL    HW210167   0.833   2.765   0.252
 3090SOL     OW10168   1.808   2.270   1.913
 3090SOL    HW110169   1.787   2.332   1.988
 3090SOL    HW210170   1.847   2.185   1.949
 3091SOL     OW10171   2.852   6.371   0.055
 3091SOL    HW110172   2.801   6.288   0.033
 3091SOL    HW210173   2.794   6.451   0.041
 3092SOL     OW10174   5.122   0.280   6.641
 3092SOL    HW110175   5.072   0.194   6.631
 3092SOL    HW210176   5.058   0.355   6.657
 3093SOL     OW10177   5.583   4.844   5.925
 3093SOL    HW110178   5.586   4.822   6.023
 3093SOL    HW210179   5.488   4.850   5.896
 3094SOL     OW10180   3.474   0.020   5.010
 3094SOL    HW110181   3.374   0.015   5.003
 3094SOL    HW210182   3.500   0.088   5.077
 3095SOL     OW10183   2.674   5.226   4.435
 3095SOL    HW110184   2.586   5.196   4.400
 3095SOL    HW210185   2.719   5.151   4.483
 3096SOL     OW10186   0.818   0.303   4.227
 3096SOL    HW110187   0.842   0.356   4.146
 3096SOL    HW210188   0.800   0.365   4.303
 3097SOL     OW10189   0.606   2.678   0.885
 3097SOL    HW110190   0.545   2.744   0.929
 3097SOL    HW210191   0.590   2.678   0.786
 3098SOL     OW10192   2.637   3.574   1.369
 3098SOL    HW110193   2.598   3.568   1.460
 3098SOL    HW210194   2.570   3.615   1.306
 3099SOL     OW10195   0.034   5.893   5.182
 3099SOL    HW110196   0.053   5.990   5.194
 3099SOL    HW210197   6.975   5.881   5.123
 3100SOL     OW10198   6.722   0.422   4.580
 3100SOL    HW110199   6.728   0.381   4.671
 3100SOL    HW210200   6.795   0.385   4.521
 3101SOL     OW10201   4.845   6.094   5.255
 3101SOL    HW110202   4.852   6.146   5.170
 3101SOL    HW210203   4.749   6.074   5.275
 3102SOL     OW10204   0.983   5.196   2.383
 3102SOL    HW110205   1.010   5.114   2.332
 3102SOL    HW210206   0.984   5.176   2.481
 3103SOL     OW10207   3.165   1.777   1.493
 3103SOL    HW110208   3.155   1.751   1.396
 3103SOL    HW210209   3.087   1.742   1.544
 3104SOL     OW10210   6.022   0.161   4.380
 3104SOL    HW110211   6.049   0.080   4.327
 3104SOL    HW210212   6.103   0.201   4.422
 3105SOL     OW10213   6.777   5.129   2.855
 3105SOL    HW110214   6.707   5.176   2.908
 3105SOL    HW210215   6.747   5.035   2.835
 3106SOL     OW10216   6.701   1.322   2.937
 3106SOL    HW110217   6.763   1.396   2.915
 3106SOL    HW210218   6.638   1.351   3.009
 3107SOL     OW10219   3.439   0.310   4.214
 3107SOL    HW110220   3.448   0.382   4.283
 3107SOL    HW210221   3.380   0.237   4.249
 3108SOL     OW10222   1.764   0.733   4.486
 3108SOL    HW110223   1.811   0.646   4.476
 3108SOL    HW210224   1.712   0.752   4.403
 3109SOL     OW10225   5.983   6.056   2.909
 3109SOL    HW110226   6.069   6.093   2.944
 3109SOL    HW210227   5.974   6.078   2.812
 3110SOL     OW10228   1.158   1.591   3.745
 3110SOL    HW110229   1.084   1.525   3.737
 3110SOL    HW210230   1.139   1.654   3.821
 3111SOL     OW10231   6.593   5.558   4.068
 3111SOL    HW110232   6.650   5.620   4.121
 3111SOL    HW210233   6.505   5.545   4.115
 3112SOL     OW10234   5.046   2.509   6.674
 3112SOL    HW110235   5.107   2.563   6.732
 3112SOL    HW210236   5.075   2.413   6.674
 3113SOL     OW10237   1.905   0.059   4.314
 3113SOL    HW110238   1.907   6.989   4.275
 3113SOL    HW210239   1.939   0.057   4.408
 3114SOL     OW10240   4.679   3.132   0.113
 3114SOL    HW110241   4.684   3.046   0.163
 3114SOL    HW210242   4.586   3.146   0.080
 3115SOL     OW10243   5.100   3.349   0.395
 3115SOL    HW110244   5.008   3.344   0.355
 3115SOL    HW210245   5.164   3.381   0.325
 3116SOL     OW10246   0.448   3.708   0.078
 3116SOL    HW110247   0.438   3.640   0.005
 3116SOL    HW210248   0.402   3.793   0.052
 3117SOL     OW10249   4.334   3.762   5.223
 3117SOL    HW110250   4.373   3.836   5.278
 3117SOL    HW210251   4.404   3.728   5.159
 3118SOL     OW10252   0.116   4.574   6.747
 3118SOL    HW110253   0.189   4.541   6.687
 3118SOL    HW210254   0.077   4.658   6.710
 3119SOL     OW10255   2.010   3.661   5.905
 3119SOL    HW110256   1.986   3.566   5.884
 3119SOL    HW210257   2.070   3.697   5.834
 3120SOL     OW10258   2.260   6.438   4.527
 3120SOL    HW110259   2.193   6.364   4.528
 3120SOL    HW210260   2.225   6.515   4.473
 3121SOL     OW10261   0.607   1.615   2.283
 3121SOL    HW110262   0.520   1.642   2.324
 3121SOL    HW210263   0.595   1.599   2.185
 3122SOL     OW10264   3.080   5.715   5.997
 3122SOL    HW110265   3.057   5.773   6.075
 3122SOL    HW210266   3.127   5.632   6.030
 3123SOL     OW10267   3.486   6.329   3.750
 3123SOL    HW110268   3.555   6.266   3.714
 3123SOL    HW210269   3.530   6.415   3.774
 3124SOL     OW10270   4.185   0.030   4.841
 3124SOL    HW110271   4.189   6.974   4.903
 3124SOL    HW210272   4.217   0.113   4.888
 3125SOL     OW10273   6.229   2.247   6.163
 3125SOL    HW110274   6.236   2.337   6.120
 3125SOL    HW210275   6.188   2.256   6.254
 3126SOL     OW10276   5.192   4.302   6.723
 3126SOL    HW110277   5.261   4.295   6.795
 3126SOL    HW210278   5.191   4.218   6.669
 3127SOL     OW10279   0.441   2.420   3.250
 3127SOL    HW110280   0.492   2.502   3.278
 3127SOL    HW210281   0.505   2.354   3.211
 3128SOL     OW10282   2.107   6.828   0.017
 3128SOL    HW110283   2.150   6.844   6.950
 3128SOL    HW210284   2.177   6.829   0.089
 3129SOL     OW10285   0.783   4.187   6.670
 3129SOL    HW110286   0.756   4.225   6.759
 3129SOL    HW210287   0.873   4.222   6.645
 3130SOL     OW10288   2.356   4.378   2.446
 3130SOL    HW110289   2.392   4.292   2.410
 3130SOL    HW210290   2.328   4.366   2.542
 3131SOL     OW10291   0.720   3.095   1.971
 3131SOL    HW110292   0.802   3.077   1.917
 3131SOL    HW210293   0.643   3.044   1.933
 3132SOL     OW10294   5.007   5.856   5.781
 3132SOL    HW110295   5.074   5.873   5.854
 3132SOL    HW210296   4.977   5.943   5.742
 3133SOL     OW10297   2.778   2.351   3.815
 3133SOL    HW110298   2.691   2.304   3.827
 3133SOL    HW210299   2.813   2.379   3.904
 3134SOL     OW10300   5.311   3.846   1.973
 3134SOL    HW110301   5.265   3.862   2.060
 3134SOL    HW210302   5.405   3.879   1.978
 3135SOL     OW10303   4.334   1.863   4.735
 3135SOL    HW110304   4.357   1.767   4.727
 3135SOL    HW210305   4.411   1.913   4.776
 3136SOL     OW10306   6.173   6.368   5.470
 3136SOL    HW110307   6.157   6.283   5.419
 3136SOL    HW210308   6.240   6.423   5.422
 3137SOL     OW10309   5.270   0.940   3.832
 3137SOL    HW110310   5.282   0.867   3.898
 3137SOL    HW210311   5.332   0.926   3.755
 3138SOL     OW10312   6.446   1.699   4.089
 3138SOL    HW110313   6.491   1.666   4.171
 3138SOL    HW210314   6.431   1.798   4.097
 3139SOL     OW10315   5.086   0.154   6.326
 3139SOL    HW110316   5.074   0.055   6.340
 3139SOL    HW210317   5.001   0.193   6.290
 3140SOL     OW10318   6.164   6.014   6.198
 3140SOL    HW110319   6.179   6.068   6.281
 3140SOL    HW210320   6.172   5.917   6.220
 3141SOL     OW10321   0.667   6.859   5.927
 3141SOL    HW110322   0.633   6.932   5.869
 3141SOL    HW210323   0.594   6.794   5.946
 3142SOL     OW10324   4.870   6.439   0.050
 3142SOL    HW110325   4.959   6.399   0.074
 3142SOL    HW210326   4.797   6.390   0.098
 3143SOL     OW10327   6.675   2.639   6.798
 3143SOL    HW110328   6.764   2.593   6.805
 3143SOL    HW210329   6.688   2.737   6.807
 3144SOL     OW10330   2.782   3.608   0.982
 3144SOL    HW110331   2.734   3.524   1.005
 3144SOL    HW210332   2.863   3.587   0.928
 3145SOL     OW10333   2.384   5.459   2.982
 3145SOL    HW110334   2.410   5.475   3.078
 3145SOL    HW210335   2.464   5.469   2.924
 3146SOL     OW10336   1.228   6.332   3.253
 3146SOL    HW110337   1.147   6.301   3.301
 3146SOL    HW210338   1.236   6.431   3.262
 3147SOL     OW10339   4.161   5.321   6.558
 3147SOL    HW110340   4.200   5.323   6.650
 3147SOL    HW210341   4.095   5.246   6.552
 3148SOL     OW10342   4.218   5.465   4.507
 3148SOL    HW110343   4.269   5.544   4.471
 3148SOL    HW210344   4.247   5.382   4.459
 3149SOL     OW10345   3.046   0.353   5.293
 3149SOL    HW110346   3.094   0.274   5.330
 3149SOL    HW210347   3.013   0.410   5.368
 3150SOL     OW10348   5.119   6.011   4.651
 3150SOL    HW110349   5.195   5.947   4.650
 3150SOL    HW210350   5.049   5.978   4.715
 3151SOL     OW10351   4.815   1.530   6.619
 3151SOL    HW110352   4.800   1.456   6.684
 3151SOL    HW210353   4.788   1.617   6.660
 3152SOL     OW10354   1.160   5.136   1.938
 3152SOL    HW110355   1.147   5.058   1.999
 3152SOL    HW210356   1.123   5.218   1.981
 3153SOL     OW10357   6.451   4.464   1.852
 3153SOL    HW110358   6.473   4.458   1.755
 3153SOL    HW210359   6.369   4.410   1.870
 3154SOL     OW10360   6.481   1.799   0.265
 3154SOL    HW110361   6.500   1.833   0.357
 3154SOL    HW210362   6.389   1.762   0.262
 3155SOL     OW10363   0.088   5.367   1.426
 3155SOL    HW110364   0.017   5.416   1.477
 3155SOL    HW210365   0.047   5.322   1.347
 3156SOL     OW10366   4.089   3.323   3.881
 3156SOL    HW110367   4.062   3.243   3.934
 3156SOL    HW210368   4.098   3.298   3.785
 3157SOL     OW10369   1.864   3.067   4.736
 3157SOL    HW110370   1.782   3.119   4.760
 3157SOL    HW210371   1.944   3.127   4.745
 3158SOL     OW10372   4.375   0.054   0.914
 3158SOL    HW110373   4.329   0.087   0.996
 3158SOL    HW210374   4.470   0.031   0.935
 3159SOL     OW10375   4.752   6.396   6.840
 3159SOL    HW110376   4.694   6.470   6.806
 3159SOL    HW210377   4.795   6.423   6.926
 3160SOL     OW10378   6.359   4.968   5.995
 3160SOL    HW110379   6.439   5.010   5.952
 3160SOL    HW210380   6.324   5.028   6.066
 3161SOL     OW10381   1.196   1.484   2.644
 3161SOL    HW110382   1.233   1.557   2.702
 3161SOL    HW210383   1.262   1.409   2.639
 3162SOL     OW10384   0.682   5.273   0.083
 3162SOL    HW110385   0.766   5.253   0.032
 3162SOL    HW210386   0.701   5.341   0.153
 3163SOL     OW10387   3.569   2.624   6.235
 3163SOL    HW110388   3.476   2.614   6.270
 3163SOL    HW210389   3.592   2.545   6.178
 3164SOL     OW10390   5.287   4.137   1.725
 3164SOL    HW110391   5.329   4.228   1.728
 3164SOL    HW210392   5.347   4.071   1.770
 3165SOL     OW10393   1.543   6.707   1.831
 3165SOL    HW110394   1.534   6.752   1.919
 3165SOL    HW210395   1.541   6.608   1.844
 3166SOL     OW10396   5.010   2.779   6.340
 3166SOL    HW110397   5.048   2.724   6.265
 3166SOL    HW210398   4.910   2.784   6.331
 3167SOL     OW10399   6.520   4.687   2.213
 3167SOL    HW110400   6.469   4.606   2.185
 3167SOL    HW210401   6.615   4.679   2.181
 3168SOL     OW10402   5.109   2.949   0.869
 3168SOL    HW110403   5.080   2.903   0.785
 3168SOL    HW210404   5.158   2.884   0.927
 3169SOL     OW10405   0.814   3.539   6.079
 3169SOL    HW110406   0.767   3.628   6.079
 3169SOL    HW210407   0.758   3.472   6.030
 3170SOL     OW10408   3.914   0.200   0.283
 3170SOL    HW110409   4.004   0.237   0.305
 3170SOL    HW210410   3.903   0.112   0.330
 3171SOL     OW10411   6.560   6.806   1.136
 3171SOL    HW110412   6.523   6.857   1.214
 3171SOL    HW210413   6.645   6.849   1.106
 3172SOL     OW10414   6.861   6.215   4.625
 3172SOL    HW110415   6.931   6.164   4.675
 3172SOL    HW210416   6.775   6.163   4.625
 3173SOL     OW10417   2.738   0.711   1.554
 3173SOL    HW110418   2.748   0.794   1.609
 3173SOL    HW210419   2.692   0.733   1.468
 3174SOL     OW10420   2.319   3.442   6.473
 3174SOL    HW110421   2.384   3.487   6.412
 3174SOL    HW210422   2.233   3.427   6.424
 3175SOL     OW10423   1.072   6.755   6.605
 3175SOL    HW110424   1.028   6.752   6.515
 3175SOL    HW210425   1.092   6.850   6.629
 3176SOL     OW10426   1.699   4.638   5.962
 3176SOL    HW110427   1.721   4.716   5.903
 3176SOL    HW210428   1.669   4.671   6.052
 3177SOL     OW10429   5.593   5.414   5.692
 3177SOL    HW110430   5.619   5.341   5.756
 3177SOL    HW210431   5.584   5.500   5.742
 3178SOL     OW10432   0.111   4.140   1.585
 3178SOL    HW110433   0.052   4.087   1.524
 3178SOL    HW210434   0.054   4.189   1.651
 3179SOL     OW10435   1.842   2.228   2.208
 3179SOL    HW110436   1.898   2.299   2.165
 3179SOL    HW210437   1.801   2.264   2.292
 3180SOL     OW10438   4.389   1.008   5.945
 3180SOL    HW110439   4.400   1.089   6.003
 3180SOL    HW210440   4.435   0.930   5.987
 3181SOL     OW10441   0.549   1.040   3.947
 3181SOL    HW110442   0.462   1.064   3.990
 3181SOL    HW210443   0.545   1.061   3.849
 3182SOL     OW10444   0.454   0.593   5.687
 3182SOL    HW110445   0.434   0.500   5.656
 3182SOL    HW210446   0.553   0.608   5.685
 3183SOL     OW10447   3.808   4.434   1.585
 3183SOL    HW110448   3.827   4.485   1.501
 3183SOL    HW210449   3.714   4.452   1.614
 3184SOL     OW10450   2.673   1.851   2.059
 3184SOL    HW110451   2.712   1.919   2.121
 3184SOL    HW210452   2.742   1.823   1.992
 3185SOL     OW10453   6.936   0.465   5.412
 3185SOL    HW110454   6.912   0.475   5.509
 3185SOL    HW210455   7.000   0.538   5.387
 3186SOL     OW10456   3.501   1.042   3.384
 3186SOL    HW110457   3.456   1.061   3.471
 3186SOL    HW210458   3.433   1.013   3.317
 3187SOL     OW10459   3.895   4.057   6.691
 3187SOL    HW110460   3.977   4.012   6.724
 3187SOL    HW210461   3.826   4.057   6.763
 3188SOL     OW10462   3.504   6.212   2.579
 3188SOL    HW110463   3.474   6.299   2.618
 3188SOL    HW210464   3.431   6.174   2.522
 3189SOL     OW10465   2.025   1.184   2.919
 3189SOL    HW110466   2.065   1.140   3.000
 3189SOL    HW210467   1.929   1.208   2.939
 3190SOL     OW10468   1.264   6.562   1.268
 3190SOL    HW110469   1.194   6.536   1.203
 3190SOL    HW210470   1.262   6.661   1.283
 3191SOL     OW10471   3.272   0.602   1.293
 3191SOL    HW110472   3.355   0.589   1.347
 3191SOL    HW210473   3.264   0.698   1.267
 3192SOL     OW10474   0.427   1.586   0.601
 3192SOL    HW110475   0.358   1.647   0.639
 3192SOL    HW210476   0.493   1.561   0.672
 3193SOL     OW10477   4.577   2.210   6.111
 3193SOL    HW110478   4.549   2.133   6.053
 3193SOL    HW210479   4.530   2.292   6.082
 3194SOL     OW10480   1.583   3.144   6.473
 3194SOL    HW110481   1.502   3.103   6.516
 3194SOL    HW210482   1.619   3.216   6.532
 3195SOL     OW10483   1.623   2.689   3.531
 3195SOL    HW110484   1.710   2.641   3.535
 3195SOL    HW210485   1.639   2.787   3.532
 3196SOL     OW10486   6.922   0.074   4.869
 3196SOL    HW110487   6.972   0.090   4.784
 3196SOL    HW210488   6.987   0.063   4.944
 3197SOL     OW10489   1.161   5.453   2.671
 3197SOL    HW110490   1.190   5.410   2.585
 3197SOL    HW210491   1.224   5.427   2.744
 3198SOL     OW10492   0.032   2.203   6.482
 3198SOL    HW110493   7.002   2.282   6.516
 3198SOL    HW210494   0.040   2.135   6.556
 3199SOL     OW10495   4.772   2.101   1.599
 3199SOL    HW110496   4.829   2.144   1.670
 3199SOL    HW210497   4.708   2.037   1.642
 3200SOL     OW10498   0.001   3.088   0.955
 3200SOL    HW110499   0.008   2.992   0.983
 3200SOL    HW210500   0.050   3.101   0.869
 3201SOL     OW10501   5.236   3.603   3.805
 3201SOL    HW110502   5.325   3.637   3.833
 3201SOL    HW210503   5.186   3.569   3.885
 3202SOL     OW10504   2.046   4.528   2.443
 3202SOL    HW110505   2.129   4.517   2.497
 3202SOL    HW210506   1.967   4.496   2.495
 3203SOL     OW10507   6.502   0.972   1.439
 3203SOL    HW110508   6.565   0.989   1.363
 3203SOL    HW210509   6.523   1.035   1.514
 3204SOL     OW10510   6.171   5.345   1.745
 3204SOL    HW110511   6.120   5.357   1.660
 3204SOL    HW210512   6.213   5.254   1.746
 3205SOL     OW10513   6.626   4.475   6.559
 3205SOL    HW110514   6.674   4.404   6.507
 3205SOL    HW210515   6.567   4.432   6.627
 3206SOL     OW10516   0.184   6.687   5.747
 3206SOL    HW110517   0.159   6.592   5.761
 3206SOL    HW210518   0.126   6.746   5.804
 3207SOL     OW10519   0.799   1.476   5.341
 3207SOL    HW110520   0.772   1.429   5.257
 3207SOL    HW210521   0.743   1.558   5.353
 3208SOL     OW10522   4.339   5.714   5.130
 3208SOL    HW110523   4.361   5.627   5.085
 3208SOL    HW210524   4.376   5.713   5.223
 3209SOL     OW10525   2.702   6.746   3.925
 3209SOL    HW110526   2.694   6.655   3.965
 3209SOL    HW210527   2.701   6.740   3.826
 3210SOL     OW10528   0.422   3.543   2.390
 3210SOL    HW110529   0.329   3.578   2.382
 3210SOL    HW210530   0.455   3.557   2.483
 3211SOL     OW10531   2.292   3.993   0.825
 3211SOL    HW110532   2.316   4.088   0.805
 3211SOL    HW210533   2.211   3.968   0.772
 3212SOL     OW10534   4.533   2.152   6.886
 3212SOL    HW110535   4.506   2.215   6.959
 3212SOL    HW210536   4.510   2.192   6.798
 3213SOL     OW10537   5.897   5.463   3.019
 3213SOL    HW110538   5.819   5.515   2.984
 3213SOL    HW210539   5.883   5.366   3.000
 3214SOL     OW10540   4.327   6.075   6.928
 3214SOL    HW110541   4.244   6.112   6.887
 3214SOL    HW210542   4.396   6.061   6.857
 3215SOL     OW10543   6.263   3.144   1.043
 3215SOL    HW110544   6.260   3.158   0.944
 3215SOL    HW210545   6.334   3.077   1.065
 3216SOL     OW10546   5.855   6.132   3.297
 3216SOL    HW110547   5.765   6.105   3.261
 3216SOL    HW210548   5.904   6.185   3.228
 3217SOL     OW10549   1.096   4.478   3.178
 3217SOL    HW110550   1.001   4.449   3.168
 3217SOL    HW210551   1.106   4.530   3.263
 3218SOL     OW10552   4.062   6.825   3.246
 3218SOL    HW110553   4.080   6.737   3.202
 3218SOL    HW210554   4.060   6.897   3.177
 3219SOL     OW10555   6.876   0.363   3.358
 3219SOL    HW110556   6.940   0.430   3.320
 3219SOL    HW210557   6.825   0.321   3.284
 3220SOL     OW10558   0.149   4.622   5.052
 3220SOL    HW110559   0.148   4.522   5.049
 3220SOL    HW210560   0.205   4.657   4.977
 3221SOL     OW10561   2.612   6.484   2.693
 3221SOL    HW110562   2.668   6.475   2.775
 3221SOL    HW210563   2.610   6.396   2.645
 3222SOL     OW10564   5.032   1.743   3.073
 3222SOL    HW110565   5.078   1.728   2.985
 3222SOL    HW210566   5.055   1.834   3.107
 3223SOL     OW10567   2.690   5.295   6.445
 3223SOL    HW110568   2.682   5.394   6.455
 3223SOL    HW210569   2.629   5.250   6.511
 3224SOL     OW10570   4.348   5.634   6.595
 3224SOL    HW110571   4.329   5.536   6.599
 3224SOL    HW210572   4.359   5.669   6.688
 3225SOL     OW10573   4.298   3.313   6.686
 3225SOL    HW110574   4.280   3.353   6.776
 3225SOL    HW210575   4.277   3.380   6.615
 3226SOL     OW10576   2.276   0.737   4.262
 3226SOL    HW110577   2.314   0.657   4.308
 3226SOL    HW210578   2.178   0.725   4.249
 3227SOL     OW10579   3.619   1.742   6.322
 3227SOL    HW110580   3.689   1.813   6.316
 3227SOL    HW210581   3.529   1.784   6.333
 3228SOL     OW10582   6.134   3.852   4.117
 3228SOL    HW110583   6.175   3.851   4.208
 3228SOL    HW210584   6.206   3.856   4.048
 3229SOL     OW10585   3.618   2.391   6.091
 3229SOL    HW110586   3.647   2.398   5.995
 3229SOL    HW210587   3.649   2.303   6.128
 3230SOL     OW10588   0.594   1.295   3.119
 3230SOL    HW110589   0.526   1.221   3.123
 3230SOL    HW210590   0.606   1.334   3.211
 3231SOL     OW10591   4.657   5.475   1.293
 3231SOL    HW110592   4.635   5.571   1.275
 3231SOL    HW210593   4.663   5.461   1.392
 3232SOL     OW10594   3.920   5.033   5.003
 3232SOL    HW110595   4.003   4.984   5.032
 3232SOL    HW210596   3.941   5.130   4.990
 3233SOL     OW10597   1.258   3.845   1.962
 3233SOL    HW110598   1.340   3.902   1.957
 3233SOL    HW210599   1.182   3.898   1.999
 3234SOL     OW10600   0.038   2.197   0.318
 3234SOL    HW110601   0.057   2.136   0.242
 3234SOL    HW210602   0.102   2.275   0.315
 3235SOL     OW10603   5.723   6.681   2.780
 3235SOL    HW110604   5.728   6.592   2.823
 3235SOL    HW210605   5.701   6.751   2.849
 3236SOL     OW10606   1.440   2.803   1.991
 3236SOL    HW110607   1.369   2.807   2.061
 3236SOL    HW210608   1.510   2.737   2.018
 3237SOL     OW10609   4.840   6.665   4.644
 3237SOL    HW110610   4.760   6.724   4.632
 3237SOL    HW210611   4.845   6.600   4.568
 3238SOL     OW10612   0.734   5.616   6.483
 3238SOL    HW110613   0.814   5.602   6.541
 3238SOL    HW210614   0.668   5.673   6.532
 3239SOL     OW10615   6.289   0.504   6.298
 3239SOL    HW110616   6.228   0.431   6.266
 3239SOL    HW210617   6.275   0.585   6.242
 3240SOL     OW10618   0.464   6.856   4.415
 3240SOL    HW110619   0.439   6.910   4.334
 3240SOL    HW210620   0.560   6.872   4.437
 3241SOL     OW10621   5.035   1.578   3.976
 3241SOL    HW110622   4.963   1.615   3.916
 3241SOL    HW210623   5.002   1.577   4.070
 3242SOL     OW10624   3.535   5.629   6.346
 3242SOL    HW110625   3.567   5.544   6.388
 3242SOL    HW210626   3.498   5.690   6.416
 3243SOL     OW10627   4.546   5.258   6.969
 3243SOL    HW110628   4.501   5.343   6.942
 3243SOL    HW210629   4.535   5.244   0.046
 3244SOL     OW10630   4.516   6.130   5.754
 3244SOL    HW110631   4.417   6.119   5.740
 3244SOL    HW210632   4.548   6.211   5.705
 3245SOL     OW10633   4.146   3.045   6.090
 3245SOL    HW110634   4.219   3.112   6.080
 3245SOL    HW210635   4.148   3.007   6.182
 3246SOL     OW10636   5.913   6.845   2.280
 3246SOL    HW110637   5.916   6.745   2.285
 3246SOL    HW210638   5.911   6.883   2.372
 3247SOL     OW10639   0.209   3.393   4.030
 3247SOL    HW110640   0.277   3.354   3.970
 3247SOL    HW210641   0.118   3.360   4.004
 3248SOL     OW10642   6.245   3.444   2.104
 3248SOL    HW110643   6.152   3.407   2.112
 3248SOL    HW210644   6.309   3.383   2.150
 3249SOL     OW10645   3.400   4.845   5.095
 3249SOL    HW110646   3.483   4.897   5.076
 3249SOL    HW210647   3.324   4.883   5.043
 3250SOL     OW10648   4.907   6.827   2.645
 3250SOL    HW110649   4.968   6.866   2.714
 3250SOL    HW210650   4.959   6.804   2.563
 3251SOL     OW10651   3.782   1.467   2.773
 3251SOL    HW110652   3.797   1.550   2.717
 3251SOL    HW210653   3.785   1.492   2.870
 3252SOL     OW10654   3.402   1.153   2.948
 3252SOL    HW110655   3.447   1.214   2.882
 3252SOL    HW210656   3.305   1.177   2.955
 3253SOL     OW10657   4.505   2.643   1.379
 3253SOL    HW110658   4.463   2.717   1.432
 3253SOL    HW210659   4.510   2.670   1.282
 3254SOL     OW10660   4.057   4.843   3.798
 3254SOL    HW110661   4.105   4.873   3.716
 3254SOL    HW210662   4.090   4.753   3.826
 3255SOL     OW10663   4.483   5.630   0.178
 3255SOL    HW110664   4.499   5.628   0.277
 3255SOL    HW210665   4.557   5.583   0.131
 3256SOL     OW10666   5.492   6.621   5.824
 3256SOL    HW110667   5.504   6.529   5.789
 3256SOL    HW210668   5.567   6.643   5.886
 3257SOL     OW10669   1.465   1.734   1.006
 3257SOL    HW110670   1.399   1.659   1.005
 3257SOL    HW210671   1.552   1.703   0.968
 3258SOL     OW10672   4.899   6.946   1.538
 3258SOL    HW110673   4.970   6.876   1.550
 3258SOL    HW210674   4.856   6.964   1.626
 3259SOL     OW10675   4.490   6.300   4.212
 3259SOL    HW110676   4.397   6.287   4.178
 3259SOL    HW210677   4.509   6.398   4.219
 3260SOL     OW10678   1.583   1.367   0.265
 3260SOL    HW110679   1.496   1.412   0.245
 3260SOL    HW210680   1.568   1.269   0.278
 3261SOL     OW10681   4.277   6.941   1.241
 3261SOL    HW110682   4.236   6.969   1.328
 3261SOL    HW210683   4.254   7.007   1.170
 3262SOL     OW10684   3.482   1.528   3.629
 3262SOL    HW110685   3.549   1.603   3.624
 3262SOL    HW210686   3.515   1.450   3.577
 3263SOL     OW10687   4.186   6.814   2.875
 3263SOL    HW110688   4.144   6.758   2.803
 3263SOL    HW210689   4.210   6.904   2.838
 3264SOL     OW10690   0.263   5.607   6.912
 3264SOL    HW110691   0.330   5.681   6.921
 3264SOL    HW210692   0.179   5.632   6.961
 3265SOL     OW10693   4.176   1.751   6.494
 3265SOL    HW110694   4.099   1.693   6.470
 3265SOL    HW210695   4.170   1.838   6.444
 3266SOL     OW10696   6.732   2.905   6.891
 3266SOL    HW110697   6.774   2.995   6.906
 3266SOL    HW210698   6.705   2.866   6.979
 3267SOL     OW10699   3.179   1.995   1.218
 3267SOL    HW110700   3.129   1.912   1.191
 3267SOL    HW210701   3.189   1.998   1.317
 3268SOL     OW10702   1.435   4.005   0.382
 3268SOL    HW110703   1.475   3.994   0.290
 3268SOL    HW210704   1.401   4.098   0.392
 3269SOL     OW10705   4.179   4.595   1.542
 3269SOL    HW110706   4.131   4.621   1.458
 3269SOL    HW210707   4.211   4.501   1.534
 3270SOL     OW10708   0.399   5.324   3.741
 3270SOL    HW110709   0.324   5.390   3.733
 3270SOL    HW210710   0.410   5.275   3.654
 3271SOL     OW10711   5.985   2.460   2.140
 3271SOL    HW110712   6.029   2.485   2.226
 3271SOL    HW210713   6.031   2.380   2.101
 3272SOL     OW10714   3.519   0.336   0.266
 3272SOL    HW110715   3.457   0.413   0.255
 3272SOL    HW210716   3.495   0.285   0.349
 3273SOL     OW10717   1.090   6.229   2.120
 3273SOL    HW110718   1.108   6.236   2.022
 3273SOL    HW210719   1.112   6.136   2.152
 3274SOL     OW10720   2.885   1.807   5.501
 3274SOL    HW110721   2.901   1.755   5.585
 3274SOL    HW210722   2.962   1.793   5.439
 3275SOL     OW10723   1.930   0.462   6.802
 3275SOL    HW110724   2.010   0.506   6.762
 3275SOL    HW210725   1.879   0.529   6.856
 3276SOL     OW10726   3.407   5.133   6.605
 3276SOL    HW110727   3.476   5.178   6.662
 3276SOL    HW210728   3.387   5.191   6.526
 3277SOL     OW10729   0.245   6.177   5.842
 3277SOL    HW110730   0.195   6.148   5.923
 3277SOL    HW210731   0.235   6.108   5.770
 3278SOL     OW10732   1.112   1.246   5.435
 3278SOL    HW110733   1.069   1.320   5.487
 3278SOL    HW210734   1.041   1.187   5.396
 3279SOL     OW10735   0.060   6.901   1.186
 3279SOL    HW110736   0.075   6.810   1.148
 3279SOL    HW210737   0.139   6.926   1.242
 3280SOL     OW10738   2.604   5.249   6.173
 3280SOL    HW110739   2.510   5.216   6.164
 3280SOL    HW210740   2.632   5.241   6.269
 3281SOL     OW10741   2.230   4.908   0.312
 3281SOL    HW110742   2.317   4.882   0.354
 3281SOL    HW210743   2.248   4.965   0.232
 3282SOL     OW10744   2.578   5.418   4.076
 3282SOL    HW110745   2.600   5.465   4.162
 3282SOL    HW210746   2.625   5.464   4.001
 3283SOL     OW10747   3.397   0.741   3.598
 3283SOL    HW110748   3.494   0.724   3.612
 3283SOL    HW210749   3.375   0.728   3.501
 3284SOL     OW10750   0.275   5.866   6.564
 3284SOL    HW110751   0.292   5.949   6.617
 3284SOL    HW210752   0.198   5.817   6.603
 3285SOL     OW10753   0.362   2.652   2.985
 3285SOL    HW110754   0.382   2.556   2.965
 3285SOL    HW210755   0.372   2.668   3.083
 3286SOL     OW10756   3.501   3.653   4.312
 3286SOL    HW110757   3.579   3.716   4.312
 3286SOL    HW210758   3.455   3.658   4.401
 3287SOL     OW10759   2.096   5.203   0.046
 3287SOL    HW110760   2.111   5.107   0.025
 3287SOL    HW210761   2.103   5.257   6.984
 3288SOL     OW10762   0.717   6.064   6.441
 3288SOL    HW110763   0.731   6.076   6.343
 3288SOL    HW210764   0.619   6.048   6.459
 3289SOL     OW10765   0.862   5.469   5.561
 3289SOL    HW110766   0.892   5.439   5.470
 3289SOL    HW210767   0.793   5.541   5.551
 3290SOL     OW10768   0.502   5.790   1.250
 3290SOL    HW110769   0.495   5.889   1.258
 3290SOL    HW210770   0.455   5.747   1.328
 3291SOL     OW10771   1.707   6.308   6.767
 3291SOL    HW110772   1.755   6.238   6.820
 3291SOL    HW210773   1.759   6.328   6.684
 3292SOL     OW10774   0.052   6.985   6.397
 3292SOL    HW110775   0.080   0.057   6.419
 3292SOL    HW210776   0.009   6.982   6.307
 3293SOL     OW10777   0.035   1.267   3.048
 3293SOL    HW110778   0.128   1.299   3.030
 3293SOL    HW210779   0.036   1.169   3.065
 3294SOL     OW10780   6.726   0.042   6.009
 3294SOL    HW110781   6.736   6.972   5.971
 3294SOL    HW210782   6.692   0.037   6.103
 3295SOL     OW10783   2.525   2.174   0.839
 3295SOL    HW110784   2.508   2.271   0.851
 3295SOL    HW210785   2.507   2.126   0.925
 3296SOL     OW10786   2.140   0.583   2.534
 3296SOL    HW110787   2.209   0.649   2.565
 3296SOL    HW210788   2.061   0.632   2.498
 3297SOL     OW10789   3.207   2.387   5.530
 3297SOL    HW110790   3.159   2.311   5.487
 3297SOL    HW210791   3.201   2.468   5.471
 3298SOL     OW10792   6.514   3.411   2.888
 3298SOL    HW110793   6.487   3.409   2.791
 3298SOL    HW210794   6.545   3.503   2.912
 3299SOL     OW10795   1.406   0.221   5.006
 3299SOL    HW110796   1.400   0.282   5.085
 3299SOL    HW210797   1.498   0.182   5.000
 3300SOL     OW10798   6.038   6.844   5.127
 3300SOL    HW110799   6.129   6.862   5.091
 3300SOL    HW210800   5.987   6.930   5.134
 3301SOL     OW10801   0.566   4.044   3.488
 3301SOL    HW110802   0.624   4.120   3.460
 3301SOL    HW210803   0.595   4.011   3.577
 3302SOL     OW10804   1.460   5.069   4.111
 3302SOL    HW110805   1.492   5.034   4.199
 3302SOL    HW210806   1.526   5.136   4.077
 3303SOL     OW10807   3.781   2.959   3.278
 3303SOL    HW110808   3.820   2.931   3.366
 3303SOL    HW210809   3.690   2.917   3.268
 3304SOL     OW10810   1.291   5.963   3.594
 3304SOL    HW110811   1.351   5.963   3.674
 3304SOL    HW210812   1.196   5.955   3.625
 3305SOL     OW10813   1.615   1.302   1.784
 3305SOL    HW110814   1.667   1.322   1.701
 3305SOL    HW210815   1.657   1.226   1.833
 3306SOL     OW10816   2.102   3.960   3.360
 3306SOL    HW110817   2.176   4.022   3.337
 3306SOL    HW210818   2.079   3.970   3.457
 3307SOL     OW10819   0.085   6.174   0.393
 3307SOL    HW110820   0.136   6.163   0.308
 3307SOL    HW210821   0.040   6.088   0.417
 3308SOL     OW10822   4.395   6.161   0.459
 3308SOL    HW110823   4.453   6.147   0.539
 3308SOL    HW210824   4.312   6.210   0.487
 3309SOL     OW10825   1.384   5.123   3.577
 3309SOL    HW110826   1.370   5.184   3.654
 3309SOL    HW210827   1.408   5.176   3.496
 3310SOL     OW10828   0.834   4.491   3.073
 3310SOL    HW110829   0.783   4.406   3.088
 3310SOL    HW210830   0.912   4.472   3.014
 3311SOL     OW10831   3.647   6.690   1.548
 3311SOL    HW110832   3.694   6.610   1.584
 3311SOL    HW210833   3.686   6.773   1.586
 3312SOL     OW10834   3.181   4.047   6.085
 3312SOL    HW110835   3.130   4.114   6.031
 3312SOL    HW210836   3.279   4.057   6.067
 3313SOL     OW10837   1.146   5.379   3.701
 3313SOL    HW110838   1.123   5.455   3.762
 3313SOL    HW210839   1.150   5.412   3.607
 3314SOL     OW10840   1.437   3.535   5.322
 3314SOL    HW110841   1.445   3.453   5.379
 3314SOL    HW210842   1.515   3.595   5.338
 3315SOL     OW10843   6.575   2.137   3.492
 3315SOL    HW110844   6.645   2.067   3.503
 3315SOL    HW210845   6.533   2.156   3.581
 3316SOL     OW10846   4.877   1.961   5.993
 3316SOL    HW110847   4.868   1.870   5.952
 3316SOL    HW210848   4.826   1.964   6.079
 3317SOL     OW10849   4.626   2.771   1.783
 3317SOL    HW110850   4.647   2.848   1.843
 3317SOL    HW210851   4.675   2.782   1.696
 3318SOL     OW10852   2.902   5.969   5.873
 3318SOL    HW110853   2.948   5.985   5.960
 3318SOL    HW210854   2.891   5.870   5.859
 3319SOL     OW10855   0.724   6.607   3.952
 3319SOL    HW110856   0.813   6.650   3.936
 3319SOL    HW210857   0.654   6.677   3.966
 3320SOL     OW10858   5.789   1.122   5.493
 3320SOL    HW110859   5.774   1.065   5.412
 3320SOL    HW210860   5.750   1.077   5.573
 3321SOL     OW10861   3.577   2.846   2.682
 3321SOL    HW110862   3.621   2.892   2.605
 3321SOL    HW210863   3.647   2.814   2.746
 3322SOL     OW10864   3.803   2.154   1.025
 3322SOL    HW110865   3.745   2.235   1.023
 3322SOL    HW210866   3.896   2.178   0.998
 3323SOL     OW10867   2.180   4.330   6.747
 3323SOL    HW110868   2.195   4.254   6.810
 3323SOL    HW210869   2.240   4.406   6.770
 3324SOL     OW10870   1.097   3.796   0.676
 3324SOL    HW110871   1.010   3.841   0.657
 3324SOL    HW210872   1.147   3.783   0.590
 3325SOL     OW10873   1.554   2.365   0.505
 3325SOL    HW110874   1.489   2.347   0.578
 3325SOL    HW210875   1.584   2.279   0.465
 3326SOL     OW10876   6.616   1.785   1.096
 3326SOL    HW110877   6.527   1.746   1.121
 3326SOL    HW210878   6.605   1.841   1.014
 3327SOL     OW10879   2.451   6.766   2.140
 3327SOL    HW110880   2.385   6.836   2.113
 3327SOL    HW210881   2.526   6.764   2.074
 3328SOL     OW10882   5.086   0.892   2.282
 3328SOL    HW110883   5.008   0.943   2.319
 3328SOL    HW210884   5.117   0.936   2.197
 3329SOL     OW10885   4.070   0.890   5.421
 3329SOL    HW110886   4.086   0.807   5.474
 3329SOL    HW210887   3.980   0.884   5.377
 3330SOL     OW10888   6.037   6.858   2.047
 3330SOL    HW110889   5.994   6.877   2.135
 3330SOL    HW210890   6.050   6.759   2.036
 3331SOL     OW10891   1.963   3.514   2.895
 3331SOL    HW110892   1.977   3.500   2.797
 3331SOL    HW210893   2.001   3.603   2.921
 3332SOL     OW10894   4.144   5.409   0.251
 3332SOL    HW110895   4.200   5.440   0.328
 3332SOL    HW210896   4.168   5.315   0.228
 3333SOL     OW10897   3.192   3.606   1.612
 3333SOL    HW110898   3.141   3.692   1.605
 3333SOL    HW210899   3.129   3.532   1.639
 3334SOL     OW10900   2.138   2.356   2.459
 3334SOL    HW110901   2.095   2.266   2.464
 3334SOL    HW210902   2.073   2.421   2.419
 3335SOL     OW10903   3.510   4.392   5.300
 3335SOL    HW110904   3.534   4.489   5.292
 3335SOL    HW210905   3.561   4.339   5.232
 3336SOL     OW10906   3.741   6.846   3.839
 3336SOL    HW110907   3.808   6.896   3.783
 3336SOL    HW210908   3.787   6.808   3.919
 3337SOL     OW10909   3.616   3.547   2.813
 3337SOL    HW110910   3.567   3.560   2.727
 3337SOL    HW210911   3.560   3.494   2.877
 3338SOL     OW10912   1.767   1.427   1.310
 3338SOL    HW110913   1.683   1.481   1.310
 3338SOL    HW210914   1.767   1.364   1.233
 3339SOL     OW10915   2.222   0.532   5.404
 3339SOL    HW110916   2.256   0.445   5.368
 3339SOL    HW210917   2.290   0.573   5.465
 3340SOL     OW10918   4.196   1.226   4.053
 3340SOL    HW110919   4.287   1.263   4.068
 3340SOL    HW210920   4.129   1.277   4.108
 3341SOL     OW10921   2.807   5.045   2.258
 3341SOL    HW110922   2.767   5.015   2.171
 3341SOL    HW210923   2.765   5.132   2.286
 3342SOL     OW10924   6.254   0.294   2.932
 3342SOL    HW110925   6.274   0.382   2.889
 3342SOL    HW210926   6.185   0.306   3.003
 3343SOL     OW10927   4.562   5.333   6.643
 3343SOL    HW110928   4.639   5.295   6.693
 3343SOL    HW210929   4.521   5.408   6.696
 3344SOL     OW10930   0.317   2.704   1.492
 3344SOL    HW110931   0.411   2.688   1.462
 3344SOL    HW210932   0.310   2.794   1.534
 3345SOL     OW10933   0.635   4.676   0.747
 3345SOL    HW110934   0.708   4.715   0.803
 3345SOL    HW210935   0.552   4.730   0.758
 3346SOL     OW10936   2.742   0.530   6.840
 3346SOL    HW110937   2.722   0.487   6.752
 3346SOL    HW210938   2.748   0.459   6.911
 3347SOL     OW10939   0.886   3.343   6.584
 3347SOL    HW110940   0.940   3.422   6.557
 3347SOL    HW210941   0.878   3.339   6.683
 3348SOL     OW10942   3.923   3.512   6.278
 3348SOL    HW110943   3.830   3.477   6.291
 3348SOL    HW210944   3.919   3.601   6.232
 3349SOL     OW10945   2.670   4.684   3.424
 3349SOL    HW110946   2.656   4.757   3.491
 3349SOL    HW210947   2.766   4.656   3.425
 3350SOL     OW10948   0.261   4.143   5.534
 3350SOL    HW110949   0.244   4.099   5.622
 3350SOL    HW210950   0.180   4.131   5.476
 3351SOL     OW10951   5.118   0.588   0.660
 3351SOL    HW110952   5.109   0.617   0.755
 3351SOL    HW210953   5.119   0.488   0.656
 3352SOL     OW10954   5.315   2.410   6.882
 3352SOL    HW110955   5.368   2.346   6.937
 3352SOL    HW210956   5.360   2.500   6.883
 3353SOL     OW10957   2.293   0.878   1.667
 3353SOL    HW110958   2.339   0.960   1.632
 3353SOL    HW210959   2.297   0.878   1.767
 3354SOL     OW10960   3.852   2.933   5.708
 3354SOL    HW110961   3.780   2.865   5.693
 3354SOL    HW210962   3.820   3.023   5.680
 3355SOL     OW10963   2.166   0.967   4.964
 3355SOL    HW110964   2.184   1.058   5.001
 3355SOL    HW210965   2.237   0.942   4.899
 3356SOL     OW10966   1.433   6.835   5.841
 3356SOL    HW110967   1.350   6.788   5.810
 3356SOL    HW210968   1.513   6.782   5.816
 3357SOL     OW10969   2.954   3.332   2.275
 3357SOL    HW110970   3.006   3.292   2.199
 3357SOL    HW210971   2.856   3.331   2.252
 3358SOL     OW10972   6.119   1.009   2.657
 3358SOL    HW110973   6.204   0.963   2.684
 3358SOL    HW210974   6.140   1.078   2.588
 3359SOL     OW10975   0.210   5.683   4.173
 3359SOL    HW110976   0.254   5.772   4.160
 3359SOL    HW210977   0.114   5.696   4.196
 3360SOL     OW10978   0.015   2.748   5.594
 3360SOL    HW110979   6.983   2.691   5.533
 3360SOL    HW210980   7.014   2.726   5.689
 3361SOL     OW10981   0.323   0.479   4.473
 3361SOL    HW110982   0.315   0.540   4.394
 3361SOL    HW210983   0.393   0.513   4.535
 3362SOL     OW10984   3.749   2.068   3.791
 3362SOL    HW110985   3.657   2.063   3.830
 3362SOL    HW210986   3.796   2.149   3.827
 3363SOL     OW10987   6.007   3.129   1.123
 3363SOL    HW110988   6.101   3.122   1.089
 3363SOL    HW210989   6.001   3.089   1.214
 3364SOL     OW10990   2.414   4.349   3.235
 3364SOL    HW110991   2.469   4.432   3.222
 3364SOL    HW210992   2.421   4.292   3.153
 3365SOL     OW10993   2.082   3.244   4.764
 3365SOL    HW110994   2.055   3.339   4.748
 3365SOL    HW210995   2.090   3.227   4.862
 3366SOL     OW10996   6.842   3.375   4.158
 3366SOL    HW110997   6.858   3.321   4.240
 3366SOL    HW210998   6.886   3.331   4.080
 3367SOL     OW10999   3.344   3.380   4.278
 3367SOL    HW111000   3.402   3.457   4.252
 3367SOL    HW211001   3.250   3.397   4.246
 3368SOL     OW11002   1.529   6.102   6.599
 3368SOL    HW111003   1.613   6.051   6.615
 3368SOL    HW211004   1.539   6.194   6.637
 3369SOL     OW11005   4.322   1.876   1.336
 3369SOL    HW111006   4.255   1.920   1.276
 3369SOL    HW211007   4.273   1.830   1.411
 3370SOL     OW11008   0.169   5.353   1.697
 3370SOL    HW111009   0.157   5.343   1.599
 3370SOL    HW211010   0.267   5.351   1.719
 3371SOL     OW11011   2.154   3.170   3.094
 3371SOL    HW111012   2.181   3.106   3.166
 3371SOL    HW211013   2.182   3.263   3.119
 3372SOL     OW11014   6.593   2.734   0.955
 3372SOL    HW111015   6.547   2.664   1.009
 3372SOL    HW211016   6.673   2.767   1.004
 3373SOL     OW11017   0.151   1.811   1.633
 3373SOL    HW111018   0.213   1.887   1.652
 3373SOL    HW211019   0.189   1.726   1.669
 3374SOL     OW11020   0.955   6.958   3.253
 3374SOL    HW111021   1.017   0.015   3.243
 3374SOL    HW211022   0.892   6.955   3.175
 3375SOL     OW11023   6.976   5.126   6.677
 3375SOL    HW111024   6.995   5.186   6.599
 3375SOL    HW211025   0.027   5.135   6.744
 3376SOL     OW11026   2.189   3.325   5.286
 3376SOL    HW111027   2.139   3.331   5.372
 3376SOL    HW211028   2.253   3.402   5.279
 3377SOL     OW11029   6.458   4.950   3.620
 3377SOL    HW111030   6.445   4.852   3.637
 3377SOL    HW211031   6.482   4.963   3.524
 3378SOL     OW11032   1.463   6.738   6.893
 3378SOL    HW111033   1.558   6.745   6.861
 3378SOL    HW211034   1.408   6.691   6.824
 3379SOL     OW11035   0.894   3.601   4.575
 3379SOL    HW111036   0.913   3.508   4.605
 3379SOL    HW211037   0.960   3.664   4.616
 3380SOL     OW11038   3.890   4.163   5.748
 3380SOL    HW111039   3.896   4.229   5.673
 3380SOL    HW211040   3.930   4.203   5.831
 3381SOL     OW11041   1.279   2.840   1.159
 3381SOL    HW111042   1.362   2.887   1.128
 3381SOL    HW211043   1.199   2.892   1.130
 3382SOL     OW11044   6.746   2.437   0.894
 3382SOL    HW111045   6.828   2.480   0.931
 3382SOL    HW211046   6.672   2.443   0.961
 3383SOL     OW11047   4.023   4.729   6.773
 3383SOL    HW111048   3.974   4.789   6.710
 3383SOL    HW211049   3.968   4.647   6.791
 3384SOL     OW11050   3.347   4.248   0.813
 3384SOL    HW111051   3.309   4.178   0.752
 3384SOL    HW211052   3.375   4.206   0.899
 3385SOL     OW11053   0.425   2.359   3.543
 3385SOL    HW111054   0.455   2.378   3.450
 3385SOL    HW211055   0.505   2.353   3.603
 3386SOL     OW11056   6.796   4.786   6.766
 3386SOL    HW111057   6.783   4.754   6.672
 3386SOL    HW211058   6.809   4.707   6.826
 3387SOL     OW11059   6.164   0.479   3.217
 3387SOL    HW111060   6.095   0.451   3.151
 3387SOL    HW211061   6.188   0.402   3.275
 3388SOL     OW11062   5.083   3.449   1.666
 3388SOL    HW111063   5.107   3.526   1.725
 3388SOL    HW211064   4.993   3.414   1.692
 3389SOL     OW11065   6.044   6.385   0.502
 3389SOL    HW111066   6.049   6.481   0.475
 3389SOL    HW211067   6.108   6.331   0.447
 3390SOL     OW11068   3.797   6.691   6.045
 3390SOL    HW111069   3.789   6.634   5.963
 3390SOL    HW211070   3.758   6.781   6.026
 3391SOL     OW11071   5.951   3.343   3.635
 3391SOL    HW111072   5.862   3.303   3.654
 3391SOL    HW211073   5.956   3.370   3.539
 3392SOL     OW11074   4.233   0.147   5.231
 3392SOL    HW111075   4.307   0.089   5.195
 3392SOL    HW211076   4.214   0.221   5.166
 3393SOL     OW11077   5.023   6.900   1.085
 3393SOL    HW111078   4.943   6.914   1.143
 3393SOL    HW211079   5.065   6.812   1.107
 3394SOL     OW11080   3.376   5.477   1.062
 3394SOL    HW111081   3.351   5.559   1.011
 3394SOL    HW211082   3.305   5.457   1.129
 3395SOL     OW11083   3.952   0.378   3.176
 3395SOL    HW111084   3.877   0.436   3.206
 3395SOL    HW211085   3.994   0.333   3.255
 3396SOL     OW11086   4.754   2.390   3.878
 3396SOL    HW111087   4.666   2.387   3.925
 3396SOL    HW211088   4.797   2.479   3.894
 3397SOL     OW11089   2.203   5.963   6.329
 3397SOL    HW111090   2.286   5.943   6.276
 3397SOL    HW211091   2.143   6.023   6.276
 3398SOL     OW11092   0.033   2.252   5.532
 3398SOL    HW111093   7.019   2.326   5.475
 3398SOL    HW211094   0.043   2.285   5.626
 3399SOL     OW11095   0.451   4.679   3.641
 3399SOL    HW111096   0.384   4.683   3.715
 3399SOL    HW211097   0.408   4.706   3.555
 3400SOL     OW11098   5.517   2.394   5.290
 3400SOL    HW111099   5.430   2.352   5.265
 3400SOL    HW211100   5.500   2.479   5.340
 3401SOL     OW11101   6.692   3.883   6.079
 3401SOL    HW111102   6.630   3.879   6.157
 3401SOL    HW211103   6.646   3.931   6.004
 3402SOL     OW11104   6.926   5.117   1.294
 3402SOL    HW111105   6.975   5.094   1.378
 3402SOL    HW211106   6.829   5.096   1.306
 3403SOL     OW11107   4.582   6.370   6.441
 3403SOL    HW111108   4.629   6.455   6.418
 3403SOL    HW211109   4.491   6.391   6.476
 3404SOL     OW11110   5.071   3.266   5.668
 3404SOL    HW111111   5.069   3.268   5.768
 3404SOL    HW211112   5.137   3.197   5.638
 3405SOL     OW11113   4.988   6.375   5.940
 3405SOL    HW111114   4.975   6.463   5.986
 3405SOL    HW211115   4.933   6.372   5.857
 3406SOL     OW11116   2.015   4.100   2.075
 3406SOL    HW111117   2.058   4.092   2.165
 3406SOL    HW211118   2.086   4.108   2.005
 3407SOL     OW11119   1.928   3.716   0.812
 3407SOL    HW111120   1.862   3.724   0.886
 3407SOL    HW211121   1.980   3.801   0.805
 3408SOL     OW11122   4.747   2.237   3.647
 3408SOL    HW111123   4.753   2.284   3.734
 3408SOL    HW211124   4.827   2.179   3.634
 3409SOL     OW11125   4.162   0.782   0.469
 3409SOL    HW111126   4.219   0.864   0.478
 3409SOL    HW211127   4.214   0.709   0.425
 3410SOL     OW11128   5.727   6.730   2.033
 3410SOL    HW111129   5.818   6.690   2.039
 3410SOL    HW211130   5.719   6.783   1.948
 3411SOL     OW11131   6.724   1.555   0.989
 3411SOL    HW111132   6.822   1.573   0.980
 3411SOL    HW211133   6.678   1.638   1.022
 3412SOL     OW11134   5.157   2.910   1.356
 3412SOL    HW111135   5.256   2.911   1.372
 3412SOL    HW211136   5.110   2.904   1.445
 3413SOL     OW11137   0.294   2.317   6.427
 3413SOL    HW111138   0.210   2.263   6.432
 3413SOL    HW211139   0.282   2.392   6.362
 3414SOL     OW11140   3.868   3.003   0.714
 3414SOL    HW111141   3.795   3.058   0.672
 3414SOL    HW211142   3.830   2.916   0.746
 3415SOL     OW11143   2.485   2.587   4.357
 3415SOL    HW111144   2.476   2.631   4.446
 3415SOL    HW211145   2.562   2.523   4.360
 3416SOL     OW11146   6.349   6.724   6.985
 3416SOL    HW111147   6.448   6.711   6.977
 3416SOL    HW211148   6.313   6.668   0.037
 3417SOL     OW11149   6.955   0.133   3.141
 3417SOL    HW111150   6.871   0.105   3.093
 3417SOL    HW211151   6.992   0.216   3.099
 3418SOL     OW11152   4.516   4.910   2.299
 3418SOL    HW111153   4.456   4.851   2.353
 3418SOL    HW211154   4.511   5.003   2.335
 3419SOL     OW11155   2.910   5.438   6.278
 3419SOL    HW111156   2.964   5.379   6.217
 3419SOL    HW211157   2.840   5.382   6.325
 3420SOL     OW11158   4.826   2.653   3.876
 3420SOL    HW111159   4.837   2.741   3.923
 3420SOL    HW211160   4.799   2.670   3.781
 3421SOL     OW11161   5.658   2.007   3.071
 3421SOL    HW111162   5.669   2.063   2.988
 3421SOL    HW211163   5.714   2.045   3.144
 3422SOL     OW11164   2.111   6.978   1.060
 3422SOL    HW111165   2.103   6.901   1.123
 3422SOL    HW211166   2.144   0.037   1.109
 3423SOL     OW11167   0.984   4.347   5.816
 3423SOL    HW111168   0.899   4.336   5.867
 3423SOL    HW211169   0.968   4.326   5.719
 3424SOL     OW11170   4.572   0.001   1.475
 3424SOL    HW111171   4.575   0.061   1.395
 3424SOL    HW211172   4.652   0.018   1.533
 3425SOL     OW11173   5.507   4.395   1.442
 3425SOL    HW111174   5.453   4.319   1.479
 3425SOL    HW211175   5.467   4.426   1.357
 3426SOL     OW11176   5.656   3.795   0.427
 3426SOL    HW111177   5.685   3.773   0.520
 3426SOL    HW211178   5.579   3.859   0.430
 3427SOL     OW11179   1.094   2.031   0.878
 3427SOL    HW111180   1.158   2.027   0.955
 3427SOL    HW211181   1.055   1.940   0.862
 3428SOL     OW11182   5.065   6.057   5.406
 3428SOL    HW111183   5.093   6.124   5.475
 3428SOL    HW211184   4.979   6.086   5.365
 3429SOL     OW11185   0.261   0.250   1.341
 3429SOL    HW111186   0.167   0.229   1.314
 3429SOL    HW211187   0.299   0.319   1.280
 3430SOL     OW11188   2.194   4.750   5.374
 3430SOL    HW111189   2.141   4.736   5.291
 3430SOL    HW211190   2.290   4.762   5.350
 3431SOL     OW11191   2.500   6.013   2.828
 3431SOL    HW111192   2.451   6.099   2.818
 3431SOL    HW211193   2.438   5.937   2.809
 3432SOL     OW11194   2.456   4.098   0.539
 3432SOL    HW111195   2.511   4.181   0.538
 3432SOL    HW211196   2.509   4.023   0.578
 3433SOL     OW11197   2.354   1.268   6.277
 3433SOL    HW111198   2.345   1.282   6.375
 3433SOL    HW211199   2.328   1.174   6.255
 3434SOL     OW11200   3.182   2.050   1.517
 3434SOL    HW111201   3.234   2.101   1.585
 3434SOL    HW211202   3.185   1.953   1.538
 3435SOL     OW11203   2.086   0.306   0.614
 3435SOL    HW111204   2.100   0.312   0.713
 3435SOL    HW211205   1.992   0.332   0.592
 3436SOL     OW11206   3.898   5.671   0.800
 3436SOL    HW111207   3.969   5.608   0.832
 3436SOL    HW211208   3.891   5.748   0.863
 3437SOL     OW11209   1.225   6.574   6.122
 3437SOL    HW111210   1.263   6.484   6.143
 3437SOL    HW211211   1.267   6.643   6.181
 3438SOL     OW11212   0.977   4.501   0.980
 3438SOL    HW111213   0.996   4.430   1.048
 3438SOL    HW211214   0.896   4.476   0.928
 3439SOL     OW11215   2.132   5.654   2.966
 3439SOL    HW111216   2.195   5.674   3.041
 3439SOL    HW211217   2.173   5.682   2.879
 3440SOL     OW11218   3.902   3.590   4.133
 3440SOL    HW111219   3.994   3.630   4.135
 3440SOL    HW211220   3.835   3.663   4.149
 3441SOL     OW11221   4.956   5.596   5.932
 3441SOL    HW111222   5.018   5.517   5.933
 3441SOL    HW211223   4.992   5.665   5.869
 3442SOL     OW11224   3.288   2.897   1.688
 3442SOL    HW111225   3.215   2.851   1.739
 3442SOL    HW211226   3.331   2.967   1.746
 3443SOL     OW11227   2.480   5.709   2.642
 3443SOL    HW111228   2.472   5.638   2.571
 3443SOL    HW211229   2.550   5.775   2.615
 3444SOL     OW11230   5.593   4.611   1.936
 3444SOL    HW111231   5.527   4.613   1.861
 3444SOL    HW211232   5.562   4.671   2.010
 3445SOL     OW11233   6.694   5.100   3.754
 3445SOL    HW111234   6.657   5.037   3.686
 3445SOL    HW211235   6.632   5.177   3.766
 3446SOL     OW11236   4.946   0.774   1.572
 3446SOL    HW111237   5.036   0.796   1.537
 3446SOL    HW211238   4.940   0.801   1.669
 3447SOL     OW11239   5.075   0.636   0.113
 3447SOL    HW111240   5.174   0.628   0.118
 3447SOL    HW211241   5.043   0.703   0.180
 3448SOL     OW11242   1.580   6.294   4.833
 3448SOL    HW111243   1.510   6.362   4.855
 3448SOL    HW211244   1.554   6.206   4.872
 3449SOL     OW11245   6.472   4.598   5.011
 3449SOL    HW111246   6.511   4.631   5.097
 3449SOL    HW211247   6.428   4.510   5.026
 3450SOL     OW11248   1.477   6.990   0.039
 3450SOL    HW111249   1.440   6.898   0.029
 3450SOL    HW211250   1.508   0.002   6.972
 3451SOL     OW11251   1.799   6.077   0.468
 3451SOL    HW111252   1.820   6.144   0.540
 3451SOL    HW211253   1.882   6.057   0.417
 3452SOL     OW11254   4.946   0.763   5.478
 3452SOL    HW111255   5.036   0.803   5.494
 3452SOL    HW211256   4.907   0.733   5.565
 3453SOL     OW11257   5.034   6.563   5.667
 3453SOL    HW111258   5.052   6.660   5.655
 3453SOL    HW211259   5.121   6.513   5.666
 3454SOL     OW11260   1.258   2.351   2.686
 3454SOL    HW111261   1.352   2.376   2.708
 3454SOL    HW211262   1.253   2.253   2.668
 3455SOL     OW11263   1.774   3.138   5.342
 3455SOL    HW111264   1.685   3.167   5.377
 3455SOL    HW211265   1.830   3.219   5.323
 3456SOL     OW11266   4.826   4.684   2.267
 3456SOL    HW111267   4.775   4.640   2.341
 3456SOL    HW211268   4.801   4.780   2.261
 3457SOL     OW11269   4.216   5.465   5.344
 3457SOL    HW111270   4.146   5.529   5.375
 3457SOL    HW211271   4.306   5.506   5.356
 3458SOL     OW11272   4.142   1.563   2.669
 3458SOL    HW111273   4.191   1.512   2.740
 3458SOL    HW211274   4.121   1.655   2.703
 3459SOL     OW11275   4.064   0.719   3.222
 3459SOL    HW111276   3.976   0.687   3.189
 3459SOL    HW211277   4.051   0.797   3.283
 3460SOL     OW11278   3.908   1.799   5.872
 3460SOL    HW111279   3.841   1.858   5.916
 3460SOL    HW211280   3.998   1.842   5.875
 3461SOL     OW11281   5.390   4.577   0.066
 3461SOL    HW111282   5.484   4.546   0.054
 3461SOL    HW211283   5.342   4.515   0.128
 3462SOL     OW11284   2.508   3.366   6.664
 3462SOL    HW111285   2.430   3.408   6.618
 3462SOL    HW211286   2.572   3.437   6.693
 3463SOL     OW11287   6.541   4.148   1.587
 3463SOL    HW111288   6.468   4.157   1.519
 3463SOL    HW211289   6.574   4.053   1.588
 3464SOL     OW11290   0.106   4.907   6.013
 3464SOL    HW111291   0.169   4.859   6.074
 3464SOL    HW211292   0.117   4.872   5.920
 3465SOL     OW11293   2.005   0.900   1.948
 3465SOL    HW111294   2.087   0.956   1.947
 3465SOL    HW211295   1.981   0.875   1.854
 3466SOL     OW11296   6.448   3.974   5.422
 3466SOL    HW111297   6.503   3.992   5.503
 3466SOL    HW211298   6.386   3.898   5.440
 3467SOL     OW11299   1.777   2.527   6.559
 3467SOL    HW111300   1.683   2.554   6.541
 3467SOL    HW211301   1.832   2.608   6.580
 3468SOL     OW11302   3.446   6.867   4.081
 3468SOL    HW111303   3.453   6.906   3.989
 3468SOL    HW211304   3.366   6.905   4.128
 3469SOL     OW11305   6.130   2.370   3.169
 3469SOL    HW111306   6.072   2.313   3.111
 3469SOL    HW211307   6.166   2.446   3.115
 3470SOL     OW11308   0.480   5.573   1.010
 3470SOL    HW111309   0.390   5.579   0.967
 3470SOL    HW211310   0.483   5.634   1.089
 3471SOL     OW11311   4.006   5.818   4.825
 3471SOL    HW111312   4.082   5.878   4.850
 3471SOL    HW211313   3.927   5.839   4.883
 3472SOL     OW11314   3.156   0.615   4.351
 3472SOL    HW111315   3.183   0.709   4.373
 3472SOL    HW211316   3.063   0.615   4.316
 3473SOL     OW11317   5.972   1.370   6.151
 3473SOL    HW111318   5.919   1.384   6.067
 3473SOL    HW211319   6.022   1.454   6.174
 3474SOL     OW11320   3.970   5.088   1.883
 3474SOL    HW111321   3.953   5.013   1.947
 3474SOL    HW211322   4.026   5.055   1.807
 3475SOL     OW11323   1.184   5.731   4.206
 3475SOL    HW111324   1.084   5.739   4.198
 3475SOL    HW211325   1.226   5.819   4.185
 3476SOL     OW11326   4.345   0.822   4.247
 3476SOL    HW111327   4.297   0.751   4.197
 3476SOL    HW211328   4.399   0.781   4.320
 3477SOL     OW11329   3.948   6.450   1.425
 3477SOL    HW111330   3.939   6.540   1.383
 3477SOL    HW211331   4.044   6.420   1.420
 3478SOL     OW11332   3.537   5.125   5.973
 3478SOL    HW111333   3.493   5.082   6.052
 3478SOL    HW211334   3.632   5.146   5.996
 3479SOL     OW11335   0.744   0.287   1.786
 3479SOL    HW111336   0.655   0.264   1.824
 3479SOL    HW211337   0.816   0.241   1.839
 3480SOL     OW11338   6.992   1.664   3.530
 3480SOL    HW111339   6.910   1.611   3.553
 3480SOL    HW211340   0.020   1.685   3.614
 3481SOL     OW11341   2.569   6.911   6.686
 3481SOL    HW111342   2.537   6.871   6.772
 3481SOL    HW211343   2.516   6.992   6.664
 3482SOL     OW11344   6.602   2.172   0.989
 3482SOL    HW111345   6.640   2.091   0.945
 3482SOL    HW211346   6.653   2.253   0.961
 3483SOL     OW11347   2.101   0.488   1.453
 3483SOL    HW111348   2.086   0.541   1.370
 3483SOL    HW211349   2.060   0.534   1.531
 3484SOL     OW11350   3.238   2.922   3.647
 3484SOL    HW111351   3.287   2.915   3.734
 3484SOL    HW211352   3.139   2.915   3.663
 3485SOL     OW11353   1.487   3.074   5.277
 3485SOL    HW111354   1.436   3.068   5.363
 3485SOL    HW211355   1.488   2.985   5.232
 3486SOL     OW11356   4.456   2.057   1.534
 3486SOL    HW111357   4.371   2.107   1.517
 3486SOL    HW211358   4.517   2.068   1.456
 3487SOL     OW11359   5.712   1.967   6.242
 3487SOL    HW111360   5.716   2.067   6.247
 3487SOL    HW211361   5.644   1.933   6.308
 3488SOL     OW11362   5.902   3.838   3.772
 3488SOL    HW111363   5.857   3.802   3.690
 3488SOL    HW211364   5.908   3.766   3.841
 3489SOL     OW11365   3.779   0.360   1.350
 3489SOL    HW111366   3.682   0.347   1.371
 3489SOL    HW211367   3.795   0.456   1.326
 3490SOL     OW11368   5.032   3.645   0.367
 3490SOL    HW111369   4.956   3.605   0.315
 3490SOL    HW211370   5.095   3.689   0.303
 3491SOL     OW11371   0.204   2.960   5.504
 3491SOL    HW111372   0.279   2.926   5.561
 3491SOL    HW211373   0.117   2.926   5.538
 3492SOL     OW11374   7.019   4.819   6.301
 3492SOL    HW111375   6.974   4.775   6.224
 3492SOL    HW211376   0.032   4.749   6.364
 3493SOL     OW11377   6.385   4.717   1.201
 3493SOL    HW111378   6.421   4.786   1.264
 3493SOL    HW211379   6.458   4.652   1.179
 3494SOL     OW11380   3.349   7.015   1.455
 3494SOL    HW111381   3.316   6.924   1.478
 3494SOL    HW211382   3.280   0.041   1.400
 3495SOL     OW11383   4.402   4.994   1.745
 3495SOL    HW111384   4.444   4.904   1.760
 3495SOL    HW211385   4.461   5.047   1.684
 3496SOL     OW11386   1.928   2.873   0.339
 3496SOL    HW111387   1.946   2.857   0.242
 3496SOL    HW211388   1.916   2.971   0.355
 3497SOL     OW11389   4.062   0.807   3.649
 3497SOL    HW111390   4.148   0.779   3.691
 3497SOL    HW211391   4.066   0.904   3.625
 3498SOL     OW11392   2.386   1.494   1.328
 3498SOL    HW111393   2.394   1.587   1.292
 3498SOL    HW211394   2.343   1.435   1.259
 3499SOL     OW11395   0.095   3.040   4.503
 3499SOL    HW111396   0.111   2.959   4.560
 3499SOL    HW211397   0.086   3.012   4.408
 3500SOL     OW11398   6.365   4.182   6.651
 3500SOL    HW111399   6.366   4.091   6.610
 3500SOL    HW211400   6.302   4.241   6.601
 3501SOL     OW11401   1.556   4.610   4.954
 3501SOL    HW111402   1.589   4.612   4.859
 3501SOL    HW211403   1.624   4.566   5.012
 3502SOL     OW11404   0.677   1.814   0.820
 3502SOL    HW111405   0.664   1.878   0.896
 3502SOL    HW211406   0.679   1.865   0.734
 3503SOL     OW11407   4.814   5.809   5.342
 3503SOL    HW111408   4.739   5.871   5.363
 3503SOL    HW211409   4.840   5.759   5.425
 3504SOL     OW11410   2.894   3.457   1.359
 3504SOL    HW111411   2.888   3.384   1.427
 3504SOL    HW211412   2.802   3.486   1.332
 3505SOL     OW11413   4.903   5.682   5.571
 3505SOL    HW111414   4.953   5.761   5.606
 3505SOL    HW211415   4.962   5.629   5.510
 3506SOL     OW11416   4.352   5.055   3.647
 3506SOL    HW111417   4.346   5.149   3.679
 3506SOL    HW211418   4.261   5.022   3.622
 3507SOL     OW11419   1.223   0.248   6.732
 3507SOL    HW111420   1.255   0.324   6.676
 3507SOL    HW211421   1.206   0.279   6.825
 3508SOL     OW11422   5.762   3.620   0.248
 3508SOL    HW111423   5.680   3.586   0.202
 3508SOL    HW211424   5.737   3.691   0.313
 3509SOL     OW11425   6.788   6.193   6.709
 3509SOL    HW111426   6.703   6.196   6.761
 3509SOL    HW211427   6.768   6.206   6.612
 3510SOL     OW11428   2.170   2.319   2.088
 3510SOL    HW111429   2.195   2.301   1.993
 3510SOL    HW211430   2.251   2.309   2.146
 3511SOL     OW11431   0.213   2.722   6.976
 3511SOL    HW111432   0.152   2.693   0.028
 3511SOL    HW211433   0.165   2.786   6.916
 3512SOL     OW11434   2.514   2.941   0.142
 3512SOL    HW111435   2.610   2.914   0.146
 3512SOL    HW211436   2.477   2.947   0.235
 3513SOL     OW11437   6.663   3.917   1.582
 3513SOL    HW111438   6.755   3.887   1.605
 3513SOL    HW211439   6.608   3.838   1.555
 3514SOL     OW11440   0.746   6.643   1.188
 3514SOL    HW111441   0.839   6.677   1.200
 3514SOL    HW211442   0.698   6.644   1.276
 3515SOL     OW11443   3.024   6.146   3.008
 3515SOL    HW111444   2.948   6.104   2.958
 3515SOL    HW211445   3.074   6.207   2.947
 3516SOL     OW11446   2.895   1.495   0.379
 3516SOL    HW111447   2.900   1.543   0.466
 3516SOL    HW211448   2.817   1.432   0.380
 3517SOL     OW11449   0.926   1.416   6.888
 3517SOL    HW111450   0.836   1.419   6.843
 3517SOL    HW211451   0.953   1.509   6.913
 3518SOL     OW11452   4.559   3.302   6.447
 3518SOL    HW111453   4.622   3.307   6.370
 3518SOL    HW211454   4.610   3.303   6.532
 3519SOL     OW11455   1.966   6.912   6.415
 3519SOL    HW111456   2.047   6.932   6.360
 3519SOL    HW211457   1.943   6.992   6.470
 3520SOL     OW11458   4.114   5.513   0.817
 3520SOL    HW111459   4.193   5.539   0.872
 3520SOL    HW211460   4.137   5.435   0.759
 3521SOL     OW11461   5.761   2.100   1.852
 3521SOL    HW111462   5.811   2.138   1.774
 3521SOL    HW211463   5.667   2.079   1.824
 3522SOL     OW11464   3.361   5.625   2.340
 3522SOL    HW111465   3.448   5.624   2.289
 3522SOL    HW211466   3.298   5.559   2.298
 3523SOL     OW11467   2.930   4.872   5.049
 3523SOL    HW111468   2.881   4.785   5.044
 3523SOL    HW211469   2.918   4.911   5.140
 3524SOL     OW11470   2.747   0.094   0.605
 3524SOL    HW111471   2.823   0.137   0.654
 3524SOL    HW211472   2.667   0.092   0.665
 3525SOL     OW11473   0.429   2.986   2.161
 3525SOL    HW111474   0.506   3.039   2.198
 3525SOL    HW211475   0.462   2.897   2.129
 3526SOL     OW11476   1.291   0.714   2.916
 3526SOL    HW111477   1.219   0.728   2.983
 3526SOL    HW211478   1.299   0.617   2.894
 3527SOL     OW11479   5.483   3.107   6.436
 3527SOL    HW111480   5.469   3.024   6.489
 3527SOL    HW211481   5.488   3.085   6.339
 3528SOL     OW11482   0.305   6.386   3.186
 3528SOL    HW111483   0.310   6.338   3.274
 3528SOL    HW211484   0.365   6.341   3.120
 3529SOL     OW11485   4.409   6.856   5.357
 3529SOL    HW111486   4.347   6.779   5.371
 3529SOL    HW211487   4.359   6.942   5.374
 3530SOL     OW11488   2.833   5.610   2.574
 3530SOL    HW111489   2.887   5.669   2.513
 3530SOL    HW211490   2.831   5.651   2.665
 3531SOL     OW11491   6.057   4.492   0.756
 3531SOL    HW111492   6.113   4.566   0.720
 3531SOL    HW211493   6.075   4.481   0.854
 3532SOL     OW11494   2.594   0.377   6.644
 3532SOL    HW111495   2.535   0.364   6.564
 3532SOL    HW211496   2.659   0.302   6.651
 3533SOL     OW11497   0.881   1.536   3.272
 3533SOL    HW111498   0.933   1.457   3.303
 3533SOL    HW211499   0.943   1.606   3.237
 3534SOL     OW11500   5.594   1.366   4.832
 3534SOL    HW111501   5.636   1.448   4.792
 3534SOL    HW211502   5.515   1.340   4.778
 3535SOL     OW11503   5.793   5.474   6.195
 3535SOL    HW111504   5.693   5.480   6.188
 3535SOL    HW211505   5.832   5.470   6.103
 3536SOL     OW11506   1.880   3.383   3.329
 3536SOL    HW111507   1.814   3.386   3.254
 3536SOL    HW211508   1.960   3.331   3.301
 3537SOL     OW11509   2.144   5.664   0.841
 3537SOL    HW111510   2.113   5.723   0.766
 3537SOL    HW211511   2.230   5.700   0.878
 3538SOL     OW11512   2.894   0.398   3.382
 3538SOL    HW111513   2.809   0.431   3.341
 3538SOL    HW211514   2.874   0.363   3.474
 3539SOL     OW11515   5.053   4.790   6.704
 3539SOL    HW111516   5.062   4.886   6.727
 3539SOL    HW211517   5.083   4.734   6.781
 3540SOL     OW11518   2.991   3.309   6.507
 3540SOL    HW111519   2.903   3.356   6.502
 3540SOL    HW211520   3.025   3.293   6.415
 3541SOL     OW11521   2.989   2.344   0.802
 3541SOL    HW111522   3.061   2.321   0.737
 3541SOL    HW211523   3.030   2.357   0.893
 3542SOL     OW11524   5.478   2.182   6.153
 3542SOL    HW111525   5.434   2.264   6.116
 3542SOL    HW211526   5.577   2.196   6.156
 3543SOL     OW11527   2.124   2.656   3.246
 3543SOL    HW111528   2.160   2.698   3.163
 3543SOL    HW211529   2.200   2.624   3.303
 3544SOL     OW11530   2.643   4.677   6.000
 3544SOL    HW111531   2.637   4.766   6.044
 3544SOL    HW211532   2.652   4.689   5.901
 3545SOL     OW11533   3.555   0.003   1.286
 3545SOL    HW111534   3.537   0.019   1.189
 3545SOL    HW211535   3.468   7.018   1.335
 3546SOL     OW11536   6.510   3.663   3.235
 3546SOL    HW111537   6.595   3.673   3.182
 3546SOL    HW211538   6.464   3.578   3.208
 3547SOL     OW11539   6.866   3.507   5.206
 3547SOL    HW111540   6.800   3.526   5.133
 3547SOL    HW211541   6.925   3.432   5.178
 3548SOL     OW11542   5.342   1.215   5.657
 3548SOL    HW111543   5.331   1.313   5.679
 3548SOL    HW211544   5.395   1.171   5.729
 3549SOL     OW11545   3.050   5.240   6.871
 3549SOL    HW111546   3.007   5.211   6.956
 3549SOL    HW211547   2.983   5.286   6.813
 3550SOL     OW11548   5.175   1.370   5.271
 3550SOL    HW111549   5.144   1.319   5.190
 3550SOL    HW211550   5.169   1.311   5.351
 3551SOL     OW11551   3.929   2.047   4.873
 3551SOL    HW111552   3.935   1.967   4.812
 3551SOL    HW211553   3.997   2.115   4.844
 3552SOL     OW11554   7.020   6.160   2.385
 3552SOL    HW111555   0.057   6.145   2.306
 3552SOL    HW211556   0.050   6.207   2.456
 3553SOL     OW11557   3.805   5.081   6.031
 3553SOL    HW111558   3.804   5.000   6.091
 3553SOL    HW211559   3.857   5.060   5.948
 3554SOL     OW11560   4.280   3.496   1.771
 3554SOL    HW111561   4.252   3.432   1.842
 3554SOL    HW211562   4.215   3.572   1.767
 3555SOL     OW11563   1.887   1.984   3.798
 3555SOL    HW111564   1.950   1.963   3.724
 3555SOL    HW211565   1.935   1.978   3.886
 3556SOL     OW11566   4.262   1.039   5.709
 3556SOL    HW111567   4.313   0.999   5.785
 3556SOL    HW211568   4.168   1.058   5.738
 3557SOL     OW11569   7.004   1.657   2.031
 3557SOL    HW111570   6.951   1.595   2.089
 3557SOL    HW211571   7.010   1.747   2.074
 3558SOL     OW11572   3.481   0.131   1.060
 3558SOL    HW111573   3.576   0.141   1.091
 3558SOL    HW211574   3.440   0.222   1.050
 3559SOL     OW11575   4.149   6.385   4.399
 3559SOL    HW111576   4.070   6.355   4.346
 3559SOL    HW211577   4.165   6.483   4.383
 3560SOL     OW11578   1.763   5.746   5.097
 3560SOL    HW111579   1.860   5.770   5.093
 3560SOL    HW211580   1.723   5.751   5.005
 3561SOL     OW11581   5.167   4.413   5.576
 3561SOL    HW111582   5.145   4.316   5.587
 3561SOL    HW211583   5.242   4.424   5.511
 3562SOL     OW11584   2.302   1.493   5.214
 3562SOL    HW111585   2.277   1.409   5.262
 3562SOL    HW211586   2.280   1.572   5.271
 3563SOL     OW11587   5.472   2.305   5.790
 3563SOL    HW111588   5.449   2.238   5.719
 3563SOL    HW211589   5.567   2.334   5.778
 3564SOL     OW11590   7.018   4.532   2.536
 3564SOL    HW111591   0.002   4.618   2.586
 3564SOL    HW211592   6.985   4.460   2.596
 3565SOL     OW11593   3.382   5.617   3.581
 3565SOL    HW111594   3.437   5.578   3.506
 3565SOL    HW211595   3.440   5.676   3.637
 3566SOL     OW11596   6.647   1.046   5.719
 3566SOL    HW111597   6.646   1.015   5.624
 3566SOL    HW211598   6.712   1.122   5.728
 3567SOL     OW11599   0.397   4.649   6.886
 3567SOL    HW111600   0.370   4.602   6.971
 3567SOL    HW211601   0.491   4.682   6.895
 3568SOL     OW11602   6.324   3.837   6.241
 3568SOL    HW111603   6.404   3.805   6.293
 3568SOL    HW211604   6.244   3.783   6.266
 3569SOL     OW11605   2.809   2.362   5.489
 3569SOL    HW111606   2.817   2.346   5.587
 3569SOL    HW211607   2.886   2.319   5.442
 3570SOL     OW11608   6.477   1.210   4.140
 3570SOL    HW111609   6.500   1.288   4.082
 3570SOL    HW211610   6.446   1.243   4.229
 3571SOL     OW11611   6.045   5.710   6.598
 3571SOL    HW111612   6.115   5.654   6.554
 3571SOL    HW211613   5.954   5.678   6.570
 3572SOL     OW11614   5.508   3.581   4.141
 3572SOL    HW111615   5.584   3.517   4.148
 3572SOL    HW211616   5.427   3.542   4.184
 3573SOL     OW11617   1.528   3.992   3.246
 3573SOL    HW111618   1.601   3.935   3.284
 3573SOL    HW211619   1.483   4.042   3.319
 3574SOL     OW11620   0.130   4.316   0.457
 3574SOL    HW111621   0.100   4.411   0.467
 3574SOL    HW211622   0.229   4.314   0.443
 3575SOL     OW11623   6.386   5.092   3.066
 3575SOL    HW111624   6.309   5.143   3.029
 3575SOL    HW211625   6.472   5.138   3.041
 3576SOL     OW11626   0.526   1.640   6.428
 3576SOL    HW111627   0.497   1.736   6.418
 3576SOL    HW211628   0.451   1.587   6.468
 3577SOL     OW11629   0.799   2.332   6.425
 3577SOL    HW111630   0.876   2.284   6.383
 3577SOL    HW211631   0.786   2.300   6.519
 3578SOL     OW11632   3.054   4.330   6.804
 3578SOL    HW111633   3.077   4.268   6.879
 3578SOL    HW211634   3.135   4.344   6.747
 3579SOL     OW11635   6.901   3.320   4.936
 3579SOL    HW111636   6.927   3.417   4.932
 3579SOL    HW211637   6.916   3.278   4.847
 3580SOL     OW11638   6.156   1.907   1.742
 3580SOL    HW111639   6.198   1.852   1.669
 3580SOL    HW211640   6.166   1.859   1.829
 3581SOL     OW11641   6.857   0.574   2.425
 3581SOL    HW111642   6.952   0.595   2.447
 3581SOL    HW211643   6.799   0.598   2.502
 3582SOL     OW11644   0.531   0.592   6.090
 3582SOL    HW111645   0.562   0.685   6.111
 3582SOL    HW211646   0.462   0.595   6.017
 3583SOL     OW11647   1.166   4.795   0.207
 3583SOL    HW111648   1.100   4.830   0.273
 3583SOL    HW211649   1.253   4.778   0.253
 3584SOL     OW11650   5.481   6.145   6.270
 3584SOL    HW111651   5.563   6.093   6.292
 3584SOL    HW211652   5.447   6.117   6.180
 3585SOL     OW11653   3.563   4.935   4.424
 3585SOL    HW111654   3.523   5.019   4.388
 3585SOL    HW211655   3.655   4.923   4.386
 3586SOL     OW11656   6.522   2.871   5.640
 3586SOL    HW111657   6.620   2.886   5.625
 3586SOL    HW211658   6.473   2.884   5.554
 3587SOL     OW11659   3.263   6.814   0.491
 3587SOL    HW111660   3.282   6.799   0.588
 3587SOL    HW211661   3.231   6.728   0.450
 3588SOL     OW11662   2.079   2.145   5.728
 3588SOL    HW111663   2.012   2.079   5.763
 3588SOL    HW211664   2.171   2.107   5.738
 3589SOL     OW11665   3.137   0.804   4.558
 3589SOL    HW111666   3.039   0.821   4.564
 3589SOL    HW211667   3.175   0.854   4.480
 3590SOL     OW11668   1.383   5.273   6.287
 3590SOL    HW111669   1.453   5.287   6.216
 3590SOL    HW211670   1.298   5.242   6.244
 3591SOL     OW11671   5.485   3.107   5.727
 3591SOL    HW111672   5.519   3.025   5.681
 3591SOL    HW211673   5.562   3.164   5.756
 3592SOL     OW11674   5.156   3.253   2.636
 3592SOL    HW111675   5.204   3.193   2.700
 3592SOL    HW211676   5.221   3.289   2.569
 3593SOL     OW11677   2.153   6.854   4.134
 3593SOL    HW111678   2.148   6.942   4.086
 3593SOL    HW211679   2.071   6.841   4.190
 3594SOL     OW11680   2.159   1.145   3.475
 3594SOL    HW111681   2.244   1.148   3.422
 3594SOL    HW211682   2.095   1.213   3.440
 3595SOL     OW11683   2.431   6.393   5.777
 3595SOL    HW111684   2.485   6.392   5.861
 3595SOL    HW211685   2.408   6.487   5.753
 3596SOL     OW11686   6.281   0.596   2.548
 3596SOL    HW111687   6.195   0.609   2.500
 3596SOL    HW211688   6.338   0.531   2.498
 3597SOL     OW11689   4.079   6.388   4.671
 3597SOL    HW111690   4.021   6.310   4.693
 3597SOL    HW211691   4.093   6.392   4.572
 3598SOL     OW11692   0.702   0.221   5.539
 3598SOL    HW111693   0.748   0.280   5.473
 3598SOL    HW211694   0.625   0.271   5.579
 3599SOL     OW11695   7.016   2.469   5.396
 3599SOL    HW111696   6.928   2.517   5.389
 3599SOL    HW211697   0.069   2.533   5.380
 3600SOL     OW11698   6.111   3.536   1.457
 3600SOL    HW111699   6.173   3.496   1.525
 3600SOL    HW211700   6.017   3.524   1.486
 3601SOL     OW11701   0.186   3.884   0.335
 3601SOL    HW111702   0.267   3.940   0.319
 3601SOL    HW211703   0.192   3.799   0.283
 3602SOL     OW11704   1.725   0.801   0.305
 3602SOL    HW111705   1.779   0.815   0.221
 3602SOL    HW211706   1.666   0.722   0.293
 3603SOL     OW11707   3.857   4.873   4.332
 3603SOL    HW111708   3.892   4.879   4.426
 3603SOL    HW211709   3.917   4.815   4.278
 3604SOL     OW11710   6.941   2.572   2.670
 3604SOL    HW111711   6.970   2.541   2.761
 3604SOL    HW211712   7.021   2.590   2.613
 3605SOL     OW11713   5.929   4.470   6.205
 3605SOL    HW111714   5.956   4.405   6.276
 3605SOL    HW211715   5.866   4.424   6.141
 3606SOL     OW11716   6.650   4.395   5.791
 3606SOL    HW111717   6.729   4.426   5.738
 3606SOL    HW211718   6.592   4.473   5.813
 3607SOL     OW11719   5.285   0.766   0.524
 3607SOL    HW111720   5.222   0.843   0.514
 3607SOL    HW211721   5.248   0.700   0.590
 3608SOL     OW11722   0.395   1.592   1.479
 3608SOL    HW111723   0.462   1.518   1.485
 3608SOL    HW211724   0.330   1.585   1.556
 3609SOL     OW11725   6.439   0.476   4.500
 3609SOL    HW111726   6.520   0.430   4.537
 3609SOL    HW211727   6.400   0.535   4.571
 3610SOL     OW11728   0.865   6.798   4.722
 3610SOL    HW111729   0.858   6.863   4.798
 3610SOL    HW211730   0.942   6.822   4.664
 3611SOL     OW11731   3.150   5.049   5.719
 3611SOL    HW111732   3.118   5.135   5.679
 3611SOL    HW211733   3.207   5.001   5.652
 3612SOL     OW11734   1.205   6.392   6.560
 3612SOL    HW111735   1.187   6.379   6.657
 3612SOL    HW211736   1.119   6.386   6.509
 3613SOL     OW11737   4.839   5.206   0.519
 3613SOL    HW111738   4.773   5.249   0.458
 3613SOL    HW211739   4.892   5.276   0.566
 3614SOL     OW11740   3.725   3.268   3.351
 3614SOL    HW111741   3.760   3.310   3.434
 3614SOL    HW211742   3.669   3.188   3.374
 3615SOL     OW11743   5.812   5.261   5.541
 3615SOL    HW111744   5.746   5.195   5.505
 3615SOL    HW211745   5.764   5.334   5.590
 3616SOL     OW11746   6.711   2.172   6.419
 3616SOL    HW111747   6.718   2.238   6.344
 3616SOL    HW211748   6.718   2.220   6.506
 3617SOL     OW11749   5.994   2.124   6.443
 3617SOL    HW111750   5.975   2.197   6.377
 3617SOL    HW211751   5.925   2.125   6.515
 3618SOL     OW11752   1.248   1.884   5.917
 3618SOL    HW111753   1.291   1.962   5.871
 3618SOL    HW211754   1.235   1.906   6.014
 3619SOL     OW11755   5.943   2.385   4.023
 3619SOL    HW111756   5.940   2.403   3.925
 3619SOL    HW211757   5.868   2.323   4.048
 3620SOL     OW11758   5.460   7.002   6.019
 3620SOL    HW111759   5.434   7.019   5.924
 3620SOL    HW211760   5.559   7.013   6.029
 3621SOL     OW11761   3.372   2.862   6.081
 3621SOL    HW111762   3.346   2.920   6.003
 3621SOL    HW211763   3.470   2.845   6.078
 3622SOL     OW11764   0.784   1.082   3.110
 3622SOL    HW111765   0.731   1.166   3.102
 3622SOL    HW211766   0.844   1.072   3.030
 3623SOL     OW11767   6.214   5.237   4.213
 3623SOL    HW111768   6.123   5.266   4.185
 3623SOL    HW211769   6.219   5.236   4.313
 3624SOL     OW11770   2.156   6.510   3.224
 3624SOL    HW111771   2.219   6.473   3.156
 3624SOL    HW211772   2.158   6.452   3.306
 3625SOL     OW11773   6.613   3.346   6.100
 3625SOL    HW111774   6.547   3.274   6.124
 3625SOL    HW211775   6.642   3.333   6.005
 3626SOL     OW11776   2.094   3.591   4.921
 3626SOL    HW111777   2.019   3.642   4.879
 3626SOL    HW211778   2.142   3.650   4.986
 3627SOL     OW11779   4.111   3.460   3.409
 3627SOL    HW111780   4.043   3.528   3.437
 3627SOL    HW211781   4.178   3.503   3.349
 3628SOL     OW11782   2.459   5.825   2.057
 3628SOL    HW111783   2.404   5.808   1.976
 3628SOL    HW211784   2.507   5.742   2.084
 3629SOL     OW11785   6.481   2.181   4.678
 3629SOL    HW111786   6.417   2.238   4.730
 3629SOL    HW211787   6.568   2.175   4.726
 3630SOL     OW11788   5.862   2.635   4.128
 3630SOL    HW111789   5.898   2.542   4.120
 3630SOL    HW211790   5.779   2.643   4.073
 3631SOL     OW11791   2.348   6.937   4.931
 3631SOL    HW111792   2.420   6.895   4.987
 3631SOL    HW211793   2.328   6.879   4.853
 3632SOL     OW11794   5.218   1.019   0.844
 3632SOL    HW111795   5.240   1.067   0.929
 3632SOL    HW211796   5.131   1.052   0.808
 3633SOL     OW11797   3.153   2.265   5.765
 3633SOL    HW111798   3.063   2.306   5.778
 3633SOL    HW211799   3.204   2.316   5.695
 3634SOL     OW11800   0.613   6.419   4.603
 3634SOL    HW111801   0.574   6.327   4.610
 3634SOL    HW211802   0.688   6.420   4.538
 3635SOL     OW11803   3.244   1.097   5.413
 3635SOL    HW111804   3.336   1.113   5.376
 3635SOL    HW211805   3.194   1.034   5.353
 3636SOL     OW11806   6.838   6.109   5.943
 3636SOL    HW111807   6.928   6.107   5.987
 3636SOL    HW211808   6.803   6.202   5.943
 3637SOL     OW11809   6.177   2.148   0.929
 3637SOL    HW111810   6.089   2.122   0.968
 3637SOL    HW211811   6.183   2.113   0.835
 3638SOL     OW11812   6.749   4.760   3.697
 3638SOL    HW111813   6.737   4.786   3.793
 3638SOL    HW211814   6.681   4.691   3.672
 3639SOL     OW11815   3.494   3.501   1.048
 3639SOL    HW111816   3.543   3.485   1.133
 3639SOL    HW211817   3.401   3.464   1.055
 3640SOL     OW11818   3.384   6.043   6.956
 3640SOL    HW111819   3.438   6.013   6.877
 3640SOL    HW211820   3.365   6.141   6.949
 3641SOL     OW11821   3.645   1.776   4.723
 3641SOL    HW111822   3.560   1.750   4.678
 3641SOL    HW211823   3.653   1.729   4.811
 3642SOL     OW11824   4.834   1.089   5.776
 3642SOL    HW111825   4.922   1.054   5.745
 3642SOL    HW211826   4.773   1.012   5.795
 3643SOL     OW11827   3.368   5.733   4.729
 3643SOL    HW111828   3.352   5.831   4.744
 3643SOL    HW211829   3.291   5.680   4.765
 3644SOL     OW11830   6.918   1.132   1.400
 3644SOL    HW111831   6.838   1.155   1.455
 3644SOL    HW211832   6.984   1.207   1.404
 3645SOL     OW11833   5.458   1.599   4.218
 3645SOL    HW111834   5.388   1.540   4.258
 3645SOL    HW211835   5.525   1.543   4.169
 3646SOL     OW11836   6.491   4.685   5.250
 3646SOL    HW111837   6.473   4.778   5.216
 3646SOL    HW211838   6.460   4.677   5.344
 3647SOL     OW11839   1.856   3.499   0.224
 3647SOL    HW111840   1.821   3.490   0.317
 3647SOL    HW211841   1.948   3.461   0.218
 3648SOL     OW11842   3.744   5.608   3.108
 3648SOL    HW111843   3.735   5.684   3.173
 3648SOL    HW211844   3.654   5.587   3.070
 3649SOL     OW11845   4.279   3.379   0.837
 3649SOL    HW111846   4.259   3.433   0.755
 3649SOL    HW211847   4.224   3.296   0.837
 3650SOL     OW11848   6.911   5.927   0.824
 3650SOL    HW111849   7.008   5.951   0.827
 3650SOL    HW211850   6.857   6.011   0.826
 3651SOL     OW11851   0.800   6.109   2.201
 3651SOL    HW111852   0.810   6.152   2.111
 3651SOL    HW211853   0.881   6.054   2.221
 3652SOL     OW11854   4.742   6.638   3.226
 3652SOL    HW111855   4.649   6.636   3.263
 3652SOL    HW211856   4.748   6.709   3.155
 3653SOL     OW11857   6.130   1.116   2.980
 3653SOL    HW111858   6.124   1.019   3.001
 3653SOL    HW211859   6.115   1.130   2.882
 3654SOL     OW11860   2.002   6.341   0.404
 3654SOL    HW111861   2.043   6.252   0.382
 3654SOL    HW211862   1.936   6.365   0.333
 3655SOL     OW11863   1.582   6.996   3.525
 3655SOL    HW111864   1.578   0.064   3.482
 3655SOL    HW211865   1.513   6.936   3.484
 3656SOL     OW11866   1.560   2.706   1.459
 3656SOL    HW111867   1.563   2.710   1.558
 3656SOL    HW211868   1.503   2.629   1.430
 3657SOL     OW11869   4.308   5.843   6.386
 3657SOL    HW111870   4.388   5.821   6.441
 3657SOL    HW211871   4.331   5.833   6.289
 3658SOL     OW11872   1.305   5.879   4.536
 3658SOL    HW111873   1.265   5.967   4.558
 3658SOL    HW211874   1.276   5.811   4.602
 3659SOL     OW11875   2.579   4.200   6.141
 3659SOL    HW111876   2.496   4.202   6.196
 3659SOL    HW211877   2.625   4.112   6.154
 3660SOL     OW11878   4.981   6.420   1.985
 3660SOL    HW111879   5.023   6.330   1.976
 3660SOL    HW211880   5.052   6.490   1.987
 3661SOL     OW11881   4.885   2.228   6.760
 3661SOL    HW111882   4.848   2.245   6.668
 3661SOL    HW211883   4.983   2.247   6.760
 3662SOL     OW11884   3.476   0.458   4.642
 3662SOL    HW111885   3.474   0.494   4.548
 3662SOL    HW211886   3.407   0.386   4.651
 3663SOL     OW11887   1.516   1.357   0.809
 3663SOL    HW111888   1.421   1.386   0.818
 3663SOL    HW211889   1.520   1.262   0.779
 3664SOL     OW11890   5.361   1.365   1.242
 3664SOL    HW111891   5.306   1.418   1.178
 3664SOL    HW211892   5.457   1.370   1.216
 3665SOL     OW11893   0.565   5.830   5.487
 3665SOL    HW111894   0.558   5.929   5.502
 3665SOL    HW211895   0.501   5.783   5.548
 3666SOL     OW11896   1.738   4.419   3.687
 3666SOL    HW111897   1.741   4.334   3.634
 3666SOL    HW211898   1.805   4.415   3.761
 3667SOL     OW11899   6.243   0.308   0.477
 3667SOL    HW111900   6.155   0.328   0.520
 3667SOL    HW211901   6.228   0.276   0.384
 3668SOL     OW11902   1.541   0.535   2.349
 3668SOL    HW111903   1.567   0.454   2.402
 3668SOL    HW211904   1.547   0.514   2.252
 3669SOL     OW11905   5.800   1.666   4.249
 3669SOL    HW111906   5.751   1.611   4.182
 3669SOL    HW211907   5.895   1.636   4.255
 3670SOL     OW11908   2.560   5.592   0.733
 3670SOL    HW111909   2.518   5.508   0.698
 3670SOL    HW211910   2.569   5.658   0.659
 3671SOL     OW11911   6.221   0.243   3.372
 3671SOL    HW111912   6.180   0.154   3.392
 3671SOL    HW211913   6.282   0.268   3.447
 3672SOL     OW11914   5.815   1.594   1.073
 3672SOL    HW111915   5.762   1.623   1.153
 3672SOL    HW211916   5.823   1.671   1.009
 3673SOL     OW11917   3.799   0.647   6.072
 3673SOL    HW111918   3.896   0.626   6.074
 3673SOL    HW211919   3.749   0.572   6.030
 3674SOL     OW11920   0.450   7.016   5.782
 3674SOL    HW111921   0.362   0.029   5.815
 3674SOL    HW211922   0.517   0.069   5.783
 3675SOL     OW11923   1.762   2.517   5.525
 3675SOL    HW111924   1.703   2.577   5.580
 3675SOL    HW211925   1.813   2.572   5.459
 3676SOL     OW11926   4.028   5.216   4.317
 3676SOL    HW111927   3.944   5.177   4.355
 3676SOL    HW211928   4.005   5.295   4.260
 3677SOL     OW11929   1.227   5.853   2.795
 3677SOL    HW111930   1.260   5.942   2.827
 3677SOL    HW211931   1.203   5.859   2.699
 3678SOL     OW11932   0.715   2.738   3.862
 3678SOL    HW111933   0.810   2.714   3.845
 3678SOL    HW211934   0.680   2.793   3.786
 3679SOL     OW11935   0.409   1.186   2.844
 3679SOL    HW111936   0.471   1.194   2.766
 3679SOL    HW211937   0.316   1.172   2.811
 3680SOL     OW11938   6.684   3.139   3.859
 3680SOL    HW111939   6.701   3.081   3.779
 3680SOL    HW211940   6.586   3.144   3.876
 3681SOL     OW11941   0.605   0.844   6.120
 3681SOL    HW111942   0.528   0.903   6.144
 3681SOL    HW211943   0.688   0.899   6.112
 3682SOL     OW11944   5.764   2.546   5.944
 3682SOL    HW111945   5.766   2.572   6.040
 3682SOL    HW211946   5.717   2.617   5.891
 3683SOL     OW11947   6.817   0.489   5.056
 3683SOL    HW111948   6.799   0.549   5.134
 3683SOL    HW211949   6.901   0.437   5.072
 3684SOL     OW11950   1.648   2.661   1.135
 3684SOL    HW111951   1.589   2.670   1.215
 3684SOL    HW211952   1.714   2.735   1.134
 3685SOL     OW11953   6.119   6.350   5.756
 3685SOL    HW111954   6.162   6.354   5.666
 3685SOL    HW211955   6.035   6.404   5.756
 3686SOL     OW11956   6.179   4.961   3.391
 3686SOL    HW111957   6.136   4.981   3.479
 3686SOL    HW211958   6.193   4.863   3.383
 3687SOL     OW11959   3.032   6.055   5.371
 3687SOL    HW111960   3.033   5.987   5.444
 3687SOL    HW211961   3.079   6.019   5.291
 3688SOL     OW11962   1.221   4.266   0.042
 3688SOL    HW111963   1.176   4.239   0.128
 3688SOL    HW211964   1.205   4.363   0.025
 3689SOL     OW11965   0.726   0.669   5.643
 3689SOL    HW111966   0.747   0.766   5.637
 3689SOL    HW211967   0.715   0.631   5.551
 3690SOL     OW11968   4.307   0.420   6.506
 3690SOL    HW111969   4.305   0.407   6.605
 3690SOL    HW211970   4.395   0.458   6.479
 3691SOL     OW11971   2.661   3.162   6.714
 3691SOL    HW111972   2.643   3.070   6.678
 3691SOL    HW211973   2.578   3.217   6.706
 3692SOL     OW11974   1.273   6.029   4.254
 3692SOL    HW111975   1.369   6.053   4.264
 3692SOL    HW211976   1.223   6.054   4.337
 3693SOL     OW11977   1.636   2.876   3.186
 3693SOL    HW111978   1.685   2.804   3.236
 3693SOL    HW211979   1.702   2.939   3.145
 3694SOL     OW11980   1.163   4.983   3.512
 3694SOL    HW111981   1.250   5.021   3.542
 3694SOL    HW211982   1.089   5.022   3.567
 3695SOL     OW11983   0.630   2.234   2.666
 3695SOL    HW111984   0.652   2.291   2.588
 3695SOL    HW211985   0.544   2.264   2.706
 3696SOL     OW11986   4.344   6.353   5.541
 3696SOL    HW111987   4.328   6.334   5.444
 3696SOL    HW211988   4.304   6.441   5.566
 3697SOL     OW11989   6.944   6.260   3.631
 3697SOL    HW111990   6.857   6.242   3.676
 3697SOL    HW211991   7.002   6.179   3.637
 3698SOL     OW11992   3.596   6.756   5.450
 3698SOL    HW111993   3.617   6.848   5.484
 3698SOL    HW211994   3.497   6.743   5.449
 3699SOL     OW11995   6.750   3.621   3.095
 3699SOL    HW111996   6.750   3.718   3.073
 3699SOL    HW211997   6.834   3.579   3.060
 3700SOL     OW11998   5.744   0.588   3.512
 3700SOL    HW111999   5.727   0.686   3.525
 3700SOL    HW212000   5.818   0.576   3.445
 3701SOL     OW12001   0.297   0.805   4.010
 3701SOL    HW112002   0.349   0.739   4.064
 3701SOL    HW212003   0.255   0.873   4.070
 3702SOL     OW12004   4.590   0.215   1.909
 3702SOL    HW112005   4.675   0.267   1.904
 3702SOL    HW212006   4.596   0.148   1.983
 3703SOL     OW12007   4.004   3.879   5.692
 3703SOL    HW112008   4.071   3.824   5.744
 3703SOL    HW212009   3.977   3.958   5.746
 3704SOL     OW12010   2.965   1.125   1.765
 3704SOL    HW112011   3.059   1.158   1.754
 3704SOL    HW212012   2.951   1.096   1.860
 3705SOL     OW12013   4.913   6.652   3.740
 3705SOL    HW112014   4.890   6.696   3.653
 3705SOL    HW212015   4.872   6.704   3.815
 3706SOL     OW12016   1.289   2.406   4.487
 3706SOL    HW112017   1.201   2.454   4.483
 3706SOL    HW212018   1.363   2.473   4.482
 3707SOL     OW12019   5.570   3.164   5.169
 3707SOL    HW112020   5.600   3.196   5.079
 3707SOL    HW212021   5.495   3.100   5.158
 3708SOL     OW12022   5.844   6.932   6.435
 3708SOL    HW112023   5.832   6.955   6.532
 3708SOL    HW212024   5.803   6.842   6.417
 3709SOL     OW12025   3.661   1.085   6.552
 3709SOL    HW112026   3.635   1.113   6.460
 3709SOL    HW212027   3.752   1.042   6.550
 3710SOL     OW12028   6.920   5.979   0.490
 3710SOL    HW112029   6.963   5.918   0.557
 3710SOL    HW212030   6.900   5.927   0.406
 3711SOL     OW12031   0.454   5.776   2.335
 3711SOL    HW112032   0.439   5.692   2.283
 3711SOL    HW212033   0.438   5.856   2.275
 3712SOL     OW12034   0.169   6.207   6.870
 3712SOL    HW112035   0.102   6.164   6.931
 3712SOL    HW212036   0.131   6.291   6.833
 3713SOL     OW12037   2.260   6.380   4.985
 3713SOL    HW112038   2.204   6.411   5.061
 3713SOL    HW212039   2.302   6.460   4.941
 3714SOL     OW12040   5.325   6.236   4.726
 3714SOL    HW112041   5.279   6.152   4.698
 3714SOL    HW212042   5.289   6.313   4.674
 3715SOL     OW12043   5.720   4.026   5.164
 3715SOL    HW112044   5.710   4.092   5.090
 3715SOL    HW212045   5.747   3.938   5.127
 3716SOL     OW12046   0.426   6.454   4.205
 3716SOL    HW112047   0.389   6.365   4.231
 3716SOL    HW212048   0.442   6.509   4.288
 3717SOL     OW12049   6.127   5.735   0.632
 3717SOL    HW112050   6.090   5.780   0.550
 3717SOL    HW212051   6.116   5.797   0.710
 3718SOL     OW12052   1.875   6.359   6.274
 3718SOL    HW112053   1.856   6.400   6.185
 3718SOL    HW212054   1.940   6.284   6.263
 3719SOL     OW12055   4.797   4.381   1.284
 3719SOL    HW112056   4.869   4.313   1.267
 3719SOL    HW212057   4.776   4.383   1.381
 3720SOL     OW12058   6.043   2.419   6.753
 3720SOL    HW112059   6.001   2.396   6.841
 3720SOL    HW212060   6.004   2.361   6.682
 3721SOL     OW12061   5.241   4.751   0.331
 3721SOL    HW112062   5.241   4.850   0.344
 3721SOL    HW212063   5.317   4.711   0.382
 3722SOL     OW12064   6.720   6.326   2.418
 3722SOL    HW112065   6.798   6.264   2.426
 3722SOL    HW212066   6.704   6.371   2.506
 3723SOL     OW12067   5.839   6.679   1.704
 3723SOL    HW112068   5.775   6.612   1.666
 3723SOL    HW212069   5.788   6.758   1.739
 3724SOL     OW12070   2.147   5.225   6.667
 3724SOL    HW112071   2.158   5.128   6.689
 3724SOL    HW212072   2.100   5.234   6.579
 3725SOL     OW12073   5.240   6.085   6.714
 3725SOL    HW112074   5.324   6.115   6.669
 3725SOL    HW212075   5.263   6.023   6.789
 3726SOL     OW12076   6.798   4.128   1.369
 3726SOL    HW112077   6.762   4.094   1.456
 3726SOL    HW212078   6.786   4.058   1.298
 3727SOL     OW12079   0.302   3.286   6.324
 3727SOL    HW112080   0.398   3.294   6.298
 3727SOL    HW212081   0.271   3.192   6.310
 3728SOL     OW12082   1.575   3.419   0.538
 3728SOL    HW112083   1.496   3.480   0.528
 3728SOL    HW212084   1.659   3.473   0.526
 3729SOL     OW12085   0.844   2.436   3.223
 3729SOL    HW112086   0.935   2.395   3.234
 3729SOL    HW212087   0.850   2.517   3.166
 3730SOL     OW12088   2.692   6.149   6.973
 3730SOL    HW112089   2.634   6.130   6.894
 3730SOL    HW212090   2.764   6.080   6.980
 3731SOL     OW12091   4.740   1.287   0.231
 3731SOL    HW112092   4.815   1.344   0.197
 3731SOL    HW212093   4.685   1.255   0.154
 3732SOL     OW12094   2.276   2.975   5.992
 3732SOL    HW112095   2.329   3.055   6.022
 3732SOL    HW212096   2.337   2.897   5.981
 3733SOL     OW12097   2.243   3.916   1.388
 3733SOL    HW112098   2.223   4.006   1.348
 3733SOL    HW212099   2.157   3.868   1.407
 3734SOL     OW12100   4.437   1.558   1.737
 3734SOL    HW112101   4.488   1.643   1.723
 3734SOL    HW212102   4.371   1.571   1.811
 3735SOL     OW12103   0.962   1.707   2.771
 3735SOL    HW112104   1.017   1.791   2.779
 3735SOL    HW212105   0.941   1.691   2.674
 3736SOL     OW12106   0.164   3.102   0.705
 3736SOL    HW112107   0.196   3.162   0.778
 3736SOL    HW212108   0.160   3.153   0.619
 3737SOL     OW12109   4.773   0.150   3.483
 3737SOL    HW112110   4.838   0.079   3.459
 3737SOL    HW212111   4.680   0.114   3.474
 3738SOL     OW12112   6.538   5.908   3.348
 3738SOL    HW112113   6.511   5.928   3.442
 3738SOL    HW212114   6.458   5.879   3.295
 3739SOL     OW12115   1.609   4.313   2.702
 3739SOL    HW112116   1.533   4.366   2.665
 3739SOL    HW212117   1.617   4.226   2.653
 3740SOL     OW12118   4.618   0.755   6.891
 3740SOL    HW112119   4.717   0.767   6.880
 3740SOL    HW212120   4.576   0.738   6.802
 3741SOL     OW12121   4.392   3.999   1.230
 3741SOL    HW112122   4.468   4.064   1.235
 3741SOL    HW212123   4.377   3.974   1.135
 3742SOL     OW12124   2.265   1.911   5.548
 3742SOL    HW112125   2.302   1.955   5.630
 3742SOL    HW212126   2.250   1.980   5.477
 3743SOL     OW12127   6.184   4.905   0.803
 3743SOL    HW112128   6.248   4.929   0.876
 3743SOL    HW212129   6.190   4.972   0.729
 3744SOL     OW12130   0.577   5.703   3.654
 3744SOL    HW112131   0.607   5.794   3.628
 3744SOL    HW212132   0.638   5.666   3.724
 3745SOL     OW12133   3.078   5.650   2.947
 3745SOL    HW112134   3.139   5.596   3.004
 3745SOL    HW212135   3.095   5.747   2.963
 3746SOL     OW12136   4.470   1.354   1.558
 3746SOL    HW112137   4.558   1.308   1.569
 3746SOL    HW212138   4.464   1.429   1.624
 3747SOL     OW12139   3.042   6.739   6.106
 3747SOL    HW112140   3.105   6.772   6.176
 3747SOL    HW212141   2.948   6.757   6.135
 3748SOL     OW12142   5.577   0.577   2.129
 3748SOL    HW112143   5.615   0.634   2.057
 3748SOL    HW212144   5.497   0.622   2.169
 3749SOL     OW12145   1.669   6.808   4.164
 3749SOL    HW112146   1.620   6.893   4.183
 3749SOL    HW212147   1.613   6.750   4.105
 3750SOL     OW12148   1.556   3.998   0.146
 3750SOL    HW112149   1.550   4.095   0.125
 3750SOL    HW212150   1.646   3.978   0.186
 3751SOL     OW12151   0.105   3.951   2.730
 3751SOL    HW112152   0.009   3.943   2.702
 3751SOL    HW212153   0.121   4.040   2.770
 3752SOL     OW12154   5.067   1.100   5.653
 3752SOL    HW112155   5.130   1.177   5.654
 3752SOL    HW212156   5.099   1.032   5.587
 3753SOL     OW12157   5.991   0.430   4.584
 3753SOL    HW112158   6.064   0.369   4.614
 3753SOL    HW212159   6.003   0.452   4.487
 3754SOL     OW12160   1.954   0.790   2.443
 3754SOL    HW112161   1.860   0.803   2.413
 3754SOL    HW212162   1.990   0.876   2.478
 3755SOL     OW12163   3.244   5.045   4.676
 3755SOL    HW112164   3.232   5.064   4.578
 3755SOL    HW212165   3.332   5.000   4.691
 3756SOL     OW12166   2.919   6.005   6.941
 3756SOL    HW112167   2.959   5.973   0.006
 3756SOL    HW212168   2.990   6.008   6.871
 3757SOL     OW12169   6.359   5.132   2.025
 3757SOL    HW112170   6.268   5.093   2.017
 3757SOL    HW212171   6.424   5.061   2.052
 3758SOL     OW12172   1.989   0.990   4.322
 3758SOL    HW112173   1.947   1.071   4.364
 3758SOL    HW212174   2.082   1.012   4.294
 3759SOL     OW12175   4.737   0.992   4.703
 3759SOL    HW112176   4.710   0.996   4.799
 3759SOL    HW212177   4.777   0.903   4.683
 3760SOL     OW12178   0.269   0.192   3.459
 3760SOL    HW112179   0.227   0.125   3.398
 3760SOL    HW212180   0.336   0.147   3.518
 3761SOL     OW12181   6.430   1.543   4.723
 3761SOL    HW112182   6.339   1.504   4.740
 3761SOL    HW212183   6.420   1.635   4.686
 3762SOL     OW12184   1.395   3.862   2.289
 3762SOL    HW112185   1.474   3.901   2.242
 3762SOL    HW212186   1.379   3.769   2.256
 3763SOL     OW12187   6.963   3.920   0.163
 3763SOL    HW112188   6.896   3.989   0.191
 3763SOL    HW212189   0.017   3.917   0.229
 3764SOL     OW12190   1.908   0.285   2.831
 3764SOL    HW112191   1.851   0.258   2.909
 3764SOL    HW212192   2.002   0.258   2.848
 3765SOL     OW12193   6.235   1.775   1.503
 3765SOL    HW112194   6.164   1.732   1.447
 3765SOL    HW212195   6.284   1.842   1.448
 3766SOL     OW12196   1.821   2.744   4.129
 3766SOL    HW112197   1.808   2.748   4.030
 3766SOL    HW212198   1.917   2.724   4.150
 3767SOL     OW12199   3.039   4.194   5.901
 3767SOL    HW112200   2.940   4.179   5.894
 3767SOL    HW212201   3.056   4.293   5.906
 3768SOL     OW12202   1.539   0.541   4.507
 3768SOL    HW112203   1.621   0.489   4.528
 3768SOL    HW212204   1.554   0.637   4.530
 3769SOL     OW12205   5.541   5.504   5.011
 3769SOL    HW112206   5.584   5.488   5.100
 3769SOL    HW212207   5.607   5.545   4.948
 3770SOL     OW12208   0.983   1.213   0.300
 3770SOL    HW112209   0.991   1.282   0.373
 3770SOL    HW212210   0.944   1.255   0.219
 3771SOL     OW12211   6.691   4.558   0.616
 3771SOL    HW112212   6.616   4.498   0.589
 3771SOL    HW212213   6.680   4.583   0.713
 3772SOL     OW12214   1.155   6.485   0.080
 3772SOL    HW112215   1.125   6.519   7.012
 3772SOL    HW212216   1.253   6.502   0.091
 3773SOL     OW12217   5.662   4.147   5.497
 3773SOL    HW112218   5.602   4.141   5.416
 3773SOL    HW212219   5.644   4.069   5.557
 3774SOL     OW12220   5.712   4.981   1.875
 3774SOL    HW112221   5.710   5.073   1.914
 3774SOL    HW212222   5.689   4.986   1.778
 3775SOL     OW12223   3.768   4.872   3.295
 3775SOL    HW112224   3.824   4.834   3.369
 3775SOL    HW212225   3.705   4.940   3.333
 3776SOL     OW12226   3.685   2.488   6.453
 3776SOL    HW112227   3.659   2.392   6.460
 3776SOL    HW212228   3.647   2.527   6.369
 3777SOL     OW12229   2.505   6.000   3.681
 3777SOL    HW112230   2.588   6.052   3.662
 3777SOL    HW212231   2.520   5.942   3.761
 3778SOL     OW12232   2.898   5.800   4.385
 3778SOL    HW112233   2.910   5.869   4.457
 3778SOL    HW212234   2.983   5.749   4.373
 3779SOL     OW12235   0.227   5.050   0.821
 3779SOL    HW112236   0.164   5.062   0.898
 3779SOL    HW212237   0.219   5.128   0.759
 3780SOL     OW12238   0.114   2.513   2.252
 3780SOL    HW112239   0.075   2.584   2.310
 3780SOL    HW212240   0.153   2.441   2.309
 3781SOL     OW12241   1.447   6.552   4.995
 3781SOL    HW112242   1.490   6.493   5.063
 3781SOL    HW212243   1.352   6.569   5.022
 3782SOL     OW12244   4.076   6.463   2.481
 3782SOL    HW112245   3.993   6.407   2.488
 3782SOL    HW212246   4.156   6.405   2.488
 3783SOL     OW12247   5.272   4.606   5.756
 3783SOL    HW112248   5.369   4.585   5.765
 3783SOL    HW212249   5.227   4.536   5.701
 3784SOL     OW12250   5.542   2.721   2.241
 3784SOL    HW112251   5.518   2.791   2.308
 3784SOL    HW212252   5.466   2.709   2.177
 3785SOL     OW12253   0.507   3.368   5.033
 3785SOL    HW112254   0.571   3.395   4.961
 3785SOL    HW212255   0.558   3.340   5.114
 3786SOL     OW12256   2.279   2.162   3.473
 3786SOL    HW112257   2.213   2.195   3.541
 3786SOL    HW212258   2.283   2.226   3.396
 3787SOL     OW12259   3.992   0.486   2.819
 3787SOL    HW112260   4.066   0.550   2.839
 3787SOL    HW212261   3.914   0.537   2.782
 3788SOL     OW12262   6.846   4.116   4.951
 3788SOL    HW112263   6.842   4.213   4.927
 3788SOL    HW212264   6.778   4.096   5.022
 3789SOL     OW12265   0.627   3.078   3.391
 3789SOL    HW112266   0.721   3.076   3.355
 3789SOL    HW212267   0.593   2.985   3.400
 3790SOL     OW12268   1.288   6.057   0.037
 3790SOL    HW112269   1.332   6.127   7.003
 3790SOL    HW212270   1.233   6.101   0.109
 3791SOL     OW12271   5.482   1.607   5.914
 3791SOL    HW112272   5.473   1.537   5.985
 3791SOL    HW212273   5.515   1.692   5.954
 3792SOL     OW12274   0.791   0.936   4.297
 3792SOL    HW112275   0.754   1.011   4.243
 3792SOL    HW212276   0.890   0.945   4.304
 3793SOL     OW12277   5.994   6.021   1.189
 3793SOL    HW112278   6.074   5.961   1.189
 3793SOL    HW212279   6.002   6.089   1.116
 3794SOL     OW12280   1.714   3.223   1.166
 3794SOL    HW112281   1.695   3.157   1.239
 3794SOL    HW212282   1.730   3.173   1.080
 3795SOL     OW12283   3.023   5.901   0.814
 3795SOL    HW112284   3.042   5.914   0.717
 3795SOL    HW212285   2.947   5.837   0.825
 3796SOL     OW12286   4.061   2.218   1.305
 3796SOL    HW112287   4.080   2.293   1.241
 3796SOL    HW212288   4.079   2.130   1.260
 3797SOL     OW12289   1.409   4.309   2.491
 3797SOL    HW112290   1.355   4.389   2.518
 3797SOL    HW212291   1.351   4.228   2.492
 3798SOL     OW12292   2.384   6.733   2.859
 3798SOL    HW112293   2.401   6.827   2.829
 3798SOL    HW212294   2.406   6.725   2.957
 3799SOL     OW12295   6.486   2.744   2.969
 3799SOL    HW112296   6.508   2.841   2.977
 3799SOL    HW212297   6.561   2.696   2.925
 3800SOL     OW12298   4.871   1.563   2.962
 3800SOL    HW112299   4.927   1.633   3.006
 3800SOL    HW212300   4.827   1.601   2.881
 3801SOL     OW12301   5.367   6.925   1.998
 3801SOL    HW112302   5.423   6.903   2.078
 3801SOL    HW212303   5.415   6.992   1.941
 3802SOL     OW12304   0.693   1.817   1.809
 3802SOL    HW112305   0.652   1.761   1.737
 3802SOL    HW212306   0.631   1.892   1.834
 3803SOL     OW12307   3.623   3.720   3.755
 3803SOL    HW112308   3.538   3.698   3.803
 3803SOL    HW212309   3.696   3.659   3.786
 3804SOL     OW12310   3.174   1.321   4.444
 3804SOL    HW112311   3.139   1.411   4.470
 3804SOL    HW212312   3.273   1.325   4.436
 3805SOL     OW12313   2.485   2.611   1.063
 3805SOL    HW112314   2.555   2.680   1.083
 3805SOL    HW212315   2.405   2.655   1.024
 3806SOL     OW12316   4.336   3.843   6.278
 3806SOL    HW112317   4.350   3.930   6.231
 3806SOL    HW212318   4.329   3.769   6.211
 3807SOL     OW12319   1.611   4.991   4.321
 3807SOL    HW112320   1.679   5.037   4.379
 3807SOL    HW212321   1.657   4.946   4.245
 3808SOL     OW12322   4.839   0.670   5.692
 3808SOL    HW112323   4.795   0.725   5.763
 3808SOL    HW212324   4.795   0.581   5.687
 3809SOL     OW12325   6.522   1.744   1.568
 3809SOL    HW112326   6.615   1.708   1.559
 3809SOL    HW212327   6.463   1.702   1.500
 3810SOL     OW12328   6.754   2.525   3.230
 3810SOL    HW112329   6.660   2.497   3.214
 3810SOL    HW212330   6.765   2.622   3.206
 3811SOL     OW12331   0.247   6.065   4.565
 3811SOL    HW112332   0.214   6.009   4.642
 3811SOL    HW212333   0.175   6.128   4.537
 3812SOL     OW12334   3.269   5.806   6.898
 3812SOL    HW112335   3.345   5.753   6.860
 3812SOL    HW212336   3.301   5.896   6.927
 3813SOL     OW12337   6.188   3.943   1.345
 3813SOL    HW112338   6.188   3.852   1.304
 3813SOL    HW212339   6.148   4.008   1.281
 3814SOL     OW12340   6.919   6.819   3.741
 3814SOL    HW112341   6.830   6.835   3.700
 3814SOL    HW212342   6.922   6.728   3.781
 3815SOL     OW12343   5.253   3.127   0.675
 3815SOL    HW112344   5.227   3.128   0.578
 3815SOL    HW212345   5.197   3.060   0.723
 3816SOL     OW12346   0.505   6.489   4.865
 3816SOL    HW112347   0.541   6.478   4.772
 3816SOL    HW212348   0.535   6.577   4.901
 3817SOL     OW12349   4.879   3.092   2.605
 3817SOL    HW112350   4.838   3.156   2.669
 3817SOL    HW212351   4.979   3.099   2.610
 3818SOL     OW12352   0.378   0.485   1.227
 3818SOL    HW112353   0.338   0.552   1.290
 3818SOL    HW212354   0.432   0.533   1.158
 3819SOL     OW12355   6.659   4.078   2.693
 3819SOL    HW112356   6.560   4.088   2.691
 3819SOL    HW212357   6.695   4.122   2.775
 3820SOL     OW12358   5.256   6.767   3.375
 3820SOL    HW112359   5.165   6.751   3.336
 3820SOL    HW212360   5.250   6.761   3.475
 3821SOL     OW12361   0.764   6.946   0.456
 3821SOL    HW112362   0.782   0.009   0.507
 3821SOL    HW212363   0.669   6.918   0.471
 3822SOL     OW12364   3.394   6.895   0.158
 3822SOL    HW112365   3.399   6.992   0.134
 3822SOL    HW212366   3.442   6.879   0.245
 3823SOL     OW12367   4.521   4.672   6.576
 3823SOL    HW112368   4.431   4.701   6.609
 3823SOL    HW212369   4.546   4.726   6.496
 3824SOL     OW12370   0.601   2.688   0.596
 3824SOL    HW112371   0.692   2.652   0.614
 3824SOL    HW212372   0.582   2.685   0.498
 3825SOL     OW12373   1.060   4.312   1.164
 3825SOL    HW112374   1.043   4.294   1.261
 3825SOL    HW212375   1.150   4.277   1.139
 3826SOL     OW12376   0.142   3.614   2.351
 3826SOL    HW112377   0.086   3.628   2.432
 3826SOL    HW212378   0.098   3.657   2.272
 3827SOL     OW12379   0.850   0.829   1.464
 3827SOL    HW112380   0.782   0.885   1.417
 3827SOL    HW212381   0.806   0.745   1.497
 3828SOL     OW12382   3.581   3.892   4.790
 3828SOL    HW112383   3.642   3.836   4.733
 3828SOL    HW212384   3.613   3.890   4.885
 3829SOL     OW12385   0.538   4.750   1.918
 3829SOL    HW112386   0.466   4.698   1.872
 3829SOL    HW212387   0.518   4.848   1.913
 3830SOL     OW12388   0.374   0.782   5.339
 3830SOL    HW112389   0.456   0.831   5.309
 3830SOL    HW212390   0.351   0.810   5.432
 3831SOL     OW12391   4.165   2.288   2.960
 3831SOL    HW112392   4.110   2.351   2.905
 3831SOL    HW212393   4.106   2.217   2.998
 3832SOL     OW12394   0.299   0.526   1.992
 3832SOL    HW112395   0.300   0.449   2.057
 3832SOL    HW212396   0.393   0.548   1.964
 3833SOL     OW12397   1.800   6.720   6.462
 3833SOL    HW112398   1.859   6.799   6.447
 3833SOL    HW212399   1.832   6.643   6.407
 3834SOL     OW12400   4.178   4.183   1.063
 3834SOL    HW112401   4.143   4.243   0.991
 3834SOL    HW212402   4.116   4.106   1.075
 3835SOL     OW12403   4.050   5.741   5.430
 3835SOL    HW112404   3.972   5.756   5.369
 3835SOL    HW212405   4.101   5.827   5.441
 3836SOL     OW12406   0.682   4.729   5.941
 3836SOL    HW112407   0.675   4.733   6.040
 3836SOL    HW212408   0.595   4.759   5.900
 3837SOL     OW12409   4.089   5.284   5.227
 3837SOL    HW112410   3.993   5.297   5.249
 3837SOL    HW212411   4.142   5.362   5.262
 3838SOL     OW12412   1.949   1.546   3.112
 3838SOL    HW112413   1.984   1.637   3.088
 3838SOL    HW212414   1.853   1.554   3.140
 3839SOL     OW12415   4.276   0.642   2.683
 3839SOL    HW112416   4.220   0.612   2.606
 3839SOL    HW212417   4.217   0.671   2.758
 3840SOL     OW12418   2.585   1.763   5.681
 3840SOL    HW112419   2.628   1.793   5.596
 3840SOL    HW212420   2.542   1.674   5.667
 3841SOL     OW12421   1.151   4.388   4.073
 3841SOL    HW112422   1.246   4.358   4.064
 3841SOL    HW212423   1.092   4.307   4.079
 3842SOL     OW12424   2.728   2.414   4.094
 3842SOL    HW112425   2.681   2.354   4.159
 3842SOL    HW212426   2.788   2.476   4.144
 3843SOL     OW12427   5.657   3.782   1.006
 3843SOL    HW112428   5.715   3.849   1.052
 3843SOL    HW212429   5.645   3.702   1.066
 3844SOL     OW12430   1.136   4.550   0.013
 3844SOL    HW112431   1.148   4.628   0.075
 3844SOL    HW212432   1.040   4.522   0.015
 3845SOL     OW12433   2.312   5.991   6.934
 3845SOL    HW112434   2.267   6.080   6.938
 3845SOL    HW212435   2.244   5.919   6.920
 3846SOL     OW12436   0.453   3.340   4.411
 3846SOL    HW112437   0.373   3.341   4.471
 3846SOL    HW212438   0.535   3.362   4.465
 3847SOL     OW12439   5.096   2.314   4.320
 3847SOL    HW112440   5.015   2.346   4.271
 3847SOL    HW212441   5.083   2.218   4.346
 3848SOL     OW12442   4.905   3.559   2.879
 3848SOL    HW112443   4.995   3.602   2.884
 3848SOL    HW212444   4.848   3.610   2.815
 3849SOL     OW12445   0.734   0.029   6.457
 3849SOL    HW112446   0.643   0.066   6.437
 3849SOL    HW212447   0.803   0.100   6.444
 3850SOL     OW12448   3.133   2.998   1.194
 3850SOL    HW112449   3.223   3.004   1.149
 3850SOL    HW212450   3.073   2.939   1.139
 3851SOL     OW12451   6.959   5.185   3.535
 3851SOL    HW112452   6.868   5.202   3.498
 3851SOL    HW212453   6.964   5.218   3.629
 3852SOL     OW12454   3.770   6.579   4.418
 3852SOL    HW112455   3.844   6.647   4.425
 3852SOL    HW212456   3.802   6.492   4.454
 3853SOL     OW12457   1.299   2.332   2.997
 3853SOL    HW112458   1.398   2.344   2.986
 3853SOL    HW212459   1.278   2.234   2.993
 3854SOL     OW12460   0.832   3.017   3.222
 3854SOL    HW112461   0.791   3.072   3.149
 3854SOL    HW212462   0.900   2.954   3.184
 3855SOL     OW12463   3.779   6.271   0.294
 3855SOL    HW112464   3.729   6.216   0.228
 3855SOL    HW212465   3.744   6.365   0.294
 3856SOL     OW12466   0.397   1.504   5.738
 3856SOL    HW112467   0.488   1.537   5.764
 3856SOL    HW212468   0.362   1.443   5.809
 3857SOL     OW12469   1.480   6.370   5.681
 3857SOL    HW112470   1.510   6.417   5.764
 3857SOL    HW212471   1.554   6.312   5.647
 3858SOL     OW12472   3.221   1.446   5.963
 3858SOL    HW112473   3.263   1.380   5.901
 3858SOL    HW212474   3.291   1.488   6.021
 3859SOL     OW12475   6.168   0.835   1.711
 3859SOL    HW112476   6.140   0.920   1.667
 3859SOL    HW212477   6.222   0.780   1.647
 3860SOL     OW12478   1.909   1.238   4.423
 3860SOL    HW112479   1.937   1.322   4.377
 3860SOL    HW212480   1.834   1.257   4.485
 3861SOL     OW12481   4.679   6.286   3.076
 3861SOL    HW112482   4.753   6.294   3.009
 3861SOL    HW212483   4.610   6.355   3.058
 3862SOL     OW12484   0.723   0.533   4.700
 3862SOL    HW112485   0.800   0.587   4.734
 3862SOL    HW212486   0.718   0.447   4.751
 3863SOL     OW12487   6.035   1.516   6.492
 3863SOL    HW112488   6.103   1.466   6.546
 3863SOL    HW212489   5.948   1.468   6.497
 3864SOL     OW12490   2.142   0.712   5.222
 3864SOL    HW112491   2.217   0.778   5.217
 3864SOL    HW212492   2.168   0.637   5.283
 3865SOL     OW12493   4.092   1.500   1.116
 3865SOL    HW112494   4.092   1.472   1.212
 3865SOL    HW212495   4.166   1.454   1.068
 3866SOL     OW12496   3.746   1.039   6.871
 3866SOL    HW112497   3.698   0.958   6.906
 3866SOL    HW212498   3.683   1.117   6.869
 3867SOL     OW12499   1.311   4.236   3.254
 3867SOL    HW112500   1.382   4.303   3.234
 3867SOL    HW212501   1.224   4.282   3.269
 3868SOL     OW12502   4.171   0.170   6.998
 3868SOL    HW112503   4.083   0.155   0.021
 3868SOL    HW212504   4.230   0.091   7.013
 3869SOL     OW12505   6.663   3.050   3.439
 3869SOL    HW112506   6.665   2.993   3.522
 3869SOL    HW212507   6.600   3.126   3.452
 3870SOL     OW12508   6.844   6.434   1.284
 3870SOL    HW112509   6.832   6.418   1.382
 3870SOL    HW212510   6.836   6.532   1.266
 3871SOL     OW12511   3.466   0.244   3.295
 3871SOL    HW112512   3.556   0.231   3.337
 3871SOL    HW212513   3.395   0.228   3.363
 3872SOL     OW12514   2.897   3.362   4.306
 3872SOL    HW112515   2.897   3.312   4.219
 3872SOL    HW212516   2.889   3.460   4.287
 3873SOL     OW12517   5.789   4.366   1.088
 3873SOL    HW112518   5.740   4.452   1.075
 3873SOL    HW212519   5.817   4.358   1.183
 3874SOL     OW12520   3.938   0.728   0.246
 3874SOL    HW112521   3.968   0.663   0.315
 3874SOL    HW212522   3.877   0.795   0.288
 3875SOL     OW12523   1.976   2.840   3.638
 3875SOL    HW112524   1.923   2.902   3.580
 3875SOL    HW212525   1.992   2.883   3.727
 3876SOL     OW12526   3.569   5.301   1.174
 3876SOL    HW112527   3.515   5.384   1.158
 3876SOL    HW212528   3.634   5.289   1.099
 3877SOL     OW12529   6.506   2.473   1.043
 3877SOL    HW112530   6.416   2.439   1.016
 3877SOL    HW212531   6.543   2.415   1.115
 3878SOL     OW12532   4.843   6.454   4.468
 3878SOL    HW112533   4.807   6.367   4.434
 3878SOL    HW212534   4.896   6.499   4.397
 3879SOL     OW12535   6.044   5.547   1.143
 3879SOL    HW112536   6.003   5.631   1.179
 3879SOL    HW212537   6.097   5.568   1.061
 3880SOL     OW12538   5.076   3.979   4.804
 3880SOL    HW112539   4.989   4.009   4.844
 3880SOL    HW212540   5.133   4.058   4.783
 3881SOL     OW12541   1.360   3.366   1.724
 3881SOL    HW112542   1.341   3.291   1.788
 3881SOL    HW212543   1.444   3.346   1.674
 3882SOL     OW12544   0.285   0.932   6.024
 3882SOL    HW112545   0.240   0.843   6.019
 3882SOL    HW212546   0.294   0.960   6.119
 3883SOL     OW12547   4.088   1.329   2.119
 3883SOL    HW112548   4.056   1.359   2.209
 3883SOL    HW212549   4.028   1.368   2.048
 3884SOL     OW12550   0.527   6.035   2.218
 3884SOL    HW112551   0.507   6.105   2.287
 3884SOL    HW212552   0.626   6.024   2.209
 3885SOL     OW12553   6.592   5.238   3.021
 3885SOL    HW112554   6.654   5.276   3.089
 3885SOL    HW212555   6.537   5.311   2.980
 3886SOL     OW12556   4.474   5.585   5.430
 3886SOL    HW112557   4.560   5.573   5.380
 3886SOL    HW212558   4.485   5.658   5.497
 3887SOL     OW12559   0.889   0.037   0.241
 3887SOL    HW112560   0.846   0.109   0.188
 3887SOL    HW212561   0.819   6.995   0.274
 3888SOL     OW12562   6.839   6.822   5.024
 3888SOL    HW112563   6.898   6.800   5.101
 3888SOL    HW212564   6.863   6.912   4.988
 3889SOL     OW12565   6.610   3.729   0.465
 3889SOL    HW112566   6.596   3.651   0.405
 3889SOL    HW212567   6.707   3.743   0.480
 3890SOL     OW12568   6.611   4.468   3.631
 3890SOL    HW112569   6.607   4.496   3.535
 3890SOL    HW212570   6.640   4.372   3.636
 3891SOL     OW12571   5.415   4.120   4.499
 3891SOL    HW112572   5.431   4.024   4.475
 3891SOL    HW212573   5.349   4.125   4.574
 3892SOL     OW12574   0.351   2.379   1.188
 3892SOL    HW112575   0.439   2.397   1.144
 3892SOL    HW212576   0.299   2.464   1.196
 3893SOL     OW12577   4.231   3.173   0.146
 3893SOL    HW112578   4.296   3.098   0.161
 3893SOL    HW212579   4.196   3.168   0.053
 3894SOL     OW12580   4.526   1.238   6.971
 3894SOL    HW112581   4.450   1.175   6.957
 3894SOL    HW212582   4.602   1.190   7.015
 3895SOL     OW12583   0.787   0.469   5.823
 3895SOL    HW112584   0.792   0.510   5.915
 3895SOL    HW212585   0.777   0.542   5.755
 3896SOL     OW12586   0.465   1.422   6.200
 3896SOL    HW112587   0.563   1.402   6.206
 3896SOL    HW212588   0.450   1.496   6.135
 3897SOL     OW12589   3.775   5.584   2.765
 3897SOL    HW112590   3.705   5.606   2.834
 3897SOL    HW212591   3.732   5.575   2.676
 3898SOL     OW12592   2.865   2.738   6.033
 3898SOL    HW112593   2.934   2.759   5.964
 3898SOL    HW212594   2.838   2.822   6.079
 3899SOL     OW12595   4.621   6.802   5.210
 3899SOL    HW112596   4.699   6.865   5.215
 3899SOL    HW212597   4.551   6.831   5.275
 3900SOL     OW12598   4.932   3.104   3.760
 3900SOL    HW112599   5.013   3.142   3.715
 3900SOL    HW212600   4.958   3.023   3.812
 3901SOL     OW12601   3.109   0.695   6.027
 3901SOL    HW112602   3.177   0.657   5.963
 3901SOL    HW212603   3.134   0.671   6.120
 3902SOL     OW12604   6.071   3.027   1.980
 3902SOL    HW112605   6.050   2.931   2.000
 3902SOL    HW212606   5.988   3.082   1.990
 3903SOL     OW12607   3.773   5.857   0.529
 3903SOL    HW112608   3.869   5.884   0.536
 3903SOL    HW212609   3.766   5.774   0.473
 3904SOL     OW12610   2.174   1.239   6.062
 3904SOL    HW112611   2.126   1.318   6.023
 3904SOL    HW212612   2.204   1.260   6.155
 3905SOL     OW12613   0.059   0.129   6.794
 3905SOL    HW112614   0.113   0.095   6.872
 3905SOL    HW212615   0.032   0.223   6.812
 3906SOL     OW12616   5.700   6.083   5.404
 3906SOL    HW112617   5.636   6.138   5.352
 3906SOL    HW212618   5.769   6.142   5.446
 3907SOL     OW12619   5.485   0.882   3.697
 3907SOL    HW112620   5.515   0.974   3.724
 3907SOL    HW212621   5.516   0.815   3.764
 3908SOL     OW12622   0.695   2.509   0.241
 3908SOL    HW112623   0.791   2.527   0.264
 3908SOL    HW212624   0.681   2.525   0.144
 3909SOL     OW12625   6.223   5.834   5.715
 3909SOL    HW112626   6.306   5.873   5.677
 3909SOL    HW212627   6.184   5.769   5.650
 3910SOL     OW12628   3.604   3.838   2.876
 3910SOL    HW112629   3.643   3.749   2.853
 3910SOL    HW212630   3.677   3.903   2.893
 3911SOL     OW12631   4.952   1.503   5.131
 3911SOL    HW112632   4.999   1.453   5.204
 3911SOL    HW212633   4.886   1.567   5.170
 3912SOL     OW12634   5.078   1.038   5.340
 3912SOL    HW112635   5.061   0.988   5.255
 3912SOL    HW212636   5.168   1.080   5.336
 3913SOL     OW12637   2.596   6.529   6.562
 3913SOL    HW112638   2.683   6.577   6.547
 3913SOL    HW212639   2.522   6.596   6.566
 3914SOL     OW12640   2.824   0.747   1.134
 3914SOL    HW112641   2.887   0.683   1.090
 3914SOL    HW212642   2.811   0.828   1.076
 3915SOL     OW12643   4.647   5.415   1.574
 3915SOL    HW112644   4.737   5.394   1.538
 3915SOL    HW212645   4.624   5.352   1.648
 3916SOL     OW12646   1.287   0.488   4.385
 3916SOL    HW112647   1.290   0.399   4.339
 3916SOL    HW212648   1.380   0.516   4.409
 3917SOL     OW12649   6.726   6.119   0.102
 3917SOL    HW112650   6.654   6.058   0.069
 3917SOL    HW212651   6.686   6.202   0.140
 3918SOL     OW12652   5.073   6.311   1.576
 3918SOL    HW112653   5.104   6.394   1.623
 3918SOL    HW212654   5.083   6.233   1.638
 3919SOL     OW12655   3.023   6.478   6.482
 3919SOL    HW112656   3.109   6.451   6.440
 3919SOL    HW212657   2.947   6.428   6.440
 3920SOL     OW12658   3.218   3.094   0.829
 3920SOL    HW112659   3.176   3.006   0.806
 3920SOL    HW212660   3.304   3.079   0.877
 3921SOL     OW12661   0.156   3.656   1.718
 3921SOL    HW112662   0.155   3.752   1.744
 3921SOL    HW212663   0.224   3.608   1.773
 3922SOL     OW12664   6.435   3.140   1.809
 3922SOL    HW112665   6.499   3.068   1.782
 3922SOL    HW212666   6.343   3.116   1.777
 3923SOL     OW12667   6.561   0.859   6.944
 3923SOL    HW112668   6.486   0.803   6.908
 3923SOL    HW212669   6.643   0.844   6.890
 3924SOL     OW12670   6.977   4.916   3.635
 3924SOL    HW112671   6.892   4.864   3.624
 3924SOL    HW212672   6.957   5.014   3.629
 3925SOL     OW12673   3.087   5.362   1.087
 3925SOL    HW112674   3.090   5.264   1.105
 3925SOL    HW212675   3.082   5.412   1.173
 3926SOL     OW12676   6.976   5.605   3.066
 3926SOL    HW112677   0.010   5.522   3.080
 3926SOL    HW212678   7.016   5.659   2.992
 3927SOL     OW12679   6.543   2.630   3.678
 3927SOL    HW112680   6.620   2.571   3.652
 3927SOL    HW212681   6.460   2.598   3.634
 3928SOL     OW12682   3.835   5.714   6.040
 3928SOL    HW112683   3.858   5.617   6.046
 3928SOL    HW212684   3.905   5.761   5.986
 3929SOL     OW12685   0.142   0.938   5.219
 3929SOL    HW112686   0.052   0.983   5.220
 3929SOL    HW212687   0.212   1.003   5.250
 3930SOL     OW12688   2.543   2.212   3.830
 3930SOL    HW112689   2.524   2.142   3.761
 3930SOL    HW212690   2.507   2.181   3.918
 3931SOL     OW12691   1.171   0.905   1.958
 3931SOL    HW112692   1.194   0.996   1.994
 3931SOL    HW212693   1.115   0.915   1.876
 3932SOL     OW12694   1.819   4.644   3.523
 3932SOL    HW112695   1.788   4.591   3.603
 3932SOL    HW212696   1.742   4.661   3.462
 3933SOL     OW12697   2.286   6.422   0.010
 3933SOL    HW112698   2.339   6.428   0.095
 3933SOL    HW212699   2.341   6.458   6.956
 3934SOL     OW12700   6.676   0.956   0.163
 3934SOL    HW112701   6.740   1.030   0.144
 3934SOL    HW212702   6.622   0.936   0.080
 3935SOL     OW12703   2.681   6.590   7.009
 3935SOL    HW112704   2.754   6.634   6.957
 3935SOL    HW212705   2.595   6.599   6.959
 3936SOL     OW12706   0.128   5.161   5.640
 3936SOL    HW112707   0.174   5.115   5.564
 3936SOL    HW212708   0.177   5.141   5.725
 3937SOL     OW12709   6.742   1.920   3.475
 3937SOL    HW112710   6.680   1.883   3.407
 3937SOL    HW212711   6.782   1.845   3.528
 3938SOL     OW12712   0.487   1.798   3.702
 3938SOL    HW112713   0.512   1.873   3.764
 3938SOL    HW212714   0.432   1.731   3.752
 3939SOL     OW12715   2.622   2.415   2.599
 3939SOL    HW112716   2.666   2.386   2.515
 3939SOL    HW212717   2.592   2.510   2.591
 3940SOL     OW12718   4.993   5.266   1.154
 3940SOL    HW112719   4.901   5.225   1.157
 3940SOL    HW212720   5.059   5.196   1.129
 3941SOL     OW12721   4.962   3.068   6.009
 3941SOL    HW112722   4.891   3.066   6.079
 3941SOL    HW212723   5.018   3.150   6.019
 3942SOL     OW12724   0.368   6.985   6.685
 3942SOL    HW112725   0.363   0.061   6.705
 3942SOL    HW212726   0.390   6.972   6.588
 3943SOL     OW12727   0.005   3.468   2.781
 3943SOL    HW112728   0.021   3.490   2.878
 3943SOL    HW212729   6.942   3.415   2.772
 3944SOL     OW12730   4.686   2.761   4.912
 3944SOL    HW112731   4.632   2.767   4.996
 3944SOL    HW212732   4.689   2.851   4.868
 3945SOL     OW12733   0.031   1.812   0.469
 3945SOL    HW112734   0.020   1.868   0.551
 3945SOL    HW212735   6.980   1.742   0.466
 3946SOL     OW12736   5.577   5.506   5.430
 3946SOL    HW112737   5.504   5.575   5.424
 3946SOL    HW212738   5.592   5.483   5.526
 3947SOL     OW12739   5.646   6.172   0.974
 3947SOL    HW112740   5.609   6.261   1.000
 3947SOL    HW212741   5.622   6.104   1.044
 3948SOL     OW12742   1.519   5.624   2.341
 3948SOL    HW112743   1.599   5.569   2.316
 3948SOL    HW212744   1.529   5.717   2.305
 3949SOL     OW12745   4.389   0.338   3.272
 3949SOL    HW112746   4.384   0.435   3.294
 3949SOL    HW212747   4.456   0.323   3.199
 3950SOL     OW12748   1.949   4.017   1.093
 3950SOL    HW112749   2.004   3.942   1.130
 3950SOL    HW212750   1.854   3.987   1.082
 3951SOL     OW12751   5.359   6.666   1.038
 3951SOL    HW112752   5.340   6.612   1.120
 3951SOL    HW212753   5.294   6.642   0.966
 3952SOL     OW12754   6.230   2.785   2.818
 3952SOL    HW112755   6.240   2.821   2.725
 3952SOL    HW212756   6.318   2.747   2.849
 3953SOL     OW12757   3.800   4.741   1.615
 3953SOL    HW112758   3.830   4.768   1.523
 3953SOL    HW212759   3.880   4.728   1.673
 3954SOL     OW12760   4.290   5.075   4.940
 3954SOL    HW112761   4.367   5.119   4.895
 3954SOL    HW212762   4.290   4.978   4.919
 3955SOL     OW12763   3.077   5.943   6.703
 3955SOL    HW112764   3.125   6.029   6.689
 3955SOL    HW212765   3.141   5.875   6.739
 3956SOL     OW12766   0.014   1.104   3.385
 3956SOL    HW112767   7.012   1.106   3.482
 3956SOL    HW212768   0.083   1.174   3.366
 3957SOL     OW12769   4.827   6.208   4.374
 3957SOL    HW112770   4.788   6.199   4.282
 3957SOL    HW212771   4.882   6.127   4.395
 3958SOL     OW12772   6.063   1.284   4.856
 3958SOL    HW112773   6.132   1.220   4.891
 3958SOL    HW212774   6.107   1.354   4.801
 3959SOL     OW12775   4.358   6.848   0.686
 3959SOL    HW112776   4.311   6.820   0.770
 3959SOL    HW212777   4.366   6.947   0.684
 3960SOL     OW12778   4.992   1.992   6.504
 3960SOL    HW112779   4.923   2.065   6.513
 3960SOL    HW212780   5.065   2.023   6.443
 3961SOL     OW12781   5.445   1.687   2.383
 3961SOL    HW112782   5.514   1.679   2.312
 3961SOL    HW212783   5.394   1.772   2.373
 3962SOL     OW12784   2.963   4.145   0.395
 3962SOL    HW112785   3.052   4.165   0.354
 3962SOL    HW212786   2.974   4.080   0.470
 3963SOL     OW12787   4.872   4.878   4.048
 3963SOL    HW112788   4.915   4.952   4.100
 3963SOL    HW212789   4.778   4.904   4.025
 3964SOL     OW12790   4.401   4.971   4.194
 3964SOL    HW112791   4.401   4.965   4.294
 3964SOL    HW212792   4.310   4.999   4.162
 3965SOL     OW12793   4.961   2.838   4.956
 3965SOL    HW112794   4.970   2.919   5.014
 3965SOL    HW212795   4.885   2.782   4.990
 3966SOL     OW12796   4.818   6.026   6.479
 3966SOL    HW112797   4.812   6.118   6.519
 3966SOL    HW212798   4.903   5.982   6.507
 3967SOL     OW12799   1.988   3.681   2.300
 3967SOL    HW112800   1.976   3.595   2.350
 3967SOL    HW212801   2.018   3.661   2.207
 3968SOL     OW12802   4.729   0.412   1.037
 3968SOL    HW112803   4.751   0.416   0.939
 3968SOL    HW212804   4.778   0.336   1.079
 3969SOL     OW12805   1.599   4.664   2.184
 3969SOL    HW112806   1.661   4.670   2.105
 3969SOL    HW212807   1.571   4.568   2.197
 3970SOL     OW12808   6.059   6.349   3.394
 3970SOL    HW112809   5.991   6.422   3.402
 3970SOL    HW212810   6.045   6.300   3.308
 3971SOL     OW12811   3.161   5.671   3.408
 3971SOL    HW112812   3.169   5.611   3.328
 3971SOL    HW212813   3.246   5.667   3.460
 3972SOL     OW12814   1.186   3.945   0.940
 3972SOL    HW112815   1.199   3.960   0.842
 3972SOL    HW212816   1.232   3.860   0.967
 3973SOL     OW12817   1.537   5.388   6.522
 3973SOL    HW112818   1.513   5.322   6.450
 3973SOL    HW212819   1.453   5.425   6.562
 3974SOL     OW12820   2.067   0.328   5.080
 3974SOL    HW112821   1.991   0.331   5.146
 3974SOL    HW212822   2.072   0.415   5.031
 3975SOL     OW12823   4.828   1.479   5.466
 3975SOL    HW112824   4.855   1.385   5.443
 3975SOL    HW212825   4.737   1.478   5.505
 3976SOL     OW12826   1.760   5.973   2.024
 3976SOL    HW112827   1.791   5.913   1.951
 3976SOL    HW212828   1.758   6.067   1.991
 3977SOL     OW12829   2.282   3.719   5.363
 3977SOL    HW112830   2.206   3.720   5.429
 3977SOL    HW212831   2.246   3.728   5.271
 3978SOL     OW12832   5.738   4.881   4.900
 3978SOL    HW112833   5.642   4.889   4.928
 3978SOL    HW212834   5.750   4.795   4.849
 3979SOL     OW12835   2.934   0.199   0.781
 3979SOL    HW112836   3.019   0.183   0.730
 3979SOL    HW212837   2.936   0.147   0.866
 3980SOL     OW12838   5.788   6.081   0.239
 3980SOL    HW112839   5.770   5.983   0.245
 3980SOL    HW212840   5.864   6.105   0.299
 3981SOL     OW12841   2.954   0.758   0.529
 3981SOL    HW112842   2.963   0.658   0.524
 3981SOL    HW212843   2.976   0.798   0.440
 3982SOL     OW12844   2.457   0.289   3.210
 3982SOL    HW112845   2.387   0.322   3.147
 3982SOL    HW212846   2.478   0.193   3.188
 3983SOL     OW12847   5.217   4.681   4.094
 3983SOL    HW112848   5.156   4.697   4.016
 3983SOL    HW212849   5.276   4.602   4.075
 3984SOL     OW12850   6.557   1.286   3.189
 3984SOL    HW112851   6.640   1.247   3.228
 3984SOL    HW212852   6.500   1.212   3.152
 3985SOL     OW12853   2.798   4.297   6.400
 3985SOL    HW112854   2.846   4.232   6.459
 3985SOL    HW212855   2.708   4.318   6.439
 3986SOL     OW12856   4.755   1.907   2.631
 3986SOL    HW112857   4.853   1.905   2.648
 3986SOL    HW212858   4.724   2.002   2.624
 3987SOL     OW12859   3.572   5.042   3.660
 3987SOL    HW112860   3.656   5.026   3.711
 3987SOL    HW212861   3.542   5.136   3.674
 3988SOL     OW12862   3.661   4.341   6.712
 3988SOL    HW112863   3.656   4.399   6.631
 3988SOL    HW212864   3.690   4.249   6.686
 3989SOL     OW12865   6.422   3.057   6.709
 3989SOL    HW112866   6.445   2.963   6.734
 3989SOL    HW212867   6.399   3.109   6.792
 3990SOL     OW12868   4.518   2.247   2.981
 3990SOL    HW112869   4.474   2.237   2.892
 3990SOL    HW212870   4.460   2.303   3.041
 3991SOL     OW12871   5.882   1.050   2.797
 3991SOL    HW112872   5.939   1.025   2.718
 3991SOL    HW212873   5.846   1.142   2.785
 3992SOL     OW12874   2.957   1.955   0.070
 3992SOL    HW112875   2.950   1.904   7.006
 3992SOL    HW212876   3.047   1.939   0.111
 3993SOL     OW12877   1.606   2.130   2.474
 3993SOL    HW112878   1.673   2.093   2.538
 3993SOL    HW212879   1.635   2.220   2.443
 3994SOL     OW12880   2.010   0.384   5.534
 3994SOL    HW112881   2.084   0.449   5.515
 3994SOL    HW212882   2.006   0.316   5.461
 3995SOL     OW12883   2.446   3.660   5.673
 3995SOL    HW112884   2.420   3.564   5.668
 3995SOL    HW212885   2.539   3.668   5.709
 3996SOL     OW12886   1.359   0.085   4.479
 3996SOL    HW112887   1.325   0.148   4.409
 3996SOL    HW212888   1.448   0.117   4.513
 3997SOL     OW12889   5.083   1.478   3.502
 3997SOL    HW112890   5.024   1.554   3.473
 3997SOL    HW212891   5.122   1.434   3.421
 3998SOL     OW12892   4.157   1.351   3.519
 3998SOL    HW112893   4.227   1.281   3.507
 3998SOL    HW212894   4.143   1.368   3.617
 3999SOL     OW12895   5.629   3.285   3.941
 3999SOL    HW112896   5.632   3.266   4.040
 3999SOL    HW212897   5.607   3.381   3.927
 4000SOL     OW12898   3.316   6.671   2.908
 4000SOL    HW112899   3.407   6.639   2.932
 4000SOL    HW212900   3.313   6.771   2.913
 4001SOL     OW12901   2.303   1.897   3.363
 4001SOL    HW112902   2.292   1.982   3.416
 4001SOL    HW212903   2.288   1.916   3.266
 4002SOL     OW12904   3.137   4.454   0.136
 4002SOL    HW112905   3.219   4.425   0.184
 4002SOL    HW212906   3.100   4.378   0.083
 4003SOL     OW12907   3.673   6.928   4.497
 4003SOL    HW112908   3.763   6.924   4.541
 4003SOL    HW212909   3.683   6.959   4.403
 4004SOL     OW12910   5.147   2.003   4.039
 4004SOL    HW112911   5.238   1.960   4.035
 4004SOL    HW212912   5.090   1.968   3.965
 4005SOL     OW12913   5.056   5.057   6.750
 4005SOL    HW112914   5.086   5.070   6.655
 4005SOL    HW212915   5.046   5.146   6.795
 4006SOL     OW12916   4.550   5.418   2.604
 4006SOL    HW112917   4.538   5.487   2.676
 4006SOL    HW212918   4.611   5.346   2.637
 4007SOL     OW12919   6.886   2.652   0.063
 4007SOL    HW112920   6.946   2.732   0.058
 4007SOL    HW212921   6.795   2.681   0.093
 4008SOL     OW12922   2.994   1.674   3.797
 4008SOL    HW112923   2.997   1.773   3.779
 4008SOL    HW212924   3.084   1.634   3.779
 4009SOL     OW12925   4.238   3.270   1.484
 4009SOL    HW112926   4.317   3.210   1.474
 4009SOL    HW212927   4.269   3.365   1.490
 4010SOL     OW12928   2.298   3.548   1.136
 4010SOL    HW112929   2.363   3.618   1.165
 4010SOL    HW212930   2.262   3.500   1.216
 4011SOL     OW12931   0.455   1.416   1.831
 4011SOL    HW112932   0.478   1.327   1.871
 4011SOL    HW212933   0.508   1.488   1.877
 4012SOL     OW12934   6.117   4.597   1.942
 4012SOL    HW112935   6.031   4.566   1.984
 4012SOL    HW212936   6.191   4.592   2.010
 4013SOL     OW12937   3.079   1.486   5.271
 4013SOL    HW112938   3.134   1.442   5.342
 4013SOL    HW212939   3.074   1.427   5.191
 4014SOL     OW12940   5.167   6.466   2.364
 4014SOL    HW112941   5.247   6.517   2.396
 4014SOL    HW212942   5.101   6.457   2.439
 4015SOL     OW12943   5.108   4.799   6.425
 4015SOL    HW112944   5.107   4.793   6.524
 4015SOL    HW212945   5.184   4.857   6.395
 4016SOL     OW12946   2.655   5.905   6.031
 4016SOL    HW112947   2.651   5.867   5.939
 4016SOL    HW212948   2.750   5.913   6.060
 4017SOL     OW12949   0.393   6.044   0.457
 4017SOL    HW112950   0.367   6.073   0.549
 4017SOL    HW212951   0.404   6.125   0.399
 4018SOL     OW12952   4.117   6.236   2.711
 4018SOL    HW112953   4.122   6.192   2.621
 4018SOL    HW212954   4.124   6.166   2.782
 4019SOL     OW12955   5.397   4.311   3.300
 4019SOL    HW112956   5.335   4.323   3.223
 4019SOL    HW212957   5.425   4.401   3.334
 4020SOL     OW12958   4.655   1.603   5.132
 4020SOL    HW112959   4.595   1.524   5.127
 4020SOL    HW212960   4.642   1.650   5.219
 4021SOL     OW12961   4.117   4.857   6.021
 4021SOL    HW112962   4.056   4.836   5.944
 4021SOL    HW212963   4.154   4.772   6.058
 4022SOL     OW12964   5.054   1.370   6.809
 4022SOL    HW112965   5.061   1.279   6.769
 4022SOL    HW212966   4.960   1.387   6.838
 4023SOL     OW12967   6.278   1.545   4.405
 4023SOL    HW112968   6.255   1.641   4.421
 4023SOL    HW212969   6.375   1.537   4.385
 4024SOL     OW12970   3.074   6.833   3.331
 4024SOL    HW112971   3.136   6.765   3.370
 4024SOL    HW212972   3.043   6.803   3.242
 4025SOL     OW12973   0.385   4.478   3.273
 4025SOL    HW112974   0.467   4.421   3.276
 4025SOL    HW212975   0.406   4.565   3.230
 4026SOL     OW12976   5.890   5.938   4.030
 4026SOL    HW112977   5.868   5.867   4.097
 4026SOL    HW212978   5.900   5.897   3.940
 4027SOL     OW12979   3.490   4.145   1.840
 4027SOL    HW112980   3.491   4.245   1.828
 4027SOL    HW212981   3.582   4.113   1.861
 4028SOL     OW12982   1.697   2.301   4.131
 4028SOL    HW112983   1.793   2.273   4.128
 4028SOL    HW212984   1.655   2.266   4.215
 4029SOL     OW12985   2.758   4.105   5.916
 4029SOL    HW112986   2.773   4.197   5.954
 4029SOL    HW212987   2.660   4.091   5.900
 4030SOL     OW12988   0.806   2.427   5.729
 4030SOL    HW112989   0.848   2.518   5.723
 4030SOL    HW212990   0.874   2.357   5.710
 4031SOL     OW12991   5.055   5.596   3.766
 4031SOL    HW112992   5.051   5.661   3.689
 4031SOL    HW212993   4.995   5.519   3.747
 4032SOL     OW12994   6.573   6.207   4.215
 4032SOL    HW112995   6.570   6.245   4.122
 4032SOL    HW212996   6.665   6.174   4.235
 4033SOL     OW12997   3.227   3.227   4.477
 4033SOL    HW112998   3.275   3.307   4.441
 4033SOL    HW212999   3.128   3.242   4.470
 4034SOL     OW13000   6.173   1.447   4.653
 4034SOL    HW113001   6.225   1.416   4.573
 4034SOL    HW213002   6.098   1.506   4.623
 4035SOL     OW13003   0.268   4.563   0.089
 4035SOL    HW113004   0.216   4.478   0.093
 4035SOL    HW213005   0.325   4.571   0.171
 4036SOL     OW13006   5.812   6.264   2.724
 4036SOL    HW113007   5.766   6.284   2.637
 4036SOL    HW213008   5.878   6.191   2.710
 4037SOL     OW13009   1.412   3.279   6.115
 4037SOL    HW113010   1.349   3.276   6.193
 4037SOL    HW213011   1.426   3.186   6.081
 4038SOL     OW13012   4.723   4.657   2.778
 4038SOL    HW113013   4.817   4.651   2.811
 4038SOL    HW213014   4.705   4.581   2.714
 4039SOL     OW13015   5.315   5.980   6.939
 4039SOL    HW113016   5.287   5.894   6.983
 4039SOL    HW213017   5.293   6.056   7.000
 4040SOL     OW13018   2.762   0.312   1.104
 4040SOL    HW113019   2.677   0.305   1.052
 4040SOL    HW213020   2.804   0.222   1.112
 4041SOL     OW13021   0.941   6.015   2.771
 4041SOL    HW113022   0.953   6.111   2.743
 4041SOL    HW213023   0.974   5.956   2.697
 4042SOL     OW13024   5.996   5.367   2.603
 4042SOL    HW113025   6.068   5.337   2.542
 4042SOL    HW213026   5.965   5.291   2.660
 4043SOL     OW13027   4.694   1.826   2.366
 4043SOL    HW113028   4.614   1.879   2.336
 4043SOL    HW213029   4.722   1.857   2.457
 4044SOL     OW13030   5.914   0.562   3.291
 4044SOL    HW113031   5.868   0.632   3.236
 4044SOL    HW213032   6.012   0.568   3.277
 4045SOL     OW13033   2.263   4.730   6.856
 4045SOL    HW113034   2.179   4.708   6.807
 4045SOL    HW213035   2.276   4.667   6.932
 4046SOL     OW13036   0.873   1.716   2.170
 4046SOL    HW113037   0.824   1.682   2.250
 4046SOL    HW213038   0.943   1.781   2.199
 4047SOL     OW13039   2.785   3.700   1.622
 4047SOL    HW113040   2.692   3.691   1.656
 4047SOL    HW213041   2.803   3.629   1.554
 4048SOL     OW13042   5.587   0.920   1.174
 4048SOL    HW113043   5.546   0.928   1.265
 4048SOL    HW213044   5.515   0.901   1.107
 4049SOL     OW13045   5.957   6.726   5.963
 4049SOL    HW113046   6.011   6.677   5.895
 4049SOL    HW213047   5.934   6.817   5.928
 4050SOL     OW13048   1.832   6.516   0.220
 4050SOL    HW113049   1.916   6.539   0.169
 4050SOL    HW213050   1.824   6.576   0.299
 4051SOL     OW13051   2.901   4.735   0.463
 4051SOL    HW113052   2.870   4.652   0.510
 4051SOL    HW213053   2.988   4.716   0.418
 4052SOL     OW13054   0.902   0.518   0.196
 4052SOL    HW113055   0.814   0.566   0.193
 4052SOL    HW213056   0.915   0.478   0.287
 4053SOL     OW13057   3.210   5.146   3.858
 4053SOL    HW113058   3.285   5.084   3.835
 4053SOL    HW213059   3.247   5.229   3.898
 4054SOL     OW13060   3.005   2.703   0.576
 4054SOL    HW113061   3.040   2.755   0.653
 4054SOL    HW213062   2.919   2.658   0.601
 4055SOL     OW13063   2.846   2.549   6.306
 4055SOL    HW113064   2.794   2.523   6.224
 4055SOL    HW213065   2.821   2.489   6.382
 4056SOL     OW13066   3.673   3.268   6.867
 4056SOL    HW113067   3.604   3.292   6.934
 4056SOL    HW213068   3.753   3.327   6.878
 4057SOL     OW13069   4.870   3.321   0.225
 4057SOL    HW113070   4.924   3.375   0.161
 4057SOL    HW213071   4.812   3.257   0.175
 4058SOL     OW13072   2.471   1.436   4.749
 4058SOL    HW113073   2.379   1.401   4.729
 4058SOL    HW213074   2.471   1.477   4.840
 4059SOL     OW13075   2.037   1.969   4.739
 4059SOL    HW113076   2.096   1.890   4.725
 4059SOL    HW213077   2.007   2.004   4.650
 4060SOL     OW13078   4.067   4.783   4.156
 4060SOL    HW113079   4.129   4.715   4.115
 4060SOL    HW213080   4.058   4.861   4.094
 4061SOL     OW13081   3.475   4.400   1.713
 4061SOL    HW113082   3.500   4.492   1.744
 4061SOL    HW213083   3.396   4.406   1.652
 4062SOL     OW13084   3.330   1.305   2.598
 4062SOL    HW113085   3.244   1.343   2.563
 4062SOL    HW213086   3.338   1.210   2.568
 4063SOL     OW13087   3.170   6.054   5.788
 4063SOL    HW113088   3.214   5.969   5.817
 4063SOL    HW213089   3.072   6.048   5.807
 4064SOL     OW13090   1.075   0.295   2.649
 4064SOL    HW113091   1.087   0.370   2.715
 4064SOL    HW213092   0.978   0.276   2.637
 4065SOL     OW13093   0.365   6.650   1.012
 4065SOL    HW113094   0.389   6.649   1.109
 4065SOL    HW213095   0.437   6.697   0.960
 4066SOL     OW13096   5.569   3.960   1.960
 4066SOL    HW113097   5.541   3.983   1.867
 4066SOL    HW213098   5.649   4.015   1.985
 4067SOL     OW13099   5.416   1.683   2.846
 4067SOL    HW113100   5.478   1.756   2.874
 4067SOL    HW213101   5.456   1.633   2.769
 4068SOL     OW13102   5.418   0.615   4.514
 4068SOL    HW113103   5.495   0.564   4.552
 4068SOL    HW213104   5.406   0.591   4.418
 4069SOL     OW13105   5.430   5.007   0.734
 4069SOL    HW113106   5.481   4.931   0.775
 4069SOL    HW213107   5.485   5.090   0.738
 4070SOL     OW13108   2.314   4.286   2.960
 4070SOL    HW113109   2.327   4.324   2.869
 4070SOL    HW213110   2.251   4.208   2.956
 4071SOL     OW13111   1.563   0.627   4.883
 4071SOL    HW113112   1.613   0.677   4.953
 4071SOL    HW213113   1.614   0.544   4.859
 4072SOL     OW13114   1.612   0.181   4.558
 4072SOL    HW113115   1.630   0.227   4.645
 4072SOL    HW213116   1.667   0.098   4.552
 4073SOL     OW13117   2.531   5.545   6.094
 4073SOL    HW113118   2.434   5.538   6.120
 4073SOL    HW213119   2.578   5.460   6.120
 4074SOL     OW13120   0.751   2.221   1.001
 4074SOL    HW113121   0.760   2.188   0.908
 4074SOL    HW213122   0.831   2.276   1.025
 4075SOL     OW13123   4.383   1.534   2.931
 4075SOL    HW113124   4.314   1.464   2.944
 4075SOL    HW213125   4.469   1.505   2.973
 4076SOL     OW13126   2.022   3.383   5.085
 4076SOL    HW113127   2.069   3.446   5.023
 4076SOL    HW213128   2.088   3.347   5.152
 4077SOL     OW13129   3.751   0.304   0.100
 4077SOL    HW113130   3.675   0.318   0.163
 4077SOL    HW213131   3.830   0.270   0.150
 4078SOL     OW13132   6.282   4.148   1.480
 4078SOL    HW113133   6.271   4.057   1.440
 4078SOL    HW213134   6.292   4.216   1.407
 4079SOL     OW13135   0.747   1.161   4.116
 4079SOL    HW113136   0.677   1.191   4.182
 4079SOL    HW213137   0.705   1.151   4.026
 4080SOL     OW13138   3.305   3.710   1.323
 4080SOL    HW113139   3.217   3.718   1.275
 4080SOL    HW213140   3.296   3.644   1.397
 4081SOL     OW13141   1.951   1.305   5.106
 4081SOL    HW113142   1.938   1.359   5.189
 4081SOL    HW213143   2.048   1.282   5.096
 4082SOL     OW13144   0.762   2.903   5.054
 4082SOL    HW113145   0.709   2.918   4.970
 4082SOL    HW213146   0.701   2.909   5.133
 4083SOL     OW13147   5.837   4.780   3.547
 4083SOL    HW113148   5.906   4.738   3.607
 4083SOL    HW213149   5.746   4.749   3.575
 4084SOL     OW13150   4.541   2.037   3.296
 4084SOL    HW113151   4.456   2.080   3.325
 4084SOL    HW213152   4.543   2.033   3.196
 4085SOL     OW13153   3.222   5.737   1.711
 4085SOL    HW113154   3.168   5.805   1.661
 4085SOL    HW213155   3.293   5.784   1.764
 4086SOL     OW13156   6.401   5.442   6.263
 4086SOL    HW113157   6.357   5.398   6.184
 4086SOL    HW213158   6.400   5.541   6.250
 4087SOL     OW13159   2.383   6.731   2.476
 4087SOL    HW113160   2.480   6.721   2.453
 4087SOL    HW213161   2.364   6.686   2.563
 4088SOL     OW13162   6.946   1.078   5.657
 4088SOL    HW113163   0.016   1.120   5.654
 4088SOL    HW213164   6.888   1.123   5.589
 4089SOL     OW13165   0.097   6.456   3.662
 4089SOL    HW113166   0.028   6.383   3.656
 4089SOL    HW213167   0.073   6.519   3.735
 4090SOL     OW13168   2.217   6.682   5.134
 4090SOL    HW113169   2.299   6.625   5.134
 4090SOL    HW213170   2.203   6.719   5.042
 4091SOL     OW13171   1.959   5.460   1.162
 4091SOL    HW113172   1.886   5.526   1.179
 4091SOL    HW213173   1.989   5.466   1.067
 4092SOL     OW13174   4.976   3.305   4.384
 4092SOL    HW113175   5.060   3.257   4.409
 4092SOL    HW213176   4.953   3.372   4.455
 4093SOL     OW13177   5.451   5.679   2.765
 4093SOL    HW113178   5.496   5.760   2.804
 4093SOL    HW213179   5.414   5.623   2.839
 4094SOL     OW13180   0.322   5.428   6.716
 4094SOL    HW113181   0.302   5.502   6.780
 4094SOL    HW213182   0.388   5.365   6.757
 4095SOL     OW13183   0.413   4.541   0.317
 4095SOL    HW113184   0.474   4.618   0.296
 4095SOL    HW213185   0.369   4.555   0.405
 4096SOL     OW13186   1.684   1.729   6.908
 4096SOL    HW113187   1.632   1.739   6.823
 4096SOL    HW213188   1.621   1.716   6.985
 4097SOL     OW13189   6.967   4.619   5.384
 4097SOL    HW113190   6.915   4.652   5.304
 4097SOL    HW213191   0.012   4.550   5.354
 4098SOL     OW13192   2.639   4.921   2.559
 4098SOL    HW113193   2.619   4.840   2.614
 4098SOL    HW213194   2.730   4.911   2.517
 4099SOL     OW13195   4.801   4.351   6.020
 4099SOL    HW113196   4.752   4.417   6.076
 4099SOL    HW213197   4.776   4.258   6.049
 4100SOL     OW13198   1.486   0.472   3.897
 4100SOL    HW113199   1.472   0.565   3.932
 4100SOL    HW213200   1.481   0.406   3.972
 4101SOL     OW13201   6.441   0.452   0.243
 4101SOL    HW113202   6.426   0.457   0.144
 4101SOL    HW213203   6.481   0.364   0.267
 4102SOL     OW13204   1.838   0.534   0.154
 4102SOL    HW113205   1.763   0.480   0.193
 4102SOL    HW213206   1.803   0.586   0.076
 4103SOL     OW13207   1.158   0.067   2.123
 4103SOL    HW113208   1.169   0.125   2.204
 4103SOL    HW213209   1.245   0.023   2.102
 4104SOL     OW13210   0.392   5.475   3.165
 4104SOL    HW113211   0.337   5.556   3.182
 4104SOL    HW213212   0.397   5.458   3.066
 4105SOL     OW13213   4.529   1.101   0.843
 4105SOL    HW113214   4.623   1.087   0.812
 4105SOL    HW213215   4.529   1.131   0.938
 4106SOL     OW13216   0.034   1.962   3.624
 4106SOL    HW113217   0.098   1.935   3.552
 4106SOL    HW213218   0.014   1.883   3.682
 4107SOL     OW13219   0.237   6.264   6.200
 4107SOL    HW113220   0.248   6.263   6.299
 4107SOL    HW213221   0.257   6.356   6.165
 4108SOL     OW13222   0.207   5.243   4.091
 4108SOL    HW113223   0.302   5.262   4.116
 4108SOL    HW213224   0.157   5.329   4.082
 4109SOL     OW13225   6.109   5.720   3.493
 4109SOL    HW113226   6.069   5.810   3.477
 4109SOL    HW213227   6.198   5.730   3.538
 4110SOL     OW13228   4.990   3.498   0.063
 4110SOL    HW113229   4.984   3.526   6.989
 4110SOL    HW213230   5.083   3.467   0.084
 4111SOL     OW13231   6.839   3.890   5.426
 4111SOL    HW113232   6.809   3.873   5.332
 4111SOL    HW213233   6.797   3.974   5.459
 4112SOL     OW13234   4.527   0.040   4.809
 4112SOL    HW113235   4.517   0.043   4.709
 4112SOL    HW213236   4.519   6.967   4.840
 4113SOL     OW13237   4.735   4.204   4.659
 4113SOL    HW113238   4.644   4.242   4.673
 4113SOL    HW213239   4.793   4.272   4.614
 4114SOL     OW13240   6.210   1.309   3.331
 4114SOL    HW113241   6.272   1.364   3.387
 4114SOL    HW213242   6.263   1.242   3.278
 4115SOL     OW13243   2.805   5.137   3.635
 4115SOL    HW113244   2.756   5.069   3.690
 4115SOL    HW213245   2.814   5.103   3.541
 4116SOL     OW13246   5.836   2.711   3.152
 4116SOL    HW113247   5.764   2.776   3.172
 4116SOL    HW213248   5.906   2.714   3.224
 4117SOL     OW13249   1.172   2.575   2.231
 4117SOL    HW113250   1.221   2.488   2.231
 4117SOL    HW213251   1.237   2.650   2.246
 4118SOL     OW13252   6.722   6.185   6.438
 4118SOL    HW113253   6.816   6.209   6.414
 4118SOL    HW213254   6.661   6.259   6.413
 4119SOL     OW13255   2.108   1.058   3.175
 4119SOL    HW113256   2.130   0.966   3.144
 4119SOL    HW213257   2.135   1.069   3.271
 4120SOL     OW13258   1.947   1.292   6.448
 4120SOL    HW113259   1.857   1.307   6.490
 4120SOL    HW213260   1.947   1.329   6.355
 4121SOL     OW13261   7.005   6.874   2.800
 4121SOL    HW113262   0.038   6.901   2.721
 4121SOL    HW213263   0.031   6.801   2.850
 4122SOL     OW13264   0.552   5.588   4.385
 4122SOL    HW113265   0.502   5.648   4.447
 4122SOL    HW213266   0.494   5.510   4.360
 4123SOL     OW13267   3.890   4.960   2.744
 4123SOL    HW113268   3.983   4.994   2.732
 4123SOL    HW213269   3.829   5.036   2.767
 4124SOL     OW13270   6.389   6.373   0.869
 4124SOL    HW113271   6.445   6.454   0.888
 4124SOL    HW213272   6.414   6.336   0.779
 4125SOL     OW13273   5.374   2.236   2.092
 4125SOL    HW113274   5.356   2.220   2.189
 4125SOL    HW213275   5.463   2.279   2.081
 4126SOL     OW13276   1.298   2.810   2.227
 4126SOL    HW113277   1.216   2.864   2.245
 4126SOL    HW213278   1.379   2.863   2.251
 4127SOL     OW13279   3.561   2.075   4.145
 4127SOL    HW113280   3.635   2.142   4.151
 4127SOL    HW213281   3.584   1.995   4.201
 4128SOL     OW13282   0.442   3.339   1.482
 4128SOL    HW113283   0.506   3.360   1.556
 4128SOL    HW213284   0.350   3.365   1.509
 4129SOL     OW13285   2.766   3.077   1.088
 4129SOL    HW113286   2.732   3.145   1.154
 4129SOL    HW213287   2.796   3.124   1.005
 4130SOL     OW13288   6.104   2.946   1.344
 4130SOL    HW113289   6.117   2.914   1.438
 4130SOL    HW213290   6.192   2.941   1.296
 4131SOL     OW13291   4.998   0.659   2.064
 4131SOL    HW113292   4.949   0.687   2.146
 4131SOL    HW213293   5.081   0.608   2.090
 4132SOL     OW13294   6.673   4.013   4.722
 4132SOL    HW113295   6.613   4.092   4.713
 4132SOL    HW213296   6.767   4.039   4.701
 4133SOL     OW13297   6.253   6.759   1.714
 4133SOL    HW113298   6.166   6.792   1.677
 4133SOL    HW213299   6.283   6.678   1.663
 4134SOL     OW13300   2.301   2.927   1.469
 4134SOL    HW113301   2.348   2.854   1.420
 4134SOL    HW213302   2.234   2.887   1.532
 4135SOL     OW13303   0.162   1.709   3.065
 4135SOL    HW113304   0.088   1.743   3.122
 4135SOL    HW213305   0.216   1.642   3.116
 4136SOL     OW13306   0.952   4.160   1.800
 4136SOL    HW113307   1.019   4.120   1.738
 4136SOL    HW213308   0.861   4.157   1.757
 4137SOL     OW13309   1.741   2.870   0.667
 4137SOL    HW113310   1.760   2.913   0.756
 4137SOL    HW213311   1.819   2.815   0.639
 4138SOL     OW13312   4.707   6.421   1.255
 4138SOL    HW113313   4.739   6.466   1.338
 4138SOL    HW213314   4.618   6.459   1.228
 4139SOL     OW13315   1.856   2.070   3.112
 4139SOL    HW113316   1.832   2.091   3.207
 4139SOL    HW213317   1.955   2.060   3.104
 4140SOL     OW13318   2.640   2.330   4.336
 4140SOL    HW113319   2.639   2.231   4.347
 4140SOL    HW213320   2.695   2.371   4.409
 4141SOL     OW13321   3.953   6.985   6.806
 4141SOL    HW113322   4.027   6.950   6.864
 4141SOL    HW213323   3.953   6.935   6.719
 4142SOL     OW13324   0.178   4.202   2.829
 4142SOL    HW113325   0.193   4.259   2.909
 4142SOL    HW213326   0.262   4.195   2.776
 4143SOL     OW13327   5.719   3.434   0.863
 4143SOL    HW113328   5.631   3.459   0.903
 4143SOL    HW213329   5.793   3.469   0.921
 4144SOL     OW13330   5.840   1.912   0.428
 4144SOL    HW113331   5.764   1.976   0.417
 4144SOL    HW213332   5.902   1.920   0.350
 4145SOL     OW13333   0.450   6.426   0.232
 4145SOL    HW113334   0.422   6.432   0.328
 4145SOL    HW213335   0.483   6.515   0.201
 4146SOL     OW13336   5.642   6.406   3.342
 4146SOL    HW113337   5.655   6.335   3.272
 4146SOL    HW213338   5.576   6.473   3.309
 4147SOL     OW13339   4.982   4.195   5.666
 4147SOL    HW113340   4.918   4.210   5.590
 4147SOL    HW213341   5.008   4.099   5.669
 4148SOL     OW13342   2.755   0.557   5.171
 4148SOL    HW113343   2.758   0.656   5.178
 4148SOL    HW213344   2.682   0.522   5.231
 4149SOL     OW13345   1.805   2.977   0.911
 4149SOL    HW113346   1.900   2.997   0.889
 4149SOL    HW213347   1.798   2.948   1.007
 4150SOL     OW13348   6.196   2.552   6.313
 4150SOL    HW113349   6.289   2.568   6.347
 4150SOL    HW213350   6.200   2.530   6.215
 4151SOL     OW13351   2.041   0.018   4.562
 4151SOL    HW113352   1.990   6.980   4.623
 4151SOL    HW213353   2.126   6.995   4.535
 4152SOL     OW13354   3.702   5.803   1.617
 4152SOL    HW113355   3.751   5.740   1.556
 4152SOL    HW213356   3.727   5.897   1.596
 4153SOL     OW13357   6.615   4.950   1.883
 4153SOL    HW113358   6.703   4.942   1.836
 4153SOL    HW213359   6.554   4.877   1.854
 4154SOL     OW13360   0.756   5.915   3.968
 4154SOL    HW113361   0.733   5.917   3.870
 4154SOL    HW213362   0.834   5.855   3.983
 4155SOL     OW13363   1.193   2.330   1.488
 4155SOL    HW113364   1.193   2.382   1.402
 4155SOL    HW213365   1.159   2.238   1.471
 4156SOL     OW13366   6.722   4.591   4.871
 4156SOL    HW113367   6.645   4.602   4.934
 4156SOL    HW213368   6.688   4.566   4.781
 4157SOL     OW13369   6.563   6.677   2.282
 4157SOL    HW113370   6.504   6.633   2.214
 4157SOL    HW213371   6.658   6.652   2.266
 4158SOL     OW13372   1.812   2.732   1.869
 4158SOL    HW113373   1.751   2.709   1.946
 4158SOL    HW213374   1.893   2.780   1.904
 4159SOL     OW13375   2.941   1.634   3.061
 4159SOL    HW113376   2.850   1.676   3.057
 4159SOL    HW213377   2.955   1.580   2.978
 4160SOL     OW13378   0.049   6.925   6.953
 4160SOL    HW113379   0.037   6.920   0.030
 4160SOL    HW213380   6.982   6.941   6.909
 4161SOL     OW13381   2.276   1.713   1.624
 4161SOL    HW113382   2.369   1.730   1.592
 4161SOL    HW213383   2.221   1.796   1.613
 4162SOL     OW13384   6.470   5.977   1.174
 4162SOL    HW113385   6.459   6.073   1.152
 4162SOL    HW213386   6.465   5.922   1.091
 4163SOL     OW13387   4.608   6.568   1.657
 4163SOL    HW113388   4.623   6.613   1.569
 4163SOL    HW213389   4.681   6.502   1.674
 4164SOL     OW13390   0.274   6.079   5.061
 4164SOL    HW113391   0.350   6.054   5.120
 4164SOL    HW213392   0.282   6.175   5.034
 4165SOL     OW13393   4.165   1.312   5.974
 4165SOL    HW113394   4.111   1.361   5.905
 4165SOL    HW213395   4.105   1.284   6.049
 4166SOL     OW13396   5.630   0.540   2.933
 4166SOL    HW113397   5.685   0.531   2.850
 4166SOL    HW213398   5.686   0.579   3.006
 4167SOL     OW13399   2.746   4.965   5.861
 4167SOL    HW113400   2.730   4.946   5.958
 4167SOL    HW213401   2.827   4.916   5.830
 4168SOL     OW13402   6.821   4.768   0.525
 4168SOL    HW113403   6.878   4.757   0.443
 4168SOL    HW213404   6.782   4.680   0.550
 4169SOL     OW13405   5.110   4.167   5.393
 4169SOL    HW113406   5.091   4.107   5.471
 4169SOL    HW213407   5.174   4.121   5.331
 4170SOL     OW13408   4.990   3.020   4.779
 4170SOL    HW113409   4.929   3.087   4.821
 4170SOL    HW213410   4.974   2.930   4.822
 4171SOL     OW13411   1.597   3.624   1.339
 4171SOL    HW113412   1.641   3.581   1.261
 4171SOL    HW213413   1.658   3.694   1.377
 4172SOL     OW13414   3.494   3.478   0.772
 4172SOL    HW113415   3.407   3.438   0.743
 4172SOL    HW213416   3.492   3.492   0.871
 4173SOL     OW13417   4.342   2.964   5.443
 4173SOL    HW113418   4.334   2.876   5.397
 4173SOL    HW213419   4.282   2.966   5.523
 4174SOL     OW13420   4.577   0.256   4.165
 4174SOL    HW113421   4.534   0.324   4.223
 4174SOL    HW213422   4.669   0.236   4.199
 4175SOL     OW13423   1.773   4.560   6.422
 4175SOL    HW113424   1.766   4.477   6.368
 4175SOL    HW213425   1.687   4.577   6.469
 4176SOL     OW13426   5.116   6.321   0.073
 4176SOL    HW113427   5.189   6.254   0.089
 4176SOL    HW213428   5.091   6.318   6.998
 4177SOL     OW13429   5.011   4.697   4.896
 4177SOL    HW113430   5.110   4.698   4.880
 4177SOL    HW213431   4.979   4.790   4.913
 4178SOL     OW13432   4.026   6.686   2.694
 4178SOL    HW113433   3.992   6.601   2.734
 4178SOL    HW213434   4.076   6.666   2.609
 4179SOL     OW13435   5.340   3.304   4.382
 4179SOL    HW113436   5.406   3.280   4.453
 4179SOL    HW213437   5.351   3.243   4.304
 4180SOL     OW13438   5.684   3.687   0.687
 4180SOL    HW113439   5.584   3.680   0.676
 4180SOL    HW213440   5.723   3.595   0.689
 4181SOL     OW13441   5.204   0.520   6.143
 4181SOL    HW113442   5.170   0.507   6.236
 4181SOL    HW213443   5.257   0.605   6.139
 4182SOL     OW13444   0.871   6.108   3.748
 4182SOL    HW113445   0.946   6.047   3.721
 4182SOL    HW213446   0.887   6.141   3.841
 4183SOL     OW13447   2.154   1.249   1.414
 4183SOL    HW113448   2.066   1.205   1.429
 4183SOL    HW213449   2.165   1.325   1.477
 4184SOL     OW13450   3.611   0.443   2.253
 4184SOL    HW113451   3.534   0.502   2.276
 4184SOL    HW213452   3.603   0.414   2.158
 4185SOL     OW13453   0.490   3.666   3.992
 4185SOL    HW113454   0.476   3.665   4.091
 4185SOL    HW213455   0.402   3.659   3.946
 4186SOL     OW13456   2.133   5.802   6.807
 4186SOL    HW113457   2.114   5.879   6.746
 4186SOL    HW213458   2.095   5.718   6.768
 4187SOL     OW13459   2.423   3.620   6.922
 4187SOL    HW113460   2.346   3.558   6.933
 4187SOL    HW213461   2.422   3.658   6.830
 4188SOL     OW13462   5.464   0.809   5.549
 4188SOL    HW113463   5.540   0.798   5.612
 4188SOL    HW213464   5.498   0.837   5.459
 4189SOL     OW13465   4.659   5.341   3.718
 4189SOL    HW113466   4.644   5.425   3.665
 4189SOL    HW213467   4.747   5.301   3.691
 4190SOL     OW13468   0.334   6.421   0.860
 4190SOL    HW113469   0.273   6.427   0.781
 4190SOL    HW213470   0.332   6.507   0.911
 4191SOL     OW13471   5.254   3.801   6.431
 4191SOL    HW113472   5.248   3.870   6.503
 4191SOL    HW213473   5.272   3.711   6.472
 4192SOL     OW13474   0.940   1.453   2.533
 4192SOL    HW113475   1.025   1.491   2.570
 4192SOL    HW213476   0.894   1.399   2.603
 4193SOL     OW13477   5.755   0.451   0.060
 4193SOL    HW113478   5.750   0.422   0.156
 4193SOL    HW213479   5.807   0.536   0.054
 4194SOL     OW13480   3.932   0.491   5.357
 4194SOL    HW113481   3.991   0.488   5.437
 4194SOL    HW213482   3.887   0.403   5.344
 4195SOL     OW13483   4.414   6.677   1.835
 4195SOL    HW113484   4.475   6.745   1.877
 4195SOL    HW213485   4.465   6.625   1.767
 4196SOL     OW13486   6.935   2.769   3.759
 4196SOL    HW113487   6.917   2.687   3.813
 4196SOL    HW213488   7.015   2.754   3.700
 4197SOL     OW13489   3.924   6.253   5.683
 4197SOL    HW113490   3.882   6.228   5.771
 4197SOL    HW213491   3.895   6.187   5.613
 4198SOL     OW13492   6.443   0.458   2.372
 4198SOL    HW113493   6.433   0.489   2.277
 4198SOL    HW213494   6.464   0.361   2.373
 4199SOL     OW13495   1.600   3.460   6.230
 4199SOL    HW113496   1.563   3.551   6.213
 4199SOL    HW213497   1.537   3.391   6.192
 4200SOL     OW13498   3.516   1.154   5.304
 4200SOL    HW113499   3.544   1.075   5.358
 4200SOL    HW213500   3.549   1.238   5.348
 4201SOL     OW13501   6.203   6.532   3.825
 4201SOL    HW113502   6.265   6.574   3.757
 4201SOL    HW213503   6.109   6.558   3.804
 4202SOL     OW13504   3.338   5.251   6.315
 4202SOL    HW113505   3.331   5.317   6.239
 4202SOL    HW213506   3.251   5.204   6.327
 4203SOL     OW13507   4.906   4.964   0.345
 4203SOL    HW113508   4.867   4.947   0.254
 4203SOL    HW213509   4.862   5.044   0.386
 4204SOL     OW13510   3.759   3.206   5.644
 4204SOL    HW113511   3.768   3.201   5.744
 4204SOL    HW213512   3.747   3.301   5.617
 4205SOL     OW13513   3.677   5.308   5.033
 4205SOL    HW113514   3.645   5.226   5.081
 4205SOL    HW213515   3.675   5.291   4.935
 4206SOL     OW13516   0.700   1.216   4.909
 4206SOL    HW113517   0.644   1.144   4.867
 4206SOL    HW213518   0.794   1.209   4.874
 4207SOL     OW13519   1.820   2.281   1.461
 4207SOL    HW113520   1.778   2.331   1.536
 4207SOL    HW213521   1.915   2.259   1.484
 4208SOL     OW13522   1.077   4.228   5.468
 4208SOL    HW113523   1.128   4.145   5.446
 4208SOL    HW213524   1.141   4.304   5.478
 4209SOL     OW13525   6.475   5.510   2.913
 4209SOL    HW113526   6.379   5.537   2.907
 4209SOL    HW213527   6.528   5.584   2.953
 4210SOL     OW13528   4.010   3.113   4.013
 4210SOL    HW113529   3.936   3.094   4.076
 4210SOL    HW213530   4.003   3.053   3.933
 4211SOL     OW13531   3.566   1.753   5.698
 4211SOL    HW113532   3.654   1.777   5.656
 4211SOL    HW213533   3.493   1.760   5.630
 4212SOL     OW13534   6.862   1.274   3.926
 4212SOL    HW113535   6.793   1.213   3.887
 4212SOL    HW213536   6.826   1.368   3.929
 4213SOL     OW13537   2.784   0.928   3.481
 4213SOL    HW113538   2.819   0.929   3.387
 4213SOL    HW213539   2.772   0.834   3.511
 4214SOL     OW13540   0.704   5.697   4.765
 4214SOL    HW113541   0.680   5.754   4.687
 4214SOL    HW213542   0.784   5.735   4.811
 4215SOL     OW13543   5.010   0.068   5.379
 4215SOL    HW113544   5.034   0.157   5.417
 4215SOL    HW213545   5.086   0.004   5.395
 4216SOL     OW13546   1.226   1.191   2.398
 4216SOL    HW113547   1.294   1.216   2.467
 4216SOL    HW213548   1.229   1.257   2.323
 4217SOL     OW13549   0.981   0.149   1.820
 4217SOL    HW113550   1.022   0.061   1.845
 4217SOL    HW213551   1.053   0.215   1.801
 4218SOL     OW13552   3.292   0.865   1.211
 4218SOL    HW113553   3.245   0.952   1.222
 4218SOL    HW213554   3.291   0.839   1.114
 4219SOL     OW13555   4.401   6.664   4.519
 4219SOL    HW113556   4.323   6.639   4.461
 4219SOL    HW213557   4.394   6.616   4.607
 4220SOL     OW13558   5.750   2.544   2.326
 4220SOL    HW113559   5.823   2.550   2.258
 4220SOL    HW213560   5.672   2.600   2.297
 4221SOL     OW13561   6.735   4.551   6.875
 4221SOL    HW113562   6.656   4.571   6.817
 4221SOL    HW213563   6.720   4.465   6.924
 4222SOL     OW13564   5.462   1.790   3.583
 4222SOL    HW113565   5.507   1.749   3.503
 4222SOL    HW213566   5.376   1.832   3.555
 4223SOL     OW13567   3.585   3.753   0.958
 4223SOL    HW113568   3.683   3.769   0.947
 4223SOL    HW213569   3.569   3.656   0.974
 4224SOL     OW13570   5.424   4.367   4.967
 4224SOL    HW113571   5.486   4.438   4.933
 4224SOL    HW213572   5.382   4.398   5.052
 4225SOL     OW13573   1.575   1.988   5.635
 4225SOL    HW113574   1.623   2.073   5.656
 4225SOL    HW213575   1.478   1.998   5.654
 4226SOL     OW13576   1.350   6.526   3.866
 4226SOL    HW113577   1.443   6.558   3.884
 4226SOL    HW213578   1.349   6.469   3.784
 4227SOL     OW13579   4.854   6.008   1.732
 4227SOL    HW113580   4.895   5.947   1.800
 4227SOL    HW213581   4.910   6.007   1.649
 4228SOL     OW13582   0.491   6.273   5.026
 4228SOL    HW113583   0.522   6.191   4.978
 4228SOL    HW213584   0.478   6.347   4.960
 4229SOL     OW13585   4.730   5.995   5.864
 4229SOL    HW113586   4.716   5.897   5.869
 4229SOL    HW213587   4.654   6.037   5.815
 4230SOL     OW13588   0.708   6.479   2.917
 4230SOL    HW113589   0.805   6.459   2.925
 4230SOL    HW213590   0.682   6.547   2.984
 4231SOL     OW13591   4.712   0.661   5.339
 4231SOL    HW113592   4.688   0.740   5.281
 4231SOL    HW213593   4.804   0.674   5.376
 4232SOL     OW13594   2.004   5.536   3.862
 4232SOL    HW113595   1.963   5.627   3.858
 4232SOL    HW213596   2.029   5.514   3.957
 4233SOL     OW13597   0.424   6.958   4.170
 4233SOL    HW113598   0.507   6.950   4.115
 4233SOL    HW213599   0.353   6.898   4.133
 4234SOL     OW13600   1.866   5.370   5.239
 4234SOL    HW113601   1.958   5.353   5.203
 4234SOL    HW213602   1.854   5.467   5.258
 4235SOL     OW13603   6.345   4.757   5.495
 4235SOL    HW113604   6.362   4.786   5.589
 4235SOL    HW213605   6.355   4.835   5.434
 4236SOL     OW13606   0.365   4.537   1.744
 4236SOL    HW113607   0.425   4.502   1.672
 4236SOL    HW213608   0.390   4.496   1.831
 4237SOL     OW13609   6.430   4.091   4.428
 4237SOL    HW113610   6.503   4.152   4.398
 4237SOL    HW213611   6.446   3.999   4.390
 4238SOL     OW13612   0.878   0.736   3.535
 4238SOL    HW113613   0.964   0.713   3.489
 4238SOL    HW213614   0.896   0.799   3.611
 4239SOL     OW13615   4.298   1.116   2.295
 4239SOL    HW113616   4.200   1.096   2.296
 4239SOL    HW213617   4.315   1.197   2.239
 4240SOL     OW13618   2.093   4.952   6.970
 4240SOL    HW113619   2.126   4.941   6.877
 4240SOL    HW213620   2.086   4.863   7.014
 4241SOL     OW13621   5.873   1.605   0.261
 4241SOL    HW113622   5.779   1.634   0.282
 4241SOL    HW213623   5.894   1.627   0.166
 4242SOL     OW13624   2.221   2.070   4.132
 4242SOL    HW113625   2.259   2.031   4.215
 4242SOL    HW213626   2.276   2.149   4.104
 4243SOL     OW13627   4.854   1.609   2.401
 4243SOL    HW113628   4.833   1.531   2.461
 4243SOL    HW213629   4.771   1.662   2.386
 4244SOL     OW13630   3.456   3.700   1.680
 4244SOL    HW113631   3.366   3.658   1.666
 4244SOL    HW213632   3.452   3.797   1.657
 4245SOL     OW13633   6.696   1.913   6.665
 4245SOL    HW113634   6.619   1.974   6.687
 4245SOL    HW213635   6.771   1.968   6.628
 4246SOL     OW13636   6.230   4.149   3.000
 4246SOL    HW113637   6.132   4.152   2.979
 4246SOL    HW213638   6.279   4.212   2.940
 4247SOL     OW13639   1.135   6.278   3.927
 4247SOL    HW113640   1.036   6.264   3.929
 4247SOL    HW213641   1.157   6.358   3.872
 4248SOL     OW13642   2.640   1.816   4.773
 4248SOL    HW113643   2.559   1.819   4.832
 4248SOL    HW213644   2.626   1.748   4.702
 4249SOL     OW13645   6.365   2.972   5.000
 4249SOL    HW113646   6.312   2.902   5.049
 4249SOL    HW213647   6.311   3.007   4.924
 4250SOL     OW13648   7.013   4.630   3.371
 4250SOL    HW113649   0.085   4.637   3.406
 4250SOL    HW213650   7.015   4.605   3.274
 4251SOL     OW13651   5.939   4.875   0.065
 4251SOL    HW113652   5.978   4.967   0.059
 4251SOL    HW213653   5.842   4.878   0.041
 4252SOL     OW13654   6.386   6.326   5.101
 4252SOL    HW113655   6.318   6.255   5.081
 4252SOL    HW213656   6.433   6.304   5.186
 4253SOL     OW13657   2.662   0.494   1.935
 4253SOL    HW113658   2.730   0.535   1.997
 4253SOL    HW213659   2.607   0.566   1.894
 4254SOL     OW13660   1.040   2.962   1.542
 4254SOL    HW113661   1.016   2.882   1.486
 4254SOL    HW213662   1.076   3.034   1.484
 4255SOL     OW13663   6.013   2.297   3.557
 4255SOL    HW113664   6.081   2.232   3.522
 4255SOL    HW213665   5.923   2.253   3.558
 4256SOL     OW13666   1.563   6.424   0.747
 4256SOL    HW113667   1.603   6.508   0.784
 4256SOL    HW213668   1.483   6.399   0.801
 4257SOL     OW13669   3.663   0.612   5.327
 4257SOL    HW113670   3.757   0.577   5.328
 4257SOL    HW213671   3.655   0.684   5.258
 4258SOL     OW13672   6.038   6.829   1.602
 4258SOL    HW113673   5.997   6.918   1.618
 4258SOL    HW213674   5.969   6.758   1.615
 4259SOL     OW13675   3.041   0.594   6.762
 4259SOL    HW113676   3.110   0.629   6.826
 4259SOL    HW213677   2.998   0.513   6.801
 4260SOL     OW13678   5.345   5.943   4.238
 4260SOL    HW113679   5.281   6.007   4.282
 4260SOL    HW213680   5.417   5.918   4.303
 4261SOL     OW13681   1.980   0.698   2.133
 4261SOL    HW113682   1.976   0.746   2.221
 4261SOL    HW213683   2.002   0.764   2.061
 4262SOL     OW13684   1.080   4.738   5.357
 4262SOL    HW113685   1.115   4.678   5.285
 4262SOL    HW213686   1.084   4.833   5.326
 4263SOL     OW13687   2.624   6.510   4.018
 4263SOL    HW113688   2.661   6.427   3.977
 4263SOL    HW213689   2.565   6.486   4.094
 4264SOL     OW13690   0.017   1.906   2.150
 4264SOL    HW113691   6.972   1.934   2.219
 4264SOL    HW213692   0.034   1.982   2.087
 4265SOL     OW13693   5.870   1.712   6.989
 4265SOL    HW113694   5.838   1.788   0.024
 4265SOL    HW213695   5.961   1.732   6.953
 4266SOL     OW13696   2.322   5.418   0.473
 4266SOL    HW113697   2.346   5.511   0.443
 4266SOL    HW213698   2.406   5.368   0.497
 4267SOL     OW13699   2.046   4.101   4.924
 4267SOL    HW113700   2.012   4.044   4.850
 4267SOL    HW213701   2.138   4.073   4.949
 4268SOL     OW13702   1.802   6.803   7.005
 4268SOL    HW113703   1.901   6.814   7.009
 4268SOL    HW213704   1.780   6.713   6.969
 4269SOL     OW13705   2.085   1.110   0.742
 4269SOL    HW113706   2.115   1.016   0.723
 4269SOL    HW213707   2.106   1.168   0.664
 4270SOL     OW13708   3.002   3.331   3.715
 4270SOL    HW113709   2.967   3.397   3.649
 4270SOL    HW213710   3.064   3.268   3.668
 4271SOL     OW13711   0.013   0.305   5.890
 4271SOL    HW113712   0.036   0.393   5.849
 4271SOL    HW213713   6.980   0.320   5.973
 4272SOL     OW13714   0.492   5.026   4.965
 4272SOL    HW113715   0.572   5.055   4.912
 4272SOL    HW213716   0.501   4.929   4.988
 4273SOL     OW13717   4.763   6.393   3.822
 4273SOL    HW113718   4.716   6.477   3.848
 4273SOL    HW213719   4.786   6.397   3.724
 4274SOL     OW13720   0.883   0.039   2.742
 4274SOL    HW113721   0.908   0.038   2.646
 4274SOL    HW213722   0.824   0.118   2.760
 4275SOL     OW13723   0.190   1.796   5.942
 4275SOL    HW113724   0.222   1.847   6.021
 4275SOL    HW213725   0.132   1.720   5.973
 4276SOL     OW13726   1.787   5.000   2.760
 4276SOL    HW113727   1.699   5.027   2.799
 4276SOL    HW213728   1.860   5.056   2.799
 4277SOL     OW13729   6.781   4.811   3.997
 4277SOL    HW113730   6.834   4.889   3.964
 4277SOL    HW213731   6.748   4.830   4.089
 4278SOL     OW13732   0.143   0.716   5.030
 4278SOL    HW113733   0.076   0.729   4.957
 4278SOL    HW213734   0.128   0.784   5.101
 4279SOL     OW13735   3.465   5.937   5.475
 4279SOL    HW113736   3.424   5.855   5.436
 4279SOL    HW213737   3.393   6.005   5.493
 4280SOL     OW13738   4.668   1.298   5.763
 4280SOL    HW113739   4.732   1.223   5.779
 4280SOL    HW213740   4.600   1.269   5.695
 4281SOL     OW13741   2.450   4.827   4.424
 4281SOL    HW113742   2.541   4.791   4.403
 4281SOL    HW213743   2.381   4.762   4.395
 4282SOL     OW13744   2.523   2.515   0.090
 4282SOL    HW113745   2.502   2.522   0.188
 4282SOL    HW213746   2.622   2.502   0.078
 4283SOL     OW13747   2.003   0.346   3.972
 4283SOL    HW113748   2.032   0.422   3.913
 4283SOL    HW213749   1.903   0.348   3.983
 4284SOL     OW13750   5.169   6.214   1.965
 4284SOL    HW113751   5.212   6.222   1.875
 4284SOL    HW213752   5.214   6.275   2.030
 4285SOL     OW13753   0.395   0.054   6.139
 4285SOL    HW113754   0.438   0.095   6.220
 4285SOL    HW213755   0.466   0.029   6.073
 4286SOL     OW13756   4.864   5.507   6.850
 4286SOL    HW113757   4.908   5.569   6.784
 4286SOL    HW213758   4.915   5.421   6.854
 4287SOL     OW13759   6.052   0.502   6.004
 4287SOL    HW113760   5.965   0.474   5.964
 4287SOL    HW213761   6.038   0.526   6.100
 4288SOL     OW13762   0.650   5.966   3.589
 4288SOL    HW113763   0.733   5.927   3.550
 4288SOL    HW213764   0.671   6.055   3.630
 4289SOL     OW13765   5.861   3.100   1.375
 4289SOL    HW113766   5.828   3.155   1.451
 4289SOL    HW213767   5.949   3.059   1.399
 4290SOL     OW13768   2.083   6.619   1.147
 4290SOL    HW113769   2.123   6.532   1.175
 4290SOL    HW213770   2.018   6.603   1.072
 4291SOL     OW13771   4.528   3.394   1.645
 4291SOL    HW113772   4.570   3.483   1.626
 4291SOL    HW213773   4.439   3.407   1.689
 4292SOL     OW13774   6.482   4.205   5.655
 4292SOL    HW113775   6.382   4.209   5.653
 4292SOL    HW213776   6.519   4.293   5.685
 4293SOL     OW13777   0.197   3.906   6.895
 4293SOL    HW113778   0.126   3.974   6.875
 4293SOL    HW213779   0.155   3.817   6.911
 4294SOL     OW13780   4.425   2.902   0.308
 4294SOL    HW113781   4.378   2.853   0.382
 4294SOL    HW213782   4.523   2.901   0.325
 4295SOL     OW13783   3.690   6.451   5.026
 4295SOL    HW113784   3.648   6.403   5.103
 4295SOL    HW213785   3.670   6.401   4.941
 4296SOL     OW13786   3.249   1.894   0.067
 4296SOL    HW113787   3.279   1.852   0.153
 4296SOL    HW213788   3.316   1.875   7.017
 4297SOL     OW13789   5.230   0.535   5.869
 4297SOL    HW113790   5.167   0.607   5.843
 4297SOL    HW213791   5.215   0.511   5.965
 4298SOL     OW13792   1.941   5.573   6.780
 4298SOL    HW113793   1.871   5.635   6.816
 4298SOL    HW213794   1.902   5.518   6.707
 4299SOL     OW13795   1.027   2.633   6.989
 4299SOL    HW113796   0.995   2.583   0.048
 4299SOL    HW213797   1.121   2.664   7.003
 4300SOL     OW13798   2.961   1.407   6.340
 4300SOL    HW113799   3.009   1.411   6.427
 4300SOL    HW213800   2.919   1.317   6.328
 4301SOL     OW13801   2.511   1.360   0.405
 4301SOL    HW113802   2.445   1.433   0.386
 4301SOL    HW213803   2.471   1.271   0.382
 4302SOL     OW13804   1.045   6.396   5.386
 4302SOL    HW113805   0.992   6.359   5.462
 4302SOL    HW213806   1.022   6.492   5.372
 4303SOL     OW13807   6.375   4.685   3.707
 4303SOL    HW113808   6.363   4.688   3.806
 4303SOL    HW213809   6.370   4.590   3.676
 4304SOL     OW13810   2.942   3.674   4.297
 4304SOL    HW113811   3.033   3.710   4.318
 4304SOL    HW213812   2.919   3.697   4.202
 4305SOL     OW13813   6.113   1.444   3.831
 4305SOL    HW113814   6.033   1.463   3.776
 4305SOL    HW213815   6.189   1.415   3.772
 4306SOL     OW13816   0.034   3.648   6.472
 4306SOL    HW113817   0.011   3.633   6.376
 4306SOL    HW213818   0.001   3.571   6.526
 4307SOL     OW13819   4.719   4.553   6.230
 4307SOL    HW113820   4.692   4.583   6.321
 4307SOL    HW213821   4.810   4.588   6.209
 4308SOL     OW13822   5.436   5.995   6.022
 4308SOL    HW113823   5.451   5.902   6.056
 4308SOL    HW213824   5.521   6.030   5.983
 4309SOL     OW13825   0.783   0.264   0.154
 4309SOL    HW113826   0.846   0.339   0.169
 4309SOL    HW213827   0.689   0.296   0.164
 4310SOL     OW13828   1.800   2.500   3.652
 4310SOL    HW113829   1.806   2.423   3.589
 4310SOL    HW213830   1.741   2.476   3.728
 4311SOL     OW13831   1.328   5.382   2.899
 4311SOL    HW113832   1.299   5.472   2.931
 4311SOL    HW213833   1.412   5.355   2.945
 4312SOL     OW13834   1.559   5.302   1.764
 4312SOL    HW113835   1.509   5.330   1.846
 4312SOL    HW213836   1.654   5.282   1.788
 4313SOL     OW13837   5.251   1.861   2.132
 4313SOL    HW113838   5.217   1.840   2.040
 4313SOL    HW213839   5.205   1.803   2.199
 4314SOL     OW13840   5.363   2.722   3.434
 4314SOL    HW113841   5.356   2.645   3.497
 4314SOL    HW213842   5.428   2.789   3.472
 4315SOL     OW13843   1.676   0.786   2.407
 4315SOL    HW113844   1.648   0.690   2.397
 4315SOL    HW213845   1.598   0.846   2.388
 4316SOL     OW13846   5.159   0.136   1.240
 4316SOL    HW113847   5.090   0.137   1.312
 4316SOL    HW213848   5.145   0.057   1.180
 4317SOL     OW13849   3.097   1.151   4.691
 4317SOL    HW113850   3.135   1.173   4.601
 4317SOL    HW213851   2.999   1.134   4.683
 4318SOL     OW13852   0.856   3.621   3.642
 4318SOL    HW113853   0.873   3.522   3.644
 4318SOL    HW213854   0.758   3.638   3.655
 4319SOL     OW13855   2.521   2.811   0.597
 4319SOL    HW113856   2.602   2.821   0.656
 4319SOL    HW213857   2.465   2.735   0.631
 4320SOL     OW13858   1.624   5.906   1.577
 4320SOL    HW113859   1.526   5.886   1.582
 4320SOL    HW213860   1.652   5.909   1.481
 4321SOL     OW13861   6.495   0.024   4.302
 4321SOL    HW113862   6.516   0.121   4.306
 4321SOL    HW213863   6.396   0.012   4.291
 4322SOL     OW13864   6.088   0.994   6.975
 4322SOL    HW113865   6.010   1.025   0.008
 4322SOL    HW213866   6.092   0.894   6.977
 4323SOL     OW13867   5.618   3.665   2.009
 4323SOL    HW113868   5.550   3.593   2.017
 4323SOL    HW213869   5.572   3.754   2.010
 4324SOL     OW13870   5.386   4.852   6.984
 4324SOL    HW113871   5.352   4.768   0.006
 4324SOL    HW213872   5.317   4.924   6.990
 4325SOL     OW13873   0.961   0.753   6.705
 4325SOL    HW113874   1.005   0.843   6.702
 4325SOL    HW213875   1.029   0.683   6.727
 4326SOL     OW13876   6.361   2.769   5.433
 4326SOL    HW113877   6.418   2.689   5.417
 4326SOL    HW213878   6.283   2.743   5.490
 4327SOL     OW13879   6.330   5.269   2.751
 4327SOL    HW113880   6.292   5.284   2.843
 4327SOL    HW213881   6.355   5.357   2.711
 4328SOL     OW13882   5.061   4.280   6.288
 4328SOL    HW113883   5.030   4.316   6.376
 4328SOL    HW213884   5.076   4.355   6.224
 4329SOL     OW13885   2.965   1.821   6.154
 4329SOL    HW113886   2.955   1.728   6.117
 4329SOL    HW213887   2.875   1.861   6.168
 4330SOL     OW13888   3.362   0.541   5.095
 4330SOL    HW113889   3.366   0.442   5.093
 4330SOL    HW213890   3.372   0.577   5.003
 4331SOL     OW13891   4.838   3.147   1.393
 4331SOL    HW113892   4.909   3.215   1.414
 4331SOL    HW213893   4.752   3.194   1.377
 4332SOL     OW13894   5.612   4.236   2.297
 4332SOL    HW113895   5.660   4.308   2.346
 4332SOL    HW213896   5.605   4.155   2.355
 4333SOL     OW13897   4.553   1.878   5.048
 4333SOL    HW113898   4.609   1.797   5.034
 4333SOL    HW213899   4.470   1.853   5.099
 4334SOL     OW13900   2.728   2.030   2.276
 4334SOL    HW113901   2.645   2.011   2.329
 4334SOL    HW213902   2.719   2.120   2.232
 4335SOL     OW13903   3.195   4.073   3.294
 4335SOL    HW113904   3.113   4.070   3.352
 4335SOL    HW213905   3.185   4.007   3.220
 4336SOL     OW13906   0.969   6.878   5.619
 4336SOL    HW113907   0.907   6.827   5.559
 4336SOL    HW213908   1.050   6.906   5.567
 4337SOL     OW13909   1.422   4.826   0.339
 4337SOL    HW113910   1.464   4.916   0.337
 4337SOL    HW213911   1.489   4.757   0.311
 4338SOL     OW13912   4.716   5.823   4.693
 4338SOL    HW113913   4.670   5.798   4.778
 4338SOL    HW213914   4.782   5.752   4.668
 4339SOL     OW13915   5.400   3.488   5.362
 4339SOL    HW113916   5.392   3.428   5.282
 4339SOL    HW213917   5.313   3.491   5.411
 4340SOL     OW13918   5.934   4.139   3.026
 4340SOL    HW113919   5.854   4.167   2.973
 4340SOL    HW213920   5.908   4.065   3.088
 4341SOL     OW13921   0.920   4.899   1.677
 4341SOL    HW113922   0.865   4.912   1.759
 4341SOL    HW213923   0.981   4.821   1.689
 4342SOL     OW13924   6.780   3.044   4.103
 4342SOL    HW113925   6.741   2.953   4.090
 4342SOL    HW213926   6.767   3.098   4.019
 4343SOL     OW13927   2.416   6.734   6.544
 4343SOL    HW113928   2.329   6.777   6.566
 4343SOL    HW213929   2.491   6.785   6.586
 4344SOL     OW13930   2.268   5.186   3.052
 4344SOL    HW113931   2.264   5.281   3.022
 4344SOL    HW213932   2.183   5.161   3.098
 4345SOL     OW13933   2.058   2.793   5.671
 4345SOL    HW113934   1.989   2.831   5.611
 4345SOL    HW213935   2.061   2.845   5.756
 4346SOL     OW13936   2.119   3.099   1.767
 4346SOL    HW113937   2.137   3.029   1.836
 4346SOL    HW213938   2.194   3.165   1.766
 4347SOL     OW13939   6.352   0.877   1.943
 4347SOL    HW113940   6.289   0.843   1.873
 4347SOL    HW213941   6.301   0.929   2.011
 4348SOL     OW13942   0.450   3.196   2.585
 4348SOL    HW113943   0.414   3.272   2.640
 4348SOL    HW213944   0.544   3.217   2.559
 4349SOL     OW13945   6.955   1.808   3.269
 4349SOL    HW113946   6.871   1.861   3.261
 4349SOL    HW213947   6.971   1.784   3.365
 4350SOL     OW13948   5.110   2.025   4.315
 4350SOL    HW113949   5.111   1.937   4.362
 4350SOL    HW213950   5.136   2.012   4.220
 4351SOL     OW13951   1.962   6.557   0.905
 4351SOL    HW113952   1.890   6.505   0.860
 4351SOL    HW213953   2.021   6.600   0.836
 4352SOL     OW13954   1.008   2.486   1.800
 4352SOL    HW113955   1.094   2.480   1.749
 4352SOL    HW213956   1.014   2.560   1.867
 4353SOL     OW13957   3.113   4.919   0.618
 4353SOL    HW113958   3.153   4.861   0.689
 4353SOL    HW213959   3.057   4.864   0.557
 4354SOL     OW13960   2.141   6.558   5.898
 4354SOL    HW113961   2.179   6.486   5.955
 4354SOL    HW213962   2.049   6.582   5.931
 4355SOL     OW13963   3.245   6.878   1.766
 4355SOL    HW113964   3.288   6.887   1.856
 4355SOL    HW213965   3.297   6.813   1.710
 4356SOL     OW13966   4.841   4.100   1.914
 4356SOL    HW113967   4.910   4.151   1.862
 4356SOL    HW213968   4.754   4.102   1.865
 4357SOL     OW13969   6.403   6.977   7.020
 4357SOL    HW113970   6.501   6.997   7.008
 4357SOL    HW213971   6.387   6.879   7.004
 4358SOL     OW13972   6.793   6.217   0.602
 4358SOL    HW113973   6.876   6.164   0.581
 4358SOL    HW213974   6.804   6.310   0.568
 4359SOL     OW13975   1.386   1.959   5.147
 4359SOL    HW113976   1.443   1.931   5.224
 4359SOL    HW213977   1.444   1.988   5.071
 4360SOL     OW13978   1.797   3.069   2.961
 4360SOL    HW113979   1.831   3.153   3.003
 4360SOL    HW213980   1.707   3.085   2.920
 4361SOL     OW13981   3.080   2.700   1.762
 4361SOL    HW113982   3.016   2.634   1.802
 4361SOL    HW213983   3.105   2.670   1.670
 4362SOL     OW13984   6.146   3.707   4.752
 4362SOL    HW113985   6.229   3.683   4.701
 4362SOL    HW213986   6.153   3.802   4.783
 4363SOL     OW13987   5.093   2.271   5.844
 4363SOL    HW113988   5.091   2.174   5.820
 4363SOL    HW213989   5.012   2.293   5.898
 4364SOL     OW13990   2.959   3.671   5.439
 4364SOL    HW113991   2.914   3.591   5.477
 4364SOL    HW213992   2.901   3.712   5.369
 4365SOL     OW13993   2.914   0.945   2.340
 4365SOL    HW113994   2.970   1.020   2.376
 4365SOL    HW213995   2.817   0.970   2.347
 4366SOL     OW13996   5.740   7.015   0.508
 4366SOL    HW113997   5.806   6.941   0.514
 4366SOL    HW213998   5.781   0.072   0.462
 4367SOL     OW13999   1.287   4.824   5.544
 4367SOL    HW114000   1.273   4.800   5.640
 4367SOL    HW214001   1.224   4.770   5.487
 4368SOL     OW14002   3.941   5.158   1.167
 4368SOL    HW114003   3.991   5.158   1.253
 4368SOL    HW214004   4.005   5.143   1.091
 4369SOL     OW14005   4.324   5.528   2.485
 4369SOL    HW114006   4.396   5.468   2.520
 4369SOL    HW214007   4.362   5.619   2.469
 4370SOL     OW14008   5.005   4.673   2.896
 4370SOL    HW114009   5.059   4.686   2.979
 4370SOL    HW214010   5.067   4.656   2.819
 4371SOL     OW14011   6.290   0.366   1.751
 4371SOL    HW114012   6.379   0.395   1.715
 4371SOL    HW214013   6.300   0.281   1.802
 4372SOL     OW14014   4.177   1.217   2.547
 4372SOL    HW114015   4.220   1.138   2.591
 4372SOL    HW214016   4.139   1.189   2.459
 4373SOL     OW14017   0.185   2.971   6.843
 4373SOL    HW114018   0.143   2.950   6.755
 4373SOL    HW214019   0.275   3.013   6.828
 4374SOL     OW14020   0.925   1.908   1.710
 4374SOL    HW114021   0.845   1.867   1.754
 4374SOL    HW214022   0.899   1.995   1.667
 4375SOL     OW14023   3.208   6.946   4.283
 4375SOL    HW114024   3.286   6.943   4.346
 4375SOL    HW214025   3.177   6.853   4.264
 4376SOL     OW14026   0.031   0.368   2.465
 4376SOL    HW114027   6.989   0.442   2.442
 4376SOL    HW214028   7.017   0.281   2.432
 4377SOL     OW14029   6.281   3.833   0.543
 4377SOL    HW114030   6.307   3.759   0.481
 4377SOL    HW214031   6.225   3.797   0.617
 4378SOL     OW14032   1.802   1.467   2.888
 4378SOL    HW114033   1.793   1.371   2.912
 4378SOL    HW214034   1.860   1.513   2.955
 4379SOL     OW14035   2.887   1.349   3.974
 4379SOL    HW114036   2.793   1.337   3.942
 4379SOL    HW214037   2.895   1.434   4.025
 4380SOL     OW14038   1.184   0.319   1.761
 4380SOL    HW114039   1.108   0.382   1.744
 4380SOL    HW214040   1.268   0.358   1.723
 4381SOL     OW14041   1.143   5.851   5.049
 4381SOL    HW114042   1.148   5.855   5.149
 4381SOL    HW214043   1.171   5.939   5.011
 4382SOL     OW14044   6.908   3.241   5.995
 4382SOL    HW114045   6.818   3.248   5.951
 4382SOL    HW214046   6.978   3.222   5.926
 4383SOL     OW14047   6.662   4.251   6.391
 4383SOL    HW114048   6.617   4.258   6.302
 4383SOL    HW214049   6.634   4.166   6.435
 4384SOL     OW14050   5.708   0.848   3.548
 4384SOL    HW114051   5.717   0.915   3.475
 4384SOL    HW214052   5.618   0.857   3.591
 4385SOL     OW14053   4.435   2.343   5.054
 4385SOL    HW114054   4.338   2.364   5.069
 4385SOL    HW214055   4.488   2.372   5.134
 4386SOL     OW14056   1.387   4.072   5.298
 4386SOL    HW114057   1.303   4.018   5.294
 4386SOL    HW214058   1.420   4.075   5.392
 4387SOL     OW14059   6.636   2.918   1.719
 4387SOL    HW114060   6.632   2.818   1.708
 4387SOL    HW214061   6.619   2.961   1.630
 4388SOL     OW14062   4.834   2.239   6.056
 4388SOL    HW114063   4.739   2.237   6.086
 4388SOL    HW214064   4.860   2.149   6.020
 4389SOL     OW14065   6.556   3.363   1.239
 4389SOL    HW114066   6.502   3.338   1.318
 4389SOL    HW214067   6.643   3.403   1.269
 4390SOL     OW14068   4.841   0.183   1.105
 4390SOL    HW114069   4.882   0.187   1.196
 4390SOL    HW214070   4.900   0.131   1.044
 4391SOL     OW14071   2.641   4.929   6.120
 4391SOL    HW114072   2.718   4.906   6.178
 4391SOL    HW214073   2.565   4.962   6.176
 4392SOL     OW14074   0.737   1.512   4.876
 4392SOL    HW114075   0.659   1.574   4.880
 4392SOL    HW214076   0.706   1.417   4.878
 4393SOL     OW14077   6.640   0.840   2.039
 4393SOL    HW114078   6.656   0.742   2.048
 4393SOL    HW214079   6.544   0.857   2.019
 4394SOL     OW14080   1.337   6.498   1.772
 4394SOL    HW114081   1.314   6.461   1.682
 4394SOL    HW214082   1.278   6.576   1.793
 4395SOL     OW14083   1.819   0.559   1.419
 4395SOL    HW114084   1.793   0.570   1.515
 4395SOL    HW214085   1.882   0.633   1.393
 4396SOL     OW14086   1.732   1.998   4.019
 4396SOL    HW114087   1.725   2.049   3.933
 4396SOL    HW214088   1.769   1.907   4.001
 4397SOL     OW14089   1.851   3.361   4.372
 4397SOL    HW114090   1.836   3.294   4.299
 4397SOL    HW214091   1.763   3.385   4.413
 4398SOL     OW14092   1.761   3.308   6.737
 4398SOL    HW114093   1.739   3.381   6.673
 4398SOL    HW214094   1.861   3.296   6.742
 4399SOL     OW14095   2.261   6.454   1.950
 4399SOL    HW114096   2.303   6.488   2.035
 4399SOL    HW214097   2.272   6.355   1.944
 4400SOL     OW14098   2.130   6.866   3.743
 4400SOL    HW114099   2.056   6.825   3.797
 4400SOL    HW214100   2.196   6.795   3.717
 4401SOL     OW14101   4.182   6.333   4.973
 4401SOL    HW114102   4.112   6.388   5.019
 4401SOL    HW214103   4.146   6.241   4.958
 4402SOL     OW14104   0.666   0.663   2.576
 4402SOL    HW114105   0.668   0.707   2.486
 4402SOL    HW214106   0.605   0.713   2.637
 4403SOL     OW14107   1.338   6.358   0.863
 4403SOL    HW114108   1.319   6.322   0.955
 4403SOL    HW214109   1.252   6.378   0.817
 4404SOL     OW14110   1.216   5.854   5.308
 4404SOL    HW114111   1.229   5.775   5.368
 4404SOL    HW214112   1.193   5.934   5.363
 4405SOL     OW14113   2.587   4.682   2.662
 4405SOL    HW114114   2.500   4.693   2.709
 4405SOL    HW214115   2.579   4.607   2.596
 4406SOL     OW14116   6.840   3.414   1.292
 4406SOL    HW114117   6.932   3.418   1.251
 4406SOL    HW214118   6.840   3.351   1.369
 4407SOL     OW14119   0.207   5.400   0.964
 4407SOL    HW114120   0.290   5.363   1.006
 4407SOL    HW214121   0.194   5.358   0.874
 4408SOL     OW14122   3.140   6.237   6.713
 4408SOL    HW114123   3.173   6.263   6.803
 4408SOL    HW214124   3.049   6.276   6.699
 4409SOL     OW14125   4.328   1.108   1.580
 4409SOL    HW114126   4.400   1.038   1.585
 4409SOL    HW214127   4.370   1.198   1.574
 4410SOL     OW14128   6.945   5.697   0.539
 4410SOL    HW114129   6.938   5.619   0.602
 4410SOL    HW214130   6.855   5.740   0.530
 4411SOL     OW14131   3.466   4.676   5.309
 4411SOL    HW114132   3.422   4.725   5.233
 4411SOL    HW214133   3.400   4.664   5.383
 4412SOL     OW14134   5.036   6.550   4.303
 4412SOL    HW114135   5.091   6.487   4.249
 4412SOL    HW214136   5.095   6.616   4.348
 4413SOL     OW14137   4.700   6.229   4.044
 4413SOL    HW114138   4.725   6.306   3.985
 4413SOL    HW214139   4.601   6.228   4.058
 4414SOL     OW14140   4.381   5.580   1.639
 4414SOL    HW114141   4.433   5.601   1.556
 4414SOL    HW214142   4.435   5.522   1.699
 4415SOL     OW14143   3.551   3.596   0.527
 4415SOL    HW114144   3.520   3.516   0.476
 4415SOL    HW214145   3.541   3.578   0.625
 4416SOL     OW14146   3.939   1.251   4.240
 4416SOL    HW114147   4.013   1.224   4.302
 4416SOL    HW214148   3.942   1.350   4.226
 4417SOL     OW14149   6.339   2.971   4.140
 4417SOL    HW114150   6.301   2.882   4.113
 4417SOL    HW214151   6.383   2.962   4.230
 4418SOL     OW14152   6.119   1.926   2.400
 4418SOL    HW114153   6.069   2.007   2.370
 4418SOL    HW214154   6.056   1.850   2.414
 4419SOL     OW14155   6.500   6.825   6.015
 4419SOL    HW114156   6.514   6.791   5.923
 4419SOL    HW214157   6.429   6.897   6.014
 4420SOL     OW14158   3.401   1.624   0.892
 4420SOL    HW114159   3.372   1.688   0.821
 4420SOL    HW214160   3.430   1.676   0.973
 4421SOL     OW14161   1.548   2.486   5.267
 4421SOL    HW114162   1.486   2.407   5.276
 4421SOL    HW214163   1.558   2.510   5.171
 4422SOL     OW14164   1.069   4.943   0.008
 4422SOL    HW114165   1.126   4.897   0.075
 4422SOL    HW214166   1.107   4.930   6.938
 4423SOL     OW14167   6.552   4.673   5.830
 4423SOL    HW114168   6.596   4.749   5.783
 4423SOL    HW214169   6.453   4.690   5.836
 4424SOL     OW14170   5.550   5.852   4.401
 4424SOL    HW114171   5.485   5.897   4.462
 4424SOL    HW214172   5.620   5.918   4.373
 4425SOL     OW14173   1.797   5.668   1.209
 4425SOL    HW114174   1.700   5.690   1.209
 4425SOL    HW214175   1.835   5.685   1.118
 4426SOL     OW14176   1.090   0.656   3.965
 4426SOL    HW114177   1.055   0.575   4.012
 4426SOL    HW214178   1.096   0.637   3.867
 4427SOL     OW14179   3.918   5.980   2.599
 4427SOL    HW114180   3.832   6.019   2.565
 4427SOL    HW214181   3.956   6.040   2.669
 4428SOL     OW14182   5.152   1.041   4.656
 4428SOL    HW114183   5.054   1.028   4.644
 4428SOL    HW214184   5.183   1.117   4.598
 4429SOL     OW14185   2.886   6.541   2.827
 4429SOL    HW114186   2.889   6.510   2.922
 4429SOL    HW214187   2.898   6.462   2.766
 4430SOL     OW14188   5.683   5.237   4.622
 4430SOL    HW114189   5.627   5.232   4.539
 4430SOL    HW214190   5.627   5.265   4.699
 4431SOL     OW14191   3.137   0.357   3.645
 4431SOL    HW114192   3.096   0.435   3.598
 4431SOL    HW214193   3.203   0.389   3.713
 4432SOL     OW14194   2.156   3.140   6.420
 4432SOL    HW114195   2.127   3.153   6.515
 4432SOL    HW214196   2.129   3.220   6.366
 4433SOL     OW14197   0.541   2.415   4.672
 4433SOL    HW114198   0.554   2.316   4.663
 4433SOL    HW214199   0.444   2.437   4.664
 4434SOL     OW14200   5.510   1.738   1.947
 4434SOL    HW114201   5.475   1.688   1.867
 4434SOL    HW214202   5.439   1.800   1.981
 4435SOL     OW14203   3.899   3.746   0.970
 4435SOL    HW114204   3.904   3.669   1.034
 4435SOL    HW214205   3.966   3.734   0.897
 4436SOL     OW14206   3.636   1.483   1.356
 4436SOL    HW114207   3.537   1.495   1.364
 4436SOL    HW214208   3.675   1.464   1.446
 4437SOL     OW14209   0.426   3.558   2.659
 4437SOL    HW114210   0.398   3.634   2.718
 4437SOL    HW214211   0.361   3.482   2.670
 4438SOL     OW14212   4.659   0.098   5.470
 4438SOL    HW114213   4.708   0.012   5.457
 4438SOL    HW214214   4.641   0.141   5.381
 4439SOL     OW14215   1.082   4.904   2.904
 4439SOL    HW114216   1.103   4.998   2.931
 4439SOL    HW214217   1.147   4.842   2.947
 4440SOL     OW14218   2.595   4.199   1.082
 4440SOL    HW114219   2.578   4.124   1.017
 4440SOL    HW214220   2.555   4.175   1.171
 4441SOL     OW14221   6.992   1.550   0.915
 4441SOL    HW114222   7.016   1.513   0.825
 4441SOL    HW214223   0.053   1.554   0.973
 4442SOL     OW14224   1.206   5.104   5.800
 4442SOL    HW114225   1.226   5.164   5.722
 4442SOL    HW214226   1.107   5.093   5.809
 4443SOL     OW14227   0.611   4.488   6.347
 4443SOL    HW114228   0.706   4.489   6.316
 4443SOL    HW214229   0.609   4.470   6.446
 4444SOL     OW14230   4.478   3.887   0.515
 4444SOL    HW114231   4.455   3.790   0.519
 4444SOL    HW214232   4.488   3.915   0.420
 4445SOL     OW14233   1.387   5.494   0.129
 4445SOL    HW114234   1.428   5.466   0.042
 4445SOL    HW214235   1.321   5.567   0.113
 4446SOL     OW14236   5.632   1.748   0.282
 4446SOL    HW114237   5.592   1.687   0.350
 4446SOL    HW214238   5.592   1.839   0.292
 4447SOL     OW14239   5.860   4.301   5.202
 4447SOL    HW114240   5.845   4.203   5.209
 4447SOL    HW214241   5.775   4.350   5.223
 4448SOL     OW14242   2.825   0.035   1.140
 4448SOL    HW114243   2.799   7.003   1.221
 4448SOL    HW214244   2.801   7.005   1.058
 4449SOL     OW14245   4.426   1.013   6.661
 4449SOL    HW114246   4.337   1.050   6.632
 4449SOL    HW214247   4.427   0.914   6.646
 4450SOL     OW14248   3.146   1.601   0.025
 4450SOL    HW114249   3.156   1.568   6.953
 4450SOL    HW214250   3.215   1.671   0.043
 4451SOL     OW14251   4.777   4.729   4.290
 4451SOL    HW114252   4.787   4.822   4.324
 4451SOL    HW214253   4.708   4.727   4.218
 4452SOL     OW14254   6.304   6.088   4.610
 4452SOL    HW114255   6.389   6.106   4.561
 4452SOL    HW214256   6.236   6.051   4.546
 4453SOL     OW14257   1.191   2.917   1.810
 4453SOL    HW114258   1.092   2.930   1.822
 4453SOL    HW214259   1.239   2.954   1.890
 4454SOL     OW14260   0.449   1.414   0.102
 4454SOL    HW114261   0.487   1.321   0.094
 4454SOL    HW214262   0.424   1.431   0.197
 4455SOL     OW14263   5.762   5.445   5.218
 4455SOL    HW114264   5.692   5.465   5.287
 4455SOL    HW214265   5.831   5.518   5.219
 4456SOL     OW14266   2.213   6.293   3.413
 4456SOL    HW114267   2.240   6.245   3.497
 4456SOL    HW214268   2.131   6.250   3.376
 4457SOL     OW14269   1.788   2.034   4.870
 4457SOL    HW114270   1.803   2.073   4.960
 4457SOL    HW214271   1.876   2.025   4.823
 4458SOL     OW14272   2.229   3.357   1.318
 4458SOL    HW114273   2.205   3.423   1.390
 4458SOL    HW214274   2.293   3.290   1.354
 4459SOL     OW14275   2.182   1.721   4.178
 4459SOL    HW114276   2.088   1.755   4.172
 4459SOL    HW214277   2.195   1.674   4.266
 4460SOL     OW14278   0.644   3.465   4.545
 4460SOL    HW114279   0.702   3.546   4.536
 4460SOL    HW214280   0.648   3.432   4.639
 4461SOL     OW14281   1.649   0.804   1.184
 4461SOL    HW114282   1.696   0.739   1.125
 4461SOL    HW214283   1.625   0.886   1.132
 4462SOL     OW14284   6.048   4.301   2.462
 4462SOL    HW114285   6.007   4.305   2.371
 4462SOL    HW214286   6.072   4.206   2.483
 4463SOL     OW14287   4.988   1.372   1.134
 4463SOL    HW114288   4.976   1.273   1.138
 4463SOL    HW214289   4.992   1.409   1.227
 4464SOL     OW14290   0.944   5.858   0.264
 4464SOL    HW114291   0.922   5.824   0.172
 4464SOL    HW214292   0.877   5.822   0.329
 4465SOL     OW14293   2.817   5.327   0.310
 4465SOL    HW114294   2.791   5.343   0.405
 4465SOL    HW214295   2.773   5.395   0.252
 4466SOL     OW14296   1.834   2.393   3.221
 4466SOL    HW114297   1.739   2.365   3.233
 4466SOL    HW214298   1.864   2.373   3.128
 4467SOL     OW14299   2.600   5.855   3.923
 4467SOL    HW114300   2.513   5.815   3.949
 4467SOL    HW214301   2.671   5.825   3.988
 4468SOL     OW14302   1.009   3.787   1.122
 4468SOL    HW114303   0.995   3.871   1.069
 4468SOL    HW214304   1.069   3.807   1.200
 4469SOL     OW14305   2.372   0.839   1.403
 4469SOL    HW114306   2.341   0.838   1.498
 4469SOL    HW214307   2.465   0.803   1.398
 4470SOL     OW14308   0.488   1.208   2.112
 4470SOL    HW114309   0.413   1.230   2.173
 4470SOL    HW214310   0.453   1.158   2.032
 4471SOL     OW14311   2.081   2.853   6.537
 4471SOL    HW114312   1.997   2.906   6.547
 4471SOL    HW214313   2.126   2.845   6.626
 4472SOL     OW14314   1.424   2.280   1.024
 4472SOL    HW114315   1.457   2.187   1.007
 4472SOL    HW214316   1.368   2.281   1.106
 4473SOL     OW14317   6.221   3.069   3.451
 4473SOL    HW114318   6.167   2.985   3.443
 4473SOL    HW214319   6.270   3.068   3.538
 4474SOL     OW14320   2.943   0.356   1.927
 4474SOL    HW114321   2.935   0.301   2.010
 4474SOL    HW214322   2.852   0.389   1.901
 4475SOL     OW14323   0.909   3.724   1.634
 4475SOL    HW114324   0.900   3.647   1.572
 4475SOL    HW214325   0.965   3.697   1.713
 4476SOL     OW14326   6.144   1.240   4.436
 4476SOL    HW114327   6.067   1.213   4.494
 4476SOL    HW214328   6.123   1.219   4.340
 4477SOL     OW14329   1.714   0.201   5.275
 4477SOL    HW114330   1.698   0.296   5.302
 4477SOL    HW214331   1.634   0.146   5.299
 4478SOL     OW14332   1.119   0.120   1.386
 4478SOL    HW114333   1.144   0.096   1.479
 4478SOL    HW214334   1.188   0.085   1.323
 4479SOL     OW14335   0.985   1.397   0.530
 4479SOL    HW114336   0.899   1.442   0.504
 4479SOL    HW214337   0.979   1.365   0.624
 4480SOL     OW14338   0.866   4.450   4.992
 4480SOL    HW114339   0.883   4.399   5.076
 4480SOL    HW214340   0.890   4.546   5.006
 4481SOL     OW14341   2.216   5.611   5.385
 4481SOL    HW114342   2.183   5.677   5.453
 4481SOL    HW214343   2.287   5.554   5.426
 4482SOL     OW14344   2.592   3.738   6.060
 4482SOL    HW114345   2.635   3.712   5.973
 4482SOL    HW214346   2.516   3.800   6.042
 4483SOL     OW14347   0.638   2.639   1.891
 4483SOL    HW114348   0.639   2.631   1.791
 4483SOL    HW214349   0.565   2.701   1.919
 4484SOL     OW14350   2.397   2.932   0.394
 4484SOL    HW114351   2.390   3.029   0.419
 4484SOL    HW214352   2.430   2.879   0.472
 4485SOL     OW14353   4.513   2.807   5.175
 4485SOL    HW114354   4.417   2.787   5.192
 4485SOL    HW214355   4.570   2.760   5.243
 4486SOL     OW14356   5.692   4.996   5.519
 4486SOL    HW114357   5.734   4.970   5.606
 4486SOL    HW214358   5.593   4.986   5.526
 4487SOL     OW14359   2.057   2.580   6.676
 4487SOL    HW114360   2.132   2.636   6.640
 4487SOL    HW214361   2.052   2.494   6.624
 4488SOL     OW14362   1.286   3.760   3.833
 4488SOL    HW114363   1.328   3.682   3.878
 4488SOL    HW214364   1.198   3.733   3.795
 4489SOL     OW14365   5.073   5.216   5.183
 4489SOL    HW114366   5.091   5.236   5.279
 4489SOL    HW214367   5.041   5.122   5.173
 4490SOL     OW14368   5.497   2.220   1.171
 4490SOL    HW114369   5.580   2.235   1.117
 4490SOL    HW214370   5.507   2.262   1.261
 4491SOL     OW14371   0.751   3.904   3.342
 4491SOL    HW114372   0.663   3.928   3.384
 4491SOL    HW214373   0.736   3.842   3.265
 4492SOL     OW14374   5.833   1.247   1.843
 4492SOL    HW114375   5.863   1.326   1.896
 4492SOL    HW214376   5.774   1.277   1.768
 4493SOL     OW14377   5.968   6.498   4.393
 4493SOL    HW114378   5.883   6.532   4.432
 4493SOL    HW214379   5.955   6.477   4.296
 4494SOL     OW14380   0.799   1.215   5.710
 4494SOL    HW114381   0.881   1.199   5.764
 4494SOL    HW214382   0.724   1.158   5.744
 4495SOL     OW14383   3.801   6.839   2.642
 4495SOL    HW114384   3.771   6.774   2.572
 4495SOL    HW214385   3.892   6.813   2.675
 4496SOL     OW14386   4.517   6.058   6.748
 4496SOL    HW114387   4.580   5.984   6.729
 4496SOL    HW214388   4.563   6.146   6.734
 4497SOL     OW14389   4.059   2.513   0.007
 4497SOL    HW114390   4.102   2.439   0.059
 4497SOL    HW214391   3.973   2.481   6.990
 4498SOL     OW14392   6.967   5.339   6.399
 4498SOL    HW114393   6.941   5.251   6.358
 4498SOL    HW214394   6.887   5.399   6.400
 4499SOL     OW14395   6.093   1.727   3.637
 4499SOL    HW114396   6.105   1.792   3.562
 4499SOL    HW214397   6.181   1.708   3.679
 4500SOL     OW14398   4.157   4.640   6.431
 4500SOL    HW114399   4.069   4.681   6.411
 4500SOL    HW214400   4.213   4.704   6.484
 4501SOL     OW14401   5.975   2.152   2.348
 4501SOL    HW114402   5.988   2.228   2.411
 4501SOL    HW214403   5.881   2.153   2.313
 4502SOL     OW14404   0.850   4.022   0.240
 4502SOL    HW114405   0.843   3.934   0.193
 4502SOL    HW214406   0.803   4.092   0.186
 4503SOL     OW14407   2.863   6.941   2.085
 4503SOL    HW114408   2.822   6.912   1.998
 4503SOL    HW214409   2.796   6.993   2.138
 4504SOL     OW14410   6.489   2.063   3.955
 4504SOL    HW114411   6.513   2.143   3.901
 4504SOL    HW214412   6.553   1.989   3.937
 4505SOL     OW14413   6.748   4.303   2.508
 4505SOL    HW114414   6.716   4.234   2.573
 4505SOL    HW214415   6.841   4.282   2.479
 4506SOL     OW14416   5.707   3.200   3.687
 4506SOL    HW114417   5.613   3.219   3.657
 4506SOL    HW214418   5.715   3.224   3.784
 4507SOL     OW14419   6.874   3.171   3.619
 4507SOL    HW114420   6.832   3.108   3.554
 4507SOL    HW214421   6.887   3.124   3.706
 4508SOL     OW14422   1.494   4.404   0.302
 4508SOL    HW114423   1.591   4.384   0.318
 4508SOL    HW214424   1.474   4.498   0.331
 4509SOL     OW14425   4.885   2.360   2.550
 4509SOL    HW114426   4.826   2.282   2.572
 4509SOL    HW214427   4.891   2.371   2.451
 4510SOL     OW14428   4.344   1.602   4.035
 4510SOL    HW114429   4.377   1.678   4.091
 4510SOL    HW214430   4.264   1.560   4.078
 4511SOL     OW14431   6.930   3.846   1.192
 4511SOL    HW114432   6.831   3.856   1.197
 4511SOL    HW214433   6.962   3.787   1.266
 4512SOL     OW14434   3.215   1.849   6.047
 4512SOL    HW114435   3.122   1.852   6.085
 4512SOL    HW214436   3.232   1.932   5.995
 4513SOL     OW14437   0.430   6.072   6.383
 4513SOL    HW114438   0.460   6.161   6.349
 4513SOL    HW214439   0.356   6.085   6.449
 4514SOL     OW14440   3.446   3.398   7.021
 4514SOL    HW114441   3.461   3.461   6.946
 4514SOL    HW214442   3.505   3.422   0.076
 4515SOL     OW14443   5.412   1.276   4.664
 4515SOL    HW114444   5.429   1.212   4.589
 4515SOL    HW214445   5.354   1.351   4.632
 4516SOL     OW14446   2.791   0.723   5.557
 4516SOL    HW114447   2.805   0.821   5.544
 4516SOL    HW214448   2.727   0.708   5.632
 4517SOL     OW14449   4.291   6.743   6.789
 4517SOL    HW114450   4.213   6.758   6.850
 4517SOL    HW214451   4.295   6.817   6.722
 4518SOL     OW14452   1.253   6.842   1.335
 4518SOL    HW114453   1.284   6.877   1.424
 4518SOL    HW214454   1.308   6.883   1.262
 4519SOL     OW14455   4.857   6.857   6.815
 4519SOL    HW114456   4.781   6.920   6.829
 4519SOL    HW214457   4.856   6.824   6.720
 4520SOL     OW14458   4.307   6.041   5.259
 4520SOL    HW114459   4.258   5.977   5.199
 4520SOL    HW214460   4.281   6.135   5.235
 4521SOL     OW14461   5.018   1.929   4.687
 4521SOL    HW114462   4.992   1.900   4.779
 4521SOL    HW214463   4.998   2.026   4.675
 4522SOL     OW14464   5.704   4.069   3.335
 4522SOL    HW114465   5.696   4.120   3.421
 4522SOL    HW214466   5.618   4.022   3.317
 4523SOL     OW14467   0.910   3.881   6.968
 4523SOL    HW114468   0.947   3.972   6.951
 4523SOL    HW214469   0.921   3.824   6.886
 4524SOL     OW14470   0.017   3.958   2.044
 4524SOL    HW114471   0.036   4.044   2.092
 4524SOL    HW214472   6.948   3.925   2.071
 4525SOL     OW14473   2.531   2.175   5.678
 4525SOL    HW114474   2.496   2.268   5.684
 4525SOL    HW214475   2.563   2.157   5.585
 4526SOL     OW14476   0.267   0.799   6.444
 4526SOL    HW114477   0.256   0.725   6.378
 4526SOL    HW214478   0.314   0.764   6.525
 4527SOL     OW14479   6.982   0.337   2.930
 4527SOL    HW114480   0.000   0.392   2.857
 4527SOL    HW214481   6.959   0.246   2.894
 4528SOL     OW14482   4.167   0.698   6.472
 4528SOL    HW114483   4.090   0.675   6.531
 4528SOL    HW214484   4.230   0.619   6.467
 4529SOL     OW14485   2.715   1.109   6.185
 4529SOL    HW114486   2.675   1.107   6.094
 4529SOL    HW214487   2.692   1.025   6.234
 4530SOL     OW14488   2.457   6.264   4.560
 4530SOL    HW114489   2.428   6.177   4.600
 4530SOL    HW214490   2.381   6.329   4.564
 4531SOL     OW14491   1.308   4.396   6.609
 4531SOL    HW114492   1.388   4.442   6.648
 4531SOL    HW214493   1.338   4.327   6.543
 4532SOL     OW14494   4.973   0.640   2.823
 4532SOL    HW114495   4.888   0.618   2.870
 4532SOL    HW214496   5.047   0.583   2.860
 4533SOL     OW14497   1.271   1.015   2.858
 4533SOL    HW114498   1.257   0.916   2.848
 4533SOL    HW214499   1.303   1.035   2.950
 4534SOL     OW14500   4.383   2.296   5.382
 4534SOL    HW114501   4.390   2.196   5.371
 4534SOL    HW214502   4.459   2.340   5.335
 4535SOL     OW14503   3.656   1.565   1.092
 4535SOL    HW114504   3.674   1.567   1.190
 4535SOL    HW214505   3.718   1.629   1.046
 4536SOL     OW14506   2.502   1.490   5.687
 4536SOL    HW114507   2.421   1.461   5.636
 4536SOL    HW214508   2.534   1.414   5.745
 4537SOL     OW14509   4.150   3.636   3.103
 4537SOL    HW114510   4.140   3.698   3.025
 4537SOL    HW214511   4.157   3.542   3.071
 4538SOL     OW14512   0.882   2.338   2.031
 4538SOL    HW114513   0.909   2.242   2.037
 4538SOL    HW214514   0.926   2.379   1.951
 4539SOL     OW14515   2.460   5.466   4.733
 4539SOL    HW114516   2.428   5.490   4.641
 4539SOL    HW214517   2.409   5.518   4.801
 4540SOL     OW14518   0.947   0.641   0.804
 4540SOL    HW114519   1.005   0.708   0.851
 4540SOL    HW214520   0.853   0.653   0.834
 4541SOL     OW14521   4.702   1.738   6.749
 4541SOL    HW114522   4.623   1.707   6.803
 4541SOL    HW214523   4.723   1.833   6.774
 4542SOL     OW14524   6.871   2.805   0.775
 4542SOL    HW114525   6.838   2.813   0.681
 4542SOL    HW214526   6.793   2.806   0.838
 4543SOL     OW14527   4.515   2.098   0.686
 4543SOL    HW114528   4.580   2.029   0.655
 4543SOL    HW214529   4.554   2.147   0.764
 4544SOL     OW14530   4.705   4.887   1.137
 4544SOL    HW114531   4.722   4.819   1.066
 4544SOL    HW214532   4.648   4.847   1.209
 4545SOL     OW14533   0.665   4.230   5.253
 4545SOL    HW114534   0.763   4.243   5.269
 4545SOL    HW214535   0.648   4.220   5.155
 4546SOL     OW14536   3.038   0.655   5.655
 4546SOL    HW114537   3.117   0.714   5.636
 4546SOL    HW214538   2.954   0.706   5.637
 4547SOL     OW14539   6.423   0.532   6.981
 4547SOL    HW114540   6.505   0.588   6.968
 4547SOL    HW214541   6.370   0.531   6.897
 4548SOL     OW14542   2.477   2.592   3.285
 4548SOL    HW114543   2.427   2.634   3.209
 4548SOL    HW214544   2.446   2.632   3.371
 4549SOL     OW14545   4.884   4.479   2.573
 4549SOL    HW114546   4.837   4.539   2.508
 4549SOL    HW214547   4.843   4.388   2.569
 4550SOL     OW14548   0.669   4.567   3.565
 4550SOL    HW114549   0.661   4.580   3.466
 4550SOL    HW214550   0.581   4.589   3.608
 4551SOL     OW14551   1.016   4.165   5.071
 4551SOL    HW114552   0.958   4.152   4.990
 4551SOL    HW214553   1.005   4.087   5.132
 4552SOL     OW14554   5.896   2.021   2.069
 4552SOL    HW114555   5.850   2.028   2.157
 4552SOL    HW214556   5.836   2.054   1.996
 4553SOL     OW14557   5.379   4.485   6.790
 4553SOL    HW114558   5.334   4.447   6.709
 4553SOL    HW214559   5.430   4.567   6.764
 4554SOL     OW14560   0.279   6.283   1.131
 4554SOL    HW114561   0.339   6.335   1.069
 4554SOL    HW214562   0.287   6.320   1.224
 4555SOL     OW14563   1.099   0.978   6.592
 4555SOL    HW114564   1.192   0.962   6.626
 4555SOL    HW214565   1.098   1.059   6.534
 4556SOL     OW14566   6.041   3.243   5.246
 4556SOL    HW114567   5.955   3.294   5.246
 4556SOL    HW214568   6.066   3.220   5.340
 4557SOL     OW14569   6.029   5.078   4.984
 4557SOL    HW114570   6.120   5.043   5.008
 4557SOL    HW214571   5.959   5.018   5.022
 4558SOL     OW14572   6.741   3.182   5.099
 4558SOL    HW114573   6.822   3.228   5.064
 4558SOL    HW214574   6.660   3.216   5.050
 4559SOL     OW14575   0.255   3.368   2.704
 4559SOL    HW114576   0.162   3.404   2.715
 4559SOL    HW214577   0.283   3.322   2.789
 4560SOL     OW14578   6.289   4.441   2.422
 4560SOL    HW114579   6.210   4.382   2.438
 4560SOL    HW214580   6.369   4.385   2.403
 4561SOL     OW14581   3.471   2.027   3.907
 4561SOL    HW114582   3.504   2.048   3.998
 4561SOL    HW214583   3.417   1.942   3.909
 4562SOL     OW14584   2.481   6.328   0.493
 4562SOL    HW114585   2.480   6.399   0.564
 4562SOL    HW214586   2.531   6.248   0.526
 4563SOL     OW14587   6.773   3.515   1.634
 4563SOL    HW114588   6.681   3.507   1.672
 4563SOL    HW214589   6.838   3.535   1.708
 4564SOL     OW14590   0.055   4.228   2.144
 4564SOL    HW114591   7.003   4.245   2.210
 4564SOL    HW214592   0.129   4.293   2.158
 4565SOL     OW14593   1.574   0.970   4.448
 4565SOL    HW114594   1.636   0.954   4.371
 4565SOL    HW214595   1.561   0.885   4.499
 4566SOL     OW14596   0.408   3.683   1.155
 4566SOL    HW114597   0.488   3.742   1.143
 4566SOL    HW214598   0.362   3.707   1.241
 4567SOL     OW14599   6.683   0.574   6.869
 4567SOL    HW114600   6.682   0.480   6.837
 4567SOL    HW214601   6.659   0.635   6.794
 4568SOL     OW14602   0.636   4.202   4.982
 4568SOL    HW114603   0.704   4.198   4.909
 4568SOL    HW214604   0.551   4.240   4.945
 4569SOL     OW14605   3.092   0.853   2.922
 4569SOL    HW114606   3.054   0.773   2.969
 4569SOL    HW214607   3.192   0.851   2.928
 4570SOL     OW14608   5.979   6.105   2.114
 4570SOL    HW114609   6.077   6.089   2.123
 4570SOL    HW214610   5.951   6.177   2.178
 4571SOL     OW14611   4.996   2.929   6.604
 4571SOL    HW114612   5.091   2.958   6.607
 4571SOL    HW214613   4.985   2.860   6.532
 4572SOL     OW14614   2.660   2.118   6.432
 4572SOL    HW114615   2.589   2.137   6.364
 4572SOL    HW214616   2.700   2.028   6.415
 4573SOL     OW14617   1.058   7.020   0.723
 4573SOL    HW114618   0.961   0.011   0.742
 4573SOL    HW214619   1.076   6.923   0.703
 4574SOL     OW14620   6.046   4.137   0.103
 4574SOL    HW114621   6.038   4.099   0.011
 4574SOL    HW214622   6.143   4.144   0.128
 4575SOL     OW14623   6.084   0.867   4.183
 4575SOL    HW114624   6.165   0.923   4.164
 4575SOL    HW214625   6.094   0.823   4.272
 4576SOL     OW14626   2.443   4.842   5.050
 4576SOL    HW114627   2.479   4.862   4.959
 4576SOL    HW214628   2.513   4.795   5.104
 4577SOL     OW14629   1.072   2.539   2.642
 4577SOL    HW114630   1.135   2.463   2.654
 4577SOL    HW214631   1.120   2.626   2.656
 4578SOL     OW14632   0.066   0.625   3.499
 4578SOL    HW114633   0.096   0.538   3.461
 4578SOL    HW214634   0.132   0.696   3.478
 4579SOL     OW14635   4.725   1.234   1.643
 4579SOL    HW114636   4.732   1.181   1.727
 4579SOL    HW214637   4.812   1.230   1.594
 4580SOL     OW14638   5.588   4.133   0.652
 4580SOL    HW114639   5.633   4.076   0.722
 4580SOL    HW214640   5.638   4.219   0.642
 4581SOL     OW14641   2.876   6.694   2.221
 4581SOL    HW114642   2.839   6.647   2.301
 4581SOL    HW214643   2.822   6.776   2.203
 4582SOL     OW14644   4.582   0.594   2.863
 4582SOL    HW114645   4.492   0.567   2.830
 4582SOL    HW214646   4.647   0.519   2.850
 4583SOL     OW14647   2.166   1.062   6.350
 4583SOL    HW114648   2.109   1.042   6.270
 4583SOL    HW214649   2.118   1.036   6.433
 4584SOL     OW14650   1.768   6.877   5.704
 4584SOL    HW114651   1.775   6.974   5.728
 4584SOL    HW214652   1.851   6.829   5.734
 4585SOL     OW14653   1.660   3.771   3.414
 4585SOL    HW114654   1.562   3.752   3.422
 4585SOL    HW214655   1.712   3.696   3.455
 4586SOL     OW14656   4.946   4.383   0.633
 4586SOL    HW114657   4.942   4.324   0.553
 4586SOL    HW214658   4.881   4.350   0.702
 4587SOL     OW14659   3.526   3.503   4.722
 4587SOL    HW114660   3.530   3.552   4.809
 4587SOL    HW214661   3.619   3.485   4.690
 4588SOL     OW14662   3.127   3.350   5.597
 4588SOL    HW114663   3.162   3.431   5.551
 4588SOL    HW214664   3.182   3.332   5.680
 4589SOL     OW14665   5.510   5.554   2.108
 4589SOL    HW114666   5.471   5.646   2.107
 4589SOL    HW214667   5.511   5.520   2.202
 4590SOL     OW14668   3.642   5.877   2.078
 4590SOL    HW114669   3.633   5.977   2.084
 4590SOL    HW214670   3.597   5.845   1.995
 4591SOL     OW14671   2.432   0.614   5.095
 4591SOL    HW114672   2.471   0.581   5.182
 4591SOL    HW214673   2.373   0.544   5.056
 4592SOL     OW14674   2.665   1.891   3.482
 4592SOL    HW114675   2.622   1.800   3.479
 4592SOL    HW214676   2.705   1.906   3.572
 4593SOL     OW14677   6.736   5.789   2.767
 4593SOL    HW114678   6.818   5.827   2.809
 4593SOL    HW214679   6.756   5.763   2.672
 4594SOL     OW14680   2.642   6.997   2.898
 4594SOL    HW114681   2.686   0.057   2.935
 4594SOL    HW214682   2.565   0.002   2.840
 4595SOL     OW14683   4.790   2.580   5.758
 4595SOL    HW114684   4.762   2.673   5.784
 4595SOL    HW214685   4.890   2.577   5.749
 4596SOL     OW14686   0.197   1.273   1.821
 4596SOL    HW114687   0.173   1.345   1.886
 4596SOL    HW214688   0.297   1.272   1.808
 4597SOL     OW14689   2.465   5.287   6.638
 4597SOL    HW114690   2.482   5.369   6.693
 4597SOL    HW214691   2.388   5.236   6.677
 4598SOL     OW14692   2.427   5.254   0.199
 4598SOL    HW114693   2.459   5.166   0.232
 4598SOL    HW214694   2.482   5.327   0.240
 4599SOL     OW14695   1.755   3.418   1.990
 4599SOL    HW114696   1.740   3.321   1.969
 4599SOL    HW214697   1.829   3.453   1.933
 4600SOL     OW14698   0.341   6.915   6.368
 4600SOL    HW114699   0.245   6.888   6.375
 4600SOL    HW214700   0.356   6.964   6.282
 4601SOL     OW14701   0.896   0.889   4.829
 4601SOL    HW114702   0.843   0.873   4.912
 4601SOL    HW214703   0.918   0.802   4.785
 4602SOL     OW14704   2.591   0.042   6.086
 4602SOL    HW114705   2.671   0.036   6.145
 4602SOL    HW214706   2.556   6.972   6.067
 4603SOL     OW14707   3.816   6.099   1.130
 4603SOL    HW114708   3.863   6.184   1.109
 4603SOL    HW214709   3.858   6.057   1.210
 4604SOL     OW14710   4.848   6.917   5.534
 4604SOL    HW114711   4.905   6.998   5.552
 4604SOL    HW214712   4.907   6.837   5.523
 4605SOL     OW14713   1.910   0.260   1.822
 4605SOL    HW114714   1.914   0.273   1.723
 4605SOL    HW214715   1.998   0.286   1.863
 4606SOL     OW14716   0.288   6.821   2.778
 4606SOL    HW114717   0.276   6.919   2.796
 4606SOL    HW214718   0.314   6.774   2.862
 4607SOL     OW14719   2.077   3.706   3.208
 4607SOL    HW114720   1.980   3.685   3.194
 4607SOL    HW214721   2.087   3.796   3.251
 4608SOL     OW14722   0.363   3.188   4.187
 4608SOL    HW114723   0.385   3.219   4.280
 4608SOL    HW214724   0.291   3.246   4.150
 4609SOL     OW14725   4.667   5.820   6.727
 4609SOL    HW114726   4.637   5.797   6.634
 4609SOL    HW214727   4.760   5.786   6.741
 4610SOL     OW14728   5.526   2.222   7.000
 4610SOL    HW114729   5.465   2.144   7.015
 4610SOL    HW214730   5.576   2.242   0.063
 4611SOL     OW14731   0.353   1.001   5.754
 4611SOL    HW114732   0.336   0.928   5.687
 4611SOL    HW214733   0.347   0.963   5.846
 4612SOL     OW14734   2.349   6.200   2.023
 4612SOL    HW114735   2.327   6.139   1.947
 4612SOL    HW214736   2.445   6.189   2.048
 4613SOL     OW14737   2.169   4.897   2.678
 4613SOL    HW114738   2.125   4.971   2.729
 4613SOL    HW214739   2.104   4.857   2.614
 4614SOL     OW14740   6.495   3.605   3.927
 4614SOL    HW114741   6.412   3.552   3.908
 4614SOL    HW214742   6.469   3.696   3.958
 4615SOL     OW14743   1.074   0.685   1.389
 4615SOL    HW114744   1.002   0.737   1.435
 4615SOL    HW214745   1.156   0.685   1.445
 4616SOL     OW14746   6.517   2.490   4.854
 4616SOL    HW114747   6.461   2.409   4.871
 4616SOL    HW214748   6.457   2.568   4.837
 4617SOL     OW14749   0.884   2.765   2.197
 4617SOL    HW114750   0.847   2.810   2.116
 4617SOL    HW214751   0.851   2.671   2.201
 4618SOL     OW14752   2.583   3.489   5.405
 4618SOL    HW114753   2.679   3.493   5.429
 4618SOL    HW214754   2.538   3.576   5.426
 4619SOL     OW14755   3.214   6.268   3.718
 4619SOL    HW114756   3.160   6.320   3.653
 4619SOL    HW214757   3.307   6.305   3.721
 4620SOL     OW14758   0.797   5.506   1.423
 4620SOL    HW114759   0.705   5.484   1.393
 4620SOL    HW214760   0.818   5.457   1.507
 4621SOL     OW14761   4.831   0.316   1.969
 4621SOL    HW114762   4.899   0.357   1.908
 4621SOL    HW214763   4.874   0.247   2.027
 4622SOL     OW14764   4.476   4.788   0.916
 4622SOL    HW114765   4.501   4.722   0.845
 4622SOL    HW214766   4.484   4.744   1.006
 4623SOL     OW14767   4.078   5.526   1.213
 4623SOL    HW114768   3.986   5.564   1.202
 4623SOL    HW214769   4.075   5.449   1.278
 4624SOL     OW14770   3.852   1.464   3.046
 4624SOL    HW114771   3.841   1.458   3.146
 4624SOL    HW214772   3.931   1.521   3.025
 4625SOL     OW14773   2.283   5.793   1.809
 4625SOL    HW114774   2.335   5.717   1.771
 4625SOL    HW214775   2.218   5.759   1.876
 4626SOL     OW14776   4.119   3.721   1.742
 4626SOL    HW114777   4.050   3.724   1.670
 4626SOL    HW214778   4.183   3.797   1.731
 4627SOL     OW14779   0.237   5.855   4.877
 4627SOL    HW114780   0.327   5.818   4.857
 4627SOL    HW214781   0.243   5.919   4.954
 4628SOL     OW14782   4.632   4.842   3.101
 4628SOL    HW114783   4.613   4.831   3.199
 4628SOL    HW214784   4.546   4.843   3.051
 4629SOL     OW14785   2.205   5.446   6.075
 4629SOL    HW114786   2.240   5.534   6.108
 4629SOL    HW214787   2.241   5.429   5.983
 4630SOL     OW14788   1.620   5.354   2.713
 4630SOL    HW114789   1.601   5.376   2.809
 4630SOL    HW214790   1.668   5.431   2.670
 4631SOL     OW14791   1.152   0.168   3.599
 4631SOL    HW114792   1.202   0.089   3.635
 4631SOL    HW214793   1.055   0.145   3.593
 4632SOL     OW14794   2.609   5.499   2.801
 4632SOL    HW114795   2.697   5.545   2.814
 4632SOL    HW214796   2.557   5.544   2.728
 4633SOL     OW14797   4.904   1.605   4.227
 4633SOL    HW114798   4.884   1.664   4.305
 4633SOL    HW214799   4.826   1.544   4.210
 4634SOL     OW14800   2.948   3.750   5.003
 4634SOL    HW114801   2.882   3.792   5.066
 4634SOL    HW214802   2.969   3.658   5.034
 4635SOL     OW14803   4.192   4.900   0.943
 4635SOL    HW114804   4.291   4.888   0.928
 4635SOL    HW214805   4.169   4.874   1.036
 4636SOL     OW14806   1.713   4.913   0.626
 4636SOL    HW114807   1.617   4.942   0.624
 4636SOL    HW214808   1.736   4.885   0.719
 4637SOL     OW14809   1.231   6.810   0.890
 4637SOL    HW114810   1.287   6.742   0.938
 4637SOL    HW214811   1.183   6.766   0.815
 4638SOL     OW14812   3.246   5.030   6.810
 4638SOL    HW114813   3.212   5.122   6.827
 4638SOL    HW214814   3.320   5.033   6.743
 4639SOL     OW14815   2.841   2.148   6.748
 4639SOL    HW114816   2.774   2.078   6.775
 4639SOL    HW214817   2.927   2.104   6.722
 4640SOL     OW14818   6.077   2.400   4.894
 4640SOL    HW114819   6.119   2.481   4.935
 4640SOL    HW214820   6.077   2.410   4.794
 4641SOL     OW14821   2.009   0.051   3.982
 4641SOL    HW114822   1.914   0.029   3.956
 4641SOL    HW214823   2.021   0.150   3.984
 4642SOL     OW14824   1.651   1.262   3.850
 4642SOL    HW114825   1.636   1.202   3.929
 4642SOL    HW214826   1.743   1.247   3.814
 4643SOL     OW14827   6.552   2.013   0.129
 4643SOL    HW114828   6.514   2.087   0.185
 4643SOL    HW214829   6.545   1.927   0.179
 4644SOL     OW14830   6.949   0.819   5.760
 4644SOL    HW114831   6.853   0.809   5.786
 4644SOL    HW214832   6.963   0.906   5.713
 4645SOL     OW14833   1.449   0.727   4.008
 4645SOL    HW114834   1.389   0.782   4.066
 4645SOL    HW214835   1.523   0.785   3.973
 4646SOL     OW14836   2.590   4.989   4.618
 4646SOL    HW114837   2.530   4.937   4.557
 4646SOL    HW214838   2.535   5.038   4.685
 4647SOL     OW14839   1.661   6.868   3.033
 4647SOL    HW114840   1.740   6.926   3.013
 4647SOL    HW214841   1.609   6.853   2.948
 4648SOL     OW14842   2.741   0.933   4.147
 4648SOL    HW114843   2.673   0.955   4.077
 4648SOL    HW214844   2.831   0.965   4.117
 4649SOL     OW14845   5.840   1.026   1.146
 4649SOL    HW114846   5.749   0.985   1.138
 4649SOL    HW214847   5.888   1.016   1.059
 4650SOL     OW14848   4.467   6.024   0.896
 4650SOL    HW114849   4.472   5.926   0.877
 4650SOL    HW214850   4.487   6.040   0.993
 4651SOL     OW14851   6.139   3.856   6.614
 4651SOL    HW114852   6.069   3.814   6.672
 4651SOL    HW214853   6.218   3.881   6.670
 4652SOL     OW14854   6.924   6.240   3.957
 4652SOL    HW114855   6.929   6.297   4.038
 4652SOL    HW214856   7.013   6.198   3.939
 4653SOL     OW14857   4.899   5.917   0.304
 4653SOL    HW114858   4.865   5.898   0.396
 4653SOL    HW214859   4.877   5.840   0.244
 4654SOL     OW14860   6.866   6.531   5.147
 4654SOL    HW114861   6.847   6.437   5.177
 4654SOL    HW214862   6.948   6.565   5.193
 4655SOL     OW14863   5.135   3.694   1.789
 4655SOL    HW114864   5.042   3.723   1.813
 4655SOL    HW214865   5.200   3.736   1.851
 4656SOL     OW14866   0.689   0.226   1.502
 4656SOL    HW114867   0.757   0.269   1.442
 4656SOL    HW214868   0.691   0.269   1.592
 4657SOL     OW14869   5.525   6.130   1.550
 4657SOL    HW114870   5.493   6.036   1.543
 4657SOL    HW214871   5.602   6.144   1.489
 4658SOL     OW14872   3.008   2.736   5.775
 4658SOL    HW114873   3.000   2.832   5.748
 4658SOL    HW214874   3.104   2.714   5.791
 4659SOL     OW14875   3.562   4.377   1.453
 4659SOL    HW114876   3.477   4.354   1.405
 4659SOL    HW214877   3.544   4.382   1.552
 4660SOL     OW14878   1.645   0.064   4.198
 4660SOL    HW114879   1.676   0.065   4.103
 4660SOL    HW214880   1.723   0.058   4.259
 4661SOL     OW14881   2.263   4.510   5.576
 4661SOL    HW114882   2.249   4.439   5.507
 4661SOL    HW214883   2.192   4.580   5.567
 4662SOL     OW14884   2.795   0.245   5.227
 4662SOL    HW114885   2.768   0.275   5.135
 4662SOL    HW214886   2.879   0.291   5.254
 4663SOL     OW14887   1.405   6.590   0.111
 4663SOL    HW114888   1.378   6.652   0.185
 4663SOL    HW214889   1.421   6.642   0.028
 4664SOL     OW14890   0.015   6.977   0.860
 4664SOL    HW114891   0.092   0.013   0.887
 4664SOL    HW214892   6.966   0.012   0.817
 4665SOL     OW14893   2.030   1.008   6.090
 4665SOL    HW114894   1.932   1.009   6.072
 4665SOL    HW214895   2.070   1.095   6.061
 4666SOL     OW14896   1.889   2.399   0.015
 4666SOL    HW114897   1.846   2.331   6.977
 4666SOL    HW214898   1.840   2.403   0.102
 4667SOL     OW14899   6.555   3.915   1.858
 4667SOL    HW114900   6.635   3.975   1.857
 4667SOL    HW214901   6.584   3.821   1.877
 4668SOL     OW14902   4.166   2.149   5.164
 4668SOL    HW114903   4.136   2.079   5.099
 4668SOL    HW214904   4.164   2.238   5.119
 4669SOL     OW14905   4.870   0.162   6.901
 4669SOL    HW114906   4.773   0.156   6.876
 4669SOL    HW214907   4.885   0.245   6.954
 4670SOL     OW14908   1.373   3.376   0.302
 4670SOL    HW114909   1.337   3.460   0.342
 4670SOL    HW214910   1.375   3.304   0.371
 4671SOL     OW14911   0.708   3.372   0.273
 4671SOL    HW114912   0.772   3.350   0.199
 4671SOL    HW214913   0.757   3.370   0.360
 4672SOL     OW14914   4.580   4.326   6.318
 4672SOL    HW114915   4.487   4.303   6.287
 4672SOL    HW214916   4.613   4.405   6.267
 4673SOL     OW14917   5.184   0.370   0.015
 4673SOL    HW114918   5.281   0.344   0.005
 4673SOL    HW214919   5.178   0.467   0.038
 4674SOL     OW14920   6.512   1.241   0.485
 4674SOL    HW114921   6.607   1.229   0.515
 4674SOL    HW214922   6.453   1.180   0.537
 4675SOL     OW14923   3.787   0.148   6.681
 4675SOL    HW114924   3.692   0.129   6.705
 4675SOL    HW214925   3.848   0.101   6.744
 4676SOL     OW14926   0.841   6.700   4.248
 4676SOL    HW114927   0.937   6.691   4.274
 4676SOL    HW214928   0.789   6.735   4.326
 4677SOL     OW14929   2.731   0.292   6.974
 4677SOL    HW114930   2.649   0.258   7.020
 4677SOL    HW214931   2.798   0.218   6.965
 4678SOL     OW14932   1.933   5.418   1.934
 4678SOL    HW114933   2.014   5.360   1.923
 4678SOL    HW214934   1.894   5.438   1.844
 4679SOL     OW14935   2.645   1.354   5.888
 4679SOL    HW114936   2.740   1.386   5.886
 4679SOL    HW214937   2.602   1.382   5.974
 4680SOL     OW14938   2.284   5.299   1.369
 4680SOL    HW114939   2.320   5.206   1.379
 4680SOL    HW214940   2.286   5.325   1.273
 4681SOL     OW14941   6.822   6.165   4.336
 4681SOL    HW114942   6.879   6.084   4.346
 4681SOL    HW214943   6.808   6.208   4.425
 4682SOL     OW14944   4.093   5.624   6.798
 4682SOL    HW114945   4.153   5.558   6.754
 4682SOL    HW214946   4.059   5.689   6.729
 4683SOL     OW14947   5.699   4.108   2.766
 4683SOL    HW114948   5.755   4.026   2.775
 4683SOL    HW214949   5.666   4.116   2.672
 4684SOL     OW14950   1.046   2.130   4.283
 4684SOL    HW114951   1.082   2.085   4.365
 4684SOL    HW214952   0.977   2.197   4.308
 4685SOL     OW14953   6.733   5.619   4.735
 4685SOL    HW114954   6.750   5.602   4.832
 4685SOL    HW214955   6.820   5.634   4.688
 4686SOL     OW14956   5.278   5.282   0.408
 4686SOL    HW114957   5.289   5.218   0.333
 4686SOL    HW214958   5.230   5.238   0.484
 4687SOL     OW14959   6.387   4.370   4.751
 4687SOL    HW114960   6.481   4.399   4.766
 4687SOL    HW214961   6.339   4.361   4.838
 4688SOL     OW14962   0.891   3.417   6.851
 4688SOL    HW114963   0.986   3.386   6.848
 4688SOL    HW214964   0.885   3.503   6.902
 4689SOL     OW14965   6.232   0.322   5.557
 4689SOL    HW114966   6.325   0.328   5.521
 4689SOL    HW214967   6.226   0.374   5.642
 4690SOL     OW14968   1.135   1.235   6.826
 4690SOL    HW114969   1.056   1.295   6.834
 4690SOL    HW214970   1.155   1.219   6.730
 4691SOL     OW14971   2.575   4.014   0.874
 4691SOL    HW114972   2.478   4.029   0.855
 4691SOL    HW214973   2.631   4.069   0.812
 4692SOL     OW14974   0.063   5.259   2.593
 4692SOL    HW114975   0.152   5.214   2.592
 4692SOL    HW214976   0.028   5.267   2.500
 4693SOL     OW14977   0.264   1.651   4.947
 4693SOL    HW114978   0.256   1.713   4.869
 4693SOL    HW214979   0.181   1.657   5.003
 4694SOL     OW14980   2.950   0.631   0.203
 4694SOL    HW114981   2.919   0.542   0.170
 4694SOL    HW214982   2.871   0.691   0.217
 4695SOL     OW14983   3.840   3.263   1.519
 4695SOL    HW114984   3.833   3.311   1.607
 4695SOL    HW214985   3.866   3.168   1.535
 4696SOL     OW14986   1.183   4.111   6.057
 4696SOL    HW114987   1.120   4.189   6.063
 4696SOL    HW214988   1.215   4.087   6.149
 4697SOL     OW14989   1.657   3.487   0.813
 4697SOL    HW114990   1.635   3.457   0.720
 4697SOL    HW214991   1.755   3.477   0.829
 4698SOL     OW14992   5.148   4.725   2.254
 4698SOL    HW114993   5.071   4.662   2.262
 4698SOL    HW214994   5.129   4.793   2.184
 4699SOL     OW14995   0.338   6.746   2.515
 4699SOL    HW114996   0.344   6.830   2.461
 4699SOL    HW214997   0.304   6.768   2.606
 4700SOL     OW14998   5.519   2.084   1.760
 4700SOL    HW114999   5.454   2.154   1.790
 4700SOL    HW215000   5.471   2.012   1.710
 4701SOL     OW15001   0.835   1.362   0.127
 4701SOL    HW115002   0.850   1.364   0.028
 4701SOL    HW215003   0.751   1.312   0.146
 4702SOL     OW15004   4.669   3.992   6.713
 4702SOL    HW115005   4.679   4.044   6.629
 4702SOL    HW215006   4.578   4.008   6.752
 4703SOL     OW15007   1.132   1.866   2.934
 4703SOL    HW115008   1.073   1.942   2.960
 4703SOL    HW215009   1.224   1.880   2.971
 4704SOL     OW15010   0.161   5.995   0.805
 4704SOL    HW115011   0.245   6.049   0.810
 4704SOL    HW215012   0.171   5.922   0.737
 4705SOL     OW15013   3.724   2.872   3.546
 4705SOL    HW115014   3.629   2.890   3.524
 4705SOL    HW215015   3.732   2.782   3.589
 4706SOL     OW15016   3.559   5.942   6.762
 4706SOL    HW115017   3.628   6.009   6.734
 4706SOL    HW215018   3.569   5.859   6.708
 4707SOL     OW15019   2.143   5.783   1.173
 4707SOL    HW115020   2.167   5.865   1.120
 4707SOL    HW215021   2.058   5.799   1.223
 4708SOL     OW15022   2.707   2.817   0.818
 4708SOL    HW115023   2.734   2.724   0.795
 4708SOL    HW215024   2.775   2.881   0.783
 4709SOL     OW15025   4.060   5.270   4.964
 4709SOL    HW115026   4.137   5.244   4.906
 4709SOL    HW215027   4.089   5.275   5.059
 4710SOL     OW15028   4.799   1.338   6.413
 4710SOL    HW115029   4.817   1.420   6.468
 4710SOL    HW215030   4.728   1.284   6.457
 4711SOL     OW15031   3.592   0.179   2.330
 4711SOL    HW115032   3.494   0.161   2.320
 4711SOL    HW215033   3.610   0.275   2.313
 4712SOL     OW15034   2.519   4.453   1.038
 4712SOL    HW115035   2.545   4.358   1.056
 4712SOL    HW215036   2.549   4.511   1.114
 4713SOL     OW15037   3.289   4.473   1.510
 4713SOL    HW115038   3.278   4.398   1.445
 4713SOL    HW215039   3.202   4.494   1.553
 4714SOL     OW15040   1.914   1.398   0.710
 4714SOL    HW115041   1.850   1.430   0.640
 4714SOL    HW215042   1.987   1.344   0.668
 4715SOL     OW15043   6.436   3.281   2.203
 4715SOL    HW115044   6.533   3.296   2.223
 4715SOL    HW215045   6.425   3.190   2.163
 4716SOL     OW15046   3.758   4.352   6.167
 4716SOL    HW115047   3.805   4.434   6.202
 4716SOL    HW215048   3.699   4.378   6.091
 4717SOL     OW15049   1.036   5.929   2.209
 4717SOL    HW115050   0.986   5.861   2.263
 4717SOL    HW215051   1.121   5.887   2.175
 4718SOL     OW15052   4.940   1.710   6.412
 4718SOL    HW115053   4.921   1.646   6.486
 4718SOL    HW215054   4.973   1.797   6.450
 4719SOL     OW15055   5.023   3.682   3.303
 4719SOL    HW115056   4.950   3.745   3.274
 4719SOL    HW215057   5.007   3.592   3.262
 4720SOL     OW15058   2.312   6.664   5.726
 4720SOL    HW115059   2.240   6.627   5.785
 4720SOL    HW215060   2.348   6.748   5.767
 4721SOL     OW15061   0.412   2.275   1.445
 4721SOL    HW115062   0.448   2.185   1.420
 4721SOL    HW215063   0.408   2.333   1.365
 4722SOL     OW15064   1.761   6.175   0.150
 4722SOL    HW115065   1.791   6.134   0.236
 4722SOL    HW215066   1.691   6.244   0.169
 4723SOL     OW15067   2.033   6.137   6.182
 4723SOL    HW115068   1.988   6.066   6.127
 4723SOL    HW215069   2.090   6.194   6.122
 4724SOL     OW15070   4.410   6.319   2.735
 4724SOL    HW115071   4.446   6.348   2.647
 4724SOL    HW215072   4.316   6.287   2.725
 4725SOL     OW15073   5.280   6.299   3.123
 4725SOL    HW115074   5.305   6.356   3.202
 4725SOL    HW215075   5.230   6.218   3.155
 4726SOL     OW15076   1.067   3.798   6.499
 4726SOL    HW115077   0.969   3.810   6.488
 4726SOL    HW215078   1.107   3.882   6.537
 4727SOL     OW15079   0.035   5.681   0.069
 4727SOL    HW115080   0.035   5.780   0.056
 4727SOL    HW215081   0.032   5.660   0.166
 4728SOL     OW15082   5.927   1.453   0.690
 4728SOL    HW115083   5.864   1.518   0.646
 4728SOL    HW215084   5.992   1.503   0.747
 4729SOL     OW15085   1.738   0.827   3.080
 4729SOL    HW115086   1.643   0.803   3.100
 4729SOL    HW215087   1.782   0.862   3.163
 4730SOL     OW15088   2.681   6.026   5.545
 4730SOL    HW115089   2.780   6.012   5.547
 4730SOL    HW215090   2.635   5.941   5.519
 4731SOL     OW15091   5.914   0.658   5.303
 4731SOL    HW115092   5.820   0.631   5.324
 4731SOL    HW215093   5.976   0.581   5.319
 4732SOL     OW15094   6.813   3.486   6.590
 4732SOL    HW115095   6.815   3.393   6.554
 4732SOL    HW215096   6.814   3.483   6.690
 4733SOL     OW15097   0.409   3.868   2.800
 4733SOL    HW115098   0.328   3.921   2.774
 4733SOL    HW215099   0.490   3.927   2.794
 4734SOL     OW15100   5.581   2.912   6.622
 4734SOL    HW115101   5.577   2.973   6.701
 4734SOL    HW215102   5.661   2.934   6.567
 4735SOL     OW15103   1.280   4.342   3.571
 4735SOL    HW115104   1.351   4.360   3.638
 4735SOL    HW215105   1.191   4.341   3.616
 4736SOL     OW15106   0.013   0.898   6.413
 4736SOL    HW115107   0.111   0.880   6.415
 4736SOL    HW215108   7.005   0.909   6.318
 4737SOL     OW15109   2.481   4.654   2.026
 4737SOL    HW115110   2.479   4.585   1.954
 4737SOL    HW215111   2.494   4.610   2.115
 4738SOL     OW15112   6.876   6.092   1.466
 4738SOL    HW115113   6.937   6.069   1.391
 4738SOL    HW215114   6.813   6.016   1.484
 4739SOL     OW15115   4.071   0.387   2.046
 4739SOL    HW115116   4.064   0.301   2.096
 4739SOL    HW215117   4.138   0.447   2.091
 4740SOL     OW15118   0.403   1.673   2.470
 4740SOL    HW115119   0.365   1.627   2.550
 4740SOL    HW215120   0.329   1.710   2.414
 4741SOL     OW15121   3.905   2.554   1.424
 4741SOL    HW115122   3.871   2.477   1.371
 4741SOL    HW215123   3.907   2.529   1.521
 4742SOL     OW15124   2.294   6.806   0.230
 4742SOL    HW115125   2.306   6.905   0.239
 4742SOL    HW215126   2.384   6.762   0.222
 4743SOL     OW15127   1.831   3.850   2.490
 4743SOL    HW115128   1.928   3.848   2.463
 4743SOL    HW215129   1.797   3.757   2.499
 4744SOL     OW15130   1.873   5.708   0.960
 4744SOL    HW115131   1.959   5.666   0.932
 4744SOL    HW215132   1.801   5.683   0.895
 4745SOL     OW15133   2.754   3.351   0.309
 4745SOL    HW115134   2.771   3.349   0.210
 4745SOL    HW215135   2.808   3.424   0.351
 4746SOL     OW15136   4.808   5.004   4.437
 4746SOL    HW115137   4.854   5.057   4.508
 4746SOL    HW215138   4.747   5.064   4.385
 4747SOL     OW15139   1.494   2.805   0.905
 4747SOL    HW115140   1.430   2.749   0.958
 4747SOL    HW215141   1.570   2.748   0.874
 4748SOL     OW15142   1.927   6.619   1.968
 4748SOL    HW115143   1.945   6.714   1.995
 4748SOL    HW215144   1.973   6.557   2.032
 4749SOL     OW15145   2.492   7.020   0.403
 4749SOL    HW115146   2.578   0.050   0.398
 4749SOL    HW215147   2.431   0.044   0.468
 4750SOL     OW15148   6.132   4.076   5.387
 4750SOL    HW115149   6.166   3.994   5.435
 4750SOL    HW215150   6.156   4.071   5.291
 4751SOL     OW15151   4.531   1.649   2.150
 4751SOL    HW115152   4.497   1.721   2.089
 4751SOL    HW215153   4.603   1.597   2.104
 4752SOL     OW15154   4.634   1.527   0.418
 4752SOL    HW115155   4.689   1.595   0.466
 4752SOL    HW215156   4.682   1.439   0.419
 4753SOL     OW15157   1.359   6.769   4.638
 4753SOL    HW115158   1.433   6.769   4.705
 4753SOL    HW215159   1.318   6.678   4.633
 4754SOL     OW15160   4.449   4.076   6.201
 4754SOL    HW115161   4.388   4.143   6.159
 4754SOL    HW215162   4.544   4.108   6.194
 4755SOL     OW15163   1.382   0.443   1.610
 4755SOL    HW115164   1.396   0.487   1.521
 4755SOL    HW215165   1.456   0.377   1.626
 4756SOL     OW15166   6.573   4.544   0.280
 4756SOL    HW115167   6.520   4.492   0.347
 4756SOL    HW215168   6.530   4.634   0.266
 4757SOL     OW15169   1.199   2.744   1.401
 4757SOL    HW115170   1.129   2.698   1.347
 4757SOL    HW215171   1.276   2.768   1.342
 4758SOL     OW15172   1.625   0.215   3.410
 4758SOL    HW115173   1.710   0.254   3.375
 4758SOL    HW215174   1.588   0.275   3.481
 4759SOL     OW15175   1.002   5.361   0.271
 4759SOL    HW115176   0.963   5.352   0.363
 4759SOL    HW215177   0.964   5.290   0.212
 4760SOL     OW15178   1.315   0.009   1.040
 4760SOL    HW115179   1.274   0.081   0.984
 4760SOL    HW215180   1.309   6.943   0.993
 4761SOL     OW15181   0.246   6.696   0.613
 4761SOL    HW115182   0.174   6.742   0.562
 4761SOL    HW215183   0.275   6.753   0.690
 4762SOL     OW15184   1.837   5.704   2.117
 4762SOL    HW115185   1.762   5.673   2.058
 4762SOL    HW215186   1.838   5.803   2.121
 4763SOL     OW15187   4.760   6.046   2.102
 4763SOL    HW115188   4.719   5.955   2.105
 4763SOL    HW215189   4.854   6.039   2.066
 4764SOL     OW15190   4.818   3.675   5.339
 4764SOL    HW115191   4.778   3.706   5.425
 4764SOL    HW215192   4.747   3.637   5.280
 4765SOL     OW15193   3.055   1.338   5.034
 4765SOL    HW115194   3.141   1.314   4.990
 4765SOL    HW215195   2.988   1.265   5.020
 4766SOL     OW15196   5.766   6.691   4.460
 4766SOL    HW115197   5.777   6.750   4.540
 4766SOL    HW215198   5.826   6.724   4.386
 4767SOL     OW15199   2.339   5.489   5.038
 4767SOL    HW115200   2.300   5.404   5.074
 4767SOL    HW215201   2.390   5.535   5.111
 4768SOL     OW15202   4.488   2.739   6.510
 4768SOL    HW115203   4.541   2.694   6.437
 4768SOL    HW215204   4.524   2.832   6.524
 4769SOL     OW15205   3.148   5.987   1.105
 4769SOL    HW115206   3.101   5.955   1.023
 4769SOL    HW215207   3.139   6.086   1.112
 4770SOL     OW15208   6.598   1.672   5.681
 4770SOL    HW115209   6.664   1.678   5.757
 4770SOL    HW215210   6.523   1.736   5.697
 4771SOL     OW15211   2.331   0.114   5.394
 4771SOL    HW115212   2.419   0.091   5.353
 4771SOL    HW215213   2.301   0.038   5.452
 4772SOL     OW15214   3.014   5.111   0.879
 4772SOL    HW115215   2.952   5.068   0.814
 4772SOL    HW215216   3.022   5.055   0.961
 4773SOL     OW15217   2.390   5.964   4.862
 4773SOL    HW115218   2.423   5.920   4.946
 4773SOL    HW215219   2.304   6.012   4.881
 4774SOL     OW15220   1.909   4.256   0.778
 4774SOL    HW115221   1.816   4.284   0.801
 4774SOL    HW215222   1.949   4.322   0.714
 4775SOL     OW15223   5.116   6.272   4.510
 4775SOL    HW115224   5.081   6.197   4.566
 4775SOL    HW215225   5.046   6.302   4.446
 4776SOL     OW15226   1.285   0.394   5.472
 4776SOL    HW115227   1.323   0.444   5.550
 4776SOL    HW215228   1.230   0.317   5.504
 4777SOL     OW15229   1.192   5.341   0.633
 4777SOL    HW115230   1.096   5.352   0.609
 4777SOL    HW215231   1.200   5.316   0.729
 4778SOL     OW15232   0.782   2.524   4.688
 4778SOL    HW115233   0.708   2.457   4.684
 4778SOL    HW215234   0.857   2.486   4.742
 4779SOL     OW15235   6.323   0.393   4.109
 4779SOL    HW115236   6.297   0.487   4.133
 4779SOL    HW215237   6.249   0.351   4.057
 4780SOL     OW15238   5.695   2.561   5.455
 4780SOL    HW115239   5.598   2.582   5.471
 4780SOL    HW215240   5.733   2.515   5.535
 4781SOL     OW15241   2.240   5.768   2.737
 4781SOL    HW115242   2.326   5.752   2.688
 4781SOL    HW215243   2.169   5.794   2.672
 4782SOL     OW15244   5.259   5.447   6.131
 4782SOL    HW115245   5.186   5.393   6.089
 4782SOL    HW215246   5.246   5.544   6.108
 4783SOL     OW15247   5.877   4.061   0.552
 4783SOL    HW115248   5.928   4.147   0.562
 4783SOL    HW215249   5.924   4.002   0.486
 4784SOL     OW15250   5.972   2.392   6.349
 4784SOL    HW115251   6.054   2.446   6.366
 4784SOL    HW215252   5.891   2.444   6.375
 4785SOL     OW15253   0.555   6.245   3.010
 4785SOL    HW115254   0.599   6.171   2.958
 4785SOL    HW215255   0.604   6.330   2.994
 4786SOL     OW15256   2.756   6.905   0.915
 4786SOL    HW115257   2.692   6.972   0.877
 4786SOL    HW215258   2.710   6.817   0.923
 4787SOL     OW15259   4.192   1.979   4.267
 4787SOL    HW115260   4.185   1.980   4.167
 4787SOL    HW215261   4.148   2.060   4.305
 4788SOL     OW15262   6.267   5.951   6.998
 4788SOL    HW115263   6.248   5.910   6.909
 4788SOL    HW215264   6.197   5.922   0.042
 4789SOL     OW15265   4.823   1.814   1.974
 4789SOL    HW115266   4.766   1.871   1.914
 4789SOL    HW215267   4.827   1.855   2.065
 4790SOL     OW15268   5.387   1.578   5.308
 4790SOL    HW115269   5.425   1.580   5.215
 4790SOL    HW215270   5.315   1.509   5.313
 4791SOL     OW15271   0.563   3.191   1.291
 4791SOL    HW115272   0.515   3.249   1.356
 4791SOL    HW215273   0.603   3.247   1.219
 4792SOL     OW15274   1.733   4.336   4.621
 4792SOL    HW115275   1.725   4.281   4.704
 4792SOL    HW215276   1.814   4.306   4.570
 4793SOL     OW15277   1.248   4.278   6.351
 4793SOL    HW115278   1.161   4.316   6.382
 4793SOL    HW215279   1.234   4.184   6.321
 4794SOL     OW15280   4.715   0.251   3.838
 4794SOL    HW115281   4.764   0.321   3.890
 4794SOL    HW215282   4.779   0.202   3.779
 4795SOL     OW15283   0.577   1.609   4.087
 4795SOL    HW115284   0.661   1.561   4.062
 4795SOL    HW215285   0.584   1.706   4.061
 4796SOL     OW15286   3.758   1.356   6.010
 4796SOL    HW115287   3.675   1.328   6.059
 4796SOL    HW215288   3.739   1.359   5.911
 4797SOL     OW15289   0.447   5.222   4.601
 4797SOL    HW115290   0.501   5.290   4.652
 4797SOL    HW215291   0.401   5.266   4.525
 4798SOL     OW15292   5.138   5.143   6.504
 4798SOL    HW115293   5.099   5.195   6.428
 4798SOL    HW215294   5.181   5.060   6.469
 4799SOL     OW15295   2.988   2.136   6.158
 4799SOL    HW115296   2.898   2.178   6.175
 4799SOL    HW215297   2.977   2.037   6.150
 4800SOL     OW15298   2.208   4.715   0.595
 4800SOL    HW115299   2.271   4.699   0.519
 4800SOL    HW215300   2.259   4.715   0.681
 4801SOL     OW15301   5.007   2.398   1.320
 4801SOL    HW115302   4.937   2.332   1.294
 4801SOL    HW215303   4.995   2.422   1.417
 4802SOL     OW15304   0.377   6.192   2.034
 4802SOL    HW115305   0.386   6.165   1.938
 4802SOL    HW215306   0.425   6.126   2.092
 4803SOL     OW15307   5.584   4.958   0.144
 4803SOL    HW115308   5.638   4.893   0.197
 4803SOL    HW215309   5.537   4.910   0.070
 4804SOL     OW15310   4.986   1.560   0.630
 4804SOL    HW115311   4.937   1.643   0.601
 4804SOL    HW215312   5.033   1.578   0.717
 4805SOL     OW15313   6.771   1.901   1.932
 4805SOL    HW115314   6.851   1.859   1.888
 4805SOL    HW215315   6.754   1.990   1.891
 4806SOL     OW15316   1.376   3.268   2.869
 4806SOL    HW115317   1.279   3.253   2.888
 4806SOL    HW215318   1.384   3.327   2.788
 4807SOL     OW15319   1.147   3.381   6.807
 4807SOL    HW115320   1.213   3.369   6.882
 4807SOL    HW215321   1.171   3.463   6.754
 4808SOL     OW15322   3.997   6.288   1.065
 4808SOL    HW115323   4.068   6.359   1.060
 4808SOL    HW215324   3.972   6.260   0.972
 4809SOL     OW15325   3.493   4.676   1.490
 4809SOL    HW115326   3.438   4.593   1.482
 4809SOL    HW215327   3.493   4.724   1.403
 4810SOL     OW15328   0.751   4.165   3.898
 4810SOL    HW115329   0.831   4.203   3.944
 4810SOL    HW215330   0.668   4.207   3.935
 4811SOL     OW15331   3.363   3.715   4.517
 4811SOL    HW115332   3.347   3.812   4.537
 4811SOL    HW215333   3.381   3.666   4.603
 4812SOL     OW15334   0.772   6.518   1.691
 4812SOL    HW115335   0.706   6.443   1.701
 4812SOL    HW215336   0.757   6.585   1.763
 4813SOL     OW15337   6.191   1.488   0.034
 4813SOL    HW115338   6.232   1.420   0.095
 4813SOL    HW215339   6.119   1.445   7.001
 4814SOL     OW15340   6.999   4.201   1.827
 4814SOL    HW115341   7.004   4.205   1.927
 4814SOL    HW215342   7.006   4.293   1.789
 4815SOL     OW15343   5.627   4.920   2.718
 4815SOL    HW115344   5.642   4.892   2.812
 4815SOL    HW215345   5.713   4.953   2.678
 4816SOL     OW15346   1.846   6.551   1.615
 4816SOL    HW115347   1.775   6.521   1.679
 4816SOL    HW215348   1.878   6.642   1.641
 4817SOL     OW15349   3.498   0.900   1.360
 4817SOL    HW115350   3.473   0.893   1.456
 4817SOL    HW215351   3.423   0.864   1.304
 4818SOL     OW15352   2.683   0.358   4.547
 4818SOL    HW115353   2.654   0.267   4.575
 4818SOL    HW215354   2.773   0.377   4.585
 4819SOL     OW15355   2.765   1.998   1.197
 4819SOL    HW115356   2.800   2.022   1.288
 4819SOL    HW215357   2.822   1.926   1.157
 4820SOL     OW15358   0.275   3.200   2.081
 4820SOL    HW115359   0.343   3.260   2.124
 4820SOL    HW215360   0.306   3.105   2.088
 4821SOL     OW15361   6.460   5.703   1.600
 4821SOL    HW115362   6.463   5.753   1.514
 4821SOL    HW215363   6.383   5.734   1.655
 4822SOL     OW15364   1.729   3.753   3.731
 4822SOL    HW115365   1.768   3.842   3.755
 4822SOL    HW215366   1.712   3.750   3.632
 4823SOL     OW15367   1.214   0.179   3.924
 4823SOL    HW115368   1.129   0.153   3.969
 4823SOL    HW215369   1.236   0.112   3.852
 4824SOL     OW15370   5.159   2.267   3.102
 4824SOL    HW115371   5.244   2.247   3.053
 4824SOL    HW215372   5.115   2.348   3.062
 4825SOL     OW15373   1.532   3.269   4.273
 4825SOL    HW115374   1.435   3.284   4.258
 4825SOL    HW215375   1.552   3.171   4.268
 4826SOL     OW15376   0.419   6.473   0.487
 4826SOL    HW115377   0.372   6.558   0.512
 4826SOL    HW215378   0.363   6.395   0.516
 4827SOL     OW15379   4.560   1.209   1.075
 4827SOL    HW115380   4.650   1.246   1.054
 4827SOL    HW215381   4.570   1.127   1.132
 4828SOL     OW15382   5.453   3.657   1.564
 4828SOL    HW115383   5.356   3.679   1.571
 4828SOL    HW215384   5.495   3.714   1.493
 4829SOL     OW15385   3.285   0.230   5.963
 4829SOL    HW115386   3.381   0.207   5.947
 4829SOL    HW215387   3.229   0.149   5.945
 4830SOL     OW15388   5.052   6.091   3.636
 4830SOL    HW115389   5.115   6.080   3.559
 4830SOL    HW215390   5.098   6.138   3.711
 4831SOL     OW15391   6.620   4.926   4.989
 4831SOL    HW115392   6.670   4.872   5.057
 4831SOL    HW215393   6.680   4.947   4.913
 4832SOL     OW15394   3.607   2.532   5.810
 4832SOL    HW115395   3.564   2.487   5.731
 4832SOL    HW215396   3.581   2.629   5.810
 4833SOL     OW15397   4.629   1.408   2.985
 4833SOL    HW115398   4.721   1.448   2.982
 4833SOL    HW215399   4.612   1.371   3.077
 4834SOL     OW15400   3.972   0.781   0.669
 4834SOL    HW115401   4.024   0.773   0.585
 4834SOL    HW215402   3.941   0.875   0.680
 4835SOL     OW15403   1.643   0.137   6.434
 4835SOL    HW115404   1.548   0.127   6.466
 4835SOL    HW215405   1.644   0.185   6.347
 4836SOL     OW15406   4.581   1.830   3.990
 4836SOL    HW115407   4.528   1.849   3.908
 4836SOL    HW215408   4.521   1.834   4.070
 4837SOL     OW15409   3.022   2.918   1.432
 4837SOL    HW115410   3.044   2.961   1.345
 4837SOL    HW215411   3.073   2.833   1.442
 4838SOL     OW15412   3.720   4.919   2.137
 4838SOL    HW115413   3.810   4.901   2.097
 4838SOL    HW215414   3.658   4.844   2.113
 4839SOL     OW15415   0.278   4.787   5.223
 4839SOL    HW115416   0.373   4.767   5.200
 4839SOL    HW215417   0.218   4.749   5.153
 4840SOL     OW15418   5.544   6.394   0.062
 4840SOL    HW115419   5.514   6.395   0.158
 4840SOL    HW215420   5.464   6.398   0.002
 4841SOL     OW15421   3.507   5.640   1.508
 4841SOL    HW115422   3.482   5.688   1.423
 4841SOL    HW215423   3.592   5.678   1.545
 4842SOL     OW15424   3.658   5.282   2.123
 4842SOL    HW115425   3.604   5.291   2.040
 4842SOL    HW215426   3.755   5.283   2.100
 4843SOL     OW15427   6.866   3.750   6.937
 4843SOL    HW115428   6.952   3.704   6.916
 4843SOL    HW215429   6.878   3.808   7.019
 4844SOL     OW15430   6.796   4.035   6.924
 4844SOL    HW115431   6.777   3.938   6.914
 4844SOL    HW215432   6.876   4.060   6.869
 4845SOL     OW15433   6.435   5.581   4.478
 4845SOL    HW115434   6.463   5.500   4.529
 4845SOL    HW215435   6.358   5.625   4.525
 4846SOL     OW15436   0.641   3.620   0.772
 4846SOL    HW115437   0.612   3.558   0.845
 4846SOL    HW215438   0.705   3.687   0.808
 4847SOL     OW15439   3.719   1.998   5.957
 4847SOL    HW115440   3.729   2.058   6.036
 4847SOL    HW215441   3.686   2.051   5.878
 4848SOL     OW15442   1.809   1.662   4.070
 4848SOL    HW115443   1.884   1.625   4.015
 4848SOL    HW215444   1.724   1.616   4.045
 4849SOL     OW15445   1.639   6.665   6.696
 4849SOL    HW115446   1.705   6.614   6.751
 4849SOL    HW215447   1.685   6.701   6.614
 4850SOL     OW15448   3.590   0.766   1.835
 4850SOL    HW115449   3.607   0.864   1.826
 4850SOL    HW215450   3.587   0.742   1.932
 4851SOL     OW15451   4.020   6.419   5.416
 4851SOL    HW115452   3.997   6.383   5.506
 4851SOL    HW215453   3.957   6.493   5.393
 4852SOL     OW15454   1.492   0.275   0.218
 4852SOL    HW115455   1.516   0.190   0.266
 4852SOL    HW215456   1.484   0.256   0.120
 4853SOL     OW15457   3.518   1.489   2.519
 4853SOL    HW115458   3.599   1.431   2.529
 4853SOL    HW215459   3.436   1.435   2.539
 4854SOL     OW15460   4.598   6.135   2.480
 4854SOL    HW115461   4.573   6.159   2.386
 4854SOL    HW215462   4.526   6.081   2.521
 4855SOL     OW15463   5.804   1.753   1.905
 4855SOL    HW115464   5.812   1.846   1.868
 4855SOL    HW215465   5.707   1.729   1.912
 4856SOL     OW15466   2.701   4.804   3.125
 4856SOL    HW115467   2.687   4.884   3.066
 4856SOL    HW215468   2.620   4.745   3.121
 4857SOL     OW15469   1.315   1.678   5.771
 4857SOL    HW115470   1.273   1.743   5.835
 4857SOL    HW215471   1.372   1.614   5.822
 4858SOL     OW15472   1.553   1.469   4.017
 4858SOL    HW115473   1.587   1.390   3.967
 4858SOL    HW215474   1.579   1.462   4.113
 4859SOL     OW15475   1.442   5.847   4.046
 4859SOL    HW115476   1.387   5.769   4.016
 4859SOL    HW215477   1.463   5.838   4.143
 4860SOL     OW15478   3.929   5.304   2.045
 4860SOL    HW115479   3.935   5.233   1.975
 4860SOL    HW215480   4.003   5.291   2.111
 4861SOL     OW15481   5.488   5.349   0.003
 4861SOL    HW115482   5.423   5.390   6.961
 4861SOL    HW215483   5.446   5.270   0.047
 4862SOL     OW15484   2.426   5.107   4.369
 4862SOL    HW115485   2.430   5.008   4.383
 4862SOL    HW215486   2.382   5.150   4.448
 4863SOL     OW15487   5.931   4.832   0.665
 4863SOL    HW115488   5.975   4.797   0.747
 4863SOL    HW215489   5.930   4.761   0.595
 4864SOL     OW15490   3.352   1.171   4.064
 4864SOL    HW115491   3.434   1.212   4.104
 4864SOL    HW215492   3.289   1.244   4.036
 4865SOL     OW15493   2.314   0.314   5.172
 4865SOL    HW115494   2.328   0.245   5.243
 4865SOL    HW215495   2.220   0.310   5.139
 4866SOL     OW15496   6.646   3.860   1.208
 4866SOL    HW115497   6.596   3.825   1.129
 4866SOL    HW215498   6.612   3.817   1.291
 4867SOL     OW15499   4.544   5.388   2.231
 4867SOL    HW115500   4.483   5.464   2.207
 4867SOL    HW215501   4.621   5.423   2.284
 4868SOL     OW15502   6.530   4.962   2.128
 4868SOL    HW115503   6.516   4.866   2.152
 4868SOL    HW215504   6.564   4.968   2.034
 4869SOL     OW15505   1.249   1.496   0.744
 4869SOL    HW115506   1.179   1.427   0.726
 4869SOL    HW215507   1.215   1.560   0.813
 4870SOL     OW15508   0.626   6.297   1.828
 4870SOL    HW115509   0.593   6.214   1.783
 4870SOL    HW215510   0.720   6.283   1.859
 4871SOL     OW15511   0.972   0.638   4.772
 4871SOL    HW115512   1.029   0.614   4.693
 4871SOL    HW215513   1.020   0.612   4.856
 4872SOL     OW15514   6.650   6.702   2.906
 4872SOL    HW115515   6.741   6.692   2.948
 4872SOL    HW215516   6.655   6.677   2.809
 4873SOL     OW15517   0.000   5.695   4.570
 4873SOL    HW115518   0.085   5.643   4.581
 4873SOL    HW215519   7.012   5.759   4.646
 4874SOL     OW15520   5.114   2.849   2.489
 4874SOL    HW115521   5.106   2.923   2.422
 4874SOL    HW215522   5.039   2.784   2.475
 4875SOL     OW15523   5.378   0.277   6.725
 4875SOL    HW115524   5.287   0.277   6.684
 4875SOL    HW215525   5.398   0.187   6.764
 4876SOL     OW15526   6.756   1.525   3.607
 4876SOL    HW115527   6.686   1.487   3.667
 4876SOL    HW215528   6.727   1.517   3.512
 4877SOL     OW15529   0.242   2.321   5.211
 4877SOL    HW115530   0.233   2.417   5.239
 4877SOL    HW215531   0.153   2.287   5.183
 4878SOL     OW15532   6.886   1.917   2.372
 4878SOL    HW115533   6.811   1.900   2.308
 4878SOL    HW215534   6.887   2.014   2.397
 4879SOL     OW15535   4.639   1.983   1.840
 4879SOL    HW115536   4.593   2.064   1.876
 4879SOL    HW215537   4.571   1.914   1.814
 4880SOL     OW15538   6.284   3.563   0.094
 4880SOL    HW115539   6.191   3.532   0.078
 4880SOL    HW215540   6.315   3.530   0.184
 4881SOL     OW15541   1.567   1.954   0.696
 4881SOL    HW115542   1.627   1.879   0.725
 4881SOL    HW215543   1.585   1.975   0.600
 4882SOL     OW15544   4.103   2.447   5.591
 4882SOL    HW115545   4.025   2.504   5.614
 4882SOL    HW215546   4.089   2.355   5.628
 4883SOL     OW15547   5.027   3.920   1.413
 4883SOL    HW115548   4.934   3.946   1.389
 4883SOL    HW215549   5.083   4.002   1.424
 4884SOL     OW15550   3.387   5.236   0.455
 4884SOL    HW115551   3.371   5.190   0.368
 4884SOL    HW215552   3.314   5.213   0.520
 4885SOL     OW15553   2.367   4.270   2.159
 4885SOL    HW115554   2.440   4.337   2.170
 4885SOL    HW215555   2.279   4.317   2.151
 4886SOL     OW15556   2.812   6.938   1.515
 4886SOL    HW115557   2.737   6.877   1.543
 4886SOL    HW215558   2.788   0.010   1.538
 4887SOL     OW15559   1.173   6.227   1.873
 4887SOL    HW115560   1.177   6.147   1.813
 4887SOL    HW215561   1.216   6.305   1.828
 4888SOL     OW15562   2.387   7.020   2.746
 4888SOL    HW115563   2.346   0.087   2.764
 4888SOL    HW215564   2.430   7.020   2.656
 4889SOL     OW15565   6.697   1.486   5.409
 4889SOL    HW115566   6.671   1.498   5.313
 4889SOL    HW215567   6.714   1.576   5.450
 4890SOL     OW15568   1.050   2.310   5.707
 4890SOL    HW115569   1.095   2.373   5.645
 4890SOL    HW215570   1.055   2.217   5.670
 4891SOL     OW15571   2.429   4.972   6.540
 4891SOL    HW115572   2.503   5.029   6.576
 4891SOL    HW215573   2.442   4.878   6.570
 4892SOL     OW15574   5.026   5.998   2.058
 4892SOL    HW115575   5.037   5.986   2.156
 4892SOL    HW215576   5.099   6.057   2.023
 4893SOL     OW15577   6.677   3.412   2.032
 4893SOL    HW115578   6.647   3.402   1.938
 4893SOL    HW215579   6.776   3.423   2.035
 4894SOL     OW15580   3.277   0.214   2.144
 4894SOL    HW115581   3.271   0.313   2.151
 4894SOL    HW215582   3.306   0.188   2.052
 4895SOL     OW15583   1.125   4.943   3.260
 4895SOL    HW115584   1.116   4.977   3.353
 4895SOL    HW215585   1.184   5.005   3.207
 4896SOL     OW15586   2.902   4.814   2.510
 4896SOL    HW115587   2.835   4.781   2.443
 4896SOL    HW215588   2.990   4.829   2.465
 4897SOL     OW15589   1.780   6.109   5.455
 4897SOL    HW115590   1.693   6.103   5.405
 4897SOL    HW215591   1.781   6.191   5.511
 4898SOL     OW15592   4.236   1.337   5.329
 4898SOL    HW115593   4.162   1.351   5.263
 4898SOL    HW215594   4.212   1.379   5.416
 4899SOL     OW15595   6.187   5.264   3.009
 4899SOL    HW115596   6.112   5.317   2.970
 4899SOL    HW215597   6.169   5.247   3.106
 4900SOL     OW15598   4.221   6.181   5.726
 4900SOL    HW115599   4.131   6.225   5.732
 4900SOL    HW215600   4.283   6.241   5.675
 4901SOL     OW15601   2.000   1.476   4.887
 4901SOL    HW115602   2.001   1.424   4.973
 4901SOL    HW215603   1.911   1.466   4.844
 4902SOL     OW15604   1.586   0.707   6.136
 4902SOL    HW115605   1.529   0.653   6.074
 4902SOL    HW215606   1.678   0.667   6.139
 4903SOL     OW15607   4.459   5.769   0.866
 4903SOL    HW115608   4.375   5.756   0.920
 4903SOL    HW215609   4.529   5.707   0.900
 4904SOL     OW15610   1.718   1.190   5.596
 4904SOL    HW115611   1.696   1.287   5.608
 4904SOL    HW215612   1.637   1.136   5.620
 4905SOL     OW15613   2.189   0.824   3.722
 4905SOL    HW115614   2.229   0.761   3.789
 4905SOL    HW215615   2.256   0.845   3.651
 4906SOL     OW15616   5.006   2.738   5.625
 4906SOL    HW115617   5.054   2.793   5.694
 4906SOL    HW215618   4.973   2.798   5.552
 4907SOL     OW15619   4.991   1.102   0.738
 4907SOL    HW115620   4.944   1.191   0.734
 4907SOL    HW215621   5.015   1.074   0.645
 4908SOL     OW15622   4.959   0.038   0.356
 4908SOL    HW115623   4.932   0.014   0.263
 4908SOL    HW215624   4.883   0.023   0.418
 4909SOL     OW15625   6.923   4.566   3.993
 4909SOL    HW115626   6.860   4.644   3.993
 4909SOL    HW215627   6.959   4.552   3.901
 4910SOL     OW15628   5.828   0.820   4.083
 4910SOL    HW115629   5.919   0.798   4.117
 4910SOL    HW215630   5.812   0.919   4.094
 4911SOL     OW15631   1.705   3.224   3.530
 4911SOL    HW115632   1.747   3.266   3.450
 4911SOL    HW215633   1.772   3.217   3.603
 4912SOL     OW15634   5.328   1.879   5.565
 4912SOL    HW115635   5.320   1.869   5.466
 4912SOL    HW215636   5.272   1.809   5.610
 4913SOL     OW15637   5.609   3.425   5.565
 4913SOL    HW115638   5.602   3.480   5.648
 4913SOL    HW215639   5.530   3.442   5.506
 4914SOL     OW15640   4.455   0.337   5.722
 4914SOL    HW115641   4.536   0.372   5.675
 4914SOL    HW215642   4.400   0.282   5.659
 4915SOL     OW15643   2.887   6.520   5.258
 4915SOL    HW115644   2.827   6.553   5.331
 4915SOL    HW215645   2.964   6.471   5.298
 4916SOL     OW15646   6.993   0.521   4.165
 4916SOL    HW115647   6.950   0.449   4.219
 4916SOL    HW215648   0.061   0.543   4.204
 4917SOL     OW15649   4.110   5.908   0.960
 4917SOL    HW115650   4.142   5.991   0.913
 4917SOL    HW215651   4.011   5.900   0.949
 4918SOL     OW15652   5.961   6.273   2.347
 4918SOL    HW115653   5.990   6.368   2.361
 4918SOL    HW215654   5.871   6.259   2.388
 4919SOL     OW15655   3.908   2.950   2.266
 4919SOL    HW115656   3.972   2.887   2.222
 4919SOL    HW215657   3.957   3.005   2.334
 4920SOL     OW15658   5.485   0.326   5.405
 4920SOL    HW115659   5.477   0.383   5.487
 4920SOL    HW215660   5.495   0.385   5.325
 4921SOL     OW15661   1.924   5.219   0.261
 4921SOL    HW115662   1.992   5.224   0.188
 4921SOL    HW215663   1.934   5.131   0.309
 4922SOL     OW15664   3.365   2.101   5.095
 4922SOL    HW115665   3.421   2.070   5.018
 4922SOL    HW215666   3.303   2.173   5.064
 4923SOL     OW15667   2.217   2.057   2.688
 4923SOL    HW115668   2.305   2.103   2.677
 4923SOL    HW215669   2.211   1.981   2.623
 4924SOL     OW15670   2.320   2.155   5.105
 4924SOL    HW115671   2.351   2.060   5.116
 4924SOL    HW215672   2.242   2.157   5.042
 4925SOL     OW15673   4.359   0.371   2.552
 4925SOL    HW115674   4.451   0.333   2.547
 4925SOL    HW215675   4.342   0.404   2.645
 4926SOL     OW15676   5.887   1.841   1.618
 4926SOL    HW115677   5.874   1.742   1.618
 4926SOL    HW215678   5.963   1.864   1.679
 4927SOL     OW15679   3.119   2.922   6.260
 4927SOL    HW115680   3.195   2.891   6.203
 4927SOL    HW215681   3.075   2.843   6.302
 4928SOL     OW15682   1.457   1.106   0.056
 4928SOL    HW115683   1.374   1.057   0.030
 4928SOL    HW215684   1.455   1.199   0.019
 4929SOL     OW15685   6.684   6.940   3.647
 4929SOL    HW115686   6.698   0.018   3.647
 4929SOL    HW215687   6.674   6.908   3.553
 4930SOL     OW15688   6.138   6.619   2.478
 4930SOL    HW115689   6.200   6.671   2.537
 4930SOL    HW215690   6.044   6.650   2.493
 4931SOL     OW15691   6.454   6.387   1.418
 4931SOL    HW115692   6.463   6.345   1.328
 4931SOL    HW215693   6.498   6.477   1.418
 4932SOL     OW15694   3.614   4.048   3.374
 4932SOL    HW115695   3.544   4.071   3.305
 4932SOL    HW215696   3.572   3.995   3.447
 4933SOL     OW15697   2.008   6.583   3.607
 4933SOL    HW115698   1.967   6.559   3.694
 4933SOL    HW215699   1.937   6.584   3.536
 4934SOL     OW15700   3.555   5.994   2.776
 4934SOL    HW115701   3.486   6.057   2.742
 4934SOL    HW215702   3.533   5.901   2.747
 4935SOL     OW15703   1.558   1.746   0.170
 4935SOL    HW115704   1.498   1.693   0.230
 4935SOL    HW215705   1.652   1.740   0.204
 4936SOL     OW15706   2.650   4.911   0.811
 4936SOL    HW115707   2.715   4.968   0.760
 4936SOL    HW215708   2.701   4.847   0.869
 4937SOL     OW15709   5.313   3.376   5.067
 4937SOL    HW115710   5.284   3.281   5.057
 4937SOL    HW215711   5.394   3.392   5.012
 4938SOL     OW15712   3.311   5.218   5.848
 4938SOL    HW115713   3.254   5.147   5.808
 4938SOL    HW215714   3.388   5.177   5.897
 4939SOL     OW15715   5.299   2.272   5.195
 4939SOL    HW115716   5.260   2.288   5.104
 4939SOL    HW215717   5.340   2.181   5.198
 4940SOL     OW15718   1.245   0.758   4.943
 4940SOL    HW115719   1.184   0.698   4.994
 4940SOL    HW215720   1.300   0.704   4.879
 4941SOL     OW15721   3.755   1.960   6.631
 4941SOL    HW115722   3.741   1.862   6.639
 4941SOL    HW215723   3.699   2.007   6.700
 4942SOL     OW15724   4.888   3.368   5.206
 4942SOL    HW115725   4.857   3.352   5.301
 4942SOL    HW215726   4.824   3.430   5.161
 4943SOL     OW15727   4.122   2.262   0.349
 4943SOL    HW115728   4.051   2.333   0.348
 4943SOL    HW215729   4.112   2.206   0.430
 4944SOL     OW15730   2.137   3.815   2.961
 4944SOL    HW115731   2.139   3.915   2.956
 4944SOL    HW215732   2.097   3.788   3.049
 4945SOL     OW15733   1.250   0.555   3.728
 4945SOL    HW115734   1.318   0.520   3.793
 4945SOL    HW215735   1.271   0.650   3.706
 4946SOL     OW15736   0.946   3.249   1.170
 4946SOL    HW115737   0.989   3.313   1.107
 4946SOL    HW215738   0.957   3.155   1.136
 4947SOL     OW15739   1.055   6.704   0.689
 4947SOL    HW115740   1.093   6.621   0.649
 4947SOL    HW215741   0.955   6.702   0.680
 4948SOL     OW15742   2.788   0.854   2.708
 4948SOL    HW115743   2.809   0.799   2.627
 4948SOL    HW215744   2.699   0.899   2.696
 4949SOL     OW15745   4.539   0.688   5.771
 4949SOL    HW115746   4.554   0.611   5.708
 4949SOL    HW215747   4.474   0.661   5.842
 4950SOL     OW15748   2.725   5.565   3.909
 4950SOL    HW115749   2.815   5.539   3.873
 4950SOL    HW215750   2.670   5.604   3.836
 4951SOL     OW15751   4.731   1.433   4.168
 4951SOL    HW115752   4.793   1.358   4.193
 4951SOL    HW215753   4.648   1.395   4.127
 4952SOL     OW15754   0.093   6.161   4.791
 4952SOL    HW115755   0.099   6.259   4.773
 4952SOL    HW215756   0.164   6.134   4.855
 4953SOL     OW15757   2.550   5.441   1.473
 4953SOL    HW115758   2.592   5.411   1.559
 4953SOL    HW215759   2.474   5.380   1.450
 4954SOL     OW15760   4.955   4.654   0.380
 4954SOL    HW115761   4.947   4.746   0.343
 4954SOL    HW215762   5.033   4.649   0.442
 4955SOL     OW15763   1.612   5.702   0.058
 4955SOL    HW115764   1.530   5.745   0.094
 4955SOL    HW215765   1.668   5.667   0.134
 4956SOL     OW15766   4.054   6.864   5.490
 4956SOL    HW115767   4.025   6.771   5.469
 4956SOL    HW215768   4.036   6.923   5.412
 4957SOL     OW15769   0.139   1.499   4.290
 4957SOL    HW115770   0.124   1.468   4.384
 4957SOL    HW215771   0.229   1.469   4.259
 4958SOL     OW15772   0.819   6.561   5.967
 4958SOL    HW115773   0.906   6.539   5.922
 4958SOL    HW215774   0.761   6.614   5.904
 4959SOL     OW15775   1.280   0.729   6.824
 4959SOL    HW115776   1.300   0.740   6.727
 4959SOL    HW215777   1.215   0.654   6.836
 4960SOL     OW15778   3.530   6.600   4.130
 4960SOL    HW115779   3.524   6.583   4.228
 4960SOL    HW215780   3.541   6.699   4.114
 4961SOL     OW15781   5.251   0.679   5.104
 4961SOL    HW115782   5.319   0.748   5.079
 4961SOL    HW215783   5.268   0.595   5.052
 4962SOL     OW15784   5.451   3.269   1.885
 4962SOL    HW115785   5.423   3.364   1.871
 4962SOL    HW215786   5.375   3.208   1.863
 4963SOL     OW15787   0.364   5.743   1.474
 4963SOL    HW115788   0.419   5.715   1.552
 4963SOL    HW215789   0.270   5.711   1.485
 4964SOL     OW15790   3.547   5.536   3.386
 4964SOL    HW115791   3.627   5.593   3.406
 4964SOL    HW215792   3.571   5.471   3.313
 4965SOL     OW15793   0.438   6.909   4.863
 4965SOL    HW115794   0.397   6.855   4.790
 4965SOL    HW215795   0.463   6.999   4.829
 4966SOL     OW15796   2.809   5.908   4.628
 4966SOL    HW115797   2.765   5.998   4.628
 4966SOL    HW215798   2.740   5.837   4.617
 4967SOL     OW15799   4.167   2.536   6.776
 4967SOL    HW115800   4.139   2.531   6.872
 4967SOL    HW215801   4.162   2.444   6.736
 4968SOL     OW15802   5.192   3.181   3.669
 4968SOL    HW115803   5.206   3.095   3.621
 4968SOL    HW215804   5.271   3.199   3.728
 4969SOL     OW15805   1.552   1.327   2.143
 4969SOL    HW115806   1.483   1.304   2.075
 4969SOL    HW215807   1.507   1.357   2.227
 4970SOL     OW15808   1.223   2.482   4.788
 4970SOL    HW115809   1.210   2.412   4.717
 4970SOL    HW215810   1.316   2.476   4.824
 4971SOL     OW15811   6.682   6.017   3.718
 4971SOL    HW115812   6.689   6.109   3.758
 4971SOL    HW215813   6.716   5.949   3.784
 4972SOL     OW15814   2.628   3.574   0.500
 4972SOL    HW115815   2.622   3.508   0.425
 4972SOL    HW215816   2.556   3.554   0.567
 4973SOL     OW15817   6.084   5.873   1.945
 4973SOL    HW115818   6.064   5.776   1.957
 4973SOL    HW215819   6.000   5.922   1.919
 4974SOL     OW15820   5.524   5.438   2.374
 4974SOL    HW115821   5.499   5.341   2.371
 4974SOL    HW215822   5.611   5.448   2.423
 4975SOL     OW15823   6.084   6.179   0.959
 4975SOL    HW115824   6.137   6.137   0.885
 4975SOL    HW215825   6.014   6.238   0.920
 4976SOL     OW15826   3.395   0.533   4.390
 4976SOL    HW115827   3.302   0.570   4.383
 4976SOL    HW215828   3.456   0.585   4.330
 4977SOL     OW15829   4.603   3.987   0.912
 4977SOL    HW115830   4.646   3.963   0.825
 4977SOL    HW215831   4.553   3.908   0.947
 4978SOL     OW15832   5.917   4.052   5.777
 4978SOL    HW115833   5.926   3.954   5.798
 4978SOL    HW215834   5.881   4.063   5.684
 4979SOL     OW15835   0.152   1.960   5.142
 4979SOL    HW115836   0.111   1.892   5.203
 4979SOL    HW215837   0.234   1.998   5.186
 4980SOL     OW15838   3.499   5.735   2.619
 4980SOL    HW115839   3.525   5.647   2.580
 4980SOL    HW215840   3.404   5.730   2.652
 4981SOL     OW15841   4.509   6.995   5.679
 4981SOL    HW115842   4.413   0.001   5.680
 4981SOL    HW215843   4.556   0.024   5.607
 4982SOL     OW15844   1.941   1.619   0.017
 4982SOL    HW115845   2.027   1.666   0.036
 4982SOL    HW215846   1.880   1.680   6.988
 4983SOL     OW15847   5.688   3.355   4.210
 4983SOL    HW115848   5.641   3.270   4.232
 4983SOL    HW215849   5.773   3.360   4.263
 4984SOL     OW15850   5.514   3.872   4.544
 4984SOL    HW115851   5.475   3.786   4.511
 4984SOL    HW215852   5.504   3.878   4.643
 4985SOL     OW15853   5.950   5.266   3.880
 4985SOL    HW115854   6.024   5.325   3.846
 4985SOL    HW215855   5.939   5.280   3.978
 4986SOL     OW15856   6.103   4.579   2.913
 4986SOL    HW115857   6.083   4.522   2.993
 4986SOL    HW215858   6.076   4.530   2.830
 4987SOL     OW15859   0.448   3.080   0.845
 4987SOL    HW115860   0.537   3.100   0.805
 4987SOL    HW215861   0.401   3.166   0.866
 4988SOL     OW15862   0.093   1.728   3.769
 4988SOL    HW115863   0.078   1.671   3.849
 4988SOL    HW215864   0.161   1.798   3.790
 4989SOL     OW15865   6.039   1.393   1.445
 4989SOL    HW115866   5.963   1.343   1.404
 4989SOL    HW215867   6.003   1.462   1.508
 4990SOL     OW15868   0.723   2.866   5.963
 4990SOL    HW115869   0.667   2.900   5.888
 4990SOL    HW215870   0.682   2.891   6.050
 4991SOL     OW15871   0.726   3.246   4.219
 4991SOL    HW115872   0.711   3.222   4.123
 4991SOL    HW215873   0.638   3.269   4.262
 4992SOL     OW15874   3.746   0.677   4.621
 4992SOL    HW115875   3.687   0.743   4.574
 4992SOL    HW215876   3.773   0.605   4.557
 4993SOL     OW15877   3.043   5.360   3.934
 4993SOL    HW115878   3.016   5.273   3.895
 4993SOL    HW215879   3.120   5.397   3.882
 4994SOL     OW15880   1.146   6.700   2.573
 4994SOL    HW115881   1.159   6.697   2.672
 4994SOL    HW215882   1.138   6.606   2.538
 4995SOL     OW15883   6.838   3.203   6.253
 4995SOL    HW115884   6.773   3.277   6.234
 4995SOL    HW215885   6.909   3.202   6.184
 4996SOL     OW15886   6.883   1.521   1.485
 4996SOL    HW115887   6.858   1.477   1.399
 4996SOL    HW215888   6.950   1.464   1.533
 4997SOL     OW15889   6.594   2.269   3.001
 4997SOL    HW115890   6.547   2.205   3.062
 4997SOL    HW215891   6.691   2.245   2.997
 4998SOL     OW15892   1.559   4.897   5.001
 4998SOL    HW115893   1.549   4.798   5.013
 4998SOL    HW215894   1.526   4.923   4.910
 4999SOL     OW15895   5.037   5.546   1.251
 4999SOL    HW115896   5.122   5.554   1.303
 4999SOL    HW215897   5.006   5.451   1.253
 5000SOL     OW15898   1.138   0.344   4.745
 5000SOL    HW115899   1.233   0.371   4.731
 5000SOL    HW215900   1.104   0.298   4.663
 5001SOL     OW15901   1.947   3.669   6.346
 5001SOL    HW115902   1.901   3.758   6.350
 5001SOL    HW215903   2.005   3.665   6.265
 5002SOL     OW15904   1.564   2.015   2.793
 5002SOL    HW115905   1.638   1.968   2.747
 5002SOL    HW215906   1.600   2.095   2.842
 5003SOL     OW15907   0.450   6.690   3.056
 5003SOL    HW115908   0.390   6.750   3.110
 5003SOL    HW215909   0.519   6.650   3.116
 5004SOL     OW15910   2.569   5.760   5.814
 5004SOL    HW115911   2.574   5.674   5.864
 5004SOL    HW215912   2.476   5.774   5.780
 5005SOL     OW15913   3.805   2.365   0.587
 5005SOL    HW115914   3.891   2.335   0.627
 5005SOL    HW215915   3.812   2.366   0.488
 5006SOL     OW15916   5.657   6.929   5.255
 5006SOL    HW115917   5.658   6.842   5.207
 5006SOL    HW215918   5.668   7.004   5.189
 5007SOL     OW15919   3.746   0.916   5.991
 5007SOL    HW115920   3.778   0.824   6.012
 5007SOL    HW215921   3.646   0.916   5.992
 5008SOL     OW15922   5.962   1.367   3.010
 5008SOL    HW115923   6.034   1.299   2.998
 5008SOL    HW215924   5.892   1.331   3.070
 5009SOL     OW15925   1.353   5.904   1.625
 5009SOL    HW115926   1.273   5.947   1.666
 5009SOL    HW215927   1.393   5.840   1.690
 5010SOL     OW15928   3.637   4.159   4.167
 5010SOL    HW115929   3.707   4.158   4.095
 5010SOL    HW215930   3.673   4.117   4.250
 5011SOL     OW15931   2.022   3.284   2.087
 5011SOL    HW115932   2.092   3.337   2.039
 5011SOL    HW215933   1.931   3.310   2.054
 5012SOL     OW15934   6.569   2.592   5.613
 5012SOL    HW115935   6.488   2.533   5.611
 5012SOL    HW215936   6.541   2.688   5.625
 5013SOL     OW15937   4.467   0.724   6.641
 5013SOL    HW115938   4.379   0.695   6.678
 5013SOL    HW215939   4.492   0.664   6.565
 5014SOL     OW15940   6.154   5.870   0.882
 5014SOL    HW115941   6.160   5.784   0.934
 5014SOL    HW215942   6.243   5.916   0.884
 5015SOL     OW15943   4.259   1.911   3.511
 5015SOL    HW115944   4.312   1.827   3.497
 5015SOL    HW215945   4.230   1.946   3.422
 5016SOL     OW15946   1.760   1.196   2.967
 5016SOL    HW115947   1.760   1.200   3.067
 5016SOL    HW215948   1.694   1.128   2.937
 5017SOL     OW15949   2.239   2.145   0.436
 5017SOL    HW115950   2.191   2.128   0.351
 5017SOL    HW215951   2.174   2.177   0.505
 5018SOL     OW15952   6.981   4.202   2.420
 5018SOL    HW115953   7.003   4.104   2.420
 5018SOL    HW215954   0.031   4.253   2.468
 5019SOL     OW15955   2.912   3.528   0.463
 5019SOL    HW115956   2.974   3.605   0.451
 5019SOL    HW215957   2.827   3.561   0.505
 5020SOL     OW15958   5.474   5.754   6.136
 5020SOL    HW115959   5.479   5.714   6.228
 5020SOL    HW215960   5.384   5.734   6.096
 5021SOL     OW15961   1.351   4.644   6.145
 5021SOL    HW115962   1.420   4.572   6.141
 5021SOL    HW215963   1.263   4.608   6.113
 5022SOL     OW15964   1.964   6.241   0.827
 5022SOL    HW115965   2.028   6.175   0.785
 5022SOL    HW215966   1.900   6.273   0.757
 5023SOL     OW15967   6.026   2.844   0.793
 5023SOL    HW115968   6.046   2.942   0.786
 5023SOL    HW215969   5.952   2.821   0.729
 5024SOL     OW15970   6.626   4.068   3.380
 5024SOL    HW115971   6.641   3.969   3.388
 5024SOL    HW215972   6.560   4.086   3.307
 5025SOL     OW15973   4.804   1.137   2.678
 5025SOL    HW115974   4.734   1.186   2.730
 5025SOL    HW215975   4.870   1.097   2.741
 5026SOL     OW15976   6.178   5.427   5.257
 5026SOL    HW115977   6.114   5.500   5.234
 5026SOL    HW215978   6.257   5.431   5.195
 5027SOL     OW15979   0.195   6.468   2.808
 5027SOL    HW115980   0.212   6.437   2.902
 5027SOL    HW215981   0.282   6.479   2.761
 5028SOL     OW15982   0.351   6.090   1.794
 5028SOL    HW115983   0.271   6.045   1.756
 5028SOL    HW215984   0.434   6.045   1.762
 5029SOL     OW15985   6.764   2.499   2.072
 5029SOL    HW115986   6.762   2.508   2.172
 5029SOL    HW215987   6.801   2.584   2.033
 5030SOL     OW15988   6.617   0.134   6.883
 5030SOL    HW115989   6.663   0.050   6.852
 5030SOL    HW215990   6.660   0.165   6.968
 5031SOL     OW15991   6.016   1.138   4.219
 5031SOL    HW115992   6.005   1.218   4.160
 5031SOL    HW215993   5.996   1.055   4.166
 5032SOL     OW15994   1.862   5.422   0.559
 5032SOL    HW115995   1.774   5.380   0.537
 5032SOL    HW215996   1.929   5.350   0.577
 5033SOL     OW15997   2.565   5.072   5.413
 5033SOL    HW115998   2.475   5.041   5.443
 5033SOL    HW215999   2.636   5.023   5.464
 5034SOL     OW16000   6.665   2.376   2.585
 5034SOL    HW116001   6.665   2.417   2.676
 5034SOL    HW216002   6.575   2.334   2.568
 5035SOL     OW16003   4.700   5.295   0.272
 5035SOL    HW116004   4.604   5.272   0.262
 5035SOL    HW216005   4.709   5.392   0.299
 5036SOL     OW16006   1.451   6.247   6.888
 5036SOL    HW116007   1.527   6.305   6.859
 5036SOL    HW216008   1.486   6.164   6.931
 5037SOL     OW16009   3.991   1.781   3.557
 5037SOL    HW116010   4.012   1.691   3.519
 5037SOL    HW216011   4.076   1.833   3.568
 5038SOL     OW16012   1.288   5.535   5.739
 5038SOL    HW116013   1.380   5.524   5.703
 5038SOL    HW216014   1.284   5.499   5.832
 5039SOL     OW16015   2.584   3.023   5.417
 5039SOL    HW116016   2.549   3.111   5.449
 5039SOL    HW216017   2.548   3.004   5.326
 5040SOL     OW16018   2.700   3.535   6.762
 5040SOL    HW116019   2.702   3.491   6.852
 5040SOL    HW216020   2.683   3.633   6.773
 5041SOL     OW16021   1.061   4.199   1.428
 5041SOL    HW116022   0.977   4.161   1.390
 5041SOL    HW216023   1.124   4.124   1.452
 5042SOL     OW16024   6.538   3.778   6.815
 5042SOL    HW116025   6.569   3.799   6.907
 5042SOL    HW216026   6.445   3.741   6.818
 5043SOL     OW16027   3.466   1.348   4.423
 5043SOL    HW116028   3.491   1.340   4.326
 5043SOL    HW216029   3.538   1.309   4.480
 5044SOL     OW16030   6.317   6.051   3.938
 5044SOL    HW116031   6.246   6.117   3.913
 5044SOL    HW216032   6.287   5.959   3.912
 5045SOL     OW16033   6.367   3.565   0.359
 5045SOL    HW116034   6.417   3.486   0.395
 5045SOL    HW216035   6.271   3.559   0.387
 5046SOL     OW16036   3.782   2.944   4.723
 5046SOL    HW116037   3.796   2.878   4.648
 5046SOL    HW216038   3.792   2.896   4.811
 5047SOL     OW16039   5.630   1.018   2.926
 5047SOL    HW116040   5.709   1.047   2.872
 5047SOL    HW216041   5.659   0.951   2.994
 5048SOL     OW16042   0.022   2.534   1.755
 5048SOL    HW116043   7.009   2.578   1.838
 5048SOL    HW216044   0.118   2.560   1.741
 5049SOL     OW16045   1.007   1.680   1.929
 5049SOL    HW116046   1.089   1.735   1.947
 5049SOL    HW216047   0.946   1.685   2.008
 5050SOL     OW16048   0.348   1.979   1.674
 5050SOL    HW116049   0.400   1.988   1.759
 5050SOL    HW216050   0.406   2.004   1.596
 5051SOL     OW16051   2.578   3.787   1.015
 5051SOL    HW116052   2.649   3.718   0.997
 5051SOL    HW216053   2.591   3.865   0.954
 5052SOL     OW16054   3.826   4.740   0.939
 5052SOL    HW116055   3.745   4.766   0.886
 5052SOL    HW216056   3.907   4.748   0.882
 5053SOL     OW16057   2.224   4.168   1.853
 5053SOL    HW116058   2.227   4.256   1.901
 5053SOL    HW216059   2.307   4.157   1.799
 5054SOL     OW16060   3.548   6.117   5.064
 5054SOL    HW116061   3.526   6.208   5.098
 5054SOL    HW216062   3.473   6.084   5.006
 5055SOL     OW16063   0.762   2.002   5.133
 5055SOL    HW116064   0.803   1.933   5.073
 5055SOL    HW216065   0.699   1.958   5.197
 5056SOL     OW16066   0.090   3.752   5.969
 5056SOL    HW116067   0.048   3.775   6.057
 5056SOL    HW216068   0.020   3.719   5.906
 5057SOL     OW16069   0.764   5.500   3.480
 5057SOL    HW116070   0.690   5.476   3.542
 5057SOL    HW216071   0.737   5.481   3.386
 5058SOL     OW16072   4.225   4.331   7.020
 5058SOL    HW116073   4.190   4.304   0.089
 5058SOL    HW216074   4.286   4.260   6.986
 5059SOL     OW16075   3.709   2.132   4.627
 5059SOL    HW116076   3.704   2.123   4.727
 5059SOL    HW216077   3.765   2.212   4.604
 5060SOL     OW16078   0.266   3.424   5.267
 5060SOL    HW116079   0.337   3.470   5.322
 5060SOL    HW216080   0.296   3.419   5.172
 5061SOL     OW16081   2.880   3.603   4.571
 5061SOL    HW116082   2.941   3.647   4.638
 5061SOL    HW216083   2.877   3.657   4.488
 5062SOL     OW16084   4.460   1.447   2.321
 5062SOL    HW116085   4.512   1.523   2.282
 5062SOL    HW216086   4.449   1.375   2.252
 5063SOL     OW16087   1.682   6.479   2.017
 5063SOL    HW116088   1.670   6.465   2.116
 5063SOL    HW216089   1.771   6.522   2.000
 5064SOL     OW16090   4.767   5.556   0.598
 5064SOL    HW116091   4.716   5.522   0.677
 5064SOL    HW216092   4.851   5.503   0.587
 5065SOL     OW16093   1.885   0.300   3.380
 5065SOL    HW116094   1.984   0.285   3.387
 5065SOL    HW216095   1.868   0.383   3.328
 5066SOL     OW16096   1.977   4.883   1.740
 5066SOL    HW116097   1.956   4.950   1.670
 5066SOL    HW216098   2.012   4.929   1.821
 5067SOL     OW16099   3.872   2.114   1.571
 5067SOL    HW116100   3.873   2.056   1.490
 5067SOL    HW216101   3.778   2.143   1.590
 5068SOL     OW16102   3.633   6.345   0.818
 5068SOL    HW116103   3.536   6.366   0.824
 5068SOL    HW216104   3.645   6.250   0.791
 5069SOL     OW16105   2.618   4.018   6.387
 5069SOL    HW116106   2.669   3.944   6.342
 5069SOL    HW216107   2.680   4.094   6.406
 5070SOL     OW16108   6.075   3.127   3.981
 5070SOL    HW116109   6.010   3.052   3.968
 5070SOL    HW216110   6.168   3.089   3.986
 5071SOL     OW16111   4.092   1.458   3.771
 5071SOL    HW116112   4.026   1.490   3.839
 5071SOL    HW216113   4.175   1.514   3.777
 5072SOL     OW16114   1.351   0.554   0.819
 5072SOL    HW116115   1.297   0.599   0.748
 5072SOL    HW216116   1.289   0.504   0.881
 5073SOL     OW16117   2.536   6.201   2.549
 5073SOL    HW116118   2.613   6.138   2.560
 5073SOL    HW216119   2.495   6.187   2.458
 5074SOL     OW16120   3.510   1.939   1.409
 5074SOL    HW116121   3.531   1.844   1.388
 5074SOL    HW216122   3.513   1.954   1.507
 5075SOL     OW16123   1.211   3.030   7.015
 5075SOL    HW116124   1.307   3.008   0.011
 5075SOL    HW216125   1.154   2.989   0.064
 5076SOL     OW16126   5.334   0.605   0.150
 5076SOL    HW116127   5.394   0.679   0.179
 5076SOL    HW216128   5.378   0.552   0.078
 5077SOL     OW16129   1.406   4.064   4.608
 5077SOL    HW116130   1.416   3.964   4.601
 5077SOL    HW216131   1.459   4.107   4.536
 5078SOL     OW16132   0.318   1.252   3.995
 5078SOL    HW116133   0.350   1.302   4.075
 5078SOL    HW216134   0.221   1.227   4.007
 5079SOL     OW16135   1.865   1.962   5.886
 5079SOL    HW116136   1.894   1.903   5.811
 5079SOL    HW216137   1.774   1.934   5.918
 5080SOL     OW16138   5.905   5.429   5.946
 5080SOL    HW116139   5.895   5.511   5.889
 5080SOL    HW216140   5.913   5.348   5.889
 5081SOL     OW16141   3.341   5.748   5.078
 5081SOL    HW116142   3.272   5.676   5.082
 5081SOL    HW216143   3.425   5.713   5.036
 5082SOL     OW16144   4.579   6.382   0.318
 5082SOL    HW116145   4.591   6.338   0.229
 5082SOL    HW216146   4.611   6.320   0.390
 5083SOL     OW16147   2.912   0.705   2.487
 5083SOL    HW116148   2.936   0.789   2.438
 5083SOL    HW216149   2.971   0.630   2.457
 5084SOL     OW16150   0.936   5.429   5.305
 5084SOL    HW116151   0.852   5.425   5.251
 5084SOL    HW216152   1.001   5.491   5.262
 5085SOL     OW16153   1.345   3.524   5.986
 5085SOL    HW116154   1.371   3.604   6.039
 5085SOL    HW216155   1.397   3.445   6.018
 5086SOL     OW16156   0.833   4.826   2.910
 5086SOL    HW116157   0.828   4.834   3.009
 5086SOL    HW216158   0.914   4.876   2.877
 5087SOL     OW16159   6.857   5.339   2.174
 5087SOL    HW116160   6.916   5.279   2.228
 5087SOL    HW216161   6.803   5.397   2.236
 5088SOL     OW16162   4.335   5.943   2.601
 5088SOL    HW116163   4.250   5.978   2.562
 5088SOL    HW216164   4.340   5.966   2.698
 5089SOL     OW16165   5.960   3.897   4.591
 5089SOL    HW116166   5.919   3.957   4.523
 5089SOL    HW216167   5.956   3.802   4.559
 5090SOL     OW16168   1.741   0.068   3.946
 5090SOL    HW116169   1.686   0.015   3.881
 5090SOL    HW216170   1.736   0.165   3.922
 5091SOL     OW16171   6.758   0.485   0.325
 5091SOL    HW116172   6.669   0.497   0.280
 5091SOL    HW216173   6.829   0.527   0.268
 5092SOL     OW16174   3.733   3.825   4.146
 5092SOL    HW116175   3.639   3.851   4.121
 5092SOL    HW216176   3.798   3.882   4.096
 5093SOL     OW16177   2.491   1.103   2.917
 5093SOL    HW116178   2.489   1.196   2.952
 5093SOL    HW216179   2.557   1.097   2.843
 5094SOL     OW16180   2.669   5.515   6.924
 5094SOL    HW116181   2.576   5.489   6.948
 5094SOL    HW216182   2.669   5.608   6.888
 5095SOL     OW16183   0.526   1.331   3.818
 5095SOL    HW116184   0.468   1.296   3.892
 5095SOL    HW216185   0.544   1.257   3.753
 5096SOL     OW16186   5.644   3.884   6.527
 5096SOL    HW116187   5.594   3.826   6.462
 5096SOL    HW216188   5.607   3.871   6.619
 5097SOL     OW16189   6.818   6.419   6.975
 5097SOL    HW116190   6.848   6.366   0.033
 5097SOL    HW216191   6.747   6.368   6.927
 5098SOL     OW16192   3.922   2.119   1.835
 5098SOL    HW116193   3.835   2.161   1.861
 5098SOL    HW216194   3.928   2.115   1.735
 5099SOL     OW16195   0.140   5.858   1.762
 5099SOL    HW116196   0.095   5.941   1.729
 5099SOL    HW216197   0.128   5.785   1.695
 5100SOL     OW16198   4.578   5.094   2.962
 5100SOL    HW116199   4.665   5.049   2.946
 5100SOL    HW216200   4.584   5.150   3.045
 5101SOL     OW16201   3.935   0.253   5.003
 5101SOL    HW116202   3.894   0.183   4.944
 5101SOL    HW216203   3.885   0.339   4.994
 5102SOL     OW16204   4.785   5.670   4.136
 5102SOL    HW116205   4.819   5.762   4.151
 5102SOL    HW216206   4.857   5.615   4.092
 5103SOL     OW16207   0.565   0.560   5.017
 5103SOL    HW116208   0.600   0.478   4.973
 5103SOL    HW216209   0.534   0.539   5.110
 5104SOL     OW16210   3.401   6.085   1.895
 5104SOL    HW116211   3.431   6.181   1.898
 5104SOL    HW216212   3.352   6.063   1.979
 5105SOL     OW16213   2.970   3.206   0.168
 5105SOL    HW116214   3.026   3.140   0.219
 5105SOL    HW216215   2.932   3.163   0.087
 5106SOL     OW16216   4.253   1.972   0.920
 5106SOL    HW116217   4.342   1.936   0.945
 5106SOL    HW216218   4.264   2.049   0.856
 5107SOL     OW16219   5.560   2.916   1.365
 5107SOL    HW116220   5.501   2.996   1.363
 5107SOL    HW216221   5.630   2.926   1.294
 5108SOL     OW16222   4.639   4.235   5.765
 5108SOL    HW116223   4.560   4.271   5.815
 5108SOL    HW216224   4.722   4.280   5.797
 5109SOL     OW16225   1.715   3.096   1.609
 5109SOL    HW116226   1.779   3.171   1.628
 5109SOL    HW216227   1.767   3.013   1.588
 5110SOL     OW16228   0.058   6.710   6.215
 5110SOL    HW116229   0.073   6.713   6.314
 5110SOL    HW216230   0.116   6.779   6.171
 5111SOL     OW16231   1.058   6.529   4.815
 5111SOL    HW116232   1.106   6.528   4.903
 5111SOL    HW216233   0.963   6.556   4.829
 5112SOL     OW16234   0.385   0.112   2.645
 5112SOL    HW116235   0.455   0.071   2.586
 5112SOL    HW216236   0.351   0.196   2.604
 5113SOL     OW16237   1.667   5.292   0.413
 5113SOL    HW116238   1.727   5.298   0.334
 5113SOL    HW216239   1.608   5.212   0.405
 5114SOL     OW16240   3.567   0.157   0.784
 5114SOL    HW116241   3.664   0.172   0.801
 5114SOL    HW216242   3.513   0.219   0.841
 5115SOL     OW16243   2.180   3.503   1.529
 5115SOL    HW116244   2.103   3.565   1.514
 5115SOL    HW216245   2.237   3.539   1.602
 5116SOL     OW16246   2.882   6.576   6.796
 5116SOL    HW116247   2.979   6.599   6.784
 5116SOL    HW216248   2.871   6.476   6.797
 5117SOL     OW16249   0.917   3.324   4.699
 5117SOL    HW116250   0.899   3.252   4.632
 5117SOL    HW216251   0.896   3.291   4.791
 5118SOL     OW16252   5.912   6.811   0.523
 5118SOL    HW116253   5.874   6.719   0.509
 5118SOL    HW216254   5.987   6.806   0.588
 5119SOL     OW16255   5.638   1.662   0.811
 5119SOL    HW116256   5.569   1.723   0.771
 5119SOL    HW216257   5.593   1.583   0.852
 5120SOL     OW16258   4.895   0.602   5.060
 5120SOL    HW116259   4.937   0.590   5.150
 5120SOL    HW216260   4.963   0.585   4.989
 5121SOL     OW16261   3.287   3.810   6.772
 5121SOL    HW116262   3.294   3.735   6.839
 5121SOL    HW216263   3.193   3.843   6.770
 5122SOL     OW16264   3.710   5.109   3.412
 5122SOL    HW116265   3.690   5.185   3.350
 5122SOL    HW216266   3.637   5.102   3.480
 5123SOL     OW16267   5.316   2.358   2.552
 5123SOL    HW116268   5.269   2.312   2.477
 5123SOL    HW216269   5.297   2.456   2.548
 5124SOL     OW16270   1.773   6.269   3.791
 5124SOL    HW116271   1.805   6.364   3.799
 5124SOL    HW216272   1.758   6.247   3.695
 5125SOL     OW16273   0.385   1.583   3.813
 5125SOL    HW116274   0.447   1.506   3.818
 5125SOL    HW216275   0.290   1.550   3.812
 5126SOL     OW16276   1.433   6.482   0.481
 5126SOL    HW116277   1.486   6.455   0.561
 5126SOL    HW216278   1.446   6.415   0.408
 5127SOL     OW16279   1.962   5.842   0.197
 5127SOL    HW116280   2.027   5.794   0.137
 5127SOL    HW216281   1.884   5.782   0.216
 5128SOL     OW16282   0.056   5.818   1.128
 5128SOL    HW116283   6.978   5.824   1.123
 5128SOL    HW216284   0.091   5.768   1.049
 5129SOL     OW16285   4.920   6.633   1.372
 5129SOL    HW116286   4.983   6.687   1.427
 5129SOL    HW216287   4.829   6.674   1.376
 5130SOL     OW16288   6.844   4.808   2.725
 5130SOL    HW116289   6.868   4.721   2.768
 5130SOL    HW216290   6.745   4.820   2.728
 5131SOL     OW16291   1.112   3.491   3.312
 5131SOL    HW116292   1.208   3.471   3.290
 5131SOL    HW216293   1.101   3.492   3.412
 5132SOL     OW16294   3.459   3.926   6.000
 5132SOL    HW116295   3.472   3.828   6.012
 5132SOL    HW216296   3.520   3.959   5.928
 5133SOL     OW16297   3.275   5.385   6.872
 5133SOL    HW116298   3.187   5.338   6.860
 5133SOL    HW216299   3.336   5.328   6.926
 5134SOL     OW16300   0.536   2.945   1.838
 5134SOL    HW116301   0.558   2.976   1.746
 5134SOL    HW216302   0.444   2.906   1.839
 5135SOL     OW16303   6.898   2.294   6.099
 5135SOL    HW116304   6.910   2.382   6.144
 5135SOL    HW216305   6.823   2.300   6.033
 5136SOL     OW16306   5.182   0.757   4.673
 5136SOL    HW116307   5.223   0.848   4.671
 5136SOL    HW216308   5.242   0.693   4.625
 5137SOL     OW16309   6.020   3.275   6.530
 5137SOL    HW116310   5.932   3.253   6.490
 5137SOL    HW216311   6.075   3.192   6.539
 5138SOL     OW16312   3.938   2.949   6.505
 5138SOL    HW116313   3.995   2.908   6.435
 5138SOL    HW216314   3.847   2.967   6.468
 5139SOL     OW16315   1.639   6.917   3.779
 5139SOL    HW116316   1.638   6.947   3.683
 5139SOL    HW216317   1.597   6.827   3.786
 5140SOL     OW16318   2.374   1.573   0.355
 5140SOL    HW116319   2.418   1.657   0.324
 5140SOL    HW216320   2.299   1.595   0.417
 5141SOL     OW16321   5.622   3.563   1.280
 5141SOL    HW116322   5.682   3.638   1.308
 5141SOL    HW216323   5.673   3.477   1.281
 5142SOL     OW16324   6.232   2.240   4.287
 5142SOL    HW116325   6.236   2.259   4.385
 5142SOL    HW216326   6.316   2.193   4.260
 5143SOL     OW16327   1.101   4.114   4.573
 5143SOL    HW116328   1.193   4.146   4.597
 5143SOL    HW216329   1.034   4.155   4.634
 5144SOL     OW16330   1.591   6.708   6.157
 5144SOL    HW116331   1.576   6.691   6.060
 5144SOL    HW216332   1.528   6.653   6.211
 5145SOL     OW16333   2.309   5.669   6.233
 5145SOL    HW116334   2.373   5.619   6.290
 5145SOL    HW216335   2.226   5.689   6.285
 5146SOL     OW16336   4.146   3.909   6.644
 5146SOL    HW116337   4.160   3.821   6.689
 5146SOL    HW216338   4.160   3.899   6.546
 5147SOL     OW16339   0.403   3.973   1.686
 5147SOL    HW116340   0.342   3.939   1.615
 5147SOL    HW216341   0.471   3.902   1.708
 5148SOL     OW16342   0.689   6.216   1.135
 5148SOL    HW116343   0.752   6.154   1.090
 5148SOL    HW216344   0.670   6.294   1.075
 5149SOL     OW16345   6.028   0.218   3.609
 5149SOL    HW116346   5.988   0.247   3.522
 5149SOL    HW216347   6.020   0.119   3.618
 5150SOL     OW16348   2.078   5.766   4.240
 5150SOL    HW116349   2.174   5.785   4.222
 5150SOL    HW216350   2.026   5.773   4.155
 5151SOL     OW16351   5.617   0.994   6.785
 5151SOL    HW116352   5.533   0.963   6.740
 5151SOL    HW216353   5.648   1.080   6.744
 5152SOL     OW16354   2.345   4.682   0.135
 5152SOL    HW116355   2.395   4.745   0.076
 5152SOL    HW216356   2.251   4.715   0.146
 5153SOL     OW16357   1.906   1.890   6.868
 5153SOL    HW116358   1.820   1.839   6.861
 5153SOL    HW216359   1.971   1.853   6.802
 5154SOL     OW16360   2.098   3.360   6.061
 5154SOL    HW116361   2.159   3.393   6.132
 5154SOL    HW216362   2.007   3.343   6.099
 5155SOL     OW16363   3.984   6.249   1.941
 5155SOL    HW116364   4.036   6.333   1.926
 5155SOL    HW216365   3.894   6.257   1.898
 5156SOL     OW16366   6.715   2.623   6.399
 5156SOL    HW116367   6.754   2.641   6.309
 5156SOL    HW216368   6.670   2.706   6.433
 5157SOL     OW16369   4.781   2.947   3.488
 5157SOL    HW116370   4.719   3.025   3.491
 5157SOL    HW216371   4.838   2.946   3.570
 5158SOL     OW16372   2.890   2.051   1.447
 5158SOL    HW116373   2.984   2.084   1.441
 5158SOL    HW216374   2.853   2.072   1.537
 5159SOL     OW16375   1.164   3.986   4.821
 5159SOL    HW116376   1.236   3.953   4.882
 5159SOL    HW216377   1.193   4.073   4.780
 5160SOL     OW16378   1.496   3.663   4.187
 5160SOL    HW116379   1.540   3.662   4.277
 5160SOL    HW216380   1.464   3.571   4.165
 5161SOL     OW16381   1.164   4.142   5.759
 5161SOL    HW116382   1.107   4.222   5.778
 5161SOL    HW216383   1.138   4.067   5.819
 5162SOL     OW16384   0.075   5.084   4.314
 5162SOL    HW116385   7.019   5.024   4.330
 5162SOL    HW216386   0.157   5.043   4.353
 5163SOL     OW16387   4.596   5.083   1.550
 5163SOL    HW116388   4.669   5.149   1.534
 5163SOL    HW216389   4.606   5.006   1.486
 5164SOL     OW16390   5.749   2.427   5.688
 5164SOL    HW116391   5.777   2.468   5.775
 5164SOL    HW216392   5.797   2.340   5.676
 5165SOL     OW16393   5.523   4.932   5.111
 5165SOL    HW116394   5.509   4.833   5.104
 5165SOL    HW216395   5.609   4.950   5.159
 5166SOL     OW16396   1.783   5.129   1.866
 5166SOL    HW116397   1.881   5.132   1.885
 5166SOL    HW216398   1.740   5.059   1.923
 5167SOL     OW16399   6.455   6.857   5.410
 5167SOL    HW116400   6.497   6.924   5.471
 5167SOL    HW216401   6.361   6.884   5.390
 5168SOL     OW16402   4.738   2.612   3.595
 5168SOL    HW116403   4.665   2.546   3.609
 5168SOL    HW216404   4.717   2.668   3.515
 5169SOL     OW16405   3.421   3.539   6.549
 5169SOL    HW116406   3.417   3.594   6.466
 5169SOL    HW216407   3.375   3.451   6.534
 5170SOL     OW16408   6.851   4.420   6.014
 5170SOL    HW116409   6.767   4.441   5.963
 5170SOL    HW216410   6.914   4.369   5.955
 5171SOL     OW16411   2.453   4.434   4.225
 5171SOL    HW116412   2.382   4.500   4.250
 5171SOL    HW216413   2.492   4.395   4.309
 5172SOL     OW16414   0.896   3.303   1.785
 5172SOL    HW116415   0.806   3.345   1.794
 5172SOL    HW216416   0.952   3.359   1.723
 5173SOL     OW16417   5.961   4.025   6.755
 5173SOL    HW116418   6.043   4.006   6.808
 5173SOL    HW216419   5.980   4.013   6.658
 5174SOL     OW16420   1.964   4.582   4.568
 5174SOL    HW116421   1.885   4.626   4.611
 5174SOL    HW216422   1.989   4.633   4.485
 5175SOL     OW16423   1.865   4.049   0.521
 5175SOL    HW116424   1.782   4.007   0.557
 5175SOL    HW216425   1.883   4.135   0.571
 5176SOL     OW16426   3.787   3.244   0.172
 5176SOL    HW116427   3.855   3.200   0.231
 5176SOL    HW216428   3.727   3.175   0.132
 5177SOL     OW16429   4.652   0.503   5.578
 5177SOL    HW116430   4.714   0.429   5.552
 5177SOL    HW216431   4.632   0.560   5.499
 5178SOL     OW16432   2.219   2.500   1.738
 5178SOL    HW116433   2.215   2.591   1.697
 5178SOL    HW216434   2.268   2.505   1.826
 5179SOL     OW16435   4.821   6.476   5.022
 5179SOL    HW116436   4.790   6.511   4.934
 5179SOL    HW216437   4.775   6.526   5.095
 5180SOL     OW16438   3.525   2.321   6.709
 5180SOL    HW116439   3.530   2.394   6.777
 5180SOL    HW216440   3.440   2.329   6.657
 5181SOL     OW16441   3.721   0.875   3.052
 5181SOL    HW116442   3.670   0.908   2.972
 5181SOL    HW216443   3.742   0.951   3.112
 5182SOL     OW16444   5.968   4.744   1.773
 5182SOL    HW116445   6.054   4.695   1.789
 5182SOL    HW216446   5.910   4.737   1.854
 5183SOL     OW16447   4.750   0.063   1.732
 5183SOL    HW116448   4.682   0.101   1.794
 5183SOL    HW216449   4.820   0.014   1.785
 5184SOL     OW16450   0.849   1.659   3.943
 5184SOL    HW116451   0.840   1.720   3.864
 5184SOL    HW216452   0.802   1.573   3.924
 5185SOL     OW16453   3.761   0.054   2.744
 5185SOL    HW116454   3.774   6.988   2.699
 5185SOL    HW216455   3.827   0.120   2.709
 5186SOL     OW16456   6.590   3.763   0.968
 5186SOL    HW116457   6.655   3.697   0.933
 5186SOL    HW216458   6.583   3.840   0.905
 5187SOL     OW16459   6.727   1.254   3.525
 5187SOL    HW116460   6.778   1.340   3.517
 5187SOL    HW216461   6.717   1.213   3.435
 5188SOL     OW16462   0.562   5.007   0.185
 5188SOL    HW116463   0.474   5.024   0.140
 5188SOL    HW216464   0.636   5.024   0.121
 5189SOL     OW16465   4.544   5.005   6.829
 5189SOL    HW116466   4.593   5.079   6.874
 5189SOL    HW216467   4.603   4.924   6.822
 5190SOL     OW16468   0.879   2.042   3.909
 5190SOL    HW116469   0.886   1.975   3.835
 5190SOL    HW216470   0.970   2.078   3.930
 5191SOL     OW16471   3.204   0.990   1.534
 5191SOL    HW116472   3.275   0.928   1.569
 5191SOL    HW216473   3.224   1.083   1.565
 5192SOL     OW16474   5.114   5.466   2.505
 5192SOL    HW116475   5.132   5.564   2.500
 5192SOL    HW216476   5.072   5.444   2.593
 5193SOL     OW16477   4.660   4.477   3.736
 5193SOL    HW116478   4.612   4.489   3.649
 5193SOL    HW216479   4.702   4.387   3.739
 5194SOL     OW16480   5.011   0.875   5.956
 5194SOL    HW116481   5.026   0.912   6.048
 5194SOL    HW216482   4.914   0.884   5.933
 5195SOL     OW16483   6.084   6.848   4.571
 5195SOL    HW116484   6.145   6.898   4.633
 5195SOL    HW216485   6.083   6.752   4.597
 5196SOL     OW16486   0.726   4.158   1.699
 5196SOL    HW116487   0.670   4.082   1.732
 5196SOL    HW216488   0.731   4.155   1.599
 5197SOL     OW16489   1.520   6.119   4.216
 5197SOL    HW116490   1.481   6.152   4.130
 5197SOL    HW216491   1.615   6.091   4.201
 5198SOL     OW16492   2.969   6.684   4.737
 5198SOL    HW116493   2.928   6.717   4.652
 5198SOL    HW216494   2.934   6.593   4.758
 5199SOL     OW16495   2.091   5.500   1.510
 5199SOL    HW116496   2.008   5.487   1.455
 5199SOL    HW216497   2.160   5.435   1.480
 5200SOL     OW16498   1.121   1.957   5.078
 5200SOL    HW116499   1.094   1.861   5.088
 5200SOL    HW216500   1.219   1.966   5.096
 5201SOL     OW16501   5.702   4.784   4.502
 5201SOL    HW116502   5.775   4.721   4.529
 5201SOL    HW216503   5.742   4.872   4.476
 5202SOL     OW16504   5.113   3.186   0.009
 5202SOL    HW116505   5.146   3.104   0.056
 5202SOL    HW216506   5.022   3.169   6.992
 5203SOL     OW16507   1.540   0.652   6.406
 5203SOL    HW116508   1.568   0.694   6.320
 5203SOL    HW216509   1.620   0.620   6.456
 5204SOL     OW16510   3.494   6.781   6.768
 5204SOL    HW116511   3.528   6.738   6.852
 5204SOL    HW216512   3.396   6.796   6.777
 5205SOL     OW16513   6.580   5.789   1.012
 5205SOL    HW116514   6.630   5.841   1.081
 5205SOL    HW216515   6.610   5.693   1.016
 5206SOL     OW16516   0.933   4.712   5.069
 5206SOL    HW116517   0.926   4.762   5.155
 5206SOL    HW216518   1.023   4.671   5.061
 5207SOL     OW16519   0.038   0.023   3.818
 5207SOL    HW116520   7.008   6.967   3.784
 5207SOL    HW216521   6.998   0.102   3.829
 5208SOL     OW16522   5.004   2.377   0.667
 5208SOL    HW116523   4.946   2.438   0.721
 5208SOL    HW216524   4.948   2.304   0.627
 5209SOL     OW16525   4.535   0.014   3.437
 5209SOL    HW116526   4.554   6.981   3.356
 5209SOL    HW216527   4.442   0.050   3.433
 5210SOL     OW16528   4.920   4.596   1.130
 5210SOL    HW116529   4.867   4.631   1.053
 5210SOL    HW216530   4.890   4.503   1.152
 5211SOL     OW16531   4.739   2.171   4.098
 5211SOL    HW116532   4.762   2.265   4.071
 5211SOL    HW216533   4.815   2.132   4.150
 5212SOL     OW16534   1.295   2.003   1.090
 5212SOL    HW116535   1.277   1.959   1.178
 5212SOL    HW216536   1.377   1.964   1.050
 5213SOL     OW16537   4.112   3.668   2.169
 5213SOL    HW116538   4.194   3.615   2.192
 5213SOL    HW216539   4.032   3.608   2.169
 5214SOL     OW16540   5.645   4.357   6.347
 5214SOL    HW116541   5.550   4.337   6.323
 5214SOL    HW216542   5.648   4.413   6.429
 5215SOL     OW16543   7.017   3.000   4.891
 5215SOL    HW116544   6.946   3.069   4.876
 5215SOL    HW216545   0.057   3.030   4.963
 5216SOL     OW16546   5.755   5.056   0.856
 5216SOL    HW116547   5.679   5.086   0.913
 5216SOL    HW216548   5.828   5.019   0.913
 5217SOL     OW16549   3.871   5.727   4.130
 5217SOL    HW116550   3.864   5.805   4.068
 5217SOL    HW216551   3.950   5.739   4.190
 5218SOL     OW16552   0.534   0.631   1.032
 5218SOL    HW116553   0.559   0.576   0.953
 5218SOL    HW216554   0.562   0.726   1.017
 5219SOL     OW16555   3.147   1.856   4.950
 5219SOL    HW116556   3.188   1.912   4.878
 5219SOL    HW216557   3.078   1.796   4.909
 5220SOL     OW16558   2.274   5.525   3.678
 5220SOL    HW116559   2.275   5.569   3.768
 5220SOL    HW216560   2.217   5.443   3.682
 5221SOL     OW16561   6.926   0.267   1.513
 5221SOL    HW116562   6.982   0.197   1.470
 5221SOL    HW216563   6.962   0.357   1.490
 5222SOL     OW16564   4.447   4.702   1.595
 5222SOL    HW116565   4.353   4.698   1.561
 5222SOL    HW216566   4.453   4.653   1.682
 5223SOL     OW16567   0.225   3.297   0.489
 5223SOL    HW116568   0.179   3.228   0.432
 5223SOL    HW216569   0.321   3.272   0.499
 5224SOL     OW16570   0.996   1.817   4.383
 5224SOL    HW116571   0.965   1.912   4.386
 5224SOL    HW216572   0.931   1.762   4.331
 5225SOL     OW16573   6.457   0.954   4.738
 5225SOL    HW116574   6.423   0.993   4.653
 5225SOL    HW216575   6.545   0.909   4.722
 5226SOL     OW16576   0.497   5.882   3.151
 5226SOL    HW116577   0.441   5.932   3.085
 5226SOL    HW216578   0.439   5.839   3.219
 5227SOL     OW16579   0.028   3.657   5.673
 5227SOL    HW116580   6.960   3.653   5.629
 5227SOL    HW216581   0.048   3.569   5.716
 5228SOL     OW16582   1.175   2.932   6.235
 5228SOL    HW116583   1.142   2.945   6.142
 5228SOL    HW216584   1.200   2.836   6.249
 5229SOL     OW16585   3.769   6.647   6.785
 5229SOL    HW116586   3.804   6.736   6.757
 5229SOL    HW216587   3.678   6.633   6.747
 5230SOL     OW16588   0.101   0.080   2.315
 5230SOL    HW116589   0.030   0.109   2.252
 5230SOL    HW216590   0.120   7.004   2.302
 5231SOL     OW16591   5.365   1.667   3.116
 5231SOL    HW116592   5.337   1.759   3.144
 5231SOL    HW216593   5.363   1.660   3.017
 5232SOL     OW16594   1.825   3.906   6.276
 5232SOL    HW116595   1.760   3.935   6.346
 5232SOL    HW216596   1.776   3.882   6.193
 5233SOL     OW16597   3.088   0.899   2.659
 5233SOL    HW116598   3.010   0.841   2.635
 5233SOL    HW216599   3.091   0.911   2.758
 5234SOL     OW16600   1.983   2.476   1.025
 5234SOL    HW116601   1.917   2.465   0.950
 5234SOL    HW216602   1.934   2.495   1.110
 5235SOL     OW16603   2.298   1.568   0.827
 5235SOL    HW116604   2.208   1.545   0.862
 5235SOL    HW216605   2.354   1.605   0.901
 5236SOL     OW16606   3.273   5.233   2.395
 5236SOL    HW116607   3.318   5.150   2.429
 5236SOL    HW216608   3.178   5.212   2.372
 5237SOL     OW16609   1.960   2.111   4.508
 5237SOL    HW116610   1.995   2.168   4.433
 5237SOL    HW216611   1.861   2.100   4.498
 5238SOL     OW16612   1.567   4.878   3.028
 5238SOL    HW116613   1.506   4.879   3.107
 5238SOL    HW216614   1.541   4.950   2.964
 5239SOL     OW16615   3.052   4.044   1.180
 5239SOL    HW116616   3.131   4.105   1.186
 5239SOL    HW216617   2.969   4.097   1.162
 5240SOL     OW16618   2.707   3.062   5.908
 5240SOL    HW116619   2.792   3.114   5.916
 5240SOL    HW216620   2.674   3.037   5.999
 5241SOL     OW16621   1.531   5.872   2.261
 5241SOL    HW116622   1.507   5.953   2.314
 5241SOL    HW216623   1.620   5.888   2.217
 5242SOL     OW16624   4.761   0.870   1.071
 5242SOL    HW116625   4.784   0.778   1.105
 5242SOL    HW216626   4.683   0.906   1.122
 5243SOL     OW16627   2.175   6.245   1.605
 5243SOL    HW116628   2.126   6.324   1.568
 5243SOL    HW216629   2.178   6.173   1.536
 5244SOL     OW16630   5.247   3.398   0.797
 5244SOL    HW116631   5.151   3.378   0.782
 5244SOL    HW216632   5.296   3.393   0.710
 5245SOL     OW16633   4.092   4.194   0.193
 5245SOL    HW116634   4.138   4.199   0.281
 5245SOL    HW216635   4.036   4.112   0.188
 5246SOL     OW16636   6.719   3.055   1.933
 5246SOL    HW116637   6.697   3.008   1.848
 5246SOL    HW216638   6.716   3.154   1.918
 5247SOL     OW16639   3.863   1.593   5.508
 5247SOL    HW116640   3.888   1.687   5.529
 5247SOL    HW216641   3.771   1.589   5.471
 5248SOL     OW16642   6.907   1.638   2.860
 5248SOL    HW116643   6.994   1.606   2.897
 5248SOL    HW216644   6.924   1.684   2.772
 5249SOL     OW16645   1.020   5.010   0.496
 5249SOL    HW116646   0.946   5.062   0.452
 5249SOL    HW216647   1.106   5.029   0.447
 5250SOL     OW16648   2.208   5.430   0.218
 5250SOL    HW116649   2.226   5.356   0.154
 5250SOL    HW216650   2.267   5.420   0.298
 5251SOL     OW16651   1.175   4.458   1.533
 5251SOL    HW116652   1.185   4.358   1.526
 5251SOL    HW216653   1.130   4.493   1.451
 5252SOL     OW16654   3.160   6.440   1.946
 5252SOL    HW116655   3.110   6.371   1.997
 5252SOL    HW216656   3.117   6.530   1.959
 5253SOL     OW16657   5.953   4.137   4.733
 5253SOL    HW116658   5.915   4.062   4.679
 5253SOL    HW216659   5.882   4.174   4.793
 5254SOL     OW16660   5.802   0.292   3.331
 5254SOL    HW116661   5.868   0.218   3.320
 5254SOL    HW216662   5.846   0.380   3.313
 5255SOL     OW16663   5.545   2.247   4.502
 5255SOL    HW116664   5.595   2.178   4.555
 5255SOL    HW216665   5.480   2.201   4.441
 5256SOL     OW16666   4.529   0.993   3.042
 5256SOL    HW116667   4.459   1.010   2.972
 5256SOL    HW216668   4.504   1.040   3.126
 5257SOL     OW16669   4.279   0.424   0.046
 5257SOL    HW116670   4.363   0.459   0.005
 5257SOL    HW216671   4.261   0.332   0.012
 5258SOL     OW16672   5.553   1.586   2.623
 5258SOL    HW116673   5.613   1.657   2.658
 5258SOL    HW216674   5.525   1.609   2.530
 5259SOL     OW16675   5.069   5.845   2.744
 5259SOL    HW116676   5.083   5.759   2.793
 5259SOL    HW216677   5.122   5.917   2.788
 5260SOL     OW16678   2.910   5.474   7.021
 5260SOL    HW116679   2.815   5.504   7.011
 5260SOL    HW216680   2.965   5.510   6.946
 5261SOL     OW16681   6.960   4.818   1.046
 5261SOL    HW116682   6.975   4.725   1.014
 5261SOL    HW216683   6.975   4.822   1.145
 5262SOL     OW16684   2.508   0.699   3.096
 5262SOL    HW116685   2.527   0.740   3.185
 5262SOL    HW216686   2.409   0.684   3.087
 5263SOL     OW16687   1.787   1.165   3.243
 5263SOL    HW116688   1.793   1.069   3.272
 5263SOL    HW216689   1.720   1.213   3.298
 5264SOL     OW16690   6.846   2.140   1.783
 5264SOL    HW116691   6.895   2.214   1.736
 5264SOL    HW216692   6.748   2.160   1.782
 5265SOL     OW16693   5.384   2.718   4.237
 5265SOL    HW116694   5.390   2.623   4.268
 5265SOL    HW216695   5.449   2.773   4.290
 5266SOL     OW16696   2.302   6.506   0.901
 5266SOL    HW116697   2.307   6.499   0.802
 5266SOL    HW216698   2.282   6.601   0.927
 5267SOL     OW16699   4.422   2.377   4.367
 5267SOL    HW116700   4.491   2.309   4.343
 5267SOL    HW216701   4.459   2.440   4.435
 5268SOL     OW16702   5.470   0.446   7.002
 5268SOL    HW116703   5.561   0.463   0.016
 5268SOL    HW216704   5.476   0.384   6.923
 5269SOL     OW16705   0.612   6.703   2.586
 5269SOL    HW116706   0.652   6.681   2.497
 5269SOL    HW216707   0.514   6.717   2.576
 5270SOL     OW16708   6.512   1.935   0.492
 5270SOL    HW116709   6.609   1.957   0.482
 5270SOL    HW216710   6.465   2.012   0.537
 5271SOL     OW16711   6.415   5.433   5.107
 5271SOL    HW116712   6.426   5.407   5.011
 5271SOL    HW216713   6.480   5.383   5.164
 5272SOL     OW16714   3.924   6.669   0.836
 5272SOL    HW116715   3.850   6.642   0.774
 5272SOL    HW216716   3.896   6.651   0.930
 5273SOL     OW16717   0.977   3.361   2.670
 5273SOL    HW116718   1.024   3.448   2.654
 5273SOL    HW216719   1.008   3.322   2.756
 5274SOL     OW16720   4.462   6.417   2.488
 5274SOL    HW116721   4.443   6.380   2.397
 5274SOL    HW216722   4.546   6.470   2.486
 5275SOL     OW16723   2.562   0.389   0.940
 5275SOL    HW116724   2.593   0.475   0.901
 5275SOL    HW216725   2.467   0.398   0.971
 5276SOL     OW16726   2.142   0.015   1.703
 5276SOL    HW116727   2.116   0.090   1.642
 5276SOL    HW216728   2.235   0.030   1.737
 5277SOL     OW16729   2.904   1.119   2.594
 5277SOL    HW116730   2.962   1.198   2.575
 5277SOL    HW216731   2.960   1.047   2.636
 5278SOL     OW16732   4.012   4.819   2.943
 5278SOL    HW116733   3.981   4.842   2.851
 5278SOL    HW216734   4.109   4.796   2.941
 5279SOL     OW16735   2.664   5.435   1.226
 5279SOL    HW116736   2.637   5.519   1.179
 5279SOL    HW216737   2.635   5.441   1.322
 5280SOL     OW16738   3.266   6.435   5.239
 5280SOL    HW116739   3.280   6.529   5.271
 5280SOL    HW216740   3.195   6.392   5.294
 5281SOL     OW16741   0.125   1.662   2.607
 5281SOL    HW116742   0.149   1.749   2.650
 5281SOL    HW216743   0.140   1.587   2.672
 5282SOL     OW16744   2.455   2.034   3.627
 5282SOL    HW116745   2.400   2.093   3.567
 5282SOL    HW216746   2.528   1.992   3.574
 5283SOL     OW16747   5.252   5.581   1.019
 5283SOL    HW116748   5.163   5.552   0.984
 5283SOL    HW216749   5.310   5.610   0.943
 5284SOL     OW16750   5.241   4.374   3.008
 5284SOL    HW116751   5.284   4.284   3.008
 5284SOL    HW216752   5.153   4.369   2.962
 5285SOL     OW16753   3.377   4.930   3.833
 5285SOL    HW116754   3.412   4.934   3.927
 5285SOL    HW216755   3.449   4.957   3.769
 5286SOL     OW16756   2.133   4.263   1.106
 5286SOL    HW116757   2.052   4.210   1.081
 5286SOL    HW216758   2.169   4.310   1.025
 5287SOL     OW16759   2.483   1.092   0.627
 5287SOL    HW116760   2.429   1.164   0.671
 5287SOL    HW216761   2.455   1.083   0.531
 5288SOL     OW16762   3.169   0.220   1.085
 5288SOL    HW116763   3.162   0.178   1.175
 5288SOL    HW216764   3.131   0.158   1.016
 5289SOL     OW16765   0.768   5.249   0.692
 5289SOL    HW116766   0.740   5.158   0.661
 5289SOL    HW216767   0.698   5.287   0.752
 5290SOL     OW16768   3.712   5.850   6.998
 5290SOL    HW116769   3.619   5.862   6.963
 5290SOL    HW216770   3.718   5.764   0.027
 5291SOL     OW16771   1.596   4.736   5.616
 5291SOL    HW116772   1.511   4.764   5.572
 5291SOL    HW216773   1.576   4.667   5.686
 5292SOL     OW16774   4.841   3.327   6.776
 5292SOL    HW116775   4.745   3.349   6.756
 5292SOL    HW216776   4.845   3.241   6.827
 5293SOL     OW16777   0.848   0.461   4.466
 5293SOL    HW116778   0.784   0.500   4.532
 5293SOL    HW216779   0.938   0.505   4.476
 5294SOL     OW16780   5.843   2.819   6.043
 5294SOL    HW116781   5.920   2.866   6.085
 5294SOL    HW216782   5.844   2.834   5.944
 5295SOL     OW16783   5.271   1.073   2.957
 5295SOL    HW116784   5.361   1.050   2.920
 5295SOL    HW216785   5.279   1.153   3.017
 5296SOL     OW16786   1.617   4.661   0.832
 5296SOL    HW116787   1.624   4.696   0.925
 5296SOL    HW216788   1.709   4.637   0.799
 5297SOL     OW16789   2.184   1.357   1.155
 5297SOL    HW116790   2.152   1.348   1.250
 5297SOL    HW216791   2.186   1.266   1.113
 5298SOL     OW16792   6.171   4.827   1.528
 5298SOL    HW116793   6.117   4.856   1.449
 5298SOL    HW216794   6.235   4.900   1.554
 5299SOL     OW16795   3.139   0.629   1.636
 5299SOL    HW116796   3.160   0.606   1.541
 5299SOL    HW216797   3.041   0.617   1.652
 5300SOL     OW16798   0.254   6.638   3.523
 5300SOL    HW116799   0.237   6.638   3.425
 5300SOL    HW216800   0.197   6.568   3.567
 5301SOL     OW16801   4.473   1.591   6.804
 5301SOL    HW116802   4.437   1.590   6.898
 5301SOL    HW216803   4.446   1.507   6.758
 5302SOL     OW16804   6.449   4.379   3.058
 5302SOL    HW116805   6.538   4.345   3.090
 5302SOL    HW216806   6.457   4.476   3.035
 5303SOL     OW16807   7.008   4.588   3.722
 5303SOL    HW116808   6.980   4.513   3.662
 5303SOL    HW216809   6.956   4.670   3.700
 5304SOL     OW16810   4.862   1.722   5.865
 5304SOL    HW116811   4.938   1.670   5.903
 5304SOL    HW216812   4.781   1.664   5.859
 5305SOL     OW16813   2.498   0.770   3.696
 5305SOL    HW116814   2.489   0.859   3.651
 5305SOL    HW216815   2.507   0.783   3.794
 5306SOL     OW16816   2.984   6.414   6.033
 5306SOL    HW116817   3.044   6.492   6.016
 5306SOL    HW216818   2.945   6.382   5.947
 5307SOL     OW16819   4.732   6.903   6.296
 5307SOL    HW116820   4.728   6.965   6.218
 5307SOL    HW216821   4.823   6.908   6.337
 5308SOL     OW16822   6.873   0.814   3.395
 5308SOL    HW116823   6.942   0.783   3.462
 5308SOL    HW216824   6.782   0.804   3.435
 5309SOL     OW16825   3.866   4.039   3.995
 5309SOL    HW116826   3.827   4.020   3.905
 5309SOL    HW216827   3.964   4.020   3.995
 5310SOL     OW16828   5.673   1.996   1.538
 5310SOL    HW116829   5.635   2.024   1.625
 5310SOL    HW216830   5.746   1.928   1.553
 5311SOL     OW16831   2.142   5.405   6.879
 5311SOL    HW116832   2.064   5.466   6.890
 5311SOL    HW216833   2.121   5.337   6.809
 5312SOL     OW16834   1.106   4.136   2.995
 5312SOL    HW116835   1.064   4.117   3.083
 5312SOL    HW216836   1.202   4.105   2.997
 5313SOL     OW16837   1.350   6.001   6.264
 5313SOL    HW116838   1.330   5.913   6.307
 5313SOL    HW216839   1.354   6.072   6.334
 5314SOL     OW16840   3.920   5.438   6.860
 5314SOL    HW116841   3.962   5.525   6.834
 5314SOL    HW216842   3.989   5.365   6.856
 5315SOL     OW16843   5.674   3.586   1.692
 5315SOL    HW116844   5.592   3.617   1.644
 5315SOL    HW216845   5.708   3.659   1.751
 5316SOL     OW16846   6.904   4.820   4.588
 5316SOL    HW116847   6.991   4.858   4.619
 5316SOL    HW216848   6.886   4.851   4.495
 5317SOL     OW16849   5.237   0.267   2.200
 5317SOL    HW116850   5.179   0.229   2.272
 5317SOL    HW216851   5.333   0.264   2.228
 5318SOL     OW16852   0.206   2.655   4.289
 5318SOL    HW116853   0.157   2.646   4.376
 5318SOL    HW216854   0.268   2.734   4.294
 5319SOL     OW16855   4.968   0.285   0.195
 5319SOL    HW116856   5.021   0.224   0.254
 5319SOL    HW216857   5.028   0.326   0.127
 5320SOL     OW16858   5.551   3.517   6.758
 5320SOL    HW116859   5.580   3.468   6.675
 5320SOL    HW216860   5.456   3.494   6.779
 5321SOL     OW16861   1.370   5.723   5.557
 5321SOL    HW116862   1.450   5.700   5.501
 5321SOL    HW216863   1.300   5.653   5.547
 5322SOL     OW16864   3.568   5.390   6.441
 5322SOL    HW116865   3.601   5.355   6.529
 5322SOL    HW216866   3.482   5.345   6.417
 5323SOL     OW16867   4.381   1.826   0.395
 5323SOL    HW116868   4.375   1.923   0.371
 5323SOL    HW216869   4.410   1.774   0.315
 5324SOL     OW16870   4.109   2.977   1.787
 5324SOL    HW116871   4.038   2.905   1.788
 5324SOL    HW216872   4.072   3.059   1.743
 5325SOL     OW16873   5.273   6.398   2.122
 5325SOL    HW116874   5.347   6.459   2.094
 5325SOL    HW216875   5.242   6.423   2.214
 5326SOL     OW16876   6.750   5.859   1.439
 5326SOL    HW116877   6.810   5.789   1.478
 5326SOL    HW216878   6.665   5.815   1.407
 5327SOL     OW16879   6.610   6.687   4.371
 5327SOL    HW116880   6.631   6.783   4.388
 5327SOL    HW216881   6.651   6.630   4.443
 5328SOL     OW16882   3.591   4.022   0.082
 5328SOL    HW116883   3.632   3.931   0.090
 5328SOL    HW216884   3.603   4.072   0.168
 5329SOL     OW16885   0.558   4.431   0.672
 5329SOL    HW116886   0.486   4.394   0.731
 5329SOL    HW216887   0.586   4.521   0.705
 5330SOL     OW16888   3.828   3.884   1.331
 5330SOL    HW116889   3.869   3.920   1.247
 5330SOL    HW216890   3.728   3.888   1.323
 5331SOL     OW16891   4.518   2.318   0.476
 5331SOL    HW116892   4.494   2.414   0.490
 5331SOL    HW216893   4.470   2.262   0.543
 5332SOL     OW16894   5.889   4.701   0.431
 5332SOL    HW116895   5.943   4.709   0.347
 5332SOL    HW216896   5.887   4.605   0.459
 5333SOL     OW16897   1.614   1.343   3.371
 5333SOL    HW116898   1.589   1.406   3.445
 5333SOL    HW216899   1.539   1.279   3.355
 5334SOL     OW16900   4.442   4.507   2.985
 5334SOL    HW116901   4.490   4.471   2.905
 5334SOL    HW216902   4.357   4.549   2.956
 5335SOL     OW16903   0.114   5.031   1.478
 5335SOL    HW116904   0.161   5.026   1.566
 5335SOL    HW216905   0.181   5.040   1.405
 5336SOL     OW16906   1.963   2.253   4.141
 5336SOL    HW116907   1.986   2.222   4.049
 5336SOL    HW216908   2.041   2.240   4.202
 5337SOL     OW16909   0.123   4.570   1.155
 5337SOL    HW116910   0.071   4.490   1.185
 5337SOL    HW216911   0.098   4.649   1.211
 5338SOL     OW16912   6.703   3.616   0.776
 5338SOL    HW116913   6.695   3.589   0.680
 5338SOL    HW216914   6.732   3.538   0.830
 5339SOL     OW16915   5.664   2.525   2.859
 5339SOL    HW116916   5.586   2.468   2.833
 5339SOL    HW216917   5.701   2.570   2.778
 5340SOL     OW16918   5.532   2.857   2.678
 5340SOL    HW116919   5.605   2.824   2.619
 5340SOL    HW216920   5.448   2.806   2.659
 5341SOL     OW16921   4.711   5.012   3.525
 5341SOL    HW116922   4.792   5.056   3.564
 5341SOL    HW216923   4.637   5.013   3.592
 5342SOL     OW16924   5.909   0.211   4.900
 5342SOL    HW116925   5.909   0.276   4.976
 5342SOL    HW216926   5.826   0.224   4.846
 5343SOL     OW16927   4.060   3.613   5.503
 5343SOL    HW116928   4.056   3.696   5.558
 5343SOL    HW216929   4.077   3.638   5.408
 5344SOL     OW16930   0.468   2.047   5.986
 5344SOL    HW116931   0.389   2.035   6.046
 5344SOL    HW216932   0.440   2.099   5.905
 5345SOL     OW16933   5.471   1.806   6.965
 5345SOL    HW116934   5.446   1.717   7.004
 5345SOL    HW216935   5.497   1.794   6.869
 5346SOL     OW16936   2.755   5.179   4.106
 5346SOL    HW116937   2.808   5.234   4.170
 5346SOL    HW216938   2.671   5.228   4.081
 5347SOL     OW16939   6.199   1.645   3.997
 5347SOL    HW116940   6.182   1.554   3.959
 5347SOL    HW216941   6.286   1.645   4.046
 5348SOL     OW16942   5.402   2.190   3.773
 5348SOL    HW116943   5.347   2.165   3.693
 5348SOL    HW216944   5.461   2.114   3.798
 5349SOL     OW16945   0.662   3.126   2.220
 5349SOL    HW116946   0.753   3.119   2.261
 5349SOL    HW216947   0.669   3.113   2.121
 5350SOL     OW16948   2.265   6.636   6.231
 5350SOL    HW116949   2.190   6.619   6.296
 5350SOL    HW216950   2.333   6.564   6.240
 5351SOL     OW16951   0.495   5.638   1.675
 5351SOL    HW116952   0.582   5.683   1.655
 5351SOL    HW216953   0.480   5.563   1.610
 5352SOL     OW16954   2.091   3.816   4.320
 5352SOL    HW116955   2.134   3.761   4.392
 5352SOL    HW216956   1.993   3.798   4.317
 5353SOL     OW16957   4.560   5.764   3.387
 5353SOL    HW116958   4.634   5.828   3.369
 5353SOL    HW216959   4.541   5.711   3.304
 5354SOL     OW16960   3.562   5.419   0.276
 5354SOL    HW116961   3.478   5.369   0.255
 5354SOL    HW216962   3.619   5.363   0.336
 5355SOL     OW16963   5.130   4.717   5.342
 5355SOL    HW116964   5.229   4.722   5.353
 5355SOL    HW216965   5.101   4.621   5.342
 5356SOL     OW16966   0.316   5.045   1.244
 5356SOL    HW116967   0.248   5.065   1.174
 5356SOL    HW216968   0.384   4.982   1.207
 5357SOL     OW16969   5.087   4.927   2.083
 5357SOL    HW116970   5.163   4.986   2.054
 5357SOL    HW216971   5.013   4.984   2.119
 5358SOL     OW16972   4.404   1.488   0.564
 5358SOL    HW116973   4.326   1.465   0.507
 5358SOL    HW216974   4.486   1.498   0.507
 5359SOL     OW16975   1.691   2.102   6.618
 5359SOL    HW116976   1.707   2.144   6.529
 5359SOL    HW216977   1.735   2.157   6.689
 5360SOL     OW16978   5.107   4.686   3.149
 5360SOL    HW116979   5.206   4.687   3.166
 5360SOL    HW216980   5.068   4.601   3.185
 5361SOL     OW16981   2.866   6.019   2.275
 5361SOL    HW116982   2.807   6.059   2.204
 5361SOL    HW216983   2.947   6.076   2.286
 5362SOL     OW16984   5.711   0.475   1.868
 5362SOL    HW116985   5.747   0.568   1.880
 5362SOL    HW216986   5.752   0.434   1.787
 5363SOL     OW16987   5.564   5.204   5.073
 5363SOL    HW116988   5.652   5.225   5.030
 5363SOL    HW216989   5.544   5.107   5.062
 5364SOL     OW16990   4.731   0.751   2.599
 5364SOL    HW116991   4.641   0.719   2.569
 5364SOL    HW216992   4.722   0.802   2.685
 5365SOL     OW16993   3.371   2.901   4.167
 5365SOL    HW116994   3.344   2.882   4.262
 5365SOL    HW216995   3.406   2.994   4.161
 5366SOL     OW16996   6.265   6.501   1.576
 5366SOL    HW116997   6.172   6.469   1.558
 5366SOL    HW216998   6.329   6.451   1.519
 5367SOL     OW16999   6.766   6.516   1.699
 5367SOL    HW117000   6.735   6.608   1.676
 5367SOL    HW217001   6.771   6.460   1.616
 5368SOL     OW17002   6.865   5.907   3.479
 5368SOL    HW117003   6.788   5.944   3.531
 5368SOL    HW217004   6.871   5.953   3.391
 5369SOL     OW17005   2.883   6.083   1.983
 5369SOL    HW117006   2.791   6.117   1.968
 5369SOL    HW217007   2.898   6.001   1.928
 5370SOL     OW17008   3.031   3.825   1.600
 5370SOL    HW117009   3.045   3.893   1.529
 5370SOL    HW217010   2.934   3.802   1.607
 5371SOL     OW17011   6.615   5.270   5.199
 5371SOL    HW117012   6.671   5.206   5.251
 5371SOL    HW217013   6.662   5.293   5.113
 5372SOL     OW17014   0.707   0.173   2.421
 5372SOL    HW117015   0.660   0.255   2.454
 5372SOL    HW217016   0.769   0.198   2.347
 5373SOL     OW17017   3.404   0.531   6.170
 5373SOL    HW117018   3.423   0.542   6.072
 5373SOL    HW217019   3.472   0.470   6.211
 5374SOL     OW17020   3.181   5.168   1.669
 5374SOL    HW117021   3.207   5.265   1.669
 5374SOL    HW217022   3.103   5.155   1.731
 5375SOL     OW17023   0.682   5.892   4.550
 5375SOL    HW117024   0.655   5.964   4.487
 5375SOL    HW217025   0.779   5.871   4.538
 5376SOL     OW17026   0.605   1.769   6.810
 5376SOL    HW117027   0.509   1.755   6.785
 5376SOL    HW217028   0.624   1.722   6.897
 5377SOL     OW17029   2.529   0.369   3.452
 5377SOL    HW117030   2.495   0.336   3.364
 5377SOL    HW217031   2.510   0.467   3.461
 5378SOL     OW17032   5.358   1.061   1.988
 5378SOL    HW117033   5.446   1.053   1.942
 5378SOL    HW217034   5.343   0.983   2.048
 5379SOL     OW17035   1.233   3.189   6.341
 5379SOL    HW117036   1.217   3.099   6.300
 5379SOL    HW217037   1.232   3.180   6.441
 5380SOL     OW17038   4.644   0.042   0.956
 5380SOL    HW117039   4.702   0.113   0.995
 5380SOL    HW217040   4.694   7.014   0.885
 5381SOL     OW17041   4.553   6.046   3.188
 5381SOL    HW117042   4.500   6.075   3.268
 5381SOL    HW217043   4.592   6.127   3.143
 5382SOL     OW17044   3.979   1.765   1.668
 5382SOL    HW117045   3.989   1.860   1.696
 5382SOL    HW217046   4.069   1.725   1.652
 5383SOL     OW17047   2.197   2.891   4.337
 5383SOL    HW117048   2.239   2.890   4.427
 5383SOL    HW217049   2.103   2.857   4.343
 5384SOL     OW17050   4.859   6.207   5.711
 5384SOL    HW117051   4.809   6.268   5.650
 5384SOL    HW217052   4.797   6.137   5.748
 5385SOL     OW17053   5.444   2.652   5.547
 5385SOL    HW117054   5.393   2.655   5.461
 5385SOL    HW217055   5.384   2.622   5.621
 5386SOL     OW17056   6.377   4.076   4.098
 5386SOL    HW117057   6.407   4.020   4.021
 5386SOL    HW217058   6.454   4.092   4.160
 5387SOL     OW17059   1.877   1.681   2.534
 5387SOL    HW117060   1.872   1.672   2.435
 5387SOL    HW217061   1.853   1.594   2.577
 5388SOL     OW17062   0.542   6.982   2.465
 5388SOL    HW117063   0.601   0.041   2.455
 5388SOL    HW217064   0.599   6.900   2.470
 5389SOL     OW17065   4.176   2.026   4.006
 5389SOL    HW117066   4.238   2.104   4.015
 5389SOL    HW217067   4.198   1.975   3.922
 5390SOL     OW17068   6.471   3.178   3.613
 5390SOL    HW117069   6.423   3.112   3.671
 5390SOL    HW217070   6.405   3.237   3.567
 5391SOL     OW17071   2.264   2.548   0.514
 5391SOL    HW117072   2.248   2.602   0.431
 5391SOL    HW217073   2.177   2.508   0.546
 5392SOL     OW17074   5.763   2.021   3.723
 5392SOL    HW117075   5.734   2.069   3.640
 5392SOL    HW217076   5.686   1.969   3.759
 5393SOL     OW17077   3.830   1.851   5.581
 5393SOL    HW117078   3.864   1.864   5.674
 5393SOL    HW217079   3.866   1.923   5.522
 5394SOL     OW17080   1.723   0.572   1.066
 5394SOL    HW117081   1.746   0.476   1.051
 5394SOL    HW217082   1.696   0.613   0.979
 5395SOL     OW17083   5.619   1.981   1.245
 5395SOL    HW117084   5.634   1.949   1.339
 5395SOL    HW217085   5.580   2.073   1.247
 5396SOL     OW17086   5.716   5.301   3.366
 5396SOL    HW117087   5.777   5.259   3.299
 5396SOL    HW217088   5.730   5.258   3.455
 5397SOL     OW17089   6.356   1.105   3.146
 5397SOL    HW117090   6.351   1.007   3.165
 5397SOL    HW217091   6.279   1.132   3.088
 5398SOL     OW17092   4.963   1.794   3.471
 5398SOL    HW117093   4.896   1.811   3.399
 5398SOL    HW217094   5.052   1.830   3.442
 5399SOL     OW17095   2.773   0.146   5.831
 5399SOL    HW117096   2.862   0.139   5.785
 5399SOL    HW217097   2.787   0.158   5.929
 5400SOL     OW17098   3.614   3.272   1.337
 5400SOL    HW117099   3.706   3.271   1.376
 5400SOL    HW217100   3.558   3.339   1.386
 5401SOL     OW17101   5.966   4.352   1.317
 5401SOL    HW117102   5.925   4.371   1.406
 5401SOL    HW217103   6.065   4.343   1.326
 5402SOL     OW17104   1.705   0.031   1.207
 5402SOL    HW117105   1.652   0.112   1.179
 5402SOL    HW217106   1.752   0.050   1.293
 5403SOL     OW17107   5.229   3.122   0.399
 5403SOL    HW117108   5.183   3.209   0.380
 5403SOL    HW217109   5.319   3.120   0.356
 5404SOL     OW17110   6.662   1.011   1.228
 5404SOL    HW117111   6.617   1.025   1.141
 5404SOL    HW217112   6.745   1.067   1.233
 5405SOL     OW17113   4.812   6.111   6.950
 5405SOL    HW117114   4.831   6.185   6.885
 5405SOL    HW217115   4.882   6.040   6.941
 5406SOL     OW17116   2.681   0.328   3.962
 5406SOL    HW117117   2.681   0.266   4.041
 5406SOL    HW217118   2.775   0.354   3.941
 5407SOL     OW17119   1.834   0.505   1.995
 5407SOL    HW117120   1.902   0.553   2.050
 5407SOL    HW217121   1.863   0.410   1.982
 5408SOL     OW17122   2.796   2.344   4.542
 5408SOL    HW117123   2.847   2.263   4.514
 5408SOL    HW217124   2.748   2.325   4.628
 5409SOL     OW17125   1.229   2.597   1.056
 5409SOL    HW117126   1.234   2.604   0.956
 5409SOL    HW217127   1.243   2.688   1.095
 5410SOL     OW17128   0.893   2.364   0.657
 5410SOL    HW117129   0.837   2.345   0.577
 5410SOL    HW217130   0.876   2.457   0.688
 5411SOL     OW17131   3.669   4.675   6.760
 5411SOL    HW117132   3.572   4.700   6.756
 5411SOL    HW217133   3.692   4.614   6.685
 5412SOL     OW17134   0.292   2.588   5.822
 5412SOL    HW117135   0.199   2.583   5.858
 5412SOL    HW217136   0.357   2.565   5.894
 5413SOL     OW17137   6.813   6.899   4.134
 5413SOL    HW117138   6.759   6.906   4.218
 5413SOL    HW217139   6.758   6.930   4.057
 5414SOL     OW17140   6.252   3.848   5.537
 5414SOL    HW117141   6.203   3.761   5.522
 5414SOL    HW217142   6.256   3.867   5.635
 5415SOL     OW17143   3.486   0.465   0.571
 5415SOL    HW117144   3.389   0.440   0.570
 5415SOL    HW217145   3.542   0.382   0.560
 5416SOL     OW17146   3.401   4.933   6.125
 5416SOL    HW117147   3.322   4.950   6.185
 5416SOL    HW217148   3.379   4.858   6.062
 5417SOL     OW17149   4.776   6.042   3.584
 5417SOL    HW117150   4.765   5.990   3.499
 5417SOL    HW217151   4.872   6.067   3.594
 5418SOL     OW17152   6.379   3.660   4.595
 5418SOL    HW117153   6.468   3.702   4.609
 5418SOL    HW217154   6.366   3.642   4.497
 5419SOL     OW17155   4.261   0.237   6.309
 5419SOL    HW117156   4.224   0.152   6.347
 5419SOL    HW217157   4.278   0.303   6.382
 5420SOL     OW17158   0.875   0.927   1.738
 5420SOL    HW117159   0.837   1.014   1.770
 5420SOL    HW217160   0.847   0.911   1.643
 5421SOL     OW17161   3.935   5.110   2.271
 5421SOL    HW117162   3.879   5.042   2.224
 5421SOL    HW217163   3.878   5.160   2.337
 5422SOL     OW17164   2.402   6.200   4.071
 5422SOL    HW117165   2.383   6.286   4.118
 5422SOL    HW217166   2.498   6.199   4.042
 5423SOL     OW17167   6.205   6.216   2.495
 5423SOL    HW117168   6.132   6.199   2.429
 5423SOL    HW217169   6.262   6.292   2.463
 5424SOL     OW17170   4.355   4.202   5.805
 5424SOL    HW117171   4.353   4.299   5.779
 5424SOL    HW217172   4.333   4.146   5.725
 5425SOL     OW17173   0.481   3.415   5.842
 5425SOL    HW117174   0.469   3.384   5.748
 5425SOL    HW217175   0.482   3.515   5.845
 5426SOL     OW17176   5.804   5.307   2.314
 5426SOL    HW117177   5.792   5.358   2.399
 5426SOL    HW217178   5.901   5.307   2.288
 5427SOL     OW17179   4.803   2.576   6.555
 5427SOL    HW117180   4.744   2.534   6.624
 5427SOL    HW217181   4.899   2.564   6.581
 5428SOL     OW17182   0.008   5.335   3.106
 5428SOL    HW117183   0.002   5.308   3.009
 5428SOL    HW217184   6.942   5.318   3.150
 5429SOL     OW17185   2.932   0.073   3.804
 5429SOL    HW117186   2.949   0.070   3.705
 5429SOL    HW217187   2.986   0.002   3.849
 5430SOL     OW17188   2.760   3.788   6.256
 5430SOL    HW117189   2.850   3.806   6.218
 5430SOL    HW217190   2.700   3.752   6.185
 5431SOL     OW17191   3.746   4.855   6.247
 5431SOL    HW117192   3.698   4.901   6.322
 5431SOL    HW217193   3.842   4.842   6.271
 5432SOL     OW17194   5.185   4.998   0.377
 5432SOL    HW117195   5.180   5.030   0.471
 5432SOL    HW217196   5.093   4.985   0.341
 5433SOL     OW17197   1.581   6.818   1.131
 5433SOL    HW117198   1.595   6.917   1.133
 5433SOL    HW217199   1.596   6.781   1.223
 5434SOL     OW17200   5.295   0.610   4.211
 5434SOL    HW117201   5.356   0.530   4.218
 5434SOL    HW217202   5.212   0.593   4.265
 5435SOL     OW17203   6.721   4.083   1.087
 5435SOL    HW117204   6.656   4.031   1.142
 5435SOL    HW217205   6.767   4.022   1.023
 5436SOL     OW17206   1.473   4.398   2.977
 5436SOL    HW117207   1.514   4.376   2.889
 5436SOL    HW217208   1.466   4.497   2.988
 5437SOL     OW17209   3.826   5.909   0.931
 5437SOL    HW117210   3.806   5.979   1.000
 5437SOL    HW217211   3.766   5.924   0.852
 5438SOL     OW17212   4.859   4.930   2.951
 5438SOL    HW117213   4.909   4.849   2.922
 5438SOL    HW217214   4.775   4.903   2.997
 5439SOL     OW17215   1.206   5.294   1.379
 5439SOL    HW117216   1.162   5.263   1.463
 5439SOL    HW217217   1.144   5.354   1.329
 5440SOL     OW17218   5.944   5.884   3.746
 5440SOL    HW117219   5.865   5.851   3.694
 5440SOL    HW217220   5.954   5.983   3.731
 5441SOL     OW17221   4.614   2.698   3.362
 5441SOL    HW117222   4.601   2.676   3.265
 5441SOL    HW217223   4.544   2.763   3.391
 5442SOL     OW17224   4.838   6.943   4.940
 5442SOL    HW117225   4.865   0.006   4.894
 5442SOL    HW217226   4.821   6.961   5.037
 5443SOL     OW17227   4.485   0.649   4.408
 5443SOL    HW117228   4.424   0.638   4.486
 5443SOL    HW217229   4.506   0.559   4.370
 5444SOL     OW17230   6.666   0.805   4.693
 5444SOL    HW117231   6.747   0.777   4.641
 5444SOL    HW217232   6.660   0.751   4.777
 5445SOL     OW17233   5.228   5.342   5.391
 5445SOL    HW117234   5.245   5.433   5.428
 5445SOL    HW217235   5.315   5.297   5.372
 5446SOL     OW17236   0.730   4.368   6.081
 5446SOL    HW117237   0.678   4.411   6.007
 5446SOL    HW217238   0.693   4.278   6.100
 5447SOL     OW17239   1.040   1.516   0.271
 5447SOL    HW117240   0.976   1.463   0.216
 5447SOL    HW217241   1.031   1.490   0.367
 5448SOL     OW17242   4.534   5.596   3.135
 5448SOL    HW117243   4.529   5.523   3.203
 5448SOL    HW217244   4.442   5.630   3.116
 5449SOL     OW17245   2.856   1.811   1.836
 5449SOL    HW117246   2.952   1.782   1.835
 5449SOL    HW217247   2.851   1.910   1.832
 5450SOL     OW17248   4.008   5.891   1.569
 5450SOL    HW117249   4.067   5.962   1.609
 5450SOL    HW217250   4.059   5.806   1.563
 5451SOL     OW17251   1.070   0.206   3.174
 5451SOL    HW117252   1.149   0.239   3.226
 5451SOL    HW217253   0.993   0.268   3.186
 5452SOL     OW17254   2.056   5.013   1.956
 5452SOL    HW117255   2.080   4.966   2.041
 5452SOL    HW217256   2.106   5.100   1.952
 5453SOL     OW17257   5.737   4.480   3.161
 5453SOL    HW117258   5.724   4.520   3.070
 5453SOL    HW217259   5.702   4.386   3.161
 5454SOL     OW17260   5.779   5.151   3.634
 5454SOL    HW117261   5.875   5.150   3.661
 5454SOL    HW217262   5.723   5.108   3.706
 5455SOL     OW17263   0.698   1.675   2.888
 5455SOL    HW117264   0.675   1.579   2.906
 5455SOL    HW217265   0.797   1.683   2.879
 5456SOL     OW17266   5.868   1.223   7.020
 5456SOL    HW117267   5.862   1.258   0.092
 5456SOL    HW217268   5.928   1.282   6.967
 5457SOL     OW17269   6.002   2.588   0.439
 5457SOL    HW117270   5.979   2.493   0.417
 5457SOL    HW217271   6.029   2.595   0.535
 5458SOL     OW17272   6.675   4.713   0.864
 5458SOL    HW117273   6.655   4.811   0.856
 5458SOL    HW217274   6.621   4.674   0.938
 5459SOL     OW17275   2.087   3.903   5.523
 5459SOL    HW117276   2.103   3.980   5.462
 5459SOL    HW217277   2.164   3.894   5.586
 5460SOL     OW17278   2.028   0.327   0.055
 5460SOL    HW117279   1.978   0.298   0.137
 5460SOL    HW217280   1.963   0.340   7.001
 5461SOL     OW17281   6.442   1.240   6.381
 5461SOL    HW117282   6.379   1.189   6.322
 5461SOL    HW217283   6.534   1.203   6.371
 5462SOL     OW17284   5.596   5.499   6.596
 5462SOL    HW117285   5.565   5.575   6.653
 5462SOL    HW217286   5.602   5.416   6.651
 5463SOL     OW17287   7.005   2.907   0.040
 5463SOL    HW117288   6.953   2.959   0.107
 5463SOL    HW217289   0.039   2.969   7.006
 5464SOL     OW17290   0.024   6.305   5.286
 5464SOL    HW117291   0.041   6.274   5.380
 5464SOL    HW217292   0.063   6.396   5.274
 5465SOL     OW17293   6.627   6.560   3.434
 5465SOL    HW117294   6.688   6.501   3.381
 5465SOL    HW217295   6.668   6.651   3.442
 5466SOL     OW17296   5.827   2.584   5.223
 5466SOL    HW117297   5.780   2.562   5.309
 5466SOL    HW217298   5.872   2.503   5.187
 5467SOL     OW17299   5.502   3.729   3.749
 5467SOL    HW117300   5.543   3.653   3.698
 5467SOL    HW217301   5.566   3.761   3.818
 5468SOL     OW17302   0.172   1.448   2.015
 5468SOL    HW117303   0.116   1.529   2.029
 5468SOL    HW217304   0.230   1.432   2.094
 5469SOL     OW17305   2.184   1.229   5.336
 5469SOL    HW117306   2.208   1.154   5.274
 5469SOL    HW217307   2.086   1.226   5.356
 5470SOL     OW17308   3.744   5.556   3.954
 5470SOL    HW117309   3.793   5.593   4.033
 5470SOL    HW217310   3.719   5.461   3.972
 5471SOL     OW17311   4.700   0.340   2.821
 5471SOL    HW117312   4.781   0.290   2.850
 5471SOL    HW217313   4.674   0.311   2.729
 5472SOL     OW17314   2.739   1.542   6.331
 5472SOL    HW117315   2.705   1.520   6.239
 5472SOL    HW217316   2.831   1.505   6.342
 5473SOL     OW17317   2.506   4.117   1.328
 5473SOL    HW117318   2.444   4.113   1.249
 5473SOL    HW217319   2.462   4.168   1.402
 5474SOL     OW17320   0.824   5.209   3.267
 5474SOL    HW117321   0.885   5.211   3.346
 5474SOL    HW217322   0.760   5.286   3.272
 5475SOL     OW17323   7.010   2.063   6.187
 5475SOL    HW117324   6.964   2.139   6.141
 5475SOL    HW217325   6.956   2.035   6.267
 5476SOL     OW17326   2.484   6.473   6.279
 5476SOL    HW117327   2.525   6.521   6.357
 5476SOL    HW217328   2.479   6.375   6.298
 5477SOL     OW17329   2.263   5.620   4.564
 5477SOL    HW117330   2.164   5.629   4.551
 5477SOL    HW217331   2.285   5.632   4.661
 5478SOL     OW17332   5.382   4.638   6.427
 5478SOL    HW117333   5.287   4.666   6.444
 5478SOL    HW217334   5.383   4.552   6.376
 5479SOL     OW17335   3.829   2.019   4.393
 5479SOL    HW117336   3.755   1.976   4.445
 5479SOL    HW217337   3.892   2.065   4.456
 5480SOL     OW17338   6.243   4.387   5.020
 5480SOL    HW117339   6.179   4.421   4.951
 5480SOL    HW217340   6.212   4.416   5.110
 5481SOL     OW17341   4.662   1.144   6.585
 5481SOL    HW117342   4.571   1.103   6.592
 5481SOL    HW217343   4.679   1.200   6.667
 5482SOL     OW17344   4.062   3.243   1.693
 5482SOL    HW117345   4.107   3.268   1.607
 5482SOL    HW217346   4.100   3.297   1.768
 5483SOL     OW17347   6.847   3.745   5.896
 5483SOL    HW117348   6.802   3.782   5.815
 5483SOL    HW217349   6.808   3.787   5.978
 5484SOL     OW17350   6.822   6.626   4.114
 5484SOL    HW117351   6.825   6.724   4.134
 5484SOL    HW217352   6.728   6.600   4.090
 5485SOL     OW17353   4.177   6.783   4.977
 5485SOL    HW117354   4.231   6.710   5.021
 5485SOL    HW217355   4.128   6.745   4.898
 5486SOL     OW17356   1.123   0.698   3.140
 5486SOL    HW117357   1.126   0.604   3.174
 5486SOL    HW217358   1.049   0.748   3.186
 5487SOL     OW17359   6.201   4.448   0.310
 5487SOL    HW117360   6.178   4.384   0.237
 5487SOL    HW217361   6.170   4.539   0.285
 5488SOL     OW17362   5.152   2.261   6.715
 5488SOL    HW117363   5.176   2.166   6.734
 5488SOL    HW217364   5.191   2.320   6.786
 5489SOL     OW17365   1.945   4.811   2.484
 5489SOL    HW117366   1.999   4.740   2.438
 5489SOL    HW217367   1.848   4.789   2.476
 5490SOL     OW17368   3.258   0.993   0.086
 5490SOL    HW117369   3.328   1.046   0.040
 5490SOL    HW217370   3.205   1.052   0.147
 5491SOL     OW17371   1.810   4.686   0.502
 5491SOL    HW117372   1.827   4.635   0.586
 5491SOL    HW217373   1.789   4.781   0.524
 5492SOL     OW17374   0.953   2.362   6.882
 5492SOL    HW117375   0.969   2.460   6.893
 5492SOL    HW217376   0.861   2.348   6.844
 5493SOL     OW17377   3.824   3.203   5.932
 5493SOL    HW117378   3.921   3.223   5.947
 5493SOL    HW217379   3.787   3.154   6.011
 5494SOL     OW17380   6.482   3.684   1.640
 5494SOL    HW117381   6.481   3.645   1.732
 5494SOL    HW217382   6.392   3.720   1.618
 5495SOL     OW17383   4.038   3.917   2.073
 5495SOL    HW117384   4.079   3.839   2.120
 5495SOL    HW217385   4.095   3.998   2.087
 5496SOL     OW17386   3.646   6.192   2.079
 5496SOL    HW117387   3.652   6.200   1.980
 5496SOL    HW217388   3.677   6.278   2.122
 5497SOL     OW17389   0.311   1.391   3.022
 5497SOL    HW117390   0.375   1.372   2.947
 5497SOL    HW217391   0.342   1.472   3.071
 5498SOL     OW17392   4.614   1.499   5.954
 5498SOL    HW117393   4.631   1.461   5.864
 5498SOL    HW217394   4.659   1.442   6.023
 5499SOL     OW17395   6.681   1.513   3.323
 5499SOL    HW117396   6.630   1.448   3.266
 5499SOL    HW217397   6.777   1.513   3.295
 5500SOL     OW17398   2.591   5.357   0.560
 5500SOL    HW117399   2.540   5.298   0.622
 5500SOL    HW217400   2.673   5.391   0.606
 5501SOL     OW17401   2.549   0.199   2.004
 5501SOL    HW117402   2.613   0.162   2.071
 5501SOL    HW217403   2.573   0.294   1.983
 5502SOL     OW17404   5.953   4.285   5.884
 5502SOL    HW117405   5.938   4.193   5.846
 5502SOL    HW217406   6.046   4.290   5.921
 5503SOL     OW17407   1.303   4.751   3.520
 5503SOL    HW117408   1.235   4.824   3.517
 5503SOL    HW217409   1.374   4.774   3.587
 5504SOL     OW17410   3.482   1.517   5.144
 5504SOL    HW117411   3.466   1.424   5.180
 5504SOL    HW217412   3.395   1.567   5.145
 5505SOL     OW17413   2.567   5.586   5.163
 5505SOL    HW117414   2.547   5.684   5.158
 5505SOL    HW217415   2.641   5.564   5.100
 5506SOL     OW17416   6.771   0.861   4.990
 5506SOL    HW117417   6.723   0.773   4.993
 5506SOL    HW217418   6.704   0.936   4.996
 5507SOL     OW17419   2.680   6.878   3.611
 5507SOL    HW117420   2.667   6.926   3.698
 5507SOL    HW217421   2.599   6.890   3.554
 5508SOL     OW17422   2.245   0.578   6.340
 5508SOL    HW117423   2.319   0.645   6.339
 5508SOL    HW217424   2.215   0.563   6.435
 5509SOL     OW17425   5.808   6.309   0.095
 5509SOL    HW117426   5.726   6.366   0.086
 5509SOL    HW217427   5.785   6.226   0.144
 5510SOL     OW17428   4.542   0.264   6.305
 5510SOL    HW117429   4.558   0.352   6.260
 5510SOL    HW217430   4.444   0.253   6.321
 5511SOL     OW17431   0.483   0.778   2.743
 5511SOL    HW117432   0.387   0.800   2.728
 5511SOL    HW217433   0.520   0.837   2.814
 5512SOL     OW17434   0.104   1.616   0.276
 5512SOL    HW117435   0.132   1.700   0.322
 5512SOL    HW217436   0.018   1.583   0.316
 5513SOL     OW17437   4.573   4.405   4.787
 5513SOL    HW117438   4.634   4.377   4.861
 5513SOL    HW217439   4.489   4.443   4.825
 5514SOL     OW17440   5.727   4.871   3.005
 5514SOL    HW117441   5.819   4.850   3.038
 5514SOL    HW217442   5.689   4.947   3.057
 5515SOL     OW17443   6.780   2.506   2.351
 5515SOL    HW117444   6.838   2.584   2.374
 5515SOL    HW217445   6.728   2.478   2.431
 5516SOL     OW17446   1.339   2.638   6.850
 5516SOL    HW117447   1.370   2.640   6.945
 5516SOL    HW217448   1.401   2.692   6.794
 5517SOL     OW17449   2.985   2.149   1.093
 5517SOL    HW117450   3.065   2.096   1.118
 5517SOL    HW217451   2.902   2.095   1.113
 5518SOL     OW17452   5.291   4.960   6.350
 5518SOL    HW117453   5.276   4.949   6.252
 5518SOL    HW217454   5.368   5.022   6.365
 5519SOL     OW17455   5.255   3.765   3.404
 5519SOL    HW117456   5.266   3.803   3.496
 5519SOL    HW217457   5.159   3.742   3.389
 5520SOL     OW17458   1.608   3.683   3.030
 5520SOL    HW117459   1.601   3.611   2.961
 5520SOL    HW217460   1.516   3.710   3.059
 5521SOL     OW17461   5.189   6.654   1.980
 5521SOL    HW117462   5.174   6.735   2.036
 5521SOL    HW217463   5.234   6.583   2.034
 5522SOL     OW17464   2.706   3.367   1.663
 5522SOL    HW117465   2.628   3.385   1.603
 5522SOL    HW217466   2.787   3.350   1.606
 5523SOL     OW17467   3.200   0.006   3.004
 5523SOL    HW117468   3.246   7.005   3.090
 5523SOL    HW217469   3.263   7.010   2.928
 5524SOL     OW17470   0.930   5.839   4.865
 5524SOL    HW117471   0.981   5.821   4.950
 5524SOL    HW217472   0.972   5.788   4.790
 5525SOL     OW17473   6.750   4.981   6.982
 5525SOL    HW117474   6.690   5.019   0.031
 5525SOL    HW217475   6.842   4.971   7.018
 5526SOL     OW17476   6.072   3.501   3.288
 5526SOL    HW117477   6.086   3.554   3.204
 5526SOL    HW217478   6.096   3.558   3.367
 5527SOL     OW17479   0.719   2.514   1.651
 5527SOL    HW117480   0.708   2.450   1.574
 5527SOL    HW217481   0.806   2.497   1.696
 5528SOL     OW17482   6.862   2.635   4.947
 5528SOL    HW117483   6.953   2.653   4.985
 5528SOL    HW217484   6.808   2.585   5.014
 5529SOL     OW17485   2.628   0.540   4.901
 5529SOL    HW117486   2.567   0.603   4.853
 5529SOL    HW217487   2.620   0.554   4.999
 5530SOL     OW17488   0.196   2.669   0.908
 5530SOL    HW117489   0.145   2.710   0.832
 5530SOL    HW217490   0.207   2.571   0.892
 5531SOL     OW17491   3.928   3.197   4.785
 5531SOL    HW117492   3.968   3.194   4.876
 5531SOL    HW217493   3.860   3.124   4.776
 5532SOL     OW17494   1.569   0.574   0.289
 5532SOL    HW117495   1.595   0.493   0.341
 5532SOL    HW217496   1.522   0.546   0.205
 5533SOL     OW17497   2.823   0.804   3.216
 5533SOL    HW117498   2.906   0.753   3.192
 5533SOL    HW217499   2.817   0.887   3.160
 5534SOL     OW17500   1.445   3.071   6.742
 5534SOL    HW117501   1.489   3.124   6.815
 5534SOL    HW217502   1.491   2.982   6.735
 5535SOL     OW17503   6.711   3.027   3.158
 5535SOL    HW117504   6.693   3.036   3.256
 5535SOL    HW217505   6.626   3.000   3.112
 5536SOL     OW17506   2.444   0.543   4.454
 5536SOL    HW117507   2.395   0.582   4.532
 5536SOL    HW217508   2.542   0.543   4.472
 5537SOL     OW17509   3.698   0.113   4.882
 5537SOL    HW117510   3.684   0.117   4.784
 5537SOL    HW217511   3.618   0.073   4.927
 5538SOL     OW17512   3.977   0.690   5.618
 5538SOL    HW117513   3.878   0.683   5.629
 5538SOL    HW217514   4.016   0.599   5.608
 5539SOL     OW17515   0.938   1.430   1.845
 5539SOL    HW117516   0.958   1.505   1.908
 5539SOL    HW217517   0.846   1.395   1.863
 5540SOL     OW17518   4.976   2.708   1.484
 5540SOL    HW117519   4.919   2.697   1.403
 5540SOL    HW217520   4.970   2.803   1.517
 5541SOL     OW17521   5.184   3.462   5.528
 5541SOL    HW117522   5.144   3.398   5.594
 5541SOL    HW217523   5.113   3.519   5.489
 5542SOL     OW17524   5.442   5.175   6.640
 5542SOL    HW117525   5.444   5.263   6.689
 5542SOL    HW217526   5.509   5.113   6.680
 5543SOL     OW17527   2.404   5.637   6.633
 5543SOL    HW117528   2.350   5.597   6.707
 5543SOL    HW217529   2.344   5.688   6.571
 5544SOL     OW17530   5.539   5.340   6.119
 5544SOL    HW117531   5.442   5.365   6.107
 5544SOL    HW217532   5.582   5.335   6.029
 5545SOL     OW17533   3.929   1.264   2.641
 5545SOL    HW117534   4.026   1.268   2.615
 5545SOL    HW217535   3.906   1.345   2.695
 5546SOL     OW17536   1.069   6.579   4.346
 5546SOL    HW117537   1.080   6.483   4.319
 5546SOL    HW217538   1.098   6.590   4.441
 5547SOL     OW17539   4.338   1.644   5.772
 5547SOL    HW117540   4.272   1.718   5.784
 5547SOL    HW217541   4.290   1.560   5.747
 5548SOL     OW17542   6.636   4.178   5.940
 5548SOL    HW117543   6.629   4.232   6.024
 5548SOL    HW217544   6.644   4.238   5.861
 5549SOL     OW17545   4.136   3.131   1.266
 5549SOL    HW117546   4.089   3.206   1.220
 5549SOL    HW217547   4.161   3.158   1.358
 5550SOL     OW17548   2.259   4.165   3.367
 5550SOL    HW117549   2.275   4.177   3.465
 5550SOL    HW217550   2.324   4.221   3.315
 5551SOL     OW17551   1.695   5.940   2.829
 5551SOL    HW117552   1.743   5.863   2.871
 5551SOL    HW217553   1.624   5.906   2.768
 5552SOL     OW17554   6.292   6.996   6.035
 5552SOL    HW117555   6.243   6.936   6.099
 5552SOL    HW217556   6.237   0.056   6.016
 5553SOL     OW17557   4.332   0.172   6.778
 5553SOL    HW117558   4.421   0.200   6.815
 5553SOL    HW217559   4.266   0.165   6.852
 5554SOL     OW17560   4.679   3.136   1.636
 5554SOL    HW117561   4.635   3.224   1.620
 5554SOL    HW217562   4.662   3.105   1.730
 5555SOL     OW17563   0.902   3.716   2.119
 5555SOL    HW117564   0.825   3.717   2.182
 5555SOL    HW217565   0.940   3.809   2.111
 5556SOL     OW17566   6.247   1.037   3.599
 5556SOL    HW117567   6.165   1.009   3.650
 5556SOL    HW217568   6.321   0.973   3.617
 5557SOL     OW17569   3.793   5.597   1.444
 5557SOL    HW117570   3.788   5.631   1.350
 5557SOL    HW217571   3.770   5.500   1.446
 5558SOL     OW17572   3.620   3.736   0.129
 5558SOL    HW117573   3.596   3.642   0.151
 5558SOL    HW217574   3.697   3.765   0.186
 5559SOL     OW17575   1.080   0.471   2.162
 5559SOL    HW117576   1.003   0.517   2.118
 5559SOL    HW217577   1.165   0.498   2.117
 5560SOL     OW17578   0.120   5.657   1.547
 5560SOL    HW117579   0.141   5.562   1.571
 5560SOL    HW217580   0.021   5.666   1.531
 5561SOL     OW17581   2.879   0.488   4.719
 5561SOL    HW117582   2.803   0.520   4.775
 5561SOL    HW217583   2.965   0.526   4.754
 5562SOL     OW17584   4.473   4.110   0.301
 5562SOL    HW117585   4.489   4.026   0.251
 5562SOL    HW217586   4.508   4.188   0.249
 5563SOL     OW17587   3.068   5.368   2.815
 5563SOL    HW117588   3.018   5.297   2.865
 5563SOL    HW217589   3.034   5.458   2.842
 5564SOL     OW17590   4.968   6.930   6.422
 5564SOL    HW117591   4.962   7.009   6.482
 5564SOL    HW217592   5.031   6.863   6.461
 5565SOL     OW17593   4.055   2.618   6.546
 5565SOL    HW117594   4.105   2.681   6.606
 5565SOL    HW217595   3.971   2.588   6.592
 5566SOL     OW17596   2.073   4.461   0.633
 5566SOL    HW117597   2.122   4.381   0.598
 5566SOL    HW217598   2.129   4.543   0.621
 5567SOL     OW17599   0.656   3.843   1.751
 5567SOL    HW117600   0.629   3.847   1.847
 5567SOL    HW217601   0.755   3.827   1.744
 5568SOL     OW17602   4.526   0.700   3.119
 5568SOL    HW117603   4.567   0.641   3.049
 5568SOL    HW217604   4.537   0.796   3.091
 5569SOL     OW17605   1.970   2.144   2.784
 5569SOL    HW117606   2.062   2.131   2.745
 5569SOL    HW217607   1.974   2.214   2.855
 5570SOL     OW17608   6.400   3.116   3.251
 5570SOL    HW117609   6.472   3.182   3.272
 5570SOL    HW217610   6.328   3.122   3.320
 5571SOL     OW17611   6.760   5.391   1.914
 5571SOL    HW117612   6.783   5.377   2.010
 5571SOL    HW217613   6.762   5.489   1.894
 5572SOL     OW17614   1.716   4.255   4.893
 5572SOL    HW117615   1.751   4.161   4.898
 5572SOL    HW217616   1.638   4.264   4.956
 5573SOL     OW17617   1.563   5.736   5.274
 5573SOL    HW117618   1.647   5.732   5.221
 5573SOL    HW217619   1.484   5.724   5.214
 5574SOL     OW17620   0.460   3.141   0.509
 5574SOL    HW117621   0.449   3.149   0.608
 5574SOL    HW217622   0.469   3.045   0.484
 5575SOL     OW17623   7.003   0.307   0.697
 5575SOL    HW117624   6.989   0.306   0.796
 5575SOL    HW217625   6.914   0.303   0.651
 5576SOL     OW17626   1.462   4.414   2.259
 5576SOL    HW117627   1.469   4.368   2.348
 5576SOL    HW217628   1.477   4.347   2.186
 5577SOL     OW17629   2.576   2.880   6.665
 5577SOL    HW117630   2.500   2.829   6.623
 5577SOL    HW217631   2.572   2.871   6.764
 5578SOL     OW17632   3.496   4.165   2.202
 5578SOL    HW117633   3.410   4.157   2.252
 5578SOL    HW217634   3.506   4.258   2.167
 5579SOL     OW17635   0.491   3.484   0.970
 5579SOL    HW117636   0.553   3.427   1.025
 5579SOL    HW217637   0.467   3.565   1.022
 5580SOL     OW17638   4.475   2.013   5.959
 5580SOL    HW117639   4.488   1.974   5.867
 5580SOL    HW217640   4.456   1.939   6.024
 5581SOL     OW17641   1.302   0.762   1.547
 5581SOL    HW117642   1.266   0.731   1.635
 5581SOL    HW217643   1.375   0.701   1.517
 5582SOL     OW17644   2.899   4.147   6.675
 5582SOL    HW117645   2.976   4.202   6.708
 5582SOL    HW217646   2.930   4.087   6.601
 5583SOL     OW17647   4.126   0.919   2.604
 5583SOL    HW117648   4.225   0.903   2.611
 5583SOL    HW217649   4.082   0.897   2.691
 5584SOL     OW17650   6.531   3.858   4.331
 5584SOL    HW117651   6.600   3.865   4.259
 5584SOL    HW217652   6.576   3.837   4.418
 5585SOL     OW17653   5.333   5.568   3.248
 5585SOL    HW117654   5.295   5.623   3.323
 5585SOL    HW217655   5.422   5.531   3.276
 5586SOL     OW17656   0.176   3.882   5.685
 5586SOL    HW117657   0.230   3.874   5.769
 5586SOL    HW217658   0.128   3.796   5.668
 5587SOL     OW17659   4.486   0.123   0.665
 5587SOL    HW117660   4.442   0.200   0.619
 5587SOL    HW217661   4.449   0.114   0.757
 5588SOL     OW17662   2.756   6.028   2.929
 5588SOL    HW117663   2.657   6.021   2.919
 5588SOL    HW217664   2.784   5.983   3.015
 5589SOL     OW17665   6.153   4.005   6.026
 5589SOL    HW117666   6.057   3.978   6.026
 5589SOL    HW217667   6.207   3.935   6.073
 5590SOL     OW17668   6.561   6.362   3.582
 5590SOL    HW117669   6.589   6.427   3.511
 5590SOL    HW217670   6.632   6.357   3.653
 5591SOL     OW17671   6.948   2.355   1.556
 5591SOL    HW117672   7.002   2.273   1.573
 5591SOL    HW217673   6.960   2.419   1.632
 5592SOL     OW17674   2.282   6.174   3.634
 5592SOL    HW117675   2.371   6.129   3.633
 5592SOL    HW217676   2.270   6.223   3.720
 5593SOL     OW17677   0.055   2.985   6.597
 5593SOL    HW117678   0.019   2.900   6.559
 5593SOL    HW217679   7.006   3.056   6.593
 5594SOL     OW17680   5.060   0.577   4.841
 5594SOL    HW117681   5.129   0.521   4.886
 5594SOL    HW217682   5.105   0.650   4.789
 5595SOL     OW17683   0.802   1.583   4.630
 5595SOL    HW117684   0.801   1.581   4.730
 5595SOL    HW217685   0.884   1.631   4.599
 5596SOL     OW17686   3.942   6.425   2.789
 5596SOL    HW117687   3.865   6.362   2.784
 5596SOL    HW217688   4.027   6.376   2.768
 5597SOL     OW17689   4.574   2.552   4.591
 5597SOL    HW117690   4.527   2.478   4.638
 5597SOL    HW217691   4.601   2.622   4.658
 5598SOL     OW17692   5.400   3.654   4.471
 5598SOL    HW117693   5.334   3.609   4.531
 5598SOL    HW217694   5.367   3.648   4.376
 5599SOL     OW17695   1.044   1.375   4.119
 5599SOL    HW117696   1.110   1.320   4.170
 5599SOL    HW217697   1.079   1.468   4.109
 5600SOL     OW17698   0.768   1.147   1.878
 5600SOL    HW117699   0.752   1.241   1.911
 5600SOL    HW217700   0.817   1.095   1.948
 5601SOL     OW17701   2.333   0.871   5.350
 5601SOL    HW117702   2.378   0.808   5.414
 5601SOL    HW217703   2.402   0.921   5.298
 5602SOL     OW17704   6.239   1.775   1.020
 5602SOL    HW117705   6.269   1.706   1.086
 5602SOL    HW217706   6.297   1.856   1.028
 5603SOL     OW17707   5.811   2.220   6.647
 5603SOL    HW117708   5.743   2.178   6.587
 5603SOL    HW217709   5.768   2.291   6.702
 5604SOL     OW17710   6.211   2.289   4.572
 5604SOL    HW117711   6.309   2.300   4.588
 5604SOL    HW217712   6.184   2.195   4.589
 5605SOL     OW17713   0.403   0.723   4.857
 5605SOL    HW117714   0.338   0.783   4.905
 5605SOL    HW217715   0.465   0.681   4.922
 5606SOL     OW17716   4.640   6.633   0.401
 5606SOL    HW117717   4.720   6.645   0.343
 5606SOL    HW217718   4.609   6.538   0.398
 5607SOL     OW17719   5.323   0.103   2.655
 5607SOL    HW117720   5.327   0.202   2.671
 5607SOL    HW217721   5.361   0.055   2.734
 5608SOL     OW17722   4.857   0.313   5.043
 5608SOL    HW117723   4.809   0.251   4.982
 5608SOL    HW217724   4.824   0.406   5.029
 5609SOL     OW17725   2.798   5.382   0.953
 5609SOL    HW117726   2.882   5.354   0.999
 5609SOL    HW217727   2.723   5.382   1.018
 5610SOL     OW17728   4.825   6.555   1.034
 5610SOL    HW117729   4.750   6.574   0.971
 5610SOL    HW217730   4.801   6.478   1.093
 5611SOL     OW17731   0.994   5.482   2.407
 5611SOL    HW117732   1.087   5.519   2.404
 5611SOL    HW217733   0.997   5.383   2.400
 5612SOL     OW17734   3.603   1.472   6.868
 5612SOL    HW117735   3.628   1.438   6.778
 5612SOL    HW217736   3.651   1.558   6.886
 5613SOL     OW17737   5.760   4.056   3.828
 5613SOL    HW117738   5.791   3.970   3.788
 5613SOL    HW217739   5.807   4.072   3.915
 5614SOL     OW17740   4.735   2.908   4.600
 5614SOL    HW117741   4.819   2.864   4.631
 5614SOL    HW217742   4.733   2.909   4.500
 5615SOL     OW17743   0.335   1.152   4.454
 5615SOL    HW117744   0.315   1.230   4.513
 5615SOL    HW217745   0.300   1.068   4.497
 5616SOL     OW17746   2.427   1.776   4.952
 5616SOL    HW117747   2.384   1.834   5.020
 5616SOL    HW217748   2.448   1.687   4.992
 5617SOL     OW17749   2.837   0.207   6.673
 5617SOL    HW117750   2.916   0.243   6.624
 5617SOL    HW217751   2.868   0.143   6.744
 5618SOL     OW17752   6.993   4.133   3.728
 5618SOL    HW117753   0.031   4.208   3.699
 5618SOL    HW217754   6.901   4.148   3.692
 5619SOL     OW17755   3.010   3.826   6.148
 5619SOL    HW117756   3.037   3.791   6.237
 5619SOL    HW217757   3.069   3.903   6.123
 5620SOL     OW17758   3.468   2.937   0.839
 5620SOL    HW117759   3.499   3.030   0.860
 5620SOL    HW217760   3.450   2.888   0.924
 5621SOL     OW17761   0.936   2.722   6.057
 5621SOL    HW117762   0.890   2.640   6.090
 5621SOL    HW217763   0.872   2.778   6.005
 5622SOL     OW17764   4.731   0.313   5.854
 5622SOL    HW117765   4.649   0.257   5.864
 5622SOL    HW217766   4.777   0.290   5.768
 5623SOL     OW17767   1.933   5.943   5.970
 5623SOL    HW117768   1.887   5.881   6.034
 5623SOL    HW217769   2.027   5.911   5.955
 5624SOL     OW17770   1.064   4.683   3.365
 5624SOL    HW117771   1.148   4.673   3.418
 5624SOL    HW217772   1.083   4.734   3.281
 5625SOL     OW17773   6.610   1.509   4.359
 5625SOL    HW117774   6.619   1.602   4.396
 5625SOL    HW217775   6.700   1.475   4.332
 5626SOL     OW17776   2.702   6.268   4.304
 5626SOL    HW117777   2.686   6.182   4.254
 5626SOL    HW217778   2.766   6.325   4.252
 5627SOL     OW17779   1.081   6.091   6.873
 5627SOL    HW117780   1.010   6.112   6.940
 5627SOL    HW217781   1.155   6.041   6.918
 5628SOL     OW17782   1.459   2.587   6.531
 5628SOL    HW117783   1.454   2.502   6.584
 5628SOL    HW217784   1.380   2.645   6.554
 5629SOL     OW17785   3.114   3.780   2.220
 5629SOL    HW117786   3.075   3.706   2.165
 5629SOL    HW217787   3.072   3.867   2.193
 5630SOL     OW17788   2.236   4.746   1.023
 5630SOL    HW117789   2.298   4.819   1.053
 5630SOL    HW217790   2.147   4.785   1.001
 5631SOL     OW17791   4.380   2.016   0.112
 5631SOL    HW117792   4.325   2.100   0.123
 5631SOL    HW217793   4.454   2.033   0.047
 5632SOL     OW17794   3.631   2.831   6.070
 5632SOL    HW117795   3.724   2.832   6.032
 5632SOL    HW217796   3.621   2.752   6.130
 5633SOL     OW17797   6.602   3.054   4.315
 5633SOL    HW117798   6.660   3.073   4.236
 5633SOL    HW217799   6.602   3.133   4.376
 5634SOL     OW17800   2.311   5.889   5.301
 5634SOL    HW117801   2.262   5.804   5.318
 5634SOL    HW217802   2.247   5.959   5.269
 5635SOL     OW17803   2.162   3.800   5.111
 5635SOL    HW117804   2.229   3.873   5.117
 5635SOL    HW217805   2.089   3.817   5.178
 5636SOL     OW17806   3.725   6.787   3.124
 5636SOL    HW117807   3.752   6.868   3.072
 5636SOL    HW217808   3.716   6.812   3.221
 5637SOL     OW17809   5.046   6.658   3.205
 5637SOL    HW117810   4.955   6.621   3.185
 5637SOL    HW217811   5.101   6.659   3.121
 5638SOL     OW17812   5.509   3.850   1.404
 5638SOL    HW117813   5.553   3.939   1.405
 5638SOL    HW217814   5.418   3.858   1.363
 5639SOL     OW17815   0.628   0.455   6.816
 5639SOL    HW117816   0.710   0.402   6.838
 5639SOL    HW217817   0.550   0.394   6.810
 5640SOL     OW17818   2.783   0.788   3.872
 5640SOL    HW117819   2.706   0.845   3.899
 5640SOL    HW217820   2.783   0.704   3.926
 5641SOL     OW17821   0.470   4.974   5.403
 5641SOL    HW117822   0.388   4.924   5.432
 5641SOL    HW217823   0.551   4.929   5.440
 5642SOL     OW17824   1.967   0.165   6.072
 5642SOL    HW117825   2.046   0.107   6.054
 5642SOL    HW217826   1.991   0.260   6.055
 5643SOL     OW17827   4.731   1.274   4.850
 5643SOL    HW117828   4.666   1.230   4.789
 5643SOL    HW217829   4.816   1.292   4.801
 5644SOL     OW17830   3.307   0.236   5.160
 5644SOL    HW117831   3.253   0.171   5.214
 5644SOL    HW217832   3.265   0.248   5.070
 5645SOL     OW17833   6.714   4.109   3.620
 5645SOL    HW117834   6.680   4.108   3.526
 5645SOL    HW217835   6.644   4.072   3.681
 5646SOL     OW17836   1.928   5.511   3.150
 5646SOL    HW117837   1.879   5.470   3.073
 5646SOL    HW217838   2.013   5.553   3.117
 5647SOL     OW17839   5.159   6.364   1.025
 5647SOL    HW117840   5.104   6.345   1.106
 5647SOL    HW217841   5.138   6.456   0.991
 5648SOL     OW17842   2.043   5.950   2.974
 5648SOL    HW117843   2.106   5.885   3.015
 5648SOL    HW217844   1.950   5.932   3.005
 5649SOL     OW17845   1.312   7.016   3.699
 5649SOL    HW117846   1.402   7.003   3.656
 5649SOL    HW217847   1.286   6.932   3.746
 5650SOL     OW17848   1.420   4.451   1.333
 5650SOL    HW117849   1.395   4.499   1.417
 5650SOL    HW217850   1.375   4.494   1.255
 5651SOL     OW17851   1.210   0.814   0.235
 5651SOL    HW117852   1.189   0.854   0.324
 5651SOL    HW217853   1.204   0.885   0.164
 5652SOL     OW17854   6.768   5.895   1.161
 5652SOL    HW117855   6.784   5.989   1.129
 5652SOL    HW217856   6.762   5.894   1.260
 5653SOL     OW17857   0.681   5.947   6.782
 5653SOL    HW117858   0.682   5.894   6.697
 5653SOL    HW217859   0.658   6.042   6.762
 5654SOL     OW17860   1.607   5.532   4.191
 5654SOL    HW117861   1.658   5.483   4.261
 5654SOL    HW217862   1.645   5.623   4.178
 5655SOL     OW17863   0.048   2.673   3.143
 5655SOL    HW117864   0.100   2.600   3.188
 5655SOL    HW217865   0.086   2.690   3.052
 5656SOL     OW17866   6.912   4.329   6.282
 5656SOL    HW117867   6.885   4.355   6.189
 5656SOL    HW217868   6.830   4.312   6.336
 5657SOL     OW17869   4.731   4.378   5.007
 5657SOL    HW117870   4.798   4.385   4.933
 5657SOL    HW217871   4.775   4.342   5.089
 5658SOL     OW17872   3.237   3.006   5.874
 5658SOL    HW117873   3.148   3.050   5.863
 5658SOL    HW217874   3.261   2.959   5.789
 5659SOL     OW17875   3.483   3.623   6.027
 5659SOL    HW117876   3.557   3.556   6.028
 5659SOL    HW217877   3.397   3.579   6.052
 5660SOL     OW17878   4.318   6.959   6.618
 5660SOL    HW117879   4.340   0.020   6.669
 5660SOL    HW217880   4.273   6.984   6.532
 5661SOL     OW17881   1.275   5.405   5.136
 5661SOL    HW117882   1.321   5.316   5.138
 5661SOL    HW217883   1.341   5.476   5.113
 5662SOL     OW17884   2.386   0.010   2.475
 5662SOL    HW117885   2.307   0.060   2.440
 5662SOL    HW217886   2.377   6.935   2.452
 5663SOL     OW17887   1.793   2.095   0.790
 5663SOL    HW117888   1.698   2.069   0.770
 5663SOL    HW217889   1.854   2.053   0.723
 5664SOL     OW17890   6.186   3.777   4.389
 5664SOL    HW117891   6.258   3.815   4.447
 5664SOL    HW217892   6.104   3.761   4.444
 5665SOL     OW17893   1.219   5.785   0.313
 5665SOL    HW117894   1.132   5.829   0.333
 5665SOL    HW217895   1.227   5.700   0.366
 5666SOL     OW17896   5.625   0.712   3.875
 5666SOL    HW117897   5.674   0.716   3.962
 5666SOL    HW217898   5.689   0.690   3.801
 5667SOL     OW17899   1.917   5.333   4.770
 5667SOL    HW117900   1.941   5.425   4.740
 5667SOL    HW217901   1.822   5.331   4.800
 5668SOL     OW17902   6.066   2.786   3.326
 5668SOL    HW117903   6.146   2.727   3.316
 5668SOL    HW217904   6.011   2.755   3.404
 5669SOL     OW17905   6.718   5.012   0.473
 5669SOL    HW117906   6.635   5.026   0.527
 5669SOL    HW217907   6.765   4.930   0.505
 5670SOL     OW17908   1.710   3.454   3.739
 5670SOL    HW117909   1.620   3.418   3.766
 5670SOL    HW217910   1.775   3.378   3.733
 5671SOL     OW17911   6.409   5.380   5.507
 5671SOL    HW117912   6.348   5.396   5.430
 5671SOL    HW217913   6.466   5.300   5.488
 5672SOL     OW17914   4.790   4.276   5.270
 5672SOL    HW117915   4.886   4.261   5.291
 5672SOL    HW217916   4.752   4.195   5.226
 5673SOL     OW17917   0.903   6.317   1.278
 5673SOL    HW117918   0.815   6.323   1.231
 5673SOL    HW217919   0.923   6.404   1.323
 5674SOL     OW17920   1.966   4.866   4.639
 5674SOL    HW117921   1.902   4.843   4.714
 5674SOL    HW217922   2.059   4.840   4.666
 5675SOL     OW17923   3.832   1.926   0.379
 5675SOL    HW117924   3.885   1.952   0.460
 5675SOL    HW217925   3.835   1.827   0.367
 5676SOL     OW17926   3.136   1.602   2.136
 5676SOL    HW117927   3.132   1.561   2.045
 5676SOL    HW217928   3.187   1.688   2.131
 5677SOL     OW17929   0.442   0.632   6.976
 5677SOL    HW117930   0.495   0.696   0.010
 5677SOL    HW217931   0.504   0.582   6.915
 5678SOL     OW17932   3.865   1.172   1.679
 5678SOL    HW117933   3.838   1.091   1.627
 5678SOL    HW217934   3.956   1.201   1.649
 5679SOL     OW17935   5.923   1.959   4.688
 5679SOL    HW117936   5.926   2.045   4.739
 5679SOL    HW217937   5.985   1.893   4.730
 5680SOL     OW17938   1.623   5.053   6.047
 5680SOL    HW117939   1.572   4.986   6.099
 5680SOL    HW217940   1.720   5.048   6.071
 5681SOL     OW17941   0.201   3.909   2.386
 5681SOL    HW117942   0.103   3.923   2.400
 5681SOL    HW217943   0.235   3.844   2.454
 5682SOL     OW17944   2.048   5.467   4.112
 5682SOL    HW117945   2.010   5.439   4.200
 5682SOL    HW217946   2.142   5.433   4.104
 5683SOL     OW17947   4.039   2.441   6.249
 5683SOL    HW117948   4.010   2.521   6.302
 5683SOL    HW217949   4.113   2.395   6.297
 5684SOL     OW17950   1.914   3.575   6.598
 5684SOL    HW117951   1.825   3.528   6.596
 5684SOL    HW217952   1.924   3.630   6.515
 5685SOL     OW17953   1.879   2.250   3.522
 5685SOL    HW117954   1.942   2.249   3.600
 5685SOL    HW217955   1.931   2.272   3.439
 5686SOL     OW17956   3.234   0.900   4.829
 5686SOL    HW117957   3.280   0.979   4.788
 5686SOL    HW217958   3.139   0.897   4.796
 5687SOL     OW17959   0.422   5.988   6.076
 5687SOL    HW117960   0.385   5.945   6.158
 5687SOL    HW217961   0.516   6.018   6.093
 5688SOL     OW17962   2.170   3.020   3.354
 5688SOL    HW117963   2.164   3.050   3.449
 5688SOL    HW217964   2.258   2.974   3.339
 5689SOL     OW17965   2.182   0.347   1.866
 5689SOL    HW117966   2.192   0.310   1.773
 5689SOL    HW217967   2.225   0.438   1.869
 5690SOL     OW17968   1.084   5.141   6.546
 5690SOL    HW117969   1.095   5.141   6.446
 5690SOL    HW217970   1.159   5.090   6.588
 5691SOL     OW17971   3.972   0.771   2.397
 5691SOL    HW117972   3.996   0.821   2.313
 5691SOL    HW217973   3.979   0.833   2.475
 5692SOL     OW17974   4.771   4.729   0.936
 5692SOL    HW117975   4.687   4.708   0.885
 5692SOL    HW217976   4.845   4.749   0.872
 5693SOL     OW17977   4.352   0.222   1.136
 5693SOL    HW117978   4.360   0.320   1.116
 5693SOL    HW217979   4.256   0.196   1.138
 5694SOL     OW17980   0.125   6.986   2.594
 5694SOL    HW117981   0.213   7.016   2.630
 5694SOL    HW217982   0.117   7.014   2.498
 5695SOL     OW17983   0.997   0.741   2.888
 5695SOL    HW117984   1.030   0.673   2.954
 5695SOL    HW217985   0.965   0.695   2.806
 5696SOL     OW17986   1.736   0.554   4.174
 5696SOL    HW117987   1.827   0.534   4.136
 5696SOL    HW217988   1.698   0.471   4.214
 5697SOL     OW17989   6.099   2.224   2.057
 5697SOL    HW117990   6.124   2.197   1.964
 5697SOL    HW217991   6.065   2.143   2.107
 5698SOL     OW17992   1.815   3.710   4.263
 5698SOL    HW117993   1.758   3.704   4.345
 5698SOL    HW217994   1.803   3.628   4.207
 5699SOL     OW17995   1.860   2.401   2.721
 5699SOL    HW117996   1.888   2.345   2.643
 5699SOL    HW217997   1.843   2.495   2.690
 5700SOL     OW17998   6.785   0.431   2.738
 5700SOL    HW117999   6.819   0.393   2.823
 5700SOL    HW218000   6.802   0.529   2.736
 5701SOL     OW18001   6.909   0.845   1.304
 5701SOL    HW118002   6.827   0.845   1.248
 5701SOL    HW218003   6.900   0.913   1.377
 5702SOL     OW18004   1.428   6.575   4.334
 5702SOL    HW118005   1.416   6.524   4.248
 5702SOL    HW218006   1.387   6.665   4.325
 5703SOL     OW18007   0.019   4.394   6.912
 5703SOL    HW118008   0.076   4.383   6.993
 5703SOL    HW218009   0.064   4.456   6.847
 5704SOL     OW18010   4.840   4.007   3.918
 5704SOL    HW118011   4.826   4.015   4.017
 5704SOL    HW218012   4.925   3.959   3.900
 5705SOL     OW18013   6.013   5.570   0.045
 5705SOL    HW118014   5.957   5.509   0.100
 5705SOL    HW218015   6.107   5.572   0.080
 5706SOL     OW18016   4.981   2.960   1.579
 5706SOL    HW118017   4.912   3.009   1.525
 5706SOL    HW218018   4.957   2.966   1.676
 5707SOL     OW18019   5.945   0.020   0.957
 5707SOL    HW118020   5.904   0.070   0.881
 5707SOL    HW218021   5.892   0.035   1.040
 5708SOL     OW18022   5.030   6.184   2.730
 5708SOL    HW118023   4.969   6.115   2.691
 5708SOL    HW218024   5.119   6.144   2.748
 5709SOL     OW18025   6.965   0.969   2.660
 5709SOL    HW118026   6.928   0.881   2.691
 5709SOL    HW218027   6.920   0.996   2.575
 5710SOL     OW18028   2.799   2.157   0.745
 5710SOL    HW118029   2.862   2.232   0.764
 5710SOL    HW218030   2.707   2.182   0.775
 5711SOL     OW18031   4.966   0.832   1.856
 5711SOL    HW118032   4.956   0.769   1.933
 5711SOL    HW218033   5.000   0.920   1.889
 5712SOL     OW18034   6.461   6.822   0.347
 5712SOL    HW118035   6.371   6.851   0.315
 5712SOL    HW218036   6.514   6.903   0.375
 5713SOL     OW18037   3.144   5.177   0.640
 5713SOL    HW118038   3.139   5.078   0.626
 5713SOL    HW218039   3.103   5.200   0.728
 5714SOL     OW18040   6.543   6.583   0.939
 5714SOL    HW118041   6.632   6.558   0.901
 5714SOL    HW218042   6.550   6.670   0.986
 5715SOL     OW18043   0.111   6.979   1.652
 5715SOL    HW118044   0.185   0.012   1.611
 5715SOL    HW218045   0.134   6.882   1.643
 5716SOL     OW18046   0.825   5.550   6.239
 5716SOL    HW118047   0.907   5.494   6.250
 5716SOL    HW218048   0.790   5.576   6.329
 5717SOL     OW18049   2.219   5.221   1.907
 5717SOL    HW118050   2.271   5.252   1.986
 5717SOL    HW218051   2.267   5.247   1.823
 5718SOL     OW18052   0.878   3.290   0.464
 5718SOL    HW118053   0.898   3.357   0.535
 5718SOL    HW218054   0.959   3.276   0.407
 5719SOL     OW18055   3.001   3.515   0.845
 5719SOL    HW118056   3.090   3.559   0.848
 5719SOL    HW218057   2.991   3.466   0.758
 5720SOL     OW18058   1.792   6.434   4.913
 5720SOL    HW118059   1.801   6.452   5.010
 5720SOL    HW218060   1.712   6.376   4.896
 5721SOL     OW18061   6.038   4.115   1.173
 5721SOL    HW118062   5.992   4.111   1.084
 5721SOL    HW218063   6.002   4.193   1.225
 5722SOL     OW18064   7.019   2.210   5.110
 5722SOL    HW118065   0.038   2.118   5.110
 5722SOL    HW218066   6.920   2.202   5.095
 5723SOL     OW18067   3.833   3.503   6.858
 5723SOL    HW118068   3.793   3.590   6.831
 5723SOL    HW218069   3.887   3.465   6.783
 5724SOL     OW18070   6.491   2.446   3.187
 5724SOL    HW118071   6.500   2.366   3.128
 5724SOL    HW218072   6.401   2.488   3.173
 5725SOL     OW18073   6.263   5.415   3.526
 5725SOL    HW118074   6.287   5.494   3.469
 5725SOL    HW218075   6.304   5.333   3.488
 5726SOL     OW18076   5.978   4.920   3.829
 5726SOL    HW118077   5.998   4.972   3.746
 5726SOL    HW218078   5.894   4.867   3.816
 5727SOL     OW18079   0.257   2.412   4.654
 5727SOL    HW118080   0.197   2.486   4.622
 5727SOL    HW218081   0.213   2.364   4.729
 5728SOL     OW18082   5.016   5.814   5.183
 5728SOL    HW118083   4.944   5.822   5.252
 5728SOL    HW218084   5.103   5.840   5.222
 5729SOL     OW18085   1.111   2.674   5.849
 5729SOL    HW118086   1.143   2.583   5.876
 5729SOL    HW218087   1.060   2.715   5.924
 5730SOL     OW18088   6.514   4.282   6.158
 5730SOL    HW118089   6.455   4.202   6.145
 5730SOL    HW218090   6.458   4.364   6.164
 5731SOL     OW18091   6.686   6.784   1.582
 5731SOL    HW118092   6.764   6.845   1.571
 5731SOL    HW218093   6.622   6.823   1.648
 5732SOL     OW18094   1.157   6.767   3.514
 5732SOL    HW118095   1.154   6.694   3.583
 5732SOL    HW218096   1.072   6.818   3.516
 5733SOL     OW18097   4.526   6.436   4.993
 5733SOL    HW118098   4.559   6.423   5.086
 5733SOL    HW218099   4.589   6.392   4.929
 5734SOL     OW18100   1.296   6.868   4.948
 5734SOL    HW118101   1.276   6.947   4.891
 5734SOL    HW218102   1.377   6.821   4.914
 5735SOL     OW18103   2.792   1.270   1.611
 5735SOL    HW118104   2.862   1.205   1.641
 5735SOL    HW218105   2.745   1.235   1.531
 5736SOL     OW18106   0.891   4.465   0.038
 5736SOL    HW118107   0.878   4.519   0.121
 5736SOL    HW218108   0.803   4.425   0.010
 5737SOL     OW18109   5.463   6.142   6.621
 5737SOL    HW118110   5.474   6.231   6.577
 5737SOL    HW218111   5.549   6.113   6.661
 5738SOL     OW18112   1.605   3.513   6.989
 5738SOL    HW118113   1.571   3.471   0.051
 5738SOL    HW218114   1.651   3.444   6.933
 5739SOL     OW18115   1.878   0.930   6.804
 5739SOL    HW118116   1.855   0.873   6.883
 5739SOL    HW218117   1.888   1.025   6.833
 5740SOL     OW18118   4.345   5.967   0.256
 5740SOL    HW118119   4.368   6.041   0.319
 5740SOL    HW218120   4.245   5.960   0.249
 5741SOL     OW18121   6.709   5.848   4.467
 5741SOL    HW118122   6.690   5.942   4.496
 5741SOL    HW218123   6.668   5.784   4.532
 5742SOL     OW18124   5.544   6.548   2.131
 5742SOL    HW118125   5.503   6.604   2.204
 5742SOL    HW218126   5.615   6.601   2.084
 5743SOL     OW18127   2.577   6.850   5.112
 5743SOL    HW118128   2.554   6.758   5.144
 5743SOL    HW218129   2.675   6.854   5.090
 5744SOL     OW18130   4.933   1.206   0.422
 5744SOL    HW118131   4.955   1.241   0.331
 5744SOL    HW218132   4.834   1.205   0.435
 5745SOL     OW18133   1.676   1.814   4.494
 5745SOL    HW118134   1.643   1.888   4.435
 5745SOL    HW218135   1.608   1.797   4.566
 5746SOL     OW18136   4.999   1.327   0.181
 5746SOL    HW118137   5.070   1.259   0.162
 5746SOL    HW218138   5.021   1.412   0.133
 5747SOL     OW18139   0.288   5.198   2.323
 5747SOL    HW118140   0.299   5.165   2.417
 5747SOL    HW218141   0.366   5.257   2.300
 5748SOL     OW18142   2.447   4.841   1.816
 5748SOL    HW118143   2.381   4.818   1.744
 5748SOL    HW218144   2.440   4.773   1.890
 5749SOL     OW18145   1.921   1.745   4.307
 5749SOL    HW118146   1.870   1.801   4.372
 5749SOL    HW218147   1.861   1.718   4.232
 5750SOL     OW18148   6.137   4.956   4.537
 5750SOL    HW118149   6.218   5.014   4.527
 5750SOL    HW218150   6.077   4.995   4.607
 5751SOL     OW18151   2.096   3.097   4.991
 5751SOL    HW118152   2.071   3.163   5.061
 5751SOL    HW218153   2.194   3.077   4.997
 5752SOL     OW18154   6.830   6.781   6.050
 5752SOL    HW118155   6.739   6.768   6.090
 5752SOL    HW218156   6.899   6.743   6.111
 5753SOL     OW18157   3.380   3.258   6.539
 5753SOL    HW118158   3.315   3.212   6.600
 5753SOL    HW218159   3.364   3.229   6.445
 5754SOL     OW18160   6.010   5.301   2.012
 5754SOL    HW118161   6.029   5.279   1.916
 5754SOL    HW218162   5.916   5.276   2.034
 5755SOL     OW18163   3.028   3.768   6.761
 5755SOL    HW118164   2.989   3.790   6.850
 5755SOL    HW218165   3.094   3.693   6.771
 5756SOL     OW18166   6.607   4.968   3.379
 5756SOL    HW118167   6.548   4.932   3.307
 5756SOL    HW218168   6.701   4.937   3.365
 5757SOL     OW18169   6.237   5.825   1.687
 5757SOL    HW118170   6.188   5.839   1.773
 5757SOL    HW218171   6.171   5.809   1.613
 5758SOL     OW18172   2.754   2.421   5.116
 5758SOL    HW118173   2.839   2.411   5.066
 5758SOL    HW218174   2.722   2.331   5.147
 5759SOL     OW18175   5.204   2.164   6.401
 5759SOL    HW118176   5.287   2.220   6.412
 5759SOL    HW218177   5.130   2.222   6.368
 5760SOL     OW18178   2.030   5.673   2.321
 5760SOL    HW118179   1.940   5.666   2.277
 5760SOL    HW218180   2.101   5.643   2.258
 5761SOL     OW18181   5.447   0.257   4.945
 5761SOL    HW118182   5.403   0.170   4.924
 5761SOL    HW218183   5.528   0.268   4.888
 5762SOL     OW18184   5.556   6.709   0.773
 5762SOL    HW118185   5.639   6.681   0.820
 5762SOL    HW218186   5.499   6.763   0.834
 5763SOL     OW18187   1.320   0.319   0.433
 5763SOL    HW118188   1.374   0.325   0.348
 5763SOL    HW218189   1.244   0.256   0.419
 5764SOL     OW18190   5.624   4.552   5.481
 5764SOL    HW118191   5.656   4.471   5.530
 5764SOL    HW218192   5.702   4.612   5.461
 5765SOL     OW18193   6.770   4.296   6.989
 5765SOL    HW118194   6.846   4.335   6.936
 5765SOL    HW218195   6.762   4.199   6.967
 5766SOL     OW18196   3.067   1.471   1.903
 5766SOL    HW118197   3.106   1.399   1.845
 5766SOL    HW218198   2.986   1.437   1.950
 5767SOL     OW18199   0.666   6.247   0.594
 5767SOL    HW118200   0.757   6.206   0.596
 5767SOL    HW218201   0.629   6.242   0.501
 5768SOL     OW18202   6.781   1.077   3.005
 5768SOL    HW118203   6.753   1.171   2.984
 5768SOL    HW218204   6.747   1.016   2.933
 5769SOL     OW18205   2.872   6.533   3.345
 5769SOL    HW118206   2.789   6.589   3.338
 5769SOL    HW218207   2.905   6.512   3.253
 5770SOL     OW18208   6.785   6.935   1.065
 5770SOL    HW118209   6.780   7.011   1.000
 5770SOL    HW218210   6.867   6.945   1.121
 5771SOL     OW18211   1.231   0.671   1.080
 5771SOL    HW118212   1.230   0.578   1.042
 5771SOL    HW218213   1.138   0.701   1.098
 5772SOL     OW18214   5.946   3.155   0.283
 5772SOL    HW118215   5.928   3.072   0.335
 5772SOL    HW218216   5.923   3.235   0.339
 5773SOL     OW18217   5.566   6.430   3.694
 5773SOL    HW118218   5.469   6.407   3.708
 5773SOL    HW218219   5.621   6.347   3.699
 5774SOL     OW18220   2.208   4.619   3.364
 5774SOL    HW118221   2.291   4.569   3.389
 5774SOL    HW218222   2.195   4.613   3.265
 5775SOL     OW18223   6.658   6.667   6.988
 5775SOL    HW118224   6.694   6.575   7.000
 5775SOL    HW218225   6.688   6.704   6.900
 5776SOL     OW18226   5.329   0.774   6.150
 5776SOL    HW118227   5.372   0.804   6.064
 5776SOL    HW218228   5.386   0.804   6.226
 5777SOL     OW18229   6.321   0.968   4.090
 5777SOL    HW118230   6.373   1.050   4.116
 5777SOL    HW218231   6.378   0.887   4.105
 5778SOL     OW18232   1.184   6.606   2.866
 5778SOL    HW118233   1.230   6.521   2.894
 5778SOL    HW218234   1.130   6.641   2.942
 5779SOL     OW18235   3.883   1.213   1.289
 5779SOL    HW118236   3.982   1.224   1.291
 5779SOL    HW218237   3.848   1.237   1.199
 5780SOL     OW18238   6.995   4.357   1.225
 5780SOL    HW118239   0.028   4.280   1.192
 5780SOL    HW218240   6.906   4.324   1.255
 5781SOL     OW18241   1.826   4.522   5.041
 5781SOL    HW118242   1.811   4.461   5.119
 5781SOL    HW218243   1.920   4.556   5.044
 5782SOL     OW18244   2.002   0.881   1.674
 5782SOL    HW118245   1.967   0.968   1.639
 5782SOL    HW218246   2.101   0.888   1.688
 5783SOL     OW18247   1.379   0.184   1.263
 5783SOL    HW118248   1.412   0.277   1.247
 5783SOL    HW218249   1.366   0.137   1.176
 5784SOL     OW18250   0.923   6.131   0.266
 5784SOL    HW118251   0.944   6.034   0.259
 5784SOL    HW218252   0.863   6.158   0.190
 5785SOL     OW18253   1.483   0.778   0.489
 5785SOL    HW118254   1.472   0.698   0.429
 5785SOL    HW218255   1.579   0.784   0.518
 5786SOL     OW18256   1.464   3.102   1.800
 5786SOL    HW118257   1.440   3.045   1.879
 5786SOL    HW218258   1.559   3.086   1.774
 5787SOL     OW18259   6.054   2.486   4.619
 5787SOL    HW118260   5.960   2.452   4.619
 5787SOL    HW218261   6.117   2.411   4.598
 5788SOL     OW18262   3.304   1.021   2.542
 5788SOL    HW118263   3.226   0.966   2.572
 5788SOL    HW218264   3.389   0.969   2.556
 5789SOL     OW18265   4.234   4.022   0.437
 5789SOL    HW118266   4.286   3.985   0.514
 5789SOL    HW218267   4.285   4.097   0.395
 5790SOL     OW18268   5.855   5.442   4.757
 5790SOL    HW118269   5.855   5.388   4.673
 5790SOL    HW218270   5.823   5.386   4.833
 5791SOL     OW18271   3.795   1.043   2.637
 5791SOL    HW118272   3.791   1.020   2.540
 5791SOL    HW218273   3.852   1.123   2.651
 5792SOL     OW18274   4.814   4.054   2.954
 5792SOL    HW118275   4.910   4.083   2.947
 5792SOL    HW218276   4.794   3.991   2.879
 5793SOL     OW18277   5.466   2.039   5.173
 5793SOL    HW118278   5.405   1.971   5.213
 5793SOL    HW218279   5.528   1.995   5.109
 5794SOL     OW18280   3.384   6.604   5.831
 5794SOL    HW118281   3.467   6.589   5.776
 5794SOL    HW218282   3.399   6.568   5.923
 5795SOL     OW18283   0.845   5.185   2.119
 5795SOL    HW118284   0.806   5.168   2.210
 5795SOL    HW218285   0.933   5.232   2.129
 5796SOL     OW18286   4.417   1.615   6.500
 5796SOL    HW118287   4.338   1.674   6.487
 5796SOL    HW218288   4.432   1.599   6.598
 5797SOL     OW18289   5.131   2.548   0.002
 5797SOL    HW118290   5.196   2.499   6.966
 5797SOL    HW218291   5.150   2.527   0.098
 5798SOL     OW18292   1.730   4.004   5.318
 5798SOL    HW118293   1.644   3.964   5.286
 5798SOL    HW218294   1.805   3.978   5.257
 5799SOL     OW18295   1.476   6.214   3.346
 5799SOL    HW118296   1.445   6.145   3.412
 5799SOL    HW218297   1.398   6.264   3.309
 5800SOL     OW18298   0.388   6.900   0.772
 5800SOL    HW118299   0.461   6.881   0.837
 5800SOL    HW218300   0.332   6.975   0.807
 5801SOL     OW18301   2.455   2.582   2.380
 5801SOL    HW118302   2.428   2.660   2.437
 5801SOL    HW218303   2.503   2.615   2.299
 5802SOL     OW18304   0.166   1.801   2.354
 5802SOL    HW118305   0.126   1.744   2.425
 5802SOL    HW218306   0.094   1.835   2.294
 5803SOL     OW18307   1.113   5.309   4.322
 5803SOL    HW118308   1.164   5.387   4.287
 5803SOL    HW218309   1.108   5.238   4.252
 5804SOL     OW18310   5.684   6.964   3.569
 5804SOL    HW118311   5.780   6.993   3.578
 5804SOL    HW218312   5.657   6.916   3.653
 5805SOL     OW18313   2.390   3.176   1.432
 5805SOL    HW118314   2.422   3.200   1.523
 5805SOL    HW218315   2.354   3.082   1.434
 5806SOL     OW18316   0.500   3.256   3.227
 5806SOL    HW118317   0.498   3.323   3.301
 5806SOL    HW218318   0.549   3.174   3.257
 5807SOL     OW18319   1.186   6.501   0.572
 5807SOL    HW118320   1.118   6.503   0.498
 5807SOL    HW218321   1.277   6.494   0.534
 5808SOL     OW18322   5.695   0.894   4.945
 5808SOL    HW118323   5.791   0.867   4.935
 5808SOL    HW218324   5.691   0.994   4.957
 5809SOL     OW18325   0.411   2.827   5.961
 5809SOL    HW118326   0.409   2.771   6.044
 5809SOL    HW218327   0.416   2.768   5.881
 5810SOL     OW18328   4.163   7.006   4.580
 5810SOL    HW118329   4.192   7.014   4.675
 5810SOL    HW218330   4.070   0.020   4.569
 5811SOL     OW18331   2.695   3.633   5.794
 5811SOL    HW118332   2.761   3.709   5.794
 5811SOL    HW218333   2.739   3.552   5.756
 5812SOL     OW18334   5.717   3.302   0.633
 5812SOL    HW118335   5.745   3.352   0.715
 5812SOL    HW218336   5.708   3.205   0.655
 5813SOL     OW18337   4.616   6.710   1.421
 5813SOL    HW118338   4.549   6.677   1.355
 5813SOL    HW218339   4.616   6.810   1.420
 5814SOL     OW18340   4.933   1.884   2.244
 5814SOL    HW118341   4.846   1.852   2.281
 5814SOL    HW218342   5.008   1.839   2.291
 5815SOL     OW18343   6.362   1.168   3.814
 5815SOL    HW118344   6.304   1.132   3.741
 5815SOL    HW218345   6.336   1.125   3.901
 5816SOL     OW18346   6.715   3.887   3.052
 5816SOL    HW118347   6.684   3.924   3.140
 5816SOL    HW218348   6.793   3.940   3.020
 5817SOL     OW18349   5.265   4.689   3.737
 5817SOL    HW118350   5.190   4.672   3.801
 5817SOL    HW218351   5.228   4.718   3.649
 5818SOL     OW18352   2.121   0.092   4.887
 5818SOL    HW118353   2.126   0.168   4.952
 5818SOL    HW218354   2.205   0.038   4.892
 5819SOL     OW18355   4.292   5.060   6.905
 5819SOL    HW118356   4.252   4.971   6.927
 5819SOL    HW218357   4.391   5.052   6.899
 5820SOL     OW18358   5.921   5.103   2.701
 5820SOL    HW118359   5.896   5.054   2.618
 5820SOL    HW218360   5.984   5.048   2.755
 5821SOL     OW18361   6.531   0.747   1.623
 5821SOL    HW118362   6.558   0.799   1.705
 5821SOL    HW218363   6.511   0.811   1.549
 5822SOL     OW18364   1.806   2.912   2.640
 5822SOL    HW118365   1.774   2.887   2.731
 5822SOL    HW218366   1.837   3.007   2.640
 5823SOL     OW18367   1.900   6.524   3.842
 5823SOL    HW118368   1.868   6.612   3.876
 5823SOL    HW218369   1.965   6.485   3.907
 5824SOL     OW18370   0.658   7.018   2.096
 5824SOL    HW118371   0.607   6.995   2.179
 5824SOL    HW218372   0.754   6.993   2.108
 5825SOL     OW18373   6.383   0.077   4.599
 5825SOL    HW118374   6.358   0.123   4.514
 5825SOL    HW218375   6.414   0.146   4.665
 5826SOL     OW18376   0.332   6.778   4.662
 5826SOL    HW118377   0.360   6.819   4.575
 5826SOL    HW218378   0.306   6.683   4.647
 5827SOL     OW18379   1.842   4.628   5.346
 5827SOL    HW118380   1.895   4.651   5.265
 5827SOL    HW218381   1.851   4.701   5.414
 5828SOL     OW18382   4.540   0.048   4.492
 5828SOL    HW118383   4.537   0.143   4.523
 5828SOL    HW218384   4.484   0.037   4.411
 5829SOL     OW18385   2.320   1.076   3.826
 5829SOL    HW118386   2.272   0.997   3.788
 5829SOL    HW218387   2.266   1.115   3.901
 5830SOL     OW18388   3.836   5.787   5.255
 5830SOL    HW118389   3.819   5.749   5.164
 5830SOL    HW218390   3.774   5.863   5.272
 5831SOL     OW18391   1.548   1.439   5.657
 5831SOL    HW118392   1.603   1.475   5.581
 5831SOL    HW218393   1.464   1.399   5.622
 5832SOL     OW18394   3.444   5.033   0.749
 5832SOL    HW118395   3.543   5.028   0.740
 5832SOL    HW218396   3.416   5.128   0.761
 5833SOL     OW18397   4.040   3.387   6.032
 5833SOL    HW118398   4.007   3.407   6.124
 5833SOL    HW218399   4.136   3.357   6.037
 5834SOL     OW18400   5.720   4.075   6.867
 5834SOL    HW118401   5.662   4.006   6.823
 5834SOL    HW218402   5.813   4.068   6.832
 5835SOL     OW18403   5.369   0.630   2.640
 5835SOL    HW118404   5.320   0.637   2.554
 5835SOL    HW218405   5.368   0.718   2.687
 5836SOL     OW18406   3.924   0.101   1.935
 5836SOL    HW118407   3.933   0.131   2.030
 5836SOL    HW218408   3.843   0.144   1.894
 5837SOL     OW18409   3.559   4.381   0.129
 5837SOL    HW118410   3.646   4.426   0.113
 5837SOL    HW218411   3.502   4.388   0.047
 5838SOL     OW18412   2.850   1.835   0.996
 5838SOL    HW118413   2.772   1.804   0.942
 5838SOL    HW218414   2.917   1.878   0.936
 5839SOL     OW18415   1.514   1.574   1.329
 5839SOL    HW118416   1.465   1.565   1.242
 5839SOL    HW218417   1.540   1.670   1.342
 5840SOL     OW18418   0.977   3.497   2.252
 5840SOL    HW118419   0.972   3.582   2.198
 5840SOL    HW218420   0.887   3.455   2.256
 5841SOL     OW18421   5.325   1.718   0.257
 5841SOL    HW118422   5.314   1.657   0.178
 5841SOL    HW218423   5.238   1.726   0.305
 5842SOL     OW18424   2.894   1.709   0.656
 5842SOL    HW118425   2.986   1.672   0.666
 5842SOL    HW218426   2.899   1.801   0.616
 5843SOL     OW18427   1.816   2.866   1.190
 5843SOL    HW118428   1.899   2.871   1.247
 5843SOL    HW218429   1.744   2.922   1.231
 5844SOL     OW18430   0.690   0.807   5.008
 5844SOL    HW118431   0.636   0.860   4.943
 5844SOL    HW218432   0.652   0.715   5.016
 5845SOL     OW18433   0.827   5.939   1.935
 5845SOL    HW118434   0.769   5.886   1.997
 5845SOL    HW218435   0.915   5.893   1.925
 5846SOL     OW18436   6.450   3.516   5.888
 5846SOL    HW118437   6.421   3.594   5.944
 5846SOL    HW218438   6.544   3.491   5.911
 5847SOL     OW18439   2.870   3.000   0.660
 5847SOL    HW118440   2.845   3.032   0.568
 5847SOL    HW218441   2.921   3.072   0.707
 5848SOL     OW18442   2.166   5.856   3.645
 5848SOL    HW118443   2.088   5.918   3.635
 5848SOL    HW218444   2.251   5.908   3.638
 5849SOL     OW18445   2.526   5.790   5.458
 5849SOL    HW118446   2.531   5.690   5.465
 5849SOL    HW218447   2.450   5.815   5.398
 5850SOL     OW18448   0.771   1.882   1.311
 5850SOL    HW118449   0.792   1.784   1.317
 5850SOL    HW218450   0.729   1.901   1.222
 5851SOL     OW18451   5.683   3.209   4.903
 5851SOL    HW118452   5.758   3.189   4.966
 5851SOL    HW218453   5.647   3.124   4.865
 5852SOL     OW18454   5.224   5.225   3.159
 5852SOL    HW118455   5.250   5.190   3.069
 5852SOL    HW218456   5.131   5.261   3.155
 5853SOL     OW18457   3.724   4.766   5.425
 5853SOL    HW118458   3.762   4.855   5.399
 5853SOL    HW218459   3.625   4.768   5.415
 5854SOL     OW18460   2.384   5.100   6.073
 5854SOL    HW118461   2.390   5.006   6.038
 5854SOL    HW218462   2.346   5.159   6.002
 5855SOL     OW18463   2.085   2.395   3.894
 5855SOL    HW118464   2.084   2.473   3.831
 5855SOL    HW218465   2.045   2.423   3.982
 5856SOL     OW18466   1.619   0.464   2.936
 5856SOL    HW118467   1.535   0.455   2.882
 5856SOL    HW218468   1.664   0.375   2.942
 5857SOL     OW18469   0.246   4.368   6.495
 5857SOL    HW118470   0.313   4.415   6.553
 5857SOL    HW218471   0.190   4.436   6.448
 5858SOL     OW18472   1.698   1.578   3.240
 5858SOL    HW118473   1.705   1.628   3.326
 5858SOL    HW218474   1.668   1.484   3.258
 5859SOL     OW18475   6.202   0.015   2.438
 5859SOL    HW118476   6.254   0.084   2.489
 5859SOL    HW218477   6.265   6.965   2.406
 5860SOL     OW18478   0.415   3.052   3.939
 5860SOL    HW118479   0.338   3.003   3.899
 5860SOL    HW218480   0.393   3.078   4.033
 5861SOL     OW18481   5.046   1.142   4.953
 5861SOL    HW118482   5.137   1.101   4.949
 5861SOL    HW218483   4.987   1.087   5.012
 5862SOL     OW18484   0.115   5.333   3.402
 5862SOL    HW118485   0.051   5.265   3.438
 5862SOL    HW218486   0.088   5.358   3.309
 5863SOL     OW18487   3.819   0.216   5.244
 5863SOL    HW118488   3.728   0.255   5.256
 5863SOL    HW218489   3.856   0.244   5.156
 5864SOL     OW18490   2.967   3.846   2.801
 5864SOL    HW118491   3.028   3.919   2.769
 5864SOL    HW218492   3.003   3.758   2.770
 5865SOL     OW18493   5.801   0.909   5.248
 5865SOL    HW118494   5.874   0.975   5.228
 5865SOL    HW218495   5.836   0.816   5.237
 5866SOL     OW18496   3.986   3.352   2.124
 5866SOL    HW118497   4.008   3.399   2.210
 5866SOL    HW218498   3.901   3.301   2.135
 5867SOL     OW18499   2.760   2.346   1.455
 5867SOL    HW118500   2.812   2.318   1.536
 5867SOL    HW218501   2.666   2.313   1.463
 5868SOL     OW18502   0.596   1.723   6.176
 5868SOL    HW118503   0.590   1.692   6.271
 5868SOL    HW218504   0.541   1.805   6.164
 5869SOL     OW18505   1.064   4.718   4.512
 5869SOL    HW118506   1.126   4.640   4.519
 5869SOL    HW218507   1.033   4.728   4.418
 5870SOL     OW18508   4.320   4.812   4.922
 5870SOL    HW118509   4.361   4.740   4.979
 5870SOL    HW218510   4.321   4.782   4.826
 5871SOL     OW18511   3.469   3.472   3.023
 5871SOL    HW118512   3.477   3.394   3.085
 5871SOL    HW218513   3.470   3.557   3.075
 5872SOL     OW18514   3.834   6.333   2.410
 5872SOL    HW118515   3.771   6.409   2.430
 5872SOL    HW218516   3.839   6.319   2.311
 5873SOL     OW18517   3.848   5.212   2.537
 5873SOL    HW118518   3.861   5.306   2.569
 5873SOL    HW218519   3.763   5.206   2.485
 5874SOL     OW18520   2.092   3.943   5.965
 5874SOL    HW118521   2.066   3.971   6.057
 5874SOL    HW218522   2.030   3.985   5.899
 5875SOL     OW18523   3.397   1.464   0.411
 5875SOL    HW118524   3.357   1.463   0.319
 5875SOL    HW218525   3.336   1.418   0.475
 5876SOL     OW18526   3.786   3.401   1.767
 5876SOL    HW118527   3.816   3.473   1.829
 5876SOL    HW218528   3.765   3.318   1.819
 5877SOL     OW18529   6.083   5.222   0.899
 5877SOL    HW118530   6.024   5.233   0.819
 5877SOL    HW218531   6.065   5.297   0.964
 5878SOL     OW18532   2.325   4.700   2.758
 5878SOL    HW118533   2.251   4.761   2.733
 5878SOL    HW218534   2.293   4.634   2.826
 5879SOL     OW18535   6.948   4.285   0.192
 5879SOL    HW118536   6.899   4.277   0.105
 5879SOL    HW218537   6.937   4.378   0.229
 5880SOL     OW18538   2.818   6.526   1.382
 5880SOL    HW118539   2.755   6.506   1.457
 5880SOL    HW218540   2.890   6.456   1.380
 5881SOL     OW18541   0.633   4.528   3.915
 5881SOL    HW118542   0.678   4.605   3.870
 5881SOL    HW218543   0.696   4.485   3.979
 5882SOL     OW18544   4.929   0.271   1.361
 5882SOL    HW118545   4.995   0.340   1.392
 5882SOL    HW218546   4.843   0.282   1.412
 5883SOL     OW18547   6.431   2.767   6.708
 5883SOL    HW118548   6.510   2.707   6.720
 5883SOL    HW218549   6.347   2.715   6.722
 5884SOL     OW18550   0.729   1.067   3.384
 5884SOL    HW118551   0.662   0.992   3.382
 5884SOL    HW218552   0.744   1.100   3.291
 5885SOL     OW18553   6.307   6.682   1.061
 5885SOL    HW118554   6.370   6.758   1.075
 5885SOL    HW218555   6.353   6.610   1.009
 5886SOL     OW18556   0.572   2.647   5.116
 5886SOL    HW118557   0.568   2.635   5.215
 5886SOL    HW218558   0.517   2.576   5.071
 5887SOL     OW18559   3.218   0.917   4.340
 5887SOL    HW118560   3.163   1.000   4.328
 5887SOL    HW218561   3.275   0.903   4.259
 5888SOL     OW18562   1.993   6.216   3.249
 5888SOL    HW118563   1.922   6.264   3.301
 5888SOL    HW218564   1.950   6.152   3.186
 5889SOL     OW18565   2.315   0.499   1.064
 5889SOL    HW118566   2.347   0.583   1.020
 5889SOL    HW218567   2.247   0.522   1.134
 5890SOL     OW18568   1.980   6.374   5.374
 5890SOL    HW118569   2.042   6.403   5.447
 5890SOL    HW218570   1.930   6.292   5.403
 5891SOL     OW18571   3.851   3.038   7.000
 5891SOL    HW118572   3.861   3.134   0.006
 5891SOL    HW218573   3.915   3.019   6.925
 5892SOL     OW18574   0.549   6.313   1.548
 5892SOL    HW118575   0.510   6.333   1.637
 5892SOL    HW218576   0.478   6.320   1.478
 5893SOL     OW18577   1.373   2.237   3.765
 5893SOL    HW118578   1.397   2.333   3.753
 5893SOL    HW218579   1.442   2.192   3.822
 5894SOL     OW18580   1.428   4.102   3.482
 5894SOL    HW118581   1.405   4.055   3.567
 5894SOL    HW218582   1.371   4.184   3.472
 5895SOL     OW18583   5.290   3.024   4.778
 5895SOL    HW118584   5.309   3.059   4.686
 5895SOL    HW218585   5.192   3.030   4.796
 5896SOL     OW18586   3.897   2.200   6.621
 5896SOL    HW118587   3.843   2.268   6.571
 5896SOL    HW218588   3.847   2.114   6.626
 5897SOL     OW18589   3.910   1.090   0.677
 5897SOL    HW118590   3.821   1.136   0.680
 5897SOL    HW218591   3.983   1.158   0.688
 5898SOL     OW18592   1.610   0.238   1.681
 5898SOL    HW118593   1.709   0.245   1.669
 5898SOL    HW218594   1.571   0.182   1.608
 5899SOL     OW18595   5.456   7.006   4.902
 5899SOL    HW118596   5.390   6.932   4.905
 5899SOL    HW218597   5.549   6.968   4.905
 5900SOL     OW18598   4.922   5.209   2.921
 5900SOL    HW118599   5.018   5.234   2.903
 5900SOL    HW218600   4.910   5.111   2.906
 5901SOL     OW18601   2.112   6.714   6.602
 5901SOL    HW118602   2.035   6.754   6.551
 5901SOL    HW218603   2.090   6.619   6.626
 5902SOL     OW18604   6.814   2.785   0.507
 5902SOL    HW118605   6.909   2.788   0.475
 5902SOL    HW218606   6.764   2.863   0.470
 5903SOL     OW18607   6.062   4.484   0.051
 5903SOL    HW118608   6.097   4.410   7.016
 5903SOL    HW218609   5.963   4.479   0.056
 5904SOL     OW18610   0.478   3.351   2.205
 5904SOL    HW118611   0.573   3.323   2.199
 5904SOL    HW218612   0.464   3.409   2.285
 5905SOL     OW18613   6.927   6.141   2.717
 5905SOL    HW118614   6.843   6.124   2.666
 5905SOL    HW218615   6.985   6.206   2.667
 5906SOL     OW18616   5.605   1.146   3.796
 5906SOL    HW118617   5.568   1.127   3.887
 5906SOL    HW218618   5.704   1.158   3.803
 5907SOL     OW18619   0.764   6.476   0.976
 5907SOL    HW118620   0.725   6.518   0.894
 5907SOL    HW218621   0.743   6.533   1.056
 5908SOL     OW18622   0.846   2.637   5.358
 5908SOL    HW118623   0.836   2.736   5.345
 5908SOL    HW218624   0.915   2.619   5.428
 5909SOL     OW18625   1.304   6.032   0.615
 5909SOL    HW118626   1.360   6.031   0.532
 5909SOL    HW218627   1.273   6.126   0.633
 5910SOL     OW18628   1.215   2.593   3.002
 5910SOL    HW118629   1.241   2.497   3.002
 5910SOL    HW218630   1.136   2.606   3.063
 5911SOL     OW18631   6.668   5.724   6.909
 5911SOL    HW118632   6.694   5.642   6.961
 5911SOL    HW218633   6.722   5.729   6.825
 5912SOL     OW18634   6.473   1.491   5.891
 5912SOL    HW118635   6.459   1.459   5.797
 5912SOL    HW218636   6.385   1.492   5.939
 5913SOL     OW18637   5.390   3.379   0.571
 5913SOL    HW118638   5.480   3.380   0.527
 5913SOL    HW218639   5.355   3.286   0.572
 5914SOL     OW18640   1.008   6.705   6.324
 5914SOL    HW118641   1.083   6.766   6.297
 5914SOL    HW218642   1.013   6.620   6.271
 5915SOL     OW18643   3.472   6.953   0.422
 5915SOL    HW118644   3.380   6.916   0.437
 5915SOL    HW218645   3.539   6.880   0.435
 5916SOL     OW18646   1.217   6.712   1.852
 5916SOL    HW118647   1.273   6.782   1.896
 5916SOL    HW218648   1.120   6.733   1.864
 5917SOL     OW18649   3.063   4.383   6.377
 5917SOL    HW118650   3.079   4.482   6.371
 5917SOL    HW218651   2.965   4.365   6.374
 5918SOL     OW18652   2.684   6.175   5.937
 5918SOL    HW118653   2.742   6.098   5.912
 5918SOL    HW218654   2.596   6.141   5.970
 5919SOL     OW18655   3.392   3.276   3.423
 5919SOL    HW118656   3.394   3.374   3.440
 5919SOL    HW218657   3.410   3.258   3.326
 5920SOL     OW18658   5.960   0.920   6.030
 5920SOL    HW118659   6.033   0.905   6.097
 5920SOL    HW218660   5.883   0.859   6.051
 5921SOL     OW18661   3.878   4.813   6.556
 5921SOL    HW118662   3.782   4.840   6.562
 5921SOL    HW218663   3.920   4.856   6.476
 5922SOL     OW18664   6.428   4.059   3.191
 5922SOL    HW118665   6.404   3.964   3.175
 5922SOL    HW218666   6.357   4.118   3.154
 5923SOL     OW18667   6.039   1.045   1.584
 5923SOL    HW118668   5.941   1.052   1.603
 5923SOL    HW218669   6.053   1.024   1.487
 5924SOL     OW18670   5.622   0.080   3.069
 5924SOL    HW118671   5.647   0.118   3.159
 5924SOL    HW218672   5.522   0.082   3.059
 5925SOL     OW18673   4.615   5.341   1.077
 5925SOL    HW118674   4.627   5.382   1.167
 5925SOL    HW218675   4.656   5.251   1.075
 5926SOL     OW18676   3.962   4.993   3.155
 5926SOL    HW118677   3.882   4.964   3.207
 5926SOL    HW218678   3.964   4.945   3.067
 5927SOL     OW18679   1.716   3.734   1.910
 5927SOL    HW118680   1.762   3.776   1.988
 5927SOL    HW218681   1.627   3.700   1.939
 5928SOL     OW18682   4.082   0.544   0.810
 5928SOL    HW118683   4.022   0.610   0.764
 5928SOL    HW218684   4.177   0.566   0.789
 5929SOL     OW18685   6.696   0.349   5.315
 5929SOL    HW118686   6.781   0.383   5.357
 5929SOL    HW218687   6.681   0.396   5.228
 5930SOL     OW18688   1.173   3.125   1.357
 5930SOL    HW118689   1.246   3.140   1.290
 5930SOL    HW218690   1.087   3.162   1.320
 5931SOL     OW18691   5.446   6.220   2.739
 5931SOL    HW118692   5.425   6.242   2.644
 5931SOL    HW218693   5.459   6.304   2.791
 5932SOL     OW18694   3.118   0.216   6.552
 5932SOL    HW118695   3.145   0.311   6.534
 5932SOL    HW218696   3.174   0.155   6.495
 5933SOL     OW18697   0.241   5.558   4.619
 5933SOL    HW118698   0.249   5.480   4.557
 5933SOL    HW218699   0.289   5.637   4.579
 5934SOL     OW18700   3.534   3.798   5.647
 5934SOL    HW118701   3.506   3.702   5.652
 5934SOL    HW218702   3.456   3.857   5.668
 5935SOL     OW18703   0.421   6.297   5.305
 5935SOL    HW118704   0.507   6.314   5.353
 5935SOL    HW218705   0.441   6.274   5.209
 5936SOL     OW18706   3.316   2.934   2.882
 5936SOL    HW118707   3.251   2.916   2.808
 5936SOL    HW218708   3.404   2.893   2.859
 5937SOL     OW18709   0.344   2.602   2.086
 5937SOL    HW118710   0.422   2.653   2.121
 5937SOL    HW218711   0.273   2.596   2.156
 5938SOL     OW18712   5.955   5.243   5.285
 5938SOL    HW118713   6.028   5.256   5.217
 5938SOL    HW218714   5.874   5.293   5.256
 5939SOL     OW18715   3.970   6.772   4.448
 5939SOL    HW118716   3.991   6.835   4.523
 5939SOL    HW218717   3.978   6.820   4.361
 5940SOL     OW18718   4.575   5.609   2.817
 5940SOL    HW118719   4.562   5.592   2.914
 5940SOL    HW218720   4.533   5.697   2.793
 5941SOL     OW18721   6.319   2.247   2.261
 5941SOL    HW118722   6.382   2.198   2.201
 5941SOL    HW218723   6.232   2.260   2.214
 5942SOL     OW18724   6.263   3.111   5.969
 5942SOL    HW118725   6.335   3.064   6.019
 5942SOL    HW218726   6.295   3.131   5.876
 5943SOL     OW18727   4.030   3.183   0.301
 5943SOL    HW118728   4.106   3.192   0.237
 5943SOL    HW218729   4.044   3.102   0.358
 5944SOL     OW18730   0.266   3.047   0.105
 5944SOL    HW118731   0.274   3.017   0.010
 5944SOL    HW218732   0.328   3.123   0.122
 5945SOL     OW18733   0.546   6.028   4.856
 5945SOL    HW118734   0.513   6.058   4.766
 5945SOL    HW218735   0.641   6.055   4.867
 5946SOL     OW18736   3.924   4.454   6.382
 5946SOL    HW118737   3.897   4.358   6.395
 5946SOL    HW218738   4.017   4.467   6.417
 5947SOL     OW18739   3.176   2.986   4.703
 5947SOL    HW118740   3.084   2.974   4.664
 5947SOL    HW218741   3.174   2.961   4.800
 5948SOL     OW18742   4.882   4.014   2.197
 5948SOL    HW118743   4.975   4.043   2.215
 5948SOL    HW218744   4.857   4.036   2.102
 5949SOL     OW18745   5.835   5.401   1.215
 5949SOL    HW118746   5.903   5.466   1.181
 5949SOL    HW218747   5.880   5.332   1.272
 5950SOL     OW18748   5.420   2.129   5.576
 5950SOL    HW118749   5.388   2.037   5.597
 5950SOL    HW218750   5.500   2.124   5.517
 5951SOL     OW18751   0.864   5.402   4.918
 5951SOL    HW118752   0.945   5.453   4.947
 5951SOL    HW218753   0.888   5.342   4.841
 5952SOL     OW18754   4.253   5.097   2.107
 5952SOL    HW118755   4.251   5.121   2.204
 5952SOL    HW218756   4.233   5.000   2.095
 5953SOL     OW18757   6.311   2.669   4.744
 5953SOL    HW118758   6.298   2.768   4.745
 5953SOL    HW218759   6.313   2.637   4.649
 5954SOL     OW18760   0.450   5.640   5.285
 5954SOL    HW118761   0.477   5.706   5.355
 5954SOL    HW218762   0.465   5.547   5.321
 5955SOL     OW18763   4.991   4.859   1.178
 5955SOL    HW118764   5.005   4.760   1.170
 5955SOL    HW218765   4.893   4.877   1.191
 5956SOL     OW18766   5.086   2.710   4.407
 5956SOL    HW118767   5.106   2.739   4.313
 5956SOL    HW218768   5.108   2.784   4.470
 5957SOL     OW18769   0.962   1.012   2.914
 5957SOL    HW118770   0.989   1.053   2.827
 5957SOL    HW218771   0.966   0.912   2.907
 5958SOL     OW18772   3.486   0.051   3.108
 5958SOL    HW118773   3.454   7.002   3.171
 5958SOL    HW218774   3.475   0.141   3.151
 5959SOL     OW18775   4.939   2.370   5.064
 5959SOL    HW118776   4.919   2.445   5.127
 5959SOL    HW218777   4.860   2.355   5.005
 5960SOL     OW18778   3.325   6.739   5.173
 5960SOL    HW118779   3.267   6.780   5.103
 5960SOL    HW218780   3.418   6.727   5.137
 5961SOL     OW18781   3.733   1.829   2.632
 5961SOL    HW118782   3.715   1.916   2.680
 5961SOL    HW218783   3.756   1.848   2.536
 5962SOL     OW18784   4.970   6.499   6.637
 5962SOL    HW118785   4.904   6.433   6.603
 5962SOL    HW218786   4.927   6.556   6.707
 5963SOL     OW18787   3.670   4.510   6.477
 5963SOL    HW118788   3.600   4.449   6.442
 5963SOL    HW218789   3.759   4.485   6.439
 5964SOL     OW18790   2.219   0.254   3.054
 5964SOL    HW118791   2.254   0.235   2.962
 5964SOL    HW218792   2.191   0.169   3.097
 5965SOL     OW18793   1.787   0.113   0.024
 5965SOL    HW118794   1.784   0.014   0.013
 5965SOL    HW218795   1.827   0.135   0.113
 5966SOL     OW18796   1.449   0.089   5.766
 5966SOL    HW118797   1.548   0.102   5.756
 5966SOL    HW218798   1.430   7.014   5.785
 5967SOL     OW18799   2.586   2.187   5.138
 5967SOL    HW118800   2.625   2.130   5.066
 5967SOL    HW218801   2.488   2.197   5.125
 5968SOL     OW18802   5.407   2.473   0.183
 5968SOL    HW118803   5.342   2.442   0.253
 5968SOL    HW218804   5.436   2.566   0.204
 5969SOL     OW18805   5.192   0.500   6.445
 5969SOL    HW118806   5.106   0.541   6.475
 5969SOL    HW218807   5.193   0.403   6.471
 5970SOL     OW18808   0.241   3.920   0.611
 5970SOL    HW118809   0.220   3.898   0.516
 5970SOL    HW218810   0.255   3.836   0.663
 5971SOL     OW18811   5.793   0.220   2.863
 5971SOL    HW118812   5.833   0.141   2.816
 5971SOL    HW218813   5.728   0.188   2.932
 5972SOL     OW18814   4.650   5.498   0.010
 5972SOL    HW118815   4.716   5.521   6.960
 5972SOL    HW218816   4.660   5.402   0.035
 5973SOL     OW18817   1.636   3.498   2.832
 5973SOL    HW118818   1.680   3.435   2.896
 5973SOL    HW218819   1.574   3.448   2.773
 5974SOL     OW18820   4.474   0.891   0.078
 5974SOL    HW118821   4.425   0.807   0.101
 5974SOL    HW218822   4.508   0.884   7.006
 5975SOL     OW18823   5.178   5.116   0.627
 5975SOL    HW118824   5.258   5.060   0.651
 5975SOL    HW218825   5.172   5.193   0.691
 5976SOL     OW18826   3.696   3.439   5.988
 5976SOL    HW118827   3.752   3.356   5.983
 5976SOL    HW218828   3.707   3.491   5.903
 5977SOL     OW18829   0.671   5.461   0.282
 5977SOL    HW118830   0.586   5.501   0.247
 5977SOL    HW218831   0.720   5.530   0.336
 5978SOL     OW18832   3.447   5.223   6.985
 5978SOL    HW118833   3.496   5.153   0.014
 5978SOL    HW218834   3.505   5.259   6.912
 5979SOL     OW18835   6.156   0.667   2.096
 5979SOL    HW118836   6.079   0.629   2.044
 5979SOL    HW218837   6.233   0.603   2.093
 5980SOL     OW18838   3.188   2.836   1.989
 5980SOL    HW118839   3.169   2.790   2.076
 5980SOL    HW218840   3.132   2.795   1.917
 5981SOL     OW18841   4.828   2.674   0.647
 5981SOL    HW118842   4.831   2.605   0.719
 5981SOL    HW218843   4.824   2.629   0.558
 5982SOL     OW18844   5.692   2.107   2.263
 5982SOL    HW118845   5.699   2.169   2.341
 5982SOL    HW218846   5.680   2.161   2.179
 5983SOL     OW18847   0.382   0.424   4.115
 5983SOL    HW118848   0.316   0.462   4.051
 5983SOL    HW218849   0.428   0.498   4.165
 5984SOL     OW18850   5.948   6.140   3.718
 5984SOL    HW118851   6.037   6.184   3.730
 5984SOL    HW218852   5.882   6.208   3.685
 5985SOL     OW18853   6.444   1.894   3.622
 5985SOL    HW118854   6.375   1.964   3.640
 5985SOL    HW218855   6.476   1.903   3.527
 5986SOL     OW18856   4.441   3.941   5.381
 5986SOL    HW118857   4.368   3.916   5.445
 5986SOL    HW218858   4.492   4.018   5.417
 5987SOL     OW18859   6.817   1.055   4.677
 5987SOL    HW118860   6.754   0.979   4.690
 5987SOL    HW218861   6.832   1.070   4.580
 5988SOL     OW18862   2.997   1.514   6.822
 5988SOL    HW118863   2.970   1.418   6.823
 5988SOL    HW218864   3.080   1.525   6.767
 5989SOL     OW18865   1.314   5.751   6.798
 5989SOL    HW118866   1.216   5.764   6.784
 5989SOL    HW218867   1.338   5.772   6.893
 5990SOL     OW18868   4.442   4.264   1.291
 5990SOL    HW118869   4.475   4.352   1.325
 5990SOL    HW218870   4.342   4.261   1.295
 5991SOL     OW18871   4.104   5.941   0.602
 5991SOL    HW118872   4.133   5.992   0.682
 5991SOL    HW218873   4.080   6.004   0.528
 5992SOL     OW18874   2.909   0.276   2.175
 5992SOL    HW118875   2.927   0.187   2.218
 5992SOL    HW218876   2.979   0.342   2.203
 5993SOL     OW18877   6.327   3.618   6.849
 5993SOL    HW118878   6.329   3.596   6.946
 5993SOL    HW218879   6.320   3.534   6.796
 5994SOL     OW18880   0.144   3.522   1.266
 5994SOL    HW118881   0.128   3.501   1.169
 5994SOL    HW218882   0.209   3.456   1.303
 5995SOL     OW18883   4.439   3.120   1.364
 5995SOL    HW118884   4.530   3.162   1.358
 5995SOL    HW218885   4.411   3.089   1.273
 5996SOL     OW18886   2.405   5.857   1.523
 5996SOL    HW118887   2.459   5.789   1.472
 5996SOL    HW218888   2.382   5.822   1.613
 5997SOL     OW18889   6.709   6.830   3.371
 5997SOL    HW118890   6.803   6.813   3.342
 5997SOL    HW218891   6.646   6.801   3.299
 5998SOL     OW18892   5.190   0.886   1.574
 5998SOL    HW118893   5.249   0.958   1.611
 5998SOL    HW218894   5.187   0.810   1.638
 5999SOL     OW18895   3.967   3.297   1.084
 5999SOL    HW118896   3.955   3.391   1.054
 5999SOL    HW218897   4.021   3.247   1.016
 6000SOL     OW18898   0.460   5.603   0.198
 6000SOL    HW118899   0.466   5.634   0.103
 6000SOL    HW218900   0.420   5.675   0.255
 6001SOL     OW18901   5.070   6.188   6.341
 6001SOL    HW118902   5.031   6.161   6.253
 6001SOL    HW218903   5.030   6.133   6.414
 6002SOL     OW18904   6.698   0.048   4.717
 6002SOL    HW118905   6.782   0.070   4.766
 6002SOL    HW218906   6.622   0.042   4.782
 6003SOL     OW18907   6.737   2.507   4.115
 6003SOL    HW118908   6.758   2.412   4.137
 6003SOL    HW218909   6.648   2.512   4.071
 6004SOL     OW18910   5.958   2.482   3.369
 6004SOL    HW118911   5.960   2.428   3.454
 6004SOL    HW218912   6.027   2.447   3.306
 6005SOL     OW18913   4.980   4.136   5.052
 6005SOL    HW118914   5.046   4.184   4.994
 6005SOL    HW218915   4.894   4.123   5.002
 6006SOL     OW18916   3.565   0.338   5.281
 6006SOL    HW118917   3.475   0.310   5.247
 6006SOL    HW218918   3.581   0.434   5.258
 6007SOL     OW18919   0.388   3.918   6.704
 6007SOL    HW118920   0.323   3.893   6.776
 6007SOL    HW218921   0.342   3.917   6.616
 6008SOL     OW18922   1.826   3.959   5.577
 6008SOL    HW118923   1.922   3.936   5.562
 6008SOL    HW218924   1.785   3.989   5.491
 6009SOL     OW18925   4.878   5.888   3.065
 6009SOL    HW118926   4.817   5.889   2.986
 6009SOL    HW218927   4.876   5.798   3.107
 6010SOL     OW18928   0.333   4.265   4.404
 6010SOL    HW118929   0.321   4.181   4.352
 6010SOL    HW218930   0.421   4.307   4.380
 6011SOL     OW18931   4.525   1.981   3.045
 6011SOL    HW118932   4.616   1.948   3.021
 6011SOL    HW218933   4.513   2.074   3.010
 6012SOL     OW18934   5.906   0.323   6.730
 6012SOL    HW118935   5.843   0.358   6.660
 6012SOL    HW218936   6.000   0.343   6.704
 6013SOL     OW18937   5.154   0.651   2.428
 6013SOL    HW118938   5.061   0.615   2.417
 6013SOL    HW218939   5.162   0.737   2.377
 6014SOL     OW18940   3.284   3.217   3.907
 6014SOL    HW118941   3.327   3.297   3.866
 6014SOL    HW218942   3.197   3.244   3.949
 6015SOL     OW18943   6.527   2.357   4.350
 6015SOL    HW118944   6.598   2.306   4.399
 6015SOL    HW218945   6.551   2.364   4.253
 6016SOL     OW18946   4.609   1.730   5.372
 6016SOL    HW118947   4.708   1.734   5.387
 6016SOL    HW218948   4.568   1.671   5.441
 6017SOL     OW18949   6.927   4.097   4.633
 6017SOL    HW118950   6.986   4.051   4.700
 6017SOL    HW218951   6.977   4.173   4.592
 6018SOL     OW18952   3.470   1.611   4.556
 6018SOL    HW118953   3.477   1.526   4.504
 6018SOL    HW218954   3.442   1.591   4.650
 6019SOL     OW18955   1.172   3.818   5.796
 6019SOL    HW118956   1.204   3.794   5.705
 6019SOL    HW218957   1.115   3.744   5.832
 6020SOL     OW18958   1.179   5.270   0.892
 6020SOL    HW118959   1.185   5.173   0.866
 6020SOL    HW218960   1.266   5.299   0.932
 6021SOL     OW18961   4.239   0.500   2.235
 6021SOL    HW118962   4.287   0.413   2.247
 6021SOL    HW218963   4.223   0.542   2.324
 6022SOL     OW18964   6.309   1.671   3.139
 6022SOL    HW118965   6.230   1.611   3.125
 6022SOL    HW218966   6.383   1.643   3.077
 6023SOL     OW18967   4.984   0.234   1.663
 6023SOL    HW118968   4.907   0.195   1.613
 6023SOL    HW218969   5.030   0.163   1.716
 6024SOL     OW18970   0.462   4.824   0.907
 6024SOL    HW118971   0.499   4.835   0.999
 6024SOL    HW218972   0.372   4.781   0.913
 6025SOL     OW18973   2.753   1.200   3.502
 6025SOL    HW118974   2.841   1.243   3.522
 6025SOL    HW218975   2.763   1.101   3.502
 6026SOL     OW18976   6.581   4.575   4.151
 6026SOL    HW118977   6.498   4.555   4.202
 6026SOL    HW218978   6.570   4.548   4.056
 6027SOL     OW18979   6.030   3.498   6.153
 6027SOL    HW118980   6.073   3.409   6.170
 6027SOL    HW218981   6.068   3.566   6.215
 6028SOL     OW18982   5.564   4.829   1.116
 6028SOL    HW118983   5.554   4.916   1.067
 6028SOL    HW218984   5.481   4.775   1.105
 6029SOL     OW18985   2.394   0.173   3.756
 6029SOL    HW118986   2.492   0.160   3.741
 6029SOL    HW218987   2.357   0.232   3.684
 6030SOL     OW18988   4.955   3.543   4.870
 6030SOL    HW118989   5.031   3.607   4.880
 6030SOL    HW218990   4.891   3.556   4.946
 6031SOL     OW18991   1.187   6.018   3.995
 6031SOL    HW118992   1.203   6.102   3.943
 6031SOL    HW218993   1.216   6.032   4.090
 6032SOL     OW18994   3.450   5.819   4.102
 6032SOL    HW118995   3.489   5.855   4.017
 6032SOL    HW218996   3.429   5.895   4.164
 6033SOL     OW18997   2.480   2.650   2.777
 6033SOL    HW118998   2.423   2.592   2.718
 6033SOL    HW218999   2.514   2.596   2.854
 6034SOL     OW19000   0.956   0.195   6.431
 6034SOL    HW119001   1.005   0.166   6.349
 6034SOL    HW219002   0.990   0.143   6.509
 6035SOL     OW19003   0.549   1.183   2.605
 6035SOL    HW119004   0.587   1.267   2.567
 6035SOL    HW219005   0.623   1.119   2.627
 6036SOL     OW19006   5.895   4.937   1.566
 6036SOL    HW119007   5.920   4.925   1.470
 6036SOL    HW219008   5.931   4.862   1.620
 6037SOL     OW19009   3.951   1.356   0.794
 6037SOL    HW119010   3.866   1.375   0.843
 6037SOL    HW219011   4.011   1.300   0.852
 6038SOL     OW19012   0.487   2.333   6.807
 6038SOL    HW119013   0.402   2.376   6.838
 6038SOL    HW219014   0.466   2.266   6.735
 6039SOL     OW19015   4.158   3.578   3.851
 6039SOL    HW119016   4.157   3.478   3.848
 6039SOL    HW219017   4.189   3.609   3.941
 6040SOL     OW19018   1.765   1.458   0.490
 6040SOL    HW119019   1.673   1.427   0.467
 6040SOL    HW219020   1.796   1.524   0.422
 6041SOL     OW19021   3.316   2.877   5.676
 6041SOL    HW119022   3.276   2.883   5.585
 6041SOL    HW219023   3.309   2.783   5.709
 6042SOL     OW19024   3.824   6.294   3.581
 6042SOL    HW119025   3.905   6.252   3.541
 6042SOL    HW219026   3.766   6.224   3.622
 6043SOL     OW19027   1.853   0.802   3.772
 6043SOL    HW119028   1.882   0.763   3.685
 6043SOL    HW219029   1.780   0.869   3.756
 6044SOL     OW19030   1.937   1.925   1.897
 6044SOL    HW119031   1.908   1.950   1.989
 6044SOL    HW219032   1.990   1.841   1.901
 6045SOL     OW19033   5.167   3.381   3.988
 6045SOL    HW119034   5.169   3.418   4.081
 6045SOL    HW219035   5.075   3.390   3.950
 6046SOL     OW19036   3.409   2.686   1.496
 6046SOL    HW119037   3.394   2.776   1.538
 6046SOL    HW219038   3.487   2.691   1.433
 6047SOL     OW19039   5.732   2.313   0.727
 6047SOL    HW119040   5.644   2.265   0.723
 6047SOL    HW219041   5.761   2.322   0.822
 6048SOL     OW19042   5.278   4.800   4.909
 6048SOL    HW119043   5.355   4.810   4.845
 6048SOL    HW219044   5.308   4.749   4.990
 6049SOL     OW19045   5.380   4.408   6.300
 6049SOL    HW119046   5.348   4.317   6.328
 6049SOL    HW219047   5.383   4.413   6.200
 6050SOL     OW19048   3.260   5.528   0.352
 6050SOL    HW119049   3.293   5.442   0.311
 6050SOL    HW219050   3.244   5.514   0.450
 6051SOL     OW19051   0.346   1.256   2.369
 6051SOL    HW119052   0.409   1.333   2.375
 6051SOL    HW219053   0.342   1.209   2.458
 6052SOL     OW19054   5.539   0.319   1.053
 6052SOL    HW119055   5.468   0.385   1.029
 6052SOL    HW219056   5.538   0.304   1.152
 6053SOL     OW19057   4.672   0.982   6.159
 6053SOL    HW119058   4.748   1.045   6.178
 6053SOL    HW219059   4.589   1.016   6.202
 6054SOL     OW19060   3.980   5.169   0.664
 6054SOL    HW119061   3.978   5.089   0.603
 6054SOL    HW219062   4.065   5.220   0.649
 6055SOL     OW19063   3.332   4.847   6.406
 6055SOL    HW119064   3.322   4.846   6.506
 6055SOL    HW219065   3.275   4.919   6.368
 6056SOL     OW19066   5.978   2.760   4.614
 6056SOL    HW119067   6.011   2.666   4.623
 6056SOL    HW219068   5.964   2.781   4.517
 6057SOL     OW19069   5.723   0.240   2.429
 6057SOL    HW119070   5.751   0.336   2.424
 6057SOL    HW219071   5.744   0.194   2.343
 6058SOL     OW19072   6.357   3.629   0.819
 6058SOL    HW119073   6.268   3.658   0.783
 6058SOL    HW219074   6.426   3.697   0.794
 6059SOL     OW19075   5.102   3.976   5.581
 6059SOL    HW119076   5.197   4.008   5.587
 6059SOL    HW219077   5.102   3.883   5.544
 6060SOL     OW19078   3.204   3.031   0.271
 6060SOL    HW119079   3.213   2.971   0.350
 6060SOL    HW219080   3.230   2.981   0.188
 6061SOL     OW19081   4.106   4.580   0.228
 6061SOL    HW119082   4.079   4.590   0.324
 6061SOL    HW219083   4.200   4.546   0.224
 6062SOL     OW19084   2.236   1.682   6.709
 6062SOL    HW119085   2.233   1.660   6.612
 6062SOL    HW219086   2.330   1.669   6.743
 6063SOL     OW19087   3.883   4.354   5.255
 6063SOL    HW119088   3.874   4.271   5.200
 6063SOL    HW219089   3.857   4.334   5.349
 6064SOL     OW19090   0.414   0.333   0.684
 6064SOL    HW119091   0.393   0.332   0.586
 6064SOL    HW219092   0.429   0.239   0.715
 6065SOL     OW19093   1.039   5.359   2.069
 6065SOL    HW119094   0.960   5.409   2.033
 6065SOL    HW219095   1.101   5.422   2.116
 6066SOL     OW19096   5.132   1.030   3.454
 6066SOL    HW119097   5.087   1.097   3.396
 6066SOL    HW219098   5.119   0.939   3.416
 6067SOL     OW19099   5.653   0.273   5.696
 6067SOL    HW119100   5.562   0.311   5.714
 6067SOL    HW219101   5.649   0.215   5.614
 6068SOL     OW19102   5.038   2.203   5.272
 6068SOL    HW119103   5.011   2.259   5.194
 6068SOL    HW219104   5.134   2.220   5.294
 6069SOL     OW19105   6.975   3.011   5.735
 6069SOL    HW119106   6.971   2.918   5.772
 6069SOL    HW219107   0.010   3.068   5.794
 6070SOL     OW19108   3.640   2.191   1.662
 6070SOL    HW119109   3.640   2.276   1.716
 6070SOL    HW219110   3.635   2.112   1.723
 6071SOL     OW19111   0.324   6.211   4.254
 6071SOL    HW119112   0.286   6.210   4.346
 6071SOL    HW219113   0.250   6.195   4.188
 6072SOL     OW19114   0.045   1.978   0.675
 6072SOL    HW119115   7.013   1.941   0.751
 6072SOL    HW219116   0.126   2.024   0.712
 6073SOL     OW19117   4.800   2.776   1.256
 6073SOL    HW119118   4.869   2.846   1.237
 6073SOL    HW219119   4.738   2.809   1.327
 6074SOL     OW19120   1.764   0.026   2.743
 6074SOL    HW119121   1.810   0.111   2.718
 6074SOL    HW219122   1.699   0.043   2.817
 6075SOL     OW19123   4.843   0.012   6.075
 6075SOL    HW119124   4.925   7.007   6.023
 6075SOL    HW219125   4.854   0.106   6.107
 6076SOL     OW19126   2.437   5.216   3.851
 6076SOL    HW119127   2.500   5.141   3.830
 6076SOL    HW219128   2.393   5.199   3.939
 6077SOL     OW19129   5.563   6.441   0.982
 6077SOL    HW119130   5.640   6.505   0.981
 6077SOL    HW219131   5.496   6.467   0.912
 6078SOL     OW19132   4.215   4.320   0.501
 6078SOL    HW119133   4.306   4.360   0.514
 6078SOL    HW219134   4.148   4.394   0.491
 6079SOL     OW19135   4.970   4.336   6.551
 6079SOL    HW119136   4.948   4.431   6.531
 6079SOL    HW219137   5.059   4.331   6.598
 6080SOL     OW19138   0.791   4.932   1.943
 6080SOL    HW119139   0.835   5.000   2.003
 6080SOL    HW219140   0.692   4.944   1.947
 6081SOL     OW19141   0.958   3.530   5.488
 6081SOL    HW119142   0.985   3.626   5.490
 6081SOL    HW219143   1.001   3.482   5.564
 6082SOL     OW19144   3.375   0.164   1.916
 6082SOL    HW119145   3.348   0.199   1.826
 6082SOL    HW219146   3.378   0.064   1.913
 6083SOL     OW19147   5.570   6.942   0.279
 6083SOL    HW119148   5.557   6.947   0.378
 6083SOL    HW219149   5.545   6.850   0.247
 6084SOL     OW19150   0.870   6.202   1.932
 6084SOL    HW119151   0.852   6.105   1.918
 6084SOL    HW219152   0.968   6.215   1.951
 6085SOL     OW19153   6.153   6.218   6.366
 6085SOL    HW119154   6.054   6.207   6.368
 6085SOL    HW219155   6.184   6.253   6.454
 6086SOL     OW19156   3.811   2.616   6.669
 6086SOL    HW119157   3.781   2.562   6.590
 6086SOL    HW219158   3.758   2.701   6.672
 6087SOL     OW19159   5.146   6.261   0.413
 6087SOL    HW119160   5.059   6.274   0.366
 6087SOL    HW219161   5.170   6.164   0.413
 6088SOL     OW19162   5.304   6.449   5.657
 6088SOL    HW119163   5.398   6.417   5.651
 6088SOL    HW219164   5.302   6.549   5.648
 6089SOL     OW19165   6.824   2.172   2.370
 6089SOL    HW119166   6.792   2.234   2.441
 6089SOL    HW219167   6.874   2.223   2.300
 6090SOL     OW19168   2.979   5.152   4.566
 6090SOL    HW119169   2.959   5.081   4.634
 6090SOL    HW219170   3.061   5.127   4.514
 6091SOL     OW19171   2.649   1.369   0.995
 6091SOL    HW119172   2.746   1.346   0.995
 6091SOL    HW219173   2.638   1.468   1.003
 6092SOL     OW19174   4.638   0.709   1.925
 6092SOL    HW119175   4.710   0.758   1.974
 6092SOL    HW219176   4.626   0.618   1.965
 6093SOL     OW19177   2.543   1.617   2.215
 6093SOL    HW119178   2.453   1.661   2.216
 6093SOL    HW219179   2.613   1.685   2.193
 6094SOL     OW19180   1.269   6.805   3.836
 6094SOL    HW119181   1.275   6.706   3.845
 6094SOL    HW219182   1.272   6.847   3.927
 6095SOL     OW19183   4.338   5.400   6.803
 6095SOL    HW119184   4.295   5.432   6.887
 6095SOL    HW219185   4.376   5.309   6.817
 6096SOL     OW19186   5.418   6.317   2.477
 6096SOL    HW119187   5.509   6.296   2.443
 6096SOL    HW219188   5.349   6.273   2.420
 6097SOL     OW19189   1.057   5.801   1.902
 6097SOL    HW119190   1.083   5.725   1.844
 6097SOL    HW219191   1.105   5.793   1.990
 6098SOL     OW19192   6.328   0.645   5.619
 6098SOL    HW119193   6.257   0.608   5.679
 6098SOL    HW219194   6.312   0.743   5.605
 6099SOL     OW19195   4.566   6.404   5.796
 6099SOL    HW119196   4.633   6.477   5.782
 6099SOL    HW219197   4.494   6.412   5.727
 6100SOL     OW19198   0.425   5.711   1.928
 6100SOL    HW119199   0.334   5.752   1.934
 6100SOL    HW219200   0.440   5.675   1.836
 6101SOL     OW19201   6.162   2.460   2.376
 6101SOL    HW119202   6.248   2.428   2.339
 6101SOL    HW219203   6.178   2.542   2.431
 6102SOL     OW19204   4.267   5.586   3.012
 6102SOL    HW119205   4.207   5.650   3.059
 6102SOL    HW219206   4.240   5.579   2.916
 6103SOL     OW19207   6.413   1.558   1.050
 6103SOL    HW119208   6.417   1.529   0.954
 6103SOL    HW219209   6.431   1.480   1.109
 6104SOL     OW19210   5.940   1.144   5.121
 6104SOL    HW119211   5.897   1.143   5.030
 6104SOL    HW219212   6.026   1.195   5.117
 6105SOL     OW19213   2.401   5.278   5.595
 6105SOL    HW119214   2.473   5.322   5.541
 6105SOL    HW219215   2.312   5.306   5.560
 6106SOL     OW19216   1.132   4.721   0.867
 6106SOL    HW119217   1.073   4.801   0.862
 6106SOL    HW219218   1.076   4.639   0.884
 6107SOL     OW19219   4.758   5.357   4.204
 6107SOL    HW119220   4.831   5.289   4.199
 6107SOL    HW219221   4.756   5.410   4.119
 6108SOL     OW19222   1.369   2.092   2.619
 6108SOL    HW119223   1.414   2.068   2.706
 6108SOL    HW219224   1.438   2.127   2.555
 6109SOL     OW19225   5.586   0.826   4.398
 6109SOL    HW119226   5.498   0.826   4.445
 6109SOL    HW219227   5.615   0.732   4.381
 6110SOL     OW19228   1.123   2.612   6.434
 6110SOL    HW119229   1.116   2.550   6.512
 6110SOL    HW219230   1.185   2.688   6.456
 6111SOL     OW19231   1.255   3.320   2.082
 6111SOL    HW119232   1.203   3.386   2.028
 6111SOL    HW219233   1.236   3.332   2.179
 6112SOL     OW19234   3.883   0.549   2.132
 6112SOL    HW119235   3.954   0.481   2.113
 6112SOL    HW219236   3.808   0.506   2.182
 6113SOL     OW19237   2.689   4.090   6.848
 6113SOL    HW119238   2.767   4.096   6.787
 6113SOL    HW219239   2.715   4.124   6.939
 6114SOL     OW19240   4.915   2.678   2.419
 6114SOL    HW119241   4.881   2.748   2.356
 6114SOL    HW219242   4.857   2.676   2.500
 6115SOL     OW19243   0.423   1.656   5.192
 6115SOL    HW119244   0.360   1.616   5.125
 6115SOL    HW219245   0.423   1.600   5.275
 6116SOL     OW19246   3.934   2.403   5.297
 6116SOL    HW119247   3.841   2.369   5.307
 6116SOL    HW219248   3.932   2.494   5.255
 6117SOL     OW19249   1.048   1.220   3.080
 6117SOL    HW119250   1.036   1.306   3.031
 6117SOL    HW219251   1.032   1.144   3.017
 6118SOL     OW19252   5.862   1.538   1.635
 6118SOL    HW119253   5.873   1.535   1.734
 6118SOL    HW219254   5.791   1.473   1.607
 6119SOL     OW19255   0.078   3.116   0.311
 6119SOL    HW119256   0.144   3.086   0.242
 6119SOL    HW219257   7.007   3.096   0.279
 6120SOL     OW19258   1.798   6.729   5.328
 6120SOL    HW119259   1.774   6.633   5.341
 6120SOL    HW219260   1.764   6.783   5.405
 6121SOL     OW19261   0.473   4.078   5.380
 6121SOL    HW119262   0.519   4.161   5.349
 6121SOL    HW219263   0.387   4.102   5.424
 6122SOL     OW19264   5.293   5.927   6.381
 6122SOL    HW119265   5.310   6.010   6.329
 6122SOL    HW219266   5.359   5.921   6.456
 6123SOL     OW19267   5.188   0.867   5.543
 6123SOL    HW119268   5.177   0.904   5.451
 6123SOL    HW219269   5.284   0.841   5.557
 6124SOL     OW19270   1.714   6.875   5.096
 6124SOL    HW119271   1.732   6.802   5.162
 6124SOL    HW219272   1.637   6.930   5.128
 6125SOL     OW19273   2.529   3.711   0.169
 6125SOL    HW119274   2.505   3.807   0.181
 6125SOL    HW219275   2.479   3.674   0.090
 6126SOL     OW19276   0.995   2.143   5.271
 6126SOL    HW119277   1.036   2.081   5.204
 6126SOL    HW219278   0.900   2.119   5.286
 6127SOL     OW19279   3.986   0.908   1.288
 6127SOL    HW119280   3.965   0.994   1.242
 6127SOL    HW219281   4.019   0.841   1.221
 6128SOL     OW19282   5.820   5.524   0.849
 6128SOL    HW119283   5.916   5.500   0.837
 6128SOL    HW219284   5.806   5.563   0.939
 6129SOL     OW19285   2.002   4.902   3.189
 6129SOL    HW119286   1.950   4.821   3.214
 6129SOL    HW219287   2.083   4.875   3.137
 6130SOL     OW19288   5.911   2.238   3.006
 6130SOL    HW119289   5.983   2.218   2.939
 6130SOL    HW219290   5.824   2.204   2.972
 6131SOL     OW19291   0.650   2.275   1.890
 6131SOL    HW119292   0.730   2.283   1.949
 6131SOL    HW219293   0.576   2.332   1.925
 6132SOL     OW19294   3.277   1.759   6.501
 6132SOL    HW119295   3.282   1.777   6.402
 6132SOL    HW219296   3.322   1.672   6.521
 6133SOL     OW19297   1.089   2.250   3.280
 6133SOL    HW119298   1.131   2.267   3.191
 6133SOL    HW219299   1.158   2.215   3.344
 6134SOL     OW19300   4.636   6.998   6.782
 6134SOL    HW119301   4.609   6.984   6.687
 6134SOL    HW219302   4.588   0.055   6.820
 6135SOL     OW19303   5.837   6.626   0.174
 6135SOL    HW119304   5.741   6.642   0.154
 6135SOL    HW219305   5.891   6.706   0.148
 6136SOL     OW19306   1.510   2.425   1.359
 6136SOL    HW119307   1.580   2.378   1.306
 6136SOL    HW219308   1.420   2.406   1.319
 6137SOL     OW19309   0.628   3.957   2.573
 6137SOL    HW119310   0.584   3.954   2.483
 6137SOL    HW219311   0.656   4.051   2.592
 6138SOL     OW19312   3.348   0.490   2.063
 6138SOL    HW119313   3.438   0.512   2.027
 6138SOL    HW219314   3.278   0.517   1.996
 6139SOL     OW19315   0.733   6.838   5.433
 6139SOL    HW119316   0.702   6.818   5.340
 6139SOL    HW219317   0.654   6.851   5.493
 6140SOL     OW19318   0.513   0.908   3.409
 6140SOL    HW119319   0.492   0.862   3.495
 6140SOL    HW219320   0.471   0.998   3.408
 6141SOL     OW19321   0.761   0.267   6.162
 6141SOL    HW119322   0.842   0.319   6.190
 6141SOL    HW219323   0.782   0.169   6.165
 6142SOL     OW19324   0.449   0.308   5.703
 6142SOL    HW119325   0.484   0.291   5.795
 6142SOL    HW219326   0.374   0.244   5.684
 6143SOL     OW19327   0.309   4.116   0.796
 6143SOL    HW119328   0.220   4.162   0.802
 6143SOL    HW219329   0.308   4.051   0.720
 6144SOL     OW19330   4.775   4.596   3.168
 6144SOL    HW119331   4.695   4.544   3.140
 6144SOL    HW219332   4.753   4.694   3.169
 6145SOL     OW19333   5.531   4.695   3.609
 6145SOL    HW119334   5.531   4.635   3.530
 6145SOL    HW219335   5.438   4.702   3.646
 6146SOL     OW19336   3.979   6.906   4.223
 6146SOL    HW119337   3.887   6.938   4.199
 6146SOL    HW219338   4.044   6.943   4.156
 6147SOL     OW19339   1.870   2.831   4.640
 6147SOL    HW119340   1.874   2.926   4.669
 6147SOL    HW219341   1.910   2.773   4.711
 6148SOL     OW19342   3.966   5.125   6.546
 6148SOL    HW119343   3.881   5.134   6.597
 6148SOL    HW219344   3.946   5.127   6.448
 6149SOL     OW19345   2.193   0.165   2.335
 6149SOL    HW119346   2.239   0.194   2.251
 6149SOL    HW219347   2.094   0.162   2.320
 6150SOL     OW19348   6.698   4.043   6.569
 6150SOL    HW119349   6.747   3.961   6.600
 6150SOL    HW219350   6.755   4.094   6.504
 6151SOL     OW19351   5.233   5.244   4.025
 6151SOL    HW119352   5.268   5.247   3.932
 6151SOL    HW219353   5.306   5.263   4.090
 6152SOL     OW19354   1.004   5.647   4.669
 6152SOL    HW119355   0.963   5.566   4.628
 6152SOL    HW219356   1.082   5.620   4.726
 6153SOL     OW19357   4.839   5.029   0.756
 6153SOL    HW119358   4.863   5.072   0.669
 6153SOL    HW219359   4.741   5.041   0.774
 6154SOL     OW19360   5.496   3.435   3.151
 6154SOL    HW119361   5.452   3.507   3.204
 6154SOL    HW219362   5.581   3.407   3.195
 6155SOL     OW19363   2.852   1.024   3.080
 6155SOL    HW119364   2.862   1.082   2.999
 6155SOL    HW219365   2.935   1.029   3.135
 6156SOL     OW19366   5.200   3.729   1.529
 6156SOL    HW119367   5.139   3.804   1.503
 6156SOL    HW219368   5.184   3.704   1.624
 6157SOL     OW19369   0.804   2.087   3.428
 6157SOL    HW119370   0.725   2.038   3.391
 6157SOL    HW219371   0.886   2.031   3.415
 6158SOL     OW19372   3.265   2.260   6.628
 6158SOL    HW119373   3.230   2.231   6.539
 6158SOL    HW219374   3.231   2.198   6.699
 6159SOL     OW19375   5.411   3.827   0.903
 6159SOL    HW119376   5.364   3.746   0.866
 6159SOL    HW219377   5.507   3.806   0.917
 6160SOL     OW19378   6.687   6.929   6.776
 6160SOL    HW119379   6.756   6.928   6.704
 6160SOL    HW219380   6.599   6.900   6.738
 6161SOL     OW19381   5.394   2.037   6.746
 6161SOL    HW119382   5.461   1.967   6.725
 6161SOL    HW219383   5.302   1.998   6.744
 6162SOL     OW19384   5.925   6.520   3.696
 6162SOL    HW119385   5.896   6.507   3.601
 6162SOL    HW219386   5.856   6.573   3.745
 6163SOL     OW19387   5.387   5.573   1.762
 6163SOL    HW119388   5.385   5.558   1.861
 6163SOL    HW219389   5.383   5.671   1.743
 6164SOL     OW19390   3.479   4.066   4.604
 6164SOL    HW119391   3.552   4.119   4.561
 6164SOL    HW219392   3.519   4.000   4.668
 6165SOL     OW19393   4.232   2.257   6.330
 6165SOL    HW119394   4.203   2.190   6.261
 6165SOL    HW219395   4.332   2.254   6.339
 6166SOL     OW19396   6.793   1.776   6.896
 6166SOL    HW119397   6.734   1.845   6.854
 6166SOL    HW219398   6.811   1.702   6.831
 6167SOL     OW19399   1.138   4.571   2.810
 6167SOL    HW119400   1.059   4.629   2.791
 6167SOL    HW219401   1.182   4.601   2.895
 6168SOL     OW19402   6.977   2.358   3.135
 6168SOL    HW119403   0.038   2.383   3.186
 6168SOL    HW219404   6.905   2.424   3.154
 6169SOL     OW19405   0.829   1.001   6.137
 6169SOL    HW119406   0.852   1.093   6.105
 6169SOL    HW219407   0.894   0.973   6.207
 6170SOL     OW19408   3.490   4.299   6.427
 6170SOL    HW119409   3.546   4.217   6.417
 6170SOL    HW219410   3.401   4.285   6.382
 6171SOL     OW19411   1.468   3.454   2.374
 6171SOL    HW119412   1.377   3.491   2.358
 6171SOL    HW219413   1.535   3.507   2.322
 6172SOL     OW19414   0.078   0.665   2.468
 6172SOL    HW119415   0.144   0.700   2.534
 6172SOL    HW219416   0.116   0.670   2.376
 6173SOL     OW19417   0.604   5.251   2.603
 6173SOL    HW119418   0.610   5.317   2.528
 6173SOL    HW219419   0.622   5.159   2.569
 6174SOL     OW19420   6.023   4.835   2.828
 6174SOL    HW119421   6.054   4.740   2.834
 6174SOL    HW219422   6.033   4.879   2.917
 6175SOL     OW19423   5.583   6.808   2.522
 6175SOL    HW119424   5.586   6.761   2.610
 6175SOL    HW219425   5.580   6.907   2.538
 6176SOL     OW19426   6.756   3.759   6.629
 6176SOL    HW119427   6.816   3.687   6.593
 6176SOL    HW219428   6.697   3.720   6.700
 6177SOL     OW19429   5.638   1.671   1.257
 6177SOL    HW119430   5.638   1.766   1.225
 6177SOL    HW219431   5.592   1.666   1.346
 6178SOL     OW19432   4.958   5.379   1.865
 6178SOL    HW119433   4.900   5.298   1.857
 6178SOL    HW219434   4.955   5.432   1.780
 6179SOL     OW19435   0.148   3.637   5.063
 6179SOL    HW119436   0.150   3.598   5.154
 6179SOL    HW219437   0.154   3.737   5.069
 6180SOL     OW19438   3.201   6.798   6.334
 6180SOL    HW119439   3.237   6.705   6.337
 6180SOL    HW219440   3.266   6.856   6.285
 6181SOL     OW19441   4.699   6.442   0.789
 6181SOL    HW119442   4.677   6.525   0.738
 6181SOL    HW219443   4.693   6.363   0.729
 6182SOL     OW19444   5.081   5.344   5.966
 6182SOL    HW119445   5.153   5.334   5.898
 6182SOL    HW219446   5.035   5.256   5.978
 6183SOL     OW19447   2.085   0.484   3.099
 6183SOL    HW119448   2.012   0.513   3.037
 6183SOL    HW219449   2.141   0.414   3.053
 6184SOL     OW19450   1.909   6.839   6.109
 6184SOL    HW119451   1.826   6.863   6.157
 6184SOL    HW219452   1.989   6.873   6.159
 6185SOL     OW19453   1.230   3.775   0.402
 6185SOL    HW119454   1.142   3.743   0.366
 6185SOL    HW219455   1.252   3.863   0.360
 6186SOL     OW19456   5.592   6.881   3.819
 6186SOL    HW119457   5.634   6.928   3.897
 6186SOL    HW219458   5.492   6.888   3.827
 6187SOL     OW19459   5.030   4.705   3.883
 6187SOL    HW119460   4.962   4.753   3.939
 6187SOL    HW219461   4.992   4.618   3.852
 6188SOL     OW19462   2.613   5.717   1.424
 6188SOL    HW119463   2.708   5.724   1.455
 6188SOL    HW219464   2.575   5.629   1.454
 6189SOL     OW19465   4.629   4.817   3.777
 6189SOL    HW119466   4.641   4.837   3.875
 6189SOL    HW219467   4.703   4.758   3.746
 6190SOL     OW19468   5.616   3.552   5.794
 6190SOL    HW119469   5.578   3.642   5.776
 6190SOL    HW219470   5.715   3.558   5.802
 6191SOL     OW19471   5.275   2.787   1.001
 6191SOL    HW119472   5.245   2.694   0.980
 6191SOL    HW219473   5.283   2.798   1.100
 6192SOL     OW19474   3.816   3.696   0.544
 6192SOL    HW119475   3.815   3.762   0.619
 6192SOL    HW219476   3.730   3.646   0.543
 6193SOL     OW19477   3.704   0.785   2.375
 6193SOL    HW119478   3.645   0.741   2.442
 6193SOL    HW219479   3.795   0.746   2.380
 6194SOL     OW19480   2.050   6.733   0.315
 6194SOL    HW119481   2.137   6.773   0.285
 6194SOL    HW219482   1.978   6.803   0.309
 6195SOL     OW19483   3.627   5.880   5.678
 6195SOL    HW119484   3.575   5.925   5.606
 6195SOL    HW219485   3.583   5.794   5.703
 6196SOL     OW19486   6.632   2.540   0.422
 6196SOL    HW119487   6.650   2.533   0.520
 6196SOL    HW219488   6.681   2.619   0.384
 6197SOL     OW19489   4.604   3.386   0.350
 6197SOL    HW119490   4.691   3.366   0.305
 6197SOL    HW219491   4.583   3.316   0.418
 6198SOL     OW19492   3.376   5.919   3.214
 6198SOL    HW119493   3.474   5.937   3.206
 6198SOL    HW219494   3.339   5.970   3.291
 6199SOL     OW19495   0.009   0.129   1.298
 6199SOL    HW119496   0.045   0.043   1.262
 6199SOL    HW219497   6.942   0.148   1.255
 6200SOL     OW19498   2.591   1.381   6.148
 6200SOL    HW119499   2.641   1.298   6.170
 6200SOL    HW219500   2.507   1.385   6.202
 6201SOL     OW19501   1.977   4.758   5.561
 6201SOL    HW119502   2.000   4.765   5.658
 6201SOL    HW219503   2.059   4.773   5.506
 6202SOL     OW19504   3.429   1.801   1.150
 6202SOL    HW119505   3.495   1.858   1.102
 6202SOL    HW219506   3.426   1.827   1.246
 6203SOL     OW19507   5.167   0.232   3.789
 6203SOL    HW119508   5.082   0.214   3.741
 6203SOL    HW219509   5.224   0.149   3.787
 6204SOL     OW19510   0.626   5.132   5.173
 6204SOL    HW119511   0.556   5.102   5.109
 6204SOL    HW219512   0.617   5.081   5.259
 6205SOL     OW19513   5.339   6.411   6.879
 6205SOL    HW119514   5.281   6.330   6.872
 6205SOL    HW219515   5.393   6.421   6.795
 6206SOL     OW19516   6.613   0.588   2.560
 6206SOL    HW119517   6.534   0.557   2.507
 6206SOL    HW219518   6.642   0.515   2.622
 6207SOL     OW19519   1.375   3.617   4.856
 6207SOL    HW119520   1.472   3.596   4.843
 6207SOL    HW219521   1.351   3.606   4.952
 6208SOL     OW19522   6.165   6.816   6.244
 6208SOL    HW119523   6.244   6.756   6.235
 6208SOL    HW219524   6.088   6.776   6.194
 6209SOL     OW19525   4.169   5.812   7.012
 6209SOL    HW119526   4.102   5.886   7.011
 6209SOL    HW219527   4.152   5.750   6.935
 6210SOL     OW19528   5.301   4.775   3.364
 6210SOL    HW119529   5.323   4.872   3.362
 6210SOL    HW219530   5.364   4.725   3.305
 6211SOL     OW19531   3.047   6.749   5.439
 6211SOL    HW119532   2.996   6.741   5.524
 6211SOL    HW219533   2.992   6.798   5.371
 6212SOL     OW19534   0.922   5.027   2.617
 6212SOL    HW119535   0.838   4.999   2.570
 6212SOL    HW219536   0.899   5.083   2.697
 6213SOL     OW19537   5.523   0.087   6.531
 6213SOL    HW119538   5.558   0.028   6.604
 6213SOL    HW219539   5.429   0.062   6.510
 6214SOL     OW19540   6.362   5.186   3.355
 6214SOL    HW119541   6.315   5.108   3.396
 6214SOL    HW219542   6.402   5.159   3.267
 6215SOL     OW19543   3.320   1.503   6.812
 6215SOL    HW119544   3.360   1.448   6.885
 6215SOL    HW219545   3.387   1.515   6.738
 6216SOL     OW19546   6.429   2.016   2.063
 6216SOL    HW119547   6.442   2.014   2.162
 6216SOL    HW219548   6.401   1.925   2.031
 6217SOL     OW19549   5.823   2.861   1.983
 6217SOL    HW119550   5.866   2.774   2.008
 6217SOL    HW219551   5.798   2.910   2.067
 6218SOL     OW19552   3.515   4.927   4.124
 6218SOL    HW119553   3.487   5.017   4.157
 6218SOL    HW219554   3.465   4.856   4.174
 6219SOL     OW19555   0.393   1.369   4.642
 6219SOL    HW119556   0.458   1.422   4.588
 6219SOL    HW219557   0.421   1.370   4.738
 6220SOL     OW19558   1.855   4.331   5.736
 6220SOL    HW119559   1.915   4.389   5.681
 6220SOL    HW219560   1.766   4.322   5.690
 6221SOL     OW19561   5.609   5.208   5.868
 6221SOL    HW119562   5.527   5.162   5.832
 6221SOL    HW219563   5.667   5.140   5.914
 6222SOL     OW19564   0.908   6.520   1.483
 6222SOL    HW119565   0.994   6.477   1.509
 6222SOL    HW219566   0.845   6.518   1.560
 6223SOL     OW19567   6.921   3.205   4.663
 6223SOL    HW119568   6.835   3.217   4.615
 6223SOL    HW219569   6.975   3.134   4.618
 6224SOL     OW19570   1.523   1.786   6.161
 6224SOL    HW119571   1.531   1.783   6.062
 6224SOL    HW219572   1.614   1.793   6.203
 6225SOL     OW19573   3.138   3.186   1.560
 6225SOL    HW119574   3.175   3.094   1.545
 6225SOL    HW219575   3.210   3.253   1.545
 6226SOL     OW19576   5.367   1.824   4.049
 6226SOL    HW119577   5.363   1.760   3.972
 6226SOL    HW219578   5.381   1.774   4.134
 6227SOL     OW19579   3.530   4.665   6.286
 6227SOL    HW119580   3.601   4.653   6.355
 6227SOL    HW219581   3.490   4.756   6.296
 6228SOL     OW19582   0.244   2.294   2.440
 6228SOL    HW119583   0.326   2.286   2.383
 6228SOL    HW219584   0.227   2.207   2.486
 6229SOL     OW19585   1.249   2.768   2.776
 6229SOL    HW119586   1.226   2.863   2.798
 6229SOL    HW219587   1.235   2.711   2.857
 6230SOL     OW19588   1.442   1.459   4.481
 6230SOL    HW119589   1.400   1.537   4.435
 6230SOL    HW219590   1.374   1.388   4.495
 6231SOL     OW19591   6.842   4.964   1.752
 6231SOL    HW119592   6.849   5.060   1.725
 6231SOL    HW219593   6.846   4.906   1.671
 6232SOL     OW19594   6.656   1.589   0.262
 6232SOL    HW119595   6.608   1.504   0.284
 6232SOL    HW219596   6.590   1.662   0.248
 6233SOL     OW19597   5.536   1.379   0.177
 6233SOL    HW119598   5.606   1.434   0.131
 6233SOL    HW219599   5.554   1.378   0.276
 6234SOL     OW19600   0.436   1.250   5.522
 6234SOL    HW119601   0.440   1.349   5.533
 6234SOL    HW219602   0.462   1.206   5.608
 6235SOL     OW19603   1.151   0.227   2.375
 6235SOL    HW119604   1.160   0.249   2.473
 6235SOL    HW219605   1.123   0.310   2.326
 6236SOL     OW19606   0.918   5.388   0.528
 6236SOL    HW119607   0.920   5.480   0.568
 6236SOL    HW219608   0.862   5.328   0.586
 6237SOL     OW19609   3.977   6.155   0.454
 6237SOL    HW119610   4.057   6.215   0.459
 6237SOL    HW219611   3.902   6.204   0.409
 6238SOL     OW19612   4.238   4.864   3.178
 6238SOL    HW119613   4.202   4.817   3.258
 6238SOL    HW219614   4.182   4.944   3.157
 6239SOL     OW19615   2.635   6.763   1.641
 6239SOL    HW119616   2.561   6.765   1.708
 6239SOL    HW219617   2.636   6.674   1.595
 6240SOL     OW19618   2.470   2.482   0.358
 6240SOL    HW119619   2.477   2.385   0.384
 6240SOL    HW219620   2.418   2.531   0.428
 6241SOL     OW19621   2.645   1.130   2.687
 6241SOL    HW119622   2.595   1.179   2.615
 6241SOL    HW219623   2.742   1.126   2.664
 6242SOL     OW19624   5.374   1.080   3.242
 6242SOL    HW119625   5.290   1.058   3.293
 6242SOL    HW219626   5.416   1.161   3.281
 6243SOL     OW19627   5.766   6.911   2.952
 6243SOL    HW119628   5.836   6.961   2.899
 6243SOL    HW219629   5.700   6.976   2.989
 6244SOL     OW19630   1.662   2.436   1.619
 6244SOL    HW119631   1.634   2.348   1.658
 6244SOL    HW219632   1.611   2.453   1.535
 6245SOL     OW19633   2.841   4.595   1.501
 6245SOL    HW119634   2.826   4.504   1.462
 6245SOL    HW219635   2.914   4.590   1.570
 6246SOL     OW19636   2.749   2.822   6.308
 6246SOL    HW119637   2.790   2.731   6.306
 6246SOL    HW219638   2.770   2.866   6.395
 6247SOL     OW19639   0.776   6.188   3.286
 6247SOL    HW119640   0.714   6.248   3.336
 6247SOL    HW219641   0.782   6.218   3.191
 6248SOL     OW19642   2.040   3.756   1.492
 6248SOL    HW119643   1.948   3.772   1.455
 6248SOL    HW219644   2.037   3.756   1.592
 6249SOL     OW19645   1.014   4.719   0.461
 6249SOL    HW119646   1.077   4.780   0.509
 6249SOL    HW219647   0.995   4.640   0.520
 6250SOL     OW19648   6.613   6.098   0.392
 6250SOL    HW119649   6.602   6.186   0.345
 6250SOL    HW219650   6.680   6.108   0.466
 6251SOL     OW19651   3.568   6.858   0.734
 6251SOL    HW119652   3.544   6.944   0.778
 6251SOL    HW219653   3.661   6.863   0.699
 6252SOL     OW19654   1.990   6.601   4.513
 6252SOL    HW119655   1.973   6.526   4.449
 6252SOL    HW219656   1.928   6.591   4.592
 6253SOL     OW19657   2.183   3.883   2.424
 6253SOL    HW119658   2.151   3.805   2.370
 6253SOL    HW219659   2.196   3.962   2.364
 6254SOL     OW19660   5.431   0.827   0.275
 6254SOL    HW119661   5.500   0.898   0.290
 6254SOL    HW219662   5.399   0.792   0.363
 6255SOL     OW19663   1.720   0.889   1.422
 6255SOL    HW119664   1.661   0.854   1.494
 6255SOL    HW219665   1.691   0.852   1.334
 6256SOL     OW19666   4.057   5.262   3.027
 6256SOL    HW119667   4.035   5.169   3.059
 6256SOL    HW219668   4.155   5.277   3.033
 6257SOL     OW19669   5.717   2.232   1.005
 6257SOL    HW119670   5.777   2.266   1.078
 6257SOL    HW219671   5.741   2.137   0.984
 6258SOL     OW19672   4.589   0.332   3.627
 6258SOL    HW119673   4.638   0.305   3.710
 6258SOL    HW219674   4.653   0.374   3.563
 6259SOL     OW19675   2.916   1.381   0.984
 6259SOL    HW119676   2.941   1.458   1.041
 6259SOL    HW219677   2.989   1.313   0.986
 6260SOL     OW19678   3.278   3.993   0.051
 6260SOL    HW119679   3.264   3.924   7.002
 6260SOL    HW219680   3.375   3.998   0.073
 6261SOL     OW19681   2.816   6.646   6.518
 6261SOL    HW119682   2.891   6.582   6.535
 6261SOL    HW219683   2.847   6.739   6.539
 6262SOL     OW19684   1.962   3.992   0.839
 6262SOL    HW119685   1.966   4.088   0.810
 6262SOL    HW219686   1.973   3.986   0.938
 6263SOL     OW19687   0.227   0.154   5.783
 6263SOL    HW119688   0.149   0.193   5.832
 6263SOL    HW219689   0.199   0.125   5.692
 6264SOL     OW19690   1.420   6.638   0.989
 6264SOL    HW119691   1.471   6.704   1.043
 6264SOL    HW219692   1.429   6.547   1.031
 6265SOL     OW19693   3.427   4.105   1.108
 6265SOL    HW119694   3.412   4.036   1.038
 6265SOL    HW219695   3.520   4.098   1.143
 6266SOL     OW19696   4.245   0.969   4.771
 6266SOL    HW119697   4.326   0.977   4.713
 6266SOL    HW219698   4.274   0.962   4.867
 6267SOL     OW19699   3.166   0.475   0.263
 6267SOL    HW119700   3.175   0.462   0.362
 6267SOL    HW219701   3.080   0.523   0.244
 6268SOL     OW19702   2.771   6.087   2.636
 6268SOL    HW119703   2.798   5.996   2.604
 6268SOL    HW219704   2.776   6.090   2.735
 6269SOL     OW19705   6.844   5.989   2.248
 6269SOL    HW119706   6.898   5.913   2.284
 6269SOL    HW219707   6.881   6.075   2.281
 6270SOL     OW19708   2.007   0.197   5.344
 6270SOL    HW119709   2.049   0.106   5.352
 6270SOL    HW219710   1.912   0.187   5.313
 6271SOL     OW19711   6.427   2.401   5.742
 6271SOL    HW119712   6.451   2.425   5.836
 6271SOL    HW219713   6.356   2.331   5.743
 6272SOL     OW19714   0.645   2.951   5.303
 6272SOL    HW119715   0.743   2.935   5.318
 6272SOL    HW219716   0.601   2.971   5.391
 6273SOL     OW19717   1.066   0.952   2.436
 6273SOL    HW119718   1.033   0.940   2.342
 6273SOL    HW219719   1.144   1.014   2.436
 6274SOL     OW19720   2.226   5.920   5.890
 6274SOL    HW119721   2.277   5.915   5.976
 6274SOL    HW219722   2.288   5.900   5.814
 6275SOL     OW19723   2.975   6.475   4.975
 6275SOL    HW119724   2.904   6.446   4.912
 6275SOL    HW219725   2.934   6.496   5.064
 6276SOL     OW19726   1.472   4.696   3.758
 6276SOL    HW119727   1.520   4.777   3.723
 6276SOL    HW219728   1.430   4.718   3.847
 6277SOL     OW19729   5.236   3.002   2.166
 6277SOL    HW119730   5.169   3.015   2.239
 6277SOL    HW219731   5.228   2.909   2.129
 6278SOL     OW19732   4.679   0.578   4.707
 6278SOL    HW119733   4.655   0.585   4.804
 6278SOL    HW219734   4.748   0.646   4.685
 6279SOL     OW19735   3.841   0.874   6.440
 6279SOL    HW119736   3.890   0.792   6.469
 6279SOL    HW219737   3.905   0.950   6.434
 6280SOL     OW19738   0.553   2.847   5.671
 6280SOL    HW119739   0.518   2.941   5.668
 6280SOL    HW219740   0.497   2.788   5.613
 6281SOL     OW19741   2.679   6.376   5.131
 6281SOL    HW119742   2.648   6.298   5.186
 6281SOL    HW219743   2.749   6.427   5.182
 6282SOL     OW19744   1.682   0.155   4.992
 6282SOL    HW119745   1.686   0.168   5.091
 6282SOL    HW219746   1.712   0.062   4.969
 6283SOL     OW19747   6.392   2.582   4.443
 6283SOL    HW119748   6.434   2.672   4.446
 6283SOL    HW219749   6.460   2.513   4.417
 6284SOL     OW19750   2.292   5.681   4.853
 6284SOL    HW119751   2.344   5.764   4.873
 6284SOL    HW219752   2.303   5.615   4.928
 6285SOL     OW19753   1.422   3.067   3.998
 6285SOL    HW119754   1.471   3.033   3.918
 6285SOL    HW219755   1.478   3.052   4.080
 6286SOL     OW19756   6.188   1.911   4.030
 6286SOL    HW119757   6.209   1.996   3.980
 6286SOL    HW219758   6.225   1.833   3.980
 6287SOL     OW19759   4.329   4.677   2.376
 6287SOL    HW119760   4.241   4.665   2.423
 6287SOL    HW219761   4.348   4.596   2.321
 6288SOL     OW19762   5.746   4.154   2.058
 6288SOL    HW119763   5.790   4.242   2.041
 6288SOL    HW219764   5.699   4.156   2.146
 6289SOL     OW19765   1.424   3.438   2.644
 6289SOL    HW119766   1.453   3.448   2.549
 6289SOL    HW219767   1.367   3.516   2.670
 6290SOL     OW19768   5.667   3.733   3.993
 6290SOL    HW119769   5.725   3.797   4.044
 6290SOL    HW219770   5.616   3.675   4.056
 6291SOL     OW19771   3.936   3.049   3.519
 6291SOL    HW119772   3.933   3.103   3.435
 6291SOL    HW219773   3.844   3.017   3.542
 6292SOL     OW19774   0.364   2.864   3.220
 6292SOL    HW119775   0.297   2.914   3.165
 6292SOL    HW219776   0.442   2.839   3.163
 6293SOL     OW19777   4.119   6.868   7.000
 6293SOL    HW119778   4.087   6.808   0.052
 6293SOL    HW219779   4.215   6.892   7.015
 6294SOL     OW19780   3.837   4.993   3.781
 6294SOL    HW119781   3.810   5.000   3.877
 6294SOL    HW219782   3.920   4.937   3.774
 6295SOL     OW19783   5.163   5.251   5.649
 6295SOL    HW119784   5.074   5.285   5.680
 6295SOL    HW219785   5.170   5.264   5.550
 6296SOL     OW19786   6.745   6.518   4.564
 6296SOL    HW119787   6.833   6.474   4.580
 6296SOL    HW219788   6.730   6.590   4.631
 6297SOL     OW19789   4.813   7.004   5.213
 6297SOL    HW119790   4.745   0.054   5.196
 6297SOL    HW219791   4.885   0.018   5.272
 6298SOL     OW19792   1.686   3.016   6.271
 6298SOL    HW119793   1.630   3.060   6.341
 6298SOL    HW219794   1.769   2.979   6.314
 6299SOL     OW19795   5.621   2.298   0.260
 6299SOL    HW119796   5.542   2.359   0.273
 6299SOL    HW219797   5.705   2.349   0.271
 6300SOL     OW19798   5.314   1.090   4.898
 6300SOL    HW119799   5.255   1.094   4.817
 6300SOL    HW219800   5.385   1.160   4.891
 6301SOL     OW19801   2.579   0.158   0.797
 6301SOL    HW119802   2.487   0.120   0.794
 6301SOL    HW219803   2.581   0.237   0.858
 6302SOL     OW19804   1.451   1.972   4.475
 6302SOL    HW119805   1.405   2.040   4.532
 6302SOL    HW219806   1.508   2.018   4.408
 6303SOL     OW19807   2.820   1.115   4.625
 6303SOL    HW119808   2.735   1.072   4.655
 6303SOL    HW219809   2.816   1.213   4.642
 6304SOL     OW19810   2.213   1.107   1.012
 6304SOL    HW119811   2.290   1.163   0.982
 6304SOL    HW219812   2.151   1.091   0.934
 6305SOL     OW19813   6.502   6.970   0.767
 6305SOL    HW119814   6.447   6.887   0.751
 6305SOL    HW219815   6.465   7.019   0.845
 6306SOL     OW19816   0.277   4.012   4.557
 6306SOL    HW119817   0.254   3.953   4.480
 6306SOL    HW219818   0.365   4.057   4.540
 6307SOL     OW19819   4.077   4.160   5.964
 6307SOL    HW119820   4.165   4.144   5.917
 6307SOL    HW219821   4.077   4.251   6.004
 6308SOL     OW19822   1.551   1.637   4.702
 6308SOL    HW119823   1.469   1.589   4.669
 6308SOL    HW219824   1.608   1.574   4.754
 6309SOL     OW19825   5.034   3.800   4.572
 6309SOL    HW119826   5.072   3.824   4.662
 6309SOL    HW219827   4.943   3.842   4.563
 6310SOL     OW19828   1.980   4.772   4.376
 6310SOL    HW119829   1.979   4.838   4.451
 6310SOL    HW219830   1.886   4.749   4.351
 6311SOL     OW19831   5.712   0.796   5.715
 6311SOL    HW119832   5.753   0.733   5.649
 6311SOL    HW219833   5.778   0.868   5.738
 6312SOL     OW19834   5.327   5.128   5.808
 6312SOL    HW119835   5.342   5.042   5.759
 6312SOL    HW219836   5.281   5.194   5.748
 6313SOL     OW19837   1.689   6.025   3.233
 6313SOL    HW119838   1.718   6.091   3.163
 6313SOL    HW219839   1.615   6.064   3.287
 6314SOL     OW19840   3.547   6.815   1.836
 6314SOL    HW119841   3.562   6.859   1.747
 6314SOL    HW219842   3.493   6.876   1.895
 6315SOL     OW19843   3.949   2.916   6.785
 6315SOL    HW119844   3.860   2.887   6.819
 6315SOL    HW219845   3.941   2.944   6.689
 6316SOL     OW19846   4.682   2.630   6.327
 6316SOL    HW119847   4.739   2.593   6.400
 6316SOL    HW219848   4.719   2.603   6.239
 6317SOL     OW19849   5.316   5.718   3.606
 6317SOL    HW119850   5.404   5.766   3.600
 6317SOL    HW219851   5.331   5.620   3.590
 6318SOL     OW19852   2.967   2.097   5.122
 6318SOL    HW119853   3.038   2.148   5.073
 6318SOL    HW219854   2.999   2.004   5.139
 6319SOL     OW19855   6.996   2.815   3.386
 6319SOL    HW119856   7.012   2.762   3.302
 6319SOL    HW219857   7.002   2.912   3.365
 6320SOL     OW19858   5.971   4.654   4.266
 6320SOL    HW119859   6.065   4.687   4.274
 6320SOL    HW219860   5.908   4.732   4.269
 6321SOL     OW19861   3.452   5.157   1.377
 6321SOL    HW119862   3.355   5.143   1.361
 6321SOL    HW219863   3.495   5.192   1.294
 6322SOL     OW19864   1.762   2.191   6.338
 6322SOL    HW119865   1.778   2.095   6.315
 6322SOL    HW219866   1.690   2.229   6.280
 6323SOL     OW19867   3.201   2.675   1.153
 6323SOL    HW119868   3.256   2.603   1.194
 6323SOL    HW219869   3.259   2.755   1.135
 6324SOL     OW19870   4.594   0.695   6.234
 6324SOL    HW119871   4.649   0.778   6.234
 6324SOL    HW219872   4.534   0.694   6.155
 6325SOL     OW19873   1.184   1.892   1.670
 6325SOL    HW119874   1.085   1.888   1.681
 6325SOL    HW219875   1.222   1.800   1.678
 6326SOL     OW19876   5.649   5.866   1.364
 6326SOL    HW119877   5.593   5.883   1.282
 6326SOL    HW219878   5.712   5.943   1.377
 6327SOL     OW19879   0.010   0.310   5.089
 6327SOL    HW119880   0.021   0.215   5.116
 6327SOL    HW219881   0.100   0.354   5.084
 6328SOL     OW19882   1.814   3.772   0.201
 6328SOL    HW119883   1.887   3.796   0.137
 6328SOL    HW219884   1.805   3.672   0.206
 6329SOL     OW19885   1.489   2.508   3.360
 6329SOL    HW119886   1.570   2.557   3.392
 6329SOL    HW219887   1.408   2.564   3.376
 6330SOL     OW19888   4.587   1.001   1.270
 6330SOL    HW119889   4.650   0.942   1.321
 6330SOL    HW219890   4.494   0.986   1.303
 6331SOL     OW19891   6.149   2.520   0.678
 6331SOL    HW119892   6.152   2.583   0.755
 6331SOL    HW219893   6.229   2.534   0.620
 6332SOL     OW19894   6.772   4.543   2.073
 6332SOL    HW119895   6.724   4.455   2.065
 6332SOL    HW219896   6.848   4.533   2.137
 6333SOL     OW19897   3.750   4.975   4.033
 6333SOL    HW119898   3.658   4.945   4.060
 6333SOL    HW219899   3.815   4.954   4.107
 6334SOL     OW19900   1.924   0.341   2.575
 6334SOL    HW119901   1.907   0.332   2.673
 6334SOL    HW219902   1.985   0.419   2.559
 6335SOL     OW19903   5.562   1.377   0.913
 6335SOL    HW119904   5.477   1.348   0.868
 6335SOL    HW219905   5.640   1.346   0.860
 6336SOL     OW19906   6.871   2.266   5.789
 6336SOL    HW119907   6.821   2.189   5.749
 6336SOL    HW219908   6.961   2.236   5.820
 6337SOL     OW19909   4.722   3.683   6.540
 6337SOL    HW119910   4.711   3.664   6.443
 6337SOL    HW219911   4.636   3.717   6.578
 6338SOL     OW19912   2.769   2.305   2.381
 6338SOL    HW119913   2.859   2.268   2.404
 6338SOL    HW219914   2.760   2.312   2.281
 6339SOL     OW19915   0.481   2.596   3.814
 6339SOL    HW119916   0.503   2.649   3.732
 6339SOL    HW219917   0.558   2.600   3.878
 6340SOL     OW19918   2.571   5.432   3.223
 6340SOL    HW119919   2.500   5.395   3.282
 6340SOL    HW219920   2.571   5.532   3.228
 6341SOL     OW19921   0.284   5.037   3.418
 6341SOL    HW119922   0.343   5.117   3.410
 6341SOL    HW219923   0.261   5.022   3.514
 6342SOL     OW19924   2.576   1.490   1.972
 6342SOL    HW119925   2.603   1.552   1.899
 6342SOL    HW219926   2.571   1.540   2.059
 6343SOL     OW19927   4.744   2.400   6.974
 6343SOL    HW119928   4.768   2.364   6.884
 6343SOL    HW219929   4.650   2.434   6.972
 6344SOL     OW19930   6.118   3.597   5.900
 6344SOL    HW119931   6.188   3.667   5.900
 6344SOL    HW219932   6.124   3.544   5.985
 6345SOL     OW19933   4.417   1.150   1.908
 6345SOL    HW119934   4.365   1.129   1.825
 6345SOL    HW219935   4.515   1.153   1.886
 6346SOL     OW19936   6.589   3.794   3.446
 6346SOL    HW119937   6.530   3.772   3.524
 6346SOL    HW219938   6.557   3.746   3.365
 6347SOL     OW19939   2.563   0.696   1.799
 6347SOL    HW119940   2.648   0.747   1.783
 6347SOL    HW219941   2.501   0.709   1.721
 6348SOL     OW19942   1.207   3.840   5.257
 6348SOL    HW119943   1.229   3.769   5.190
 6348SOL    HW219944   1.126   3.890   5.225
 6349SOL     OW19945   2.618   0.701   1.297
 6349SOL    HW119946   2.605   0.602   1.308
 6349SOL    HW219947   2.695   0.718   1.236
 6350SOL     OW19948   2.297   4.905   3.648
 6350SOL    HW119949   2.278   4.922   3.745
 6350SOL    HW219950   2.226   4.847   3.610
 6351SOL     OW19951   6.448   2.670   2.356
 6351SOL    HW119952   6.532   2.710   2.320
 6351SOL    HW219953   6.441   2.689   2.454
 6352SOL     OW19954   1.813   5.131   4.448
 6352SOL    HW119955   1.818   5.158   4.351
 6352SOL    HW219956   1.902   5.099   4.478
 6353SOL     OW19957   6.468   0.845   6.338
 6353SOL    HW119958   6.392   0.907   6.354
 6353SOL    HW219959   6.481   0.786   6.417
 6354SOL     OW19960   1.213   6.951   2.413
 6354SOL    HW119961   1.162   0.015   2.423
 6354SOL    HW219962   1.159   6.876   2.451
 6355SOL     OW19963   0.771   5.096   4.957
 6355SOL    HW119964   0.724   5.115   5.043
 6355SOL    HW219965   0.868   5.080   4.975
 6356SOL     OW19966   4.864   4.957   1.897
 6356SOL    HW119967   4.860   5.017   1.977
 6356SOL    HW219968   4.958   4.951   1.864
 6357SOL     OW19969   4.939   2.464   1.586
 6357SOL    HW119970   4.840   2.473   1.588
 6357SOL    HW219971   4.980   2.548   1.549
 6358SOL     OW19972   0.660   2.193   4.980
 6358SOL    HW119973   0.720   2.235   4.913
 6358SOL    HW219974   0.707   2.116   5.024
 6359SOL     OW19975   6.112   0.199   5.969
 6359SOL    HW119976   6.051   0.254   5.912
 6359SOL    HW219977   6.130   0.248   6.055
 6360SOL     OW19978   2.340   4.232   4.080
 6360SOL    HW119979   2.364   4.256   3.986
 6360SOL    HW219980   2.355   4.311   4.139
 6361SOL     OW19981   5.656   6.779   6.872
 6361SOL    HW119982   5.620   6.756   6.962
 6361SOL    HW219983   5.727   6.714   6.847
 6362SOL     OW19984   5.976   5.195   6.751
 6362SOL    HW119985   5.892   5.244   6.729
 6362SOL    HW219986   6.041   5.204   6.676
 6363SOL     OW19987   2.586   5.033   3.310
 6363SOL    HW119988   2.685   5.026   3.318
 6363SOL    HW219989   2.561   5.033   3.213
 6364SOL     OW19990   2.997   1.183   5.862
 6364SOL    HW119991   3.079   1.165   5.807
 6364SOL    HW219992   2.985   1.282   5.871
 6365SOL     OW19993   4.784   6.708   4.307
 6365SOL    HW119994   4.812   6.783   4.366
 6365SOL    HW219995   4.864   6.664   4.268
 6366SOL     OW19996   0.531   6.132   5.805
 6366SOL    HW119997   0.586   6.167   5.880
 6366SOL    HW219998   0.434   6.132   5.832
 6367SOL     OW19999   4.185   0.606   4.105
 6367SOL    HW120000   4.118   0.679   4.091
 6367SOL    HW220001   4.232   0.587   4.019
 6368SOL     OW20002   3.142   6.723   3.677
 6368SOL    HW120003   3.167   6.818   3.695
 6368SOL    HW220004   3.200   6.686   3.605
 6369SOL     OW20005   2.927   4.950   4.769
 6369SOL    HW120006   2.936   4.912   4.861
 6369SOL    HW220007   2.888   4.881   4.708
 6370SOL     OW20008   1.436   3.136   3.090
 6370SOL    HW120009   1.414   3.160   2.995
 6370SOL    HW220010   1.455   3.038   3.095
 6371SOL     OW20011   4.886   3.346   3.877
 6371SOL    HW120012   4.867   3.256   3.837
 6371SOL    HW220013   4.888   3.339   3.977
 6372SOL     OW20014   2.807   0.022   1.810
 6372SOL    HW120015   2.897   0.066   1.803
 6372SOL    HW220016   2.748   0.054   1.736
 6373SOL     OW20017   6.171   4.551   3.987
 6373SOL    HW120018   6.106   4.519   4.056
 6373SOL    HW220019   6.194   4.647   4.005
 6374SOL     OW20020   3.388   3.850   3.929
 6374SOL    HW120021   3.329   3.817   4.003
 6374SOL    HW220022   3.359   3.942   3.901
 6375SOL     OW20023   0.755   1.409   3.927
 6375SOL    HW120024   0.667   1.390   3.883
 6375SOL    HW220025   0.794   1.323   3.959
 6376SOL     OW20026   6.184   1.943   5.357
 6376SOL    HW120027   6.098   1.972   5.314
 6376SOL    HW220028   6.252   2.015   5.347
 6377SOL     OW20029   6.689   1.762   6.097
 6377SOL    HW120030   6.723   1.730   6.185
 6377SOL    HW220031   6.694   1.687   6.030
 6378SOL     OW20032   5.793   5.022   3.396
 6378SOL    HW120033   5.835   4.941   3.437
 6378SOL    HW220034   5.726   5.060   3.460
 6379SOL     OW20035   2.232   4.847   4.682
 6379SOL    HW120036   2.300   4.774   4.672
 6379SOL    HW220037   2.275   4.928   4.720
 6380SOL     OW20038   1.196   1.430   5.225
 6380SOL    HW120039   1.137   1.378   5.287
 6380SOL    HW220040   1.251   1.367   5.171
 6381SOL     OW20041   3.571   3.208   2.739
 6381SOL    HW120042   3.537   3.192   2.646
 6381SOL    HW220043   3.509   3.270   2.787
 6382SOL     OW20044   1.285   2.761   0.571
 6382SOL    HW120045   1.362   2.811   0.531
 6382SOL    HW220046   1.202   2.817   0.564
 6383SOL     OW20047   2.070   2.294   3.284
 6383SOL    HW120048   1.975   2.325   3.275
 6383SOL    HW220049   2.129   2.354   3.230
 6384SOL     OW20050   5.344   4.414   1.716
 6384SOL    HW120051   5.293   4.430   1.632
 6384SOL    HW220052   5.392   4.498   1.742
 6385SOL     OW20053   6.636   5.140   4.049
 6385SOL    HW120054   6.718   5.149   4.105
 6385SOL    HW220055   6.661   5.133   3.953
 6386SOL     OW20056   2.147   4.186   0.232
 6386SOL    HW120057   2.101   4.104   0.197
 6386SOL    HW220058   2.238   4.193   0.190
 6387SOL     OW20059   0.696   2.008   6.442
 6387SOL    HW120060   0.742   2.027   6.355
 6387SOL    HW220061   0.661   2.093   6.481
 6388SOL     OW20062   4.646   4.477   1.645
 6388SOL    HW120063   4.655   4.438   1.736
 6388SOL    HW220064   4.720   4.444   1.587
 6389SOL     OW20065   0.802   5.552   2.089
 6389SOL    HW120066   0.731   5.545   2.158
 6389SOL    HW220067   0.852   5.638   2.101
 6390SOL     OW20068   0.907   2.445   3.975
 6390SOL    HW120069   0.846   2.378   3.934
 6390SOL    HW220070   0.988   2.399   4.012
 6391SOL     OW20071   2.901   0.432   6.386
 6391SOL    HW120072   2.940   0.469   6.471
 6391SOL    HW220073   2.973   0.422   6.318
 6392SOL     OW20074   2.285   6.618   3.631
 6392SOL    HW120075   2.340   6.582   3.556
 6392SOL    HW220076   2.192   6.582   3.624
 6393SOL     OW20077   5.986   6.495   1.407
 6393SOL    HW120078   6.041   6.562   1.358
 6393SOL    HW220079   6.030   6.405   1.401
 6394SOL     OW20080   2.392   4.263   0.801
 6394SOL    HW120081   2.346   4.347   0.832
 6394SOL    HW220082   2.468   4.288   0.741
 6395SOL     OW20083   5.654   2.266   2.041
 6395SOL    HW120084   5.689   2.357   2.016
 6395SOL    HW220085   5.682   2.200   1.971
 6396SOL     OW20086   5.460   2.751   6.133
 6396SOL    HW120087   5.450   2.851   6.138
 6396SOL    HW220088   5.533   2.722   6.194
 6397SOL     OW20089   6.135   1.702   6.907
 6397SOL    HW120090   6.152   1.618   6.958
 6397SOL    HW220091   6.213   1.722   6.848
 6398SOL     OW20092   3.519   0.815   0.764
 6398SOL    HW120093   3.580   0.869   0.706
 6398SOL    HW220094   3.503   0.725   0.723
 6399SOL     OW20095   2.028   5.369   6.441
 6399SOL    HW120096   2.101   5.437   6.453
 6399SOL    HW220097   2.025   5.340   6.346
 6400SOL     OW20098   2.175   5.601   3.421
 6400SOL    HW120099   2.090   5.653   3.423
 6400SOL    HW220100   2.226   5.616   3.506
 6401SOL     OW20101   6.947   4.402   3.523
 6401SOL    HW120102   6.900   4.331   3.470
 6401SOL    HW220103   6.994   4.464   3.461
 6402SOL     OW20104   2.767   0.684   2.950
 6402SOL    HW120105   2.763   0.746   2.871
 6402SOL    HW220106   2.702   0.714   3.019
 6403SOL     OW20107   0.851   6.266   6.736
 6403SOL    HW120108   0.754   6.247   6.750
 6403SOL    HW220109   0.896   6.278   6.825
 6404SOL     OW20110   4.183   1.369   2.922
 6404SOL    HW120111   4.216   1.275   2.909
 6404SOL    HW220112   4.091   1.366   2.962
 6405SOL     OW20113   1.763   1.853   3.352
 6405SOL    HW120114   1.841   1.801   3.318
 6405SOL    HW220115   1.756   1.842   3.451
 6406SOL     OW20116   1.551   2.976   3.792
 6406SOL    HW120117   1.517   2.926   3.712
 6406SOL    HW220118   1.604   2.914   3.850
 6407SOL     OW20119   2.946   6.428   3.101
 6407SOL    HW120120   2.967   6.348   3.157
 6407SOL    HW220121   3.030   6.477   3.079
 6408SOL     OW20122   6.427   2.582   6.975
 6408SOL    HW120123   6.455   2.543   0.041
 6408SOL    HW220124   6.500   2.568   6.908
 6409SOL     OW20125   6.976   4.357   3.148
 6409SOL    HW120126   7.015   4.297   3.218
 6409SOL    HW220127   0.028   4.412   3.107
 6410SOL     OW20128   1.457   1.608   0.636
 6410SOL    HW120129   1.532   1.603   0.703
 6410SOL    HW220130   1.376   1.563   0.675
 6411SOL     OW20131   1.025   2.730   3.322
 6411SOL    HW120132   0.994   2.660   3.258
 6411SOL    HW220133   0.954   2.748   3.389
 6412SOL     OW20134   6.916   2.927   5.295
 6412SOL    HW120135   6.865   2.888   5.219
 6412SOL    HW220136   6.908   3.027   5.293
 6413SOL     OW20137   5.455   4.647   2.470
 6413SOL    HW120138   5.417   4.558   2.494
 6413SOL    HW220139   5.389   4.718   2.494
 6414SOL     OW20140   5.906   0.886   1.829
 6414SOL    HW120141   5.999   0.918   1.813
 6414SOL    HW220142   5.850   0.908   1.749
 6415SOL     OW20143   3.283   2.131   2.499
 6415SOL    HW120144   3.307   2.120   2.402
 6415SOL    HW220145   3.341   2.071   2.554
 6416SOL     OW20146   0.813   0.600   6.130
 6416SOL    HW120147   0.716   0.582   6.110
 6416SOL    HW220148   0.857   0.515   6.159
 6417SOL     OW20149   0.480   4.955   2.884
 6417SOL    HW120150   0.475   4.939   2.983
 6417SOL    HW220151   0.399   4.917   2.840
 6418SOL     OW20152   6.776   4.744   2.388
 6418SOL    HW120153   6.819   4.657   2.362
 6418SOL    HW220154   6.847   4.813   2.405
 6419SOL     OW20155   3.018   5.210   2.357
 6419SOL    HW120156   2.977   5.250   2.439
 6419SOL    HW220157   2.960   5.136   2.323
 6420SOL     OW20158   2.891   3.400   5.887
 6420SOL    HW120159   2.914   3.405   5.984
 6420SOL    HW220160   2.965   3.439   5.832
 6421SOL     OW20161   5.946   1.524   1.900
 6421SOL    HW120162   5.994   1.478   1.974
 6421SOL    HW220163   5.916   1.614   1.931
 6422SOL     OW20164   6.447   0.128   3.837
 6422SOL    HW120165   6.511   0.052   3.828
 6422SOL    HW220166   6.487   0.211   3.798
 6423SOL     OW20167   4.755   4.330   2.044
 6423SOL    HW120168   4.794   4.251   1.996
 6423SOL    HW220169   4.659   4.341   2.018
 6424SOL     OW20170   6.759   4.860   5.752
 6424SOL    HW120171   6.798   4.950   5.768
 6424SOL    HW220172   6.811   4.813   5.680
 6425SOL     OW20173   0.035   5.353   4.400
 6425SOL    HW120174   0.043   5.263   4.357
 6425SOL    HW220175   7.019   5.344   4.492
 6426SOL     OW20176   0.753   3.678   4.058
 6426SOL    HW120177   0.807   3.710   3.980
 6426SOL    HW220178   0.667   3.639   4.025
 6427SOL     OW20179   1.780   3.065   0.074
 6427SOL    HW120180   1.860   3.091   0.127
 6427SOL    HW220181   1.781   2.966   0.057
 6428SOL     OW20182   6.190   3.402   1.046
 6428SOL    HW120183   6.240   3.317   1.063
 6428SOL    HW220184   6.253   3.479   1.053
 6429SOL     OW20185   0.964   1.167   4.813
 6429SOL    HW120186   0.925   1.210   4.732
 6429SOL    HW220187   0.966   1.068   4.801
 6430SOL     OW20188   4.804   1.506   1.672
 6430SOL    HW120189   4.782   1.573   1.601
 6430SOL    HW220190   4.761   1.418   1.650
 6431SOL     OW20191   5.938   0.083   3.241
 6431SOL    HW120192   5.881   0.042   3.170
 6431SOL    HW220193   5.997   0.012   3.281
 6432SOL     OW20194   4.690   4.442   0.319
 6432SOL    HW120195   4.753   4.516   0.297
 6432SOL    HW220196   4.740   4.368   0.366
 6433SOL     OW20197   3.176   4.552   1.102
 6433SOL    HW120198   3.239   4.476   1.120
 6433SOL    HW220199   3.108   4.558   1.175
 6434SOL     OW20200   1.145   3.558   1.364
 6434SOL    HW120201   1.220   3.570   1.429
 6434SOL    HW220202   1.129   3.644   1.316
 6435SOL     OW20203   3.781   5.140   6.791
 6435SOL    HW120204   3.864   5.192   6.811
 6435SOL    HW220205   3.795   5.043   6.813
 6436SOL     OW20206   2.177   3.098   4.018
 6436SOL    HW120207   2.143   3.179   4.066
 6436SOL    HW220208   2.254   3.059   4.068
 6437SOL     OW20209   1.439   1.115   0.756
 6437SOL    HW120210   1.402   1.056   0.684
 6437SOL    HW220211   1.497   1.060   0.817
 6438SOL     OW20212   6.640   4.336   5.454
 6438SOL    HW120213   6.549   4.354   5.418
 6438SOL    HW220214   6.645   4.244   5.491
 6439SOL     OW20215   0.295   6.421   1.446
 6439SOL    HW120216   0.217   6.368   1.413
 6439SOL    HW220217   0.264   6.490   1.511
 6440SOL     OW20218   2.149   1.484   2.035
 6440SOL    HW120219   2.051   1.500   2.023
 6440SOL    HW220220   2.200   1.562   1.999
 6441SOL     OW20221   0.901   0.005   2.493
 6441SOL    HW120222   0.832   0.072   2.466
 6441SOL    HW220223   0.895   6.947   2.433
 6442SOL     OW20224   1.610   1.499   3.586
 6442SOL    HW120225   1.670   1.432   3.631
 6442SOL    HW220226   1.568   1.557   3.655
 6443SOL     OW20227   3.142   2.839   0.806
 6443SOL    HW120228   3.214   2.769   0.807
 6443SOL    HW220229   3.089   2.834   0.890
 6444SOL     OW20230   0.647   2.608   3.334
 6444SOL    HW120231   0.623   2.665   3.256
 6444SOL    HW220232   0.717   2.542   3.306
 6445SOL     OW20233   5.039   2.519   5.449
 6445SOL    HW120234   5.085   2.434   5.475
 6445SOL    HW220235   5.025   2.575   5.531
 6446SOL     OW20236   0.436   2.405   5.990
 6446SOL    HW120237   0.369   2.334   6.010
 6446SOL    HW220238   0.528   2.367   5.995
 6447SOL     OW20239   0.472   6.262   2.403
 6447SOL    HW120240   0.521   6.219   2.479
 6447SOL    HW220241   0.530   6.332   2.362
 6448SOL     OW20242   6.309   4.593   2.652
 6448SOL    HW120243   6.359   4.532   2.591
 6448SOL    HW220244   6.238   4.641   2.600
 6449SOL     OW20245   3.757   4.556   1.344
 6449SOL    HW120246   3.792   4.524   1.255
 6449SOL    HW220247   3.689   4.492   1.378
 6450SOL     OW20248   6.968   3.034   1.489
 6450SOL    HW120249   6.895   3.095   1.520
 6450SOL    HW220250   7.009   3.071   1.406
 6451SOL     OW20251   3.060   6.330   5.384
 6451SOL    HW120252   3.056   6.231   5.375
 6451SOL    HW220253   3.071   6.355   5.480
 6452SOL     OW20254   3.527   6.349   5.212
 6452SOL    HW120255   3.561   6.346   5.306
 6452SOL    HW220256   3.431   6.376   5.212
 6453SOL     OW20257   2.044   6.473   6.701
 6453SOL    HW120258   1.976   6.519   6.758
 6453SOL    HW220259   2.101   6.414   6.759
 6454SOL     OW20260   3.188   0.763   3.795
 6454SOL    HW120261   3.206   0.704   3.874
 6454SOL    HW220262   3.264   0.756   3.730
 6455SOL     OW20263   0.867   2.365   4.354
 6455SOL    HW120264   0.883   2.360   4.452
 6455SOL    HW220265   0.777   2.325   4.333
 6456SOL     OW20266   1.302   0.176   3.375
 6456SOL    HW120267   1.339   0.083   3.368
 6456SOL    HW220268   1.286   0.199   3.471
 6457SOL     OW20269   5.240   1.158   1.094
 6457SOL    HW120270   5.143   1.158   1.121
 6457SOL    HW220271   5.295   1.198   1.167
 6458SOL     OW20272   1.383   6.075   2.903
 6458SOL    HW120273   1.441   6.152   2.878
 6458SOL    HW220274   1.320   6.102   2.976
 6459SOL     OW20275   5.627   5.910   0.858
 6459SOL    HW120276   5.654   6.002   0.887
 6459SOL    HW220277   5.707   5.862   0.821
 6460SOL     OW20278   4.301   5.559   6.112
 6460SOL    HW120279   4.371   5.488   6.102
 6460SOL    HW220280   4.273   5.566   6.208
 6461SOL     OW20281   3.009   5.174   5.104
 6461SOL    HW120282   3.082   5.118   5.064
 6461SOL    HW220283   2.942   5.198   5.033
 6462SOL     OW20284   2.471   2.760   5.322
 6462SOL    HW120285   2.488   2.841   5.267
 6462SOL    HW220286   2.531   2.686   5.293
 6463SOL     OW20287   1.497   4.376   6.342
 6463SOL    HW120288   1.398   4.365   6.350
 6463SOL    HW220289   1.522   4.385   6.246
 6464SOL     OW20290   0.837   5.064   4.442
 6464SOL    HW120291   0.765   5.027   4.501
 6464SOL    HW220292   0.918   5.085   4.496
 6465SOL     OW20293   6.212   2.767   4.015
 6465SOL    HW120294   6.186   2.698   4.082
 6465SOL    HW220295   6.158   2.755   3.932
 6466SOL     OW20296   0.109   2.247   5.835
 6466SOL    HW120297   0.184   2.198   5.789
 6466SOL    HW220298   0.114   2.231   5.933
 6467SOL     OW20299   2.842   0.768   6.939
 6467SOL    HW120300   2.942   0.779   6.935
 6467SOL    HW220301   2.816   0.687   6.888
 6468SOL     OW20302   4.143   6.210   1.379
 6468SOL    HW120303   4.168   6.118   1.348
 6468SOL    HW220304   4.064   6.204   1.441
 6469SOL     OW20305   4.978   0.920   5.131
 6469SOL    HW120306   5.002   0.832   5.091
 6469SOL    HW220307   4.889   0.914   5.174
 6470SOL     OW20308   6.353   4.934   6.497
 6470SOL    HW120309   6.382   4.992   6.574
 6470SOL    HW220310   6.406   4.959   6.415
 6471SOL     OW20311   6.294   5.639   5.905
 6471SOL    HW120312   6.243   5.633   5.991
 6471SOL    HW220313   6.268   5.722   5.856
 6472SOL     OW20314   0.376   4.839   0.633
 6472SOL    HW120315   0.443   4.913   0.643
 6472SOL    HW220316   0.306   4.849   0.703
 6473SOL     OW20317   1.962   1.834   5.360
 6473SOL    HW120318   1.954   1.827   5.261
 6473SOL    HW220319   1.911   1.915   5.392
 6474SOL     OW20320   1.553   3.735   5.869
 6474SOL    HW120321   1.627   3.750   5.934
 6474SOL    HW220322   1.473   3.789   5.896
 6475SOL     OW20323   6.247   5.676   4.642
 6475SOL    HW120324   6.230   5.619   4.722
 6475SOL    HW220325   6.160   5.698   4.597
 6476SOL     OW20326   4.685   3.622   1.610
 6476SOL    HW120327   4.648   3.714   1.620
 6476SOL    HW220328   4.746   3.619   1.531
 6477SOL     OW20329   0.083   5.065   1.076
 6477SOL    HW120330   0.039   4.982   1.042
 6477SOL    HW220331   0.018   5.114   1.135
 6478SOL     OW20332   3.371   6.313   2.216
 6478SOL    HW120333   3.462   6.271   2.216
 6478SOL    HW220334   3.362   6.375   2.138
 6479SOL     OW20335   4.135   5.171   2.670
 6479SOL    HW120336   4.196   5.160   2.748
 6479SOL    HW220337   4.066   5.240   2.691
 6480SOL     OW20338   3.635   2.997   5.473
 6480SOL    HW120339   3.693   3.049   5.535
 6480SOL    HW220340   3.596   3.058   5.404
 6481SOL     OW20341   3.448   2.429   1.651
 6481SOL    HW120342   3.451   2.508   1.589
 6481SOL    HW220343   3.524   2.434   1.715
 6482SOL     OW20344   0.139   0.701   6.069
 6482SOL    HW120345   0.167   0.608   6.048
 6482SOL    HW220346   0.044   0.701   6.101
 6483SOL     OW20347   2.599   6.096   2.008
 6483SOL    HW120348   2.582   6.011   2.057
 6483SOL    HW220349   2.581   6.083   1.911
 6484SOL     OW20350   3.807   0.635   3.143
 6484SOL    HW120351   3.768   0.721   3.109
 6484SOL    HW220352   3.787   0.562   3.078
 6485SOL     OW20353   1.369   3.774   3.474
 6485SOL    HW120354   1.343   3.853   3.530
 6485SOL    HW220355   1.388   3.696   3.534
 6486SOL     OW20356   0.832   4.764   3.509
 6486SOL    HW120357   0.775   4.691   3.547
 6486SOL    HW220358   0.914   4.724   3.469
 6487SOL     OW20359   5.793   5.767   5.359
 6487SOL    HW120360   5.728   5.747   5.433
 6487SOL    HW220361   5.752   5.833   5.296
 6488SOL     OW20362   3.152   5.942   5.160
 6488SOL    HW120363   3.235   5.888   5.143
 6488SOL    HW220364   3.072   5.888   5.136
 6489SOL     OW20365   2.032   3.254   6.817
 6489SOL    HW120366   2.016   3.308   6.900
 6489SOL    HW220367   2.127   3.221   6.816
 6490SOL     OW20368   4.173   2.295   6.585
 6490SOL    HW120369   4.200   2.273   6.492
 6490SOL    HW220370   4.081   2.259   6.603
 6491SOL     OW20371   4.240   0.862   6.278
 6491SOL    HW120372   4.321   0.915   6.304
 6491SOL    HW220373   4.212   0.804   6.354
 6492SOL     OW20374   6.067   6.344   6.758
 6492SOL    HW120375   6.033   6.409   6.826
 6492SOL    HW220376   6.005   6.266   6.752
 6493SOL     OW20377   1.347   6.148   5.177
 6493SOL    HW120378   1.305   6.166   5.088
 6493SOL    HW220379   1.277   6.155   5.249
 6494SOL     OW20380   0.424   0.543   3.691
 6494SOL    HW120381   0.469   0.477   3.631
 6494SOL    HW220382   0.447   0.636   3.662
 6495SOL     OW20383   5.286   6.116   3.816
 6495SOL    HW120384   5.364   6.104   3.754
 6495SOL    HW220385   5.276   6.035   3.873
 6496SOL     OW20386   6.779   6.519   2.226
 6496SOL    HW120387   6.728   6.452   2.280
 6496SOL    HW220388   6.792   6.483   2.134
 6497SOL     OW20389   2.216   3.030   0.127
 6497SOL    HW120390   2.308   3.010   0.161
 6497SOL    HW220391   2.187   2.957   0.065
 6498SOL     OW20392   2.674   4.742   4.318
 6498SOL    HW120393   2.744   4.801   4.278
 6498SOL    HW220394   2.649   4.671   4.252
 6499SOL     OW20395   5.690   1.444   5.207
 6499SOL    HW120396   5.637   1.482   5.132
 6499SOL    HW220397   5.629   1.421   5.283
 6500SOL     OW20398   0.235   4.697   3.795
 6500SOL    HW120399   0.218   4.790   3.763
 6500SOL    HW220400   0.154   4.640   3.775
 6501SOL     OW20401   6.426   2.959   1.101
 6501SOL    HW120402   6.409   2.876   1.154
 6501SOL    HW220403   6.466   2.935   1.013
 6502SOL     OW20404   6.842   3.699   3.516
 6502SOL    HW120405   6.752   3.742   3.517
 6502SOL    HW220406   6.907   3.756   3.566
 6503SOL     OW20407   5.495   6.911   3.330
 6503SOL    HW120408   5.564   6.923   3.402
 6503SOL    HW220409   5.411   6.875   3.370
 6504SOL     OW20410   4.280   6.632   6.374
 6504SOL    HW120411   4.368   6.678   6.362
 6504SOL    HW220412   4.291   6.555   6.438
 6505SOL     OW20413   6.286   4.562   1.473
 6505SOL    HW120414   6.204   4.515   1.506
 6505SOL    HW220415   6.261   4.655   1.444
 6506SOL     OW20416   0.699   3.090   0.712
 6506SOL    HW120417   0.777   3.140   0.749
 6506SOL    HW220418   0.722   3.055   0.621
 6507SOL     OW20419   1.406   5.843   6.550
 6507SOL    HW120420   1.469   5.920   6.564
 6507SOL    HW220421   1.378   5.807   6.638
 6508SOL     OW20422   1.706   2.130   3.356
 6508SOL    HW120423   1.744   2.178   3.436
 6508SOL    HW220424   1.729   2.033   3.362
 6509SOL     OW20425   1.781   2.432   4.832
 6509SOL    HW120426   1.779   2.486   4.916
 6509SOL    HW220427   1.819   2.487   4.758
 6510SOL     OW20428   0.723   5.596   7.004
 6510SOL    HW120429   0.738   5.535   6.926
 6510SOL    HW220430   0.736   5.546   0.067
 6511SOL     OW20431   5.753   0.532   4.683
 6511SOL    HW120432   5.753   0.630   4.668
 6511SOL    HW220433   5.838   0.493   4.648
 6512SOL     OW20434   4.384   0.366   2.834
 6512SOL    HW120435   4.480   0.361   2.860
 6512SOL    HW220436   4.326   0.350   2.914
 6513SOL     OW20437   3.513   6.328   4.151
 6513SOL    HW120438   3.523   6.426   4.141
 6513SOL    HW220439   3.487   6.307   4.246
 6514SOL     OW20440   5.361   0.171   3.310
 6514SOL    HW120441   5.442   0.195   3.363
 6514SOL    HW220442   5.362   0.073   3.289
 6515SOL     OW20443   0.381   5.475   4.129
 6515SOL    HW120444   0.326   5.558   4.136
 6515SOL    HW220445   0.474   5.499   4.101
 6516SOL     OW20446   0.231   1.920   0.328
 6516SOL    HW120447   0.246   2.016   0.352
 6516SOL    HW220448   0.158   1.883   0.384
 6517SOL     OW20449   6.342   1.451   0.821
 6517SOL    HW120450   6.340   1.468   0.722
 6517SOL    HW220451   6.249   1.449   0.856
 6518SOL     OW20452   0.495   6.256   0.021
 6518SOL    HW120453   0.469   6.167   0.058
 6518SOL    HW220454   0.482   6.326   0.090
 6519SOL     OW20455   2.032   1.755   3.352
 6519SOL    HW120456   2.101   1.826   3.337
 6519SOL    HW220457   2.070   1.666   3.328
 6520SOL     OW20458   6.534   5.569   3.591
 6520SOL    HW120459   6.617   5.594   3.540
 6520SOL    HW220460   6.457   5.624   3.559
 6521SOL     OW20461   0.748   1.036   4.586
 6521SOL    HW120462   0.760   1.134   4.576
 6521SOL    HW220463   0.788   0.989   4.508
 6522SOL     OW20464   3.413   4.771   6.721
 6522SOL    HW120465   3.348   4.705   6.682
 6522SOL    HW220466   3.366   4.825   6.792
 6523SOL     OW20467   2.583   1.685   6.495
 6523SOL    HW120468   2.521   1.747   6.446
 6523SOL    HW220469   2.629   1.625   6.429
 6524SOL     OW20470   3.464   2.952   3.516
 6524SOL    HW120471   3.498   3.037   3.557
 6524SOL    HW220472   3.369   2.939   3.543
 6525SOL     OW20473   2.306   2.850   2.813
 6525SOL    HW120474   2.228   2.788   2.804
 6525SOL    HW220475   2.390   2.800   2.792
 6526SOL     OW20476   0.851   6.253   4.668
 6526SOL    HW120477   0.852   6.196   4.749
 6526SOL    HW220478   0.889   6.203   4.591
 6527SOL     OW20479   0.459   1.413   4.885
 6527SOL    HW120480   0.442   1.344   4.955
 6527SOL    HW220481   0.385   1.481   4.886
 6528SOL     OW20482   7.003   0.866   3.962
 6528SOL    HW120483   0.020   0.944   4.010
 6528SOL    HW220484   6.903   0.868   3.970
 6529SOL     OW20485   5.501   1.942   3.819
 6529SOL    HW120486   5.443   1.913   3.895
 6529SOL    HW220487   5.503   1.870   3.749
 6530SOL     OW20488   6.631   3.343   0.970
 6530SOL    HW120489   6.602   3.364   1.064
 6530SOL    HW220490   6.726   3.372   0.958
 6531SOL     OW20491   4.908   3.111   4.145
 6531SOL    HW120492   5.004   3.083   4.147
 6531SOL    HW220493   4.884   3.154   4.232
 6532SOL     OW20494   5.621   1.376   1.183
 6532SOL    HW120495   5.653   1.471   1.185
 6532SOL    HW220496   5.621   1.344   1.088
 6533SOL     OW20497   5.334   5.832   1.729
 6533SOL    HW120498   5.325   5.872   1.638
 6533SOL    HW220499   5.380   5.896   1.790
 6534SOL     OW20500   2.731   4.190   1.687
 6534SOL    HW120501   2.755   4.162   1.594
 6534SOL    HW220502   2.801   4.253   1.721
 6535SOL     OW20503   0.406   2.922   4.814
 6535SOL    HW120504   0.412   2.935   4.913
 6535SOL    HW220505   0.458   2.841   4.788
 6536SOL     OW20506   6.956   2.765   5.844
 6536SOL    HW120507   6.863   2.728   5.853
 6536SOL    HW220508   7.020   2.708   5.895
 6537SOL     OW20509   6.528   5.919   0.052
 6537SOL    HW120510   6.572   5.855   7.010
 6537SOL    HW220511   6.434   5.937   0.022
 6538SOL     OW20512   3.695   4.159   0.303
 6538SOL    HW120513   3.786   4.138   0.338
 6538SOL    HW220514   3.693   4.254   0.270
 6539SOL     OW20515   2.397   1.860   6.350
 6539SOL    HW120516   2.368   1.765   6.365
 6539SOL    HW220517   2.363   1.918   6.424
 6540SOL     OW20518   4.195   1.902   4.997
 6540SOL    HW120519   4.156   1.845   4.924
 6540SOL    HW220520   4.289   1.871   5.015
 6541SOL     OW20521   3.035   2.213   4.755
 6541SOL    HW120522   2.946   2.257   4.758
 6541SOL    HW220523   3.086   2.234   4.838
 6542SOL     OW20524   6.711   4.429   3.111
 6542SOL    HW120525   6.802   4.394   3.134
 6542SOL    HW220526   6.716   4.528   3.098
 6543SOL     OW20527   6.581   5.083   0.177
 6543SOL    HW120528   6.637   5.160   0.209
 6543SOL    HW220529   6.550   5.030   0.256
 6544SOL     OW20530   0.801   6.383   3.591
 6544SOL    HW120531   0.802   6.315   3.665
 6544SOL    HW220532   0.720   6.369   3.534
 6545SOL     OW20533   4.778   1.623   6.234
 6545SOL    HW120534   4.844   1.664   6.296
 6545SOL    HW220535   4.819   1.612   6.144
 6546SOL     OW20536   4.759   4.173   6.500
 6546SOL    HW120537   4.845   4.223   6.504
 6546SOL    HW220538   4.697   4.218   6.435
 6547SOL     OW20539   4.172   1.478   5.545
 6547SOL    HW120540   4.076   1.500   5.562
 6547SOL    HW220541   4.210   1.430   5.625
 6548SOL     OW20542   0.666   3.962   6.605
 6548SOL    HW120543   0.713   4.036   6.653
 6548SOL    HW220544   0.570   3.988   6.592
 6549SOL     OW20545   3.335   1.182   0.836
 6549SOL    HW120546   3.418   1.145   0.877
 6549SOL    HW220547   3.261   1.181   0.904
 6550SOL     OW20548   0.354   6.052   2.957
 6550SOL    HW120549   0.407   6.123   3.004
 6550SOL    HW220550   0.343   6.076   2.861
 6551SOL     OW20551   2.004   4.202   2.670
 6551SOL    HW120552   1.956   4.130   2.619
 6551SOL    HW220553   1.956   4.289   2.658
 6552SOL     OW20554   2.721   6.164   4.573
 6552SOL    HW120555   2.736   6.187   4.477
 6552SOL    HW220556   2.633   6.201   4.603
 6553SOL     OW20557   0.243   2.607   1.229
 6553SOL    HW120558   0.263   2.640   1.321
 6553SOL    HW220559   0.147   2.578   1.223
 6554SOL     OW20560   5.852   1.764   5.925
 6554SOL    HW120561   5.841   1.682   5.869
 6554SOL    HW220562   5.789   1.835   5.892
 6555SOL     OW20563   2.034   1.036   2.557
 6555SOL    HW120564   2.096   1.083   2.620
 6555SOL    HW220565   2.017   1.094   2.477
 6556SOL     OW20566   4.544   4.758   5.084
 6556SOL    HW120567   4.561   4.781   5.180
 6556SOL    HW220568   4.561   4.839   5.027
 6557SOL     OW20569   5.331   5.767   1.219
 6557SOL    HW120570   5.302   5.702   1.289
 6557SOL    HW220571   5.333   5.721   1.130
 6558SOL     OW20572   6.641   5.523   1.077
 6558SOL    HW120573   6.735   5.515   1.044
 6558SOL    HW220574   6.594   5.436   1.066
 6559SOL     OW20575   6.052   3.728   1.006
 6559SOL    HW120576   6.014   3.639   0.981
 6559SOL    HW220577   6.086   3.725   1.100
 6560SOL     OW20578   3.923   2.782   1.750
 6560SOL    HW120579   4.001   2.722   1.768
 6560SOL    HW220580   3.838   2.730   1.762
 6561SOL     OW20581   3.731   4.090   2.545
 6561SOL    HW120582   3.757   4.186   2.531
 6561SOL    HW220583   3.792   4.048   2.611
 6562SOL     OW20584   6.110   4.404   6.602
 6562SOL    HW120585   6.070   4.378   6.514
 6562SOL    HW220586   6.198   4.449   6.586
 6563SOL     OW20587   0.783   6.203   0.052
 6563SOL    HW120588   0.710   6.136   0.040
 6563SOL    HW220589   0.751   6.293   0.021
 6564SOL     OW20590   1.495   3.536   1.902
 6564SOL    HW120591   1.453   3.506   1.816
 6564SOL    HW220592   1.556   3.464   1.936
 6565SOL     OW20593   6.434   1.790   5.016
 6565SOL    HW120594   6.505   1.785   4.947
 6565SOL    HW220595   6.475   1.813   5.105
 6566SOL     OW20596   2.966   6.819   1.756
 6566SOL    HW120597   2.909   6.895   1.726
 6566SOL    HW220598   3.057   6.853   1.781
 6567SOL     OW20599   4.170   2.727   1.534
 6567SOL    HW120600   4.096   2.744   1.468
 6567SOL    HW220601   4.238   2.799   1.528
 6568SOL     OW20602   4.855   5.119   2.125
 6568SOL    HW120603   4.905   5.198   2.161
 6568SOL    HW220604   4.757   5.137   2.129
 6569SOL     OW20605   3.031   4.684   0.906
 6569SOL    HW120606   3.083   4.687   0.820
 6569SOL    HW220607   3.079   4.625   0.971
 6570SOL     OW20608   4.827   6.957   1.284
 6570SOL    HW120609   4.839   6.927   1.379
 6570SOL    HW220610   4.736   6.930   1.252
 6571SOL     OW20611   1.889   6.363   2.885
 6571SOL    HW120612   1.845   6.281   2.848
 6571SOL    HW220613   1.927   6.418   2.810
 6572SOL     OW20614   6.159   4.699   4.713
 6572SOL    HW120615   6.250   4.716   4.749
 6572SOL    HW220616   6.125   4.781   4.667
 6573SOL     OW20617   3.319   0.895   3.247
 6573SOL    HW120618   3.313   0.828   3.320
 6573SOL    HW220619   3.354   0.851   3.164
 6574SOL     OW20620   2.557   6.268   2.262
 6574SOL    HW120621   2.549   6.367   2.254
 6574SOL    HW220622   2.628   6.235   2.200
 6575SOL     OW20623   0.583   1.389   1.522
 6575SOL    HW120624   0.539   1.301   1.537
 6575SOL    HW220625   0.679   1.375   1.498
 6576SOL     OW20626   1.335   6.317   6.143
 6576SOL    HW120627   1.329   6.316   6.243
 6576SOL    HW220628   1.266   6.255   6.106
 6577SOL     OW20629   6.977   1.077   3.647
 6577SOL    HW120630   7.002   0.980   3.650
 6577SOL    HW220631   6.907   1.096   3.715
 6578SOL     OW20632   6.769   5.351   3.202
 6578SOL    HW120633   6.792   5.445   3.179
 6578SOL    HW220634   6.712   5.349   3.284
 6579SOL     OW20635   0.084   4.293   4.544
 6579SOL    HW120636   0.178   4.264   4.531
 6579SOL    HW220637   0.069   4.379   4.495
 6580SOL     OW20638   6.212   1.262   1.227
 6580SOL    HW120639   6.162   1.330   1.280
 6580SOL    HW220640   6.311   1.274   1.241
 6581SOL     OW20641   3.791   0.937   5.657
 6581SOL    HW120642   3.811   0.839   5.662
 6581SOL    HW220643   3.728   0.954   5.581
 6582SOL     OW20644   1.475   6.998   2.287
 6582SOL    HW120645   1.525   6.913   2.303
 6582SOL    HW220646   1.381   6.989   2.323
 6583SOL     OW20647   4.454   1.031   6.343
 6583SOL    HW120648   4.495   1.043   6.434
 6583SOL    HW220649   4.421   1.119   6.310
 6584SOL     OW20650   5.328   1.402   6.843
 6584SOL    HW120651   5.237   1.410   6.804
 6584SOL    HW220652   5.375   1.323   6.801
 6585SOL     OW20653   6.668   0.943   0.674
 6585SOL    HW120654   6.729   1.022   0.665
 6585SOL    HW220655   6.659   0.898   0.586
 6586SOL     OW20656   6.237   2.206   5.735
 6586SOL    HW120657   6.159   2.145   5.737
 6586SOL    HW220658   6.318   2.160   5.772
 6587SOL     OW20659   3.128   5.642   4.762
 6587SOL    HW120660   3.090   5.731   4.788
 6587SOL    HW220661   3.053   5.577   4.747
 6588SOL     OW20662   1.845   4.077   1.473
 6588SOL    HW120663   1.859   4.071   1.572
 6588SOL    HW220664   1.924   4.120   1.430
 6589SOL     OW20665   4.532   0.502   6.983
 6589SOL    HW120666   4.541   0.507   0.061
 6589SOL    HW220667   4.595   0.568   6.940
 6590SOL     OW20668   0.522   1.894   5.242
 6590SOL    HW120669   0.477   1.808   5.221
 6590SOL    HW220670   0.454   1.965   5.261
 6591SOL     OW20671   5.685   6.261   2.409
 6591SOL    HW120672   5.691   6.253   2.309
 6591SOL    HW220673   5.674   6.170   2.449
 6592SOL     OW20674   4.781   6.780   3.967
 6592SOL    HW120675   4.859   6.752   4.023
 6592SOL    HW220676   4.738   6.861   4.009
 6593SOL     OW20677   2.063   2.584   3.701
 6593SOL    HW120678   1.981   2.545   3.660
 6593SOL    HW220679   2.055   2.684   3.704
 6594SOL     OW20680   4.116   1.095   0.287
 6594SOL    HW120681   4.076   1.120   0.199
 6594SOL    HW220682   4.067   1.015   0.324
 6595SOL     OW20683   0.475   3.670   1.557
 6595SOL    HW120684   0.427   3.655   1.644
 6595SOL    HW220685   0.412   3.709   1.490
 6596SOL     OW20686   4.004   0.040   5.288
 6596SOL    HW120687   4.093   0.077   5.260
 6596SOL    HW220688   3.936   0.113   5.291
 6597SOL     OW20689   0.992   6.538   3.717
 6597SOL    HW120690   0.965   6.623   3.762
 6597SOL    HW220691   0.917   6.505   3.660
 6598SOL     OW20692   1.923   5.868   5.371
 6598SOL    HW120693   1.869   5.950   5.390
 6598SOL    HW220694   1.985   5.851   5.447
 6599SOL     OW20695   3.947   5.284   5.677
 6599SOL    HW120696   3.882   5.321   5.610
 6599SOL    HW220697   4.036   5.328   5.664
 6600SOL     OW20698   4.903   4.991   4.949
 6600SOL    HW120699   4.967   5.044   4.893
 6600SOL    HW220700   4.945   4.970   5.037
 6601SOL     OW20701   0.766   0.185   0.591
 6601SOL    HW120702   0.818   0.244   0.653
 6601SOL    HW220703   0.676   0.166   0.631
 6602SOL     OW20704   0.071   1.850   1.380
 6602SOL    HW120705   0.099   1.823   1.472
 6602SOL    HW220706   6.994   1.861   1.376
 6603SOL     OW20707   1.598   3.012   4.205
 6603SOL    HW120708   1.695   3.030   4.226
 6603SOL    HW220709   1.577   2.916   4.223
 6604SOL     OW20710   2.619   6.054   1.483
 6604SOL    HW120711   2.577   5.963   1.484
 6604SOL    HW220712   2.689   6.057   1.411
 6605SOL     OW20713   4.564   4.618   0.727
 6605SOL    HW120714   4.644   4.627   0.668
 6605SOL    HW220715   4.496   4.561   0.682
 6606SOL     OW20716   4.657   6.753   1.977
 6606SOL    HW120717   4.700   6.819   2.039
 6606SOL    HW220718   4.652   6.664   2.023
 6607SOL     OW20719   1.892   1.524   1.982
 6607SOL    HW120720   1.893   1.559   1.888
 6607SOL    HW220721   1.875   1.426   1.980
 6608SOL     OW20722   5.142   4.113   2.312
 6608SOL    HW120723   5.214   4.146   2.249
 6608SOL    HW220724   5.080   4.187   2.333
 6609SOL     OW20725   5.058   1.138   6.654
 6609SOL    HW120726   5.012   1.062   6.608
 6609SOL    HW220727   5.155   1.139   6.628
 6610SOL     OW20728   2.222   0.223   6.885
 6610SOL    HW120729   2.165   0.257   6.960
 6610SOL    HW220730   2.306   0.276   6.881
 6611SOL     OW20731   7.007   2.402   2.869
 6611SOL    HW120732   7.011   2.366   2.962
 6611SOL    HW220733   0.078   2.411   2.833
 6612SOL     OW20734   0.987   4.151   6.940
 6612SOL    HW120735   0.986   4.234   6.884
 6612SOL    HW220736   1.041   4.168   0.002
 6613SOL     OW20737   6.073   5.992   3.411
 6613SOL    HW120738   5.994   6.044   3.378
 6613SOL    HW220739   6.089   6.014   3.507
 6614SOL     OW20740   4.707   6.645   6.408
 6614SOL    HW120741   4.702   6.737   6.369
 6614SOL    HW220742   4.778   6.593   6.360
 6615SOL     OW20743   0.733   3.851   4.653
 6615SOL    HW120744   0.651   3.870   4.598
 6615SOL    HW220745   0.732   3.755   4.682
 6616SOL     OW20746   3.983   1.543   5.799
 6616SOL    HW120747   3.951   1.635   5.820
 6616SOL    HW220748   3.905   1.485   5.777
 6617SOL     OW20749   3.509   6.564   3.390
 6617SOL    HW120750   3.550   6.510   3.464
 6617SOL    HW220751   3.556   6.652   3.383
 6618SOL     OW20752   1.352   3.139   2.512
 6618SOL    HW120753   1.255   3.117   2.502
 6618SOL    HW220754   1.362   3.238   2.523
 6619SOL     OW20755   5.220   6.723   4.420
 6619SOL    HW120756   5.258   6.656   4.483
 6619SOL    HW220757   5.281   6.802   4.415
 6620SOL     OW20758   1.833   2.923   5.508
 6620SOL    HW120759   1.835   2.999   5.443
 6620SOL    HW220760   1.743   2.918   5.551
 6621SOL     OW20761   3.326   4.092   0.405
 6621SOL    HW120762   3.328   4.178   0.355
 6621SOL    HW220763   3.380   4.023   0.356
 6622SOL     OW20764   6.275   5.606   1.341
 6622SOL    HW120765   6.254   5.601   1.438
 6622SOL    HW220766   6.261   5.516   1.299
 6623SOL     OW20767   3.556   3.201   2.045
 6623SOL    HW120768   3.550   3.297   2.071
 6623SOL    HW220769   3.648   3.167   2.066
 6624SOL     OW20770   2.464   6.434   4.227
 6624SOL    HW120771   2.425   6.514   4.273
 6624SOL    HW220772   2.527   6.387   4.288
 6625SOL     OW20773   5.923   2.052   6.056
 6625SOL    HW120774   5.853   2.015   6.116
 6625SOL    HW220775   6.014   2.029   6.091
 6626SOL     OW20776   3.711   4.846   3.032
 6626SOL    HW120777   3.793   4.803   2.996
 6626SOL    HW220778   3.704   4.830   3.130
 6627SOL     OW20779   2.170   1.137   5.690
 6627SOL    HW120780   2.176   1.079   5.609
 6627SOL    HW220781   2.075   1.138   5.723
 6628SOL     OW20782   4.909   5.474   2.806
 6628SOL    HW120783   4.889   5.391   2.857
 6628SOL    HW220784   4.823   5.515   2.774
 6629SOL     OW20785   3.366   6.322   0.943
 6629SOL    HW120786   3.301   6.364   1.006
 6629SOL    HW220787   3.406   6.241   0.985
 6630SOL     OW20788   3.539   1.918   0.420
 6630SOL    HW120789   3.639   1.929   0.420
 6630SOL    HW220790   3.512   1.856   0.346
 6631SOL     OW20791   4.439   6.732   2.594
 6631SOL    HW120792   4.425   6.634   2.587
 6631SOL    HW220793   4.361   6.781   2.554
 6632SOL     OW20794   6.864   0.906   1.911
 6632SOL    HW120795   6.785   0.902   1.973
 6632SOL    HW220796   6.936   0.846   1.946
 6633SOL     OW20797   1.316   5.676   6.088
 6633SOL    HW120798   1.319   5.650   6.185
 6633SOL    HW220799   1.221   5.692   6.061
 6634SOL     OW20800   5.912   3.378   5.818
 6634SOL    HW120801   5.974   3.315   5.770
 6634SOL    HW220802   5.966   3.453   5.857
 6635SOL     OW20803   4.615   4.761   3.437
 6635SOL    HW120804   4.526   4.786   3.398
 6635SOL    HW220805   4.668   4.844   3.453
 6636SOL     OW20806   2.212   2.687   5.451
 6636SOL    HW120807   2.178   2.724   5.537
 6636SOL    HW220808   2.302   2.725   5.431
 6637SOL     OW20809   1.097   0.537   6.772
 6637SOL    HW120810   1.051   0.490   6.697
 6637SOL    HW220811   1.095   0.478   6.853
 6638SOL     OW20812   4.104   4.875   5.139
 6638SOL    HW120813   4.201   4.864   5.118
 6638SOL    HW220814   4.063   4.786   5.159
 6639SOL     OW20815   5.771   5.885   5.787
 6639SOL    HW120816   5.853   5.832   5.768
 6639SOL    HW220817   5.718   5.897   5.703
 6640SOL     OW20818   0.053   1.966   4.890
 6640SOL    HW120819   0.114   1.965   4.969
 6640SOL    HW220820   0.106   1.963   4.806
 6641SOL     OW20821   2.719   3.396   6.504
 6641SOL    HW120822   2.738   3.494   6.512
 6641SOL    HW220823   2.643   3.372   6.564
 6642SOL     OW20824   2.852   5.215   0.040
 6642SOL    HW120825   2.876   5.312   0.036
 6642SOL    HW220826   2.782   5.201   0.110
 6643SOL     OW20827   6.930   4.664   0.036
 6643SOL    HW120828   6.837   4.645   0.006
 6643SOL    HW220829   6.995   4.620   6.996
 6644SOL     OW20830   3.019   4.778   1.972
 6644SOL    HW120831   2.944   4.715   1.949
 6644SOL    HW220832   3.099   4.755   1.916
 6645SOL     OW20833   6.609   4.966   0.785
 6645SOL    HW120834   6.707   4.979   0.801
 6645SOL    HW220835   6.578   5.027   0.713
 6646SOL     OW20836   4.590   5.685   4.474
 6646SOL    HW120837   4.619   5.741   4.551
 6646SOL    HW220838   4.634   5.595   4.479
 6647SOL     OW20839   3.134   1.607   2.606
 6647SOL    HW120840   3.148   1.672   2.681
 6647SOL    HW220841   3.134   1.656   2.519
 6648SOL     OW20842   3.672   6.454   2.148
 6648SOL    HW120843   3.697   6.497   2.061
 6648SOL    HW220844   3.626   6.520   2.206
 6649SOL     OW20845   5.617   2.049   6.517
 6649SOL    HW120846   5.570   2.137   6.507
 6649SOL    HW220847   5.564   1.977   6.472
 6650SOL     OW20848   4.006   1.205   3.251
 6650SOL    HW120849   3.999   1.276   3.321
 6650SOL    HW220850   3.915   1.184   3.215
 6651SOL     OW20851   1.380   1.636   0.374
 6651SOL    HW120852   1.365   1.543   0.339
 6651SOL    HW220853   1.414   1.631   0.468
 6652SOL     OW20854   6.511   4.335   0.070
 6652SOL    HW120855   6.600   4.302   0.038
 6652SOL    HW220856   6.521   4.426   0.109
 6653SOL     OW20857   4.125   3.382   3.013
 6653SOL    HW120858   4.118   3.310   2.943
 6653SOL    HW220859   4.067   3.358   3.091
 6654SOL     OW20860   2.058   2.711   1.391
 6654SOL    HW120861   2.086   2.770   1.316
 6654SOL    HW220862   2.013   2.629   1.355
 6655SOL     OW20863   2.422   0.053   1.787
 6655SOL    HW120864   2.432   0.111   1.706
 6655SOL    HW220865   2.478   0.089   1.861
 6656SOL     OW20866   6.295   1.285   2.745
 6656SOL    HW120867   6.249   1.297   2.657
 6656SOL    HW220868   6.345   1.369   2.768
 6657SOL     OW20869   4.467   6.817   6.241
 6657SOL    HW120870   4.559   6.852   6.260
 6657SOL    HW220871   4.474   6.734   6.186
 6658SOL     OW20872   5.906   1.585   5.298
 6658SOL    HW120873   5.854   1.663   5.333
 6658SOL    HW220874   5.844   1.517   5.261
 6659SOL     OW20875   2.273   2.281   6.773
 6659SOL    HW120876   2.338   2.207   6.761
 6659SOL    HW220877   2.288   2.325   6.861
 6660SOL     OW20878   0.091   6.026   1.328
 6660SOL    HW120879   0.152   5.992   1.400
 6660SOL    HW220880   0.093   5.963   1.250
 6661SOL     OW20881   0.473   4.918   3.975
 6661SOL    HW120882   0.497   5.014   3.961
 6661SOL    HW220883   0.534   4.860   3.922
 6662SOL     OW20884   1.254   0.957   6.990
 6662SOL    HW120885   1.273   0.876   6.934
 6662SOL    HW220886   1.179   1.009   6.949
 6663SOL     OW20887   0.229   5.693   3.241
 6663SOL    HW120888   0.196   5.775   3.194
 6663SOL    HW220889   0.163   5.666   3.311
 6664SOL     OW20890   1.471   0.103   1.490
 6664SOL    HW120891   1.431   0.145   1.409
 6664SOL    HW220892   1.401   0.050   1.538
 6665SOL     OW20893   1.488   0.442   3.176
 6665SOL    HW120894   1.506   0.447   3.078
 6665SOL    HW220895   1.508   0.350   3.209
 6666SOL     OW20896   5.923   1.997   5.253
 6666SOL    HW120897   5.876   2.010   5.166
 6666SOL    HW220898   5.900   1.907   5.290
 6667SOL     OW20899   5.985   5.132   4.679
 6667SOL    HW120900   5.996   5.121   4.777
 6667SOL    HW220901   5.887   5.129   4.656
 6668SOL     OW20902   6.998   6.272   2.050
 6668SOL    HW120903   7.018   6.192   2.105
 6668SOL    HW220904   0.047   6.342   2.065
 6669SOL     OW20905   2.174   3.547   3.791
 6669SOL    HW120906   2.137   3.610   3.722
 6669SOL    HW220907   2.165   3.590   3.882
 6670SOL     OW20908   3.530   3.876   6.714
 6670SOL    HW120909   3.548   3.885   6.616
 6670SOL    HW220910   3.442   3.831   6.727
 6671SOL     OW20911   6.223   5.060   0.526
 6671SOL    HW120912   6.222   4.980   0.466
 6671SOL    HW220913   6.212   5.143   0.472
 6672SOL     OW20914   0.688   1.185   5.298
 6672SOL    HW120915   0.636   1.221   5.221
 6672SOL    HW220916   0.684   1.250   5.374
 6673SOL     OW20917   4.803   5.791   2.688
 6673SOL    HW120918   4.753   5.805   2.773
 6673SOL    HW220919   4.896   5.829   2.698
 6674SOL     OW20920   0.743   5.438   5.985
 6674SOL    HW120921   0.758   5.489   6.071
 6674SOL    HW220922   0.826   5.443   5.929
 6675SOL     OW20923   5.526   3.957   1.690
 6675SOL    HW120924   5.564   4.031   1.636
 6675SOL    HW220925   5.468   3.899   1.632
 6676SOL     OW20926   0.778   3.753   5.673
 6676SOL    HW120927   0.706   3.798   5.725
 6676SOL    HW220928   0.748   3.662   5.644
 6677SOL     OW20929   6.822   3.160   6.889
 6677SOL    HW120930   6.921   3.175   6.895
 6677SOL    HW220931   6.774   3.248   6.897
 6678SOL     OW20932   1.288   2.420   0.170
 6678SOL    HW120933   1.248   2.345   0.117
 6678SOL    HW220934   1.353   2.382   0.236
 6679SOL     OW20935   1.723   1.459   4.790
 6679SOL    HW120936   1.721   1.385   4.723
 6679SOL    HW220937   1.678   1.429   4.874
 6680SOL     OW20938   4.225   6.129   6.071
 6680SOL    HW120939   4.312   6.176   6.057
 6680SOL    HW220940   4.212   6.061   5.998
 6681SOL     OW20941   4.960   5.862   6.970
 6681SOL    HW120942   5.056   5.832   6.978
 6681SOL    HW220943   4.901   5.795   7.013
 6682SOL     OW20944   0.744   4.449   2.567
 6682SOL    HW120945   0.837   4.412   2.577
 6682SOL    HW220946   0.712   4.433   2.473
 6683SOL     OW20947   4.822   2.113   5.594
 6683SOL    HW120948   4.805   2.119   5.495
 6683SOL    HW220949   4.789   2.196   5.639
 6684SOL     OW20950   1.911   6.790   1.279
 6684SOL    HW120951   1.816   6.758   1.290
 6684SOL    HW220952   1.966   6.716   1.241
 6685SOL     OW20953   5.293   1.987   6.206
 6685SOL    HW120954   5.238   2.034   6.275
 6685SOL    HW220955   5.371   2.044   6.181
 6686SOL     OW20956   6.073   4.703   3.656
 6686SOL    HW120957   6.168   4.672   3.665
 6686SOL    HW220958   6.045   4.748   3.741
 6687SOL     OW20959   0.743   1.298   0.808
 6687SOL    HW120960   0.705   1.282   0.717
 6687SOL    HW220961   0.721   1.391   0.838
 6688SOL     OW20962   0.573   4.472   2.059
 6688SOL    HW120963   0.542   4.405   1.991
 6688SOL    HW220964   0.587   4.560   2.014
 6689SOL     OW20965   4.208   2.784   0.832
 6689SOL    HW120966   4.279   2.847   0.868
 6689SOL    HW220967   4.241   2.690   0.840
 6690SOL     OW20968   2.489   1.090   1.666
 6690SOL    HW120969   2.443   1.178   1.676
 6690SOL    HW220970   2.535   1.087   1.577
 6691SOL     OW20971   2.851   5.674   0.828
 6691SOL    HW120972   2.910   5.603   0.867
 6691SOL    HW220973   2.777   5.632   0.776
 6692SOL     OW20974   2.605   4.696   5.195
 6692SOL    HW120975   2.594   4.610   5.245
 6692SOL    HW220976   2.679   4.687   5.129
 6693SOL     OW20977   4.962   3.529   6.373
 6693SOL    HW120978   4.883   3.485   6.331
 6693SOL    HW220979   4.932   3.604   6.431
 6694SOL     OW20980   4.307   5.484   0.048
 6694SOL    HW120981   4.222   5.485   0.101
 6694SOL    HW220982   4.375   5.542   0.094
 6695SOL     OW20983   0.830   1.994   6.910
 6695SOL    HW120984   0.794   1.914   6.862
 6695SOL    HW220985   0.923   2.012   6.879
 6696SOL     OW20986   1.870   2.490   1.292
 6696SOL    HW120987   1.785   2.542   1.303
 6696SOL    HW220988   1.864   2.407   1.347
 6697SOL     OW20989   4.830   2.348   2.868
 6697SOL    HW120990   4.800   2.318   2.958
 6697SOL    HW220991   4.763   2.411   2.829
 6698SOL     OW20992   3.394   2.517   0.583
 6698SOL    HW120993   3.487   2.548   0.562
 6698SOL    HW220994   3.351   2.582   0.645
 6699SOL     OW20995   3.827   4.214   6.475
 6699SOL    HW120996   3.793   4.151   6.405
 6699SOL    HW220997   3.855   4.162   6.555
 6700SOL     OW20998   0.789   5.689   0.454
 6700SOL    HW120999   0.716   5.740   0.501
 6700SOL    HW221000   0.861   5.666   0.520
 6701SOL     OW21001   6.070   2.848   1.589
 6701SOL    HW121002   5.974   2.869   1.611
 6701SOL    HW221003   6.089   2.752   1.611
 6702SOL     OW21004   2.815   2.193   0.037
 6702SOL    HW121005   2.811   2.226   6.965
 6702SOL    HW221006   2.882   2.119   0.044
 6703SOL     OW21007   6.399   1.978   6.925
 6703SOL    HW121008   6.443   2.037   6.857
 6703SOL    HW221009   6.448   1.985   7.012
 6704SOL     OW21010   4.497   2.372   2.561
 6704SOL    HW121011   4.506   2.471   2.577
 6704SOL    HW221012   4.413   2.339   2.604
 6705SOL     OW21013   0.078   2.125   1.595
 6705SOL    HW121014   0.171   2.126   1.630
 6705SOL    HW221015   0.026   2.051   1.637
 6706SOL     OW21016   1.298   4.285   0.439
 6706SOL    HW121017   1.365   4.336   0.384
 6706SOL    HW221018   1.260   4.345   0.509
 6707SOL     OW21019   6.083   5.979   4.803
 6707SOL    HW121020   6.169   5.955   4.759
 6707SOL    HW221021   6.010   5.980   4.734
 6708SOL     OW21022   1.810   5.973   2.497
 6708SOL    HW121023   1.716   5.959   2.527
 6708SOL    HW221024   1.865   5.894   2.524
 6709SOL     OW21025   3.664   6.205   1.360
 6709SOL    HW121026   3.720   6.283   1.386
 6709SOL    HW221027   3.569   6.235   1.346
 6710SOL     OW21028   2.031   1.815   5.702
 6710SOL    HW121029   2.112   1.831   5.645
 6710SOL    HW221030   2.059   1.771   5.788
 6711SOL     OW21031   5.803   4.127   6.501
 6711SOL    HW121032   5.760   4.154   6.414
 6711SOL    HW221033   5.789   4.030   6.516
 6712SOL     OW21034   3.866   5.441   0.225
 6712SOL    HW121035   3.836   5.465   0.317
 6712SOL    HW221036   3.963   5.415   0.227
 6713SOL     OW21037   2.652   1.659   1.771
 6713SOL    HW121038   2.589   1.734   1.789
 6713SOL    HW221039   2.743   1.683   1.804
 6714SOL     OW21040   5.286   0.141   5.323
 6714SOL    HW121041   5.362   0.201   5.346
 6714SOL    HW221042   5.209   0.195   5.290
 6715SOL     OW21043   0.287   0.825   6.836
 6715SOL    HW121044   0.319   0.750   6.894
 6715SOL    HW221045   0.364   0.882   6.809
 6716SOL     OW21046   1.492   6.460   1.176
 6716SOL    HW121047   1.453   6.373   1.143
 6716SOL    HW221048   1.425   6.506   1.235
 6717SOL     OW21049   4.049   2.987   0.508
 6717SOL    HW121050   4.003   3.017   0.591
 6717SOL    HW221051   4.013   2.898   0.480
 6718SOL     OW21052   3.976   5.801   6.600
 6718SOL    HW121053   3.959   5.741   6.522
 6718SOL    HW221054   3.900   5.865   6.610
 6719SOL     OW21055   0.135   6.965   6.112
 6719SOL    HW121056   0.218   7.018   6.097
 6719SOL    HW221057   0.085   6.955   6.026
 6720SOL     OW21058   2.276   6.070   1.802
 6720SOL    HW121059   2.236   6.138   1.740
 6720SOL    HW221060   2.240   5.980   1.781
 6721SOL     OW21061   5.376   6.308   4.426
 6721SOL    HW121062   5.281   6.293   4.452
 6721SOL    HW221063   5.397   6.405   4.431
 6722SOL     OW21064   4.932   3.280   1.059
 6722SOL    HW121065   4.984   3.228   1.126
 6722SOL    HW221066   4.882   3.217   0.999
 6723SOL     OW21067   1.931   0.048   3.031
 6723SOL    HW121068   1.979   0.028   3.117
 6723SOL    HW221069   1.938   6.990   2.970
 6724SOL     OW21070   2.121   4.240   6.100
 6724SOL    HW121071   2.053   4.220   6.030
 6724SOL    HW221072   2.090   4.204   6.188
 6725SOL     OW21073   1.208   4.488   2.563
 6725SOL    HW121074   1.128   4.493   2.503
 6725SOL    HW221075   1.183   4.518   2.655
 6726SOL     OW21076   1.490   2.885   5.039
 6726SOL    HW121077   1.457   2.880   4.945
 6726SOL    HW221078   1.580   2.929   5.041
 6727SOL     OW21079   5.549   3.701   6.355
 6727SOL    HW121080   5.588   3.624   6.304
 6727SOL    HW221081   5.481   3.667   6.420
 6728SOL     OW21082   3.865   1.675   4.470
 6728SOL    HW121083   3.799   1.738   4.510
 6728SOL    HW221084   3.849   1.666   4.371
 6729SOL     OW21085   6.404   1.332   2.135
 6729SOL    HW121086   6.414   1.235   2.158
 6729SOL    HW221087   6.485   1.382   2.167
 6730SOL     OW21088   2.336   0.003   0.049
 6730SOL    HW121089   2.291   0.029   6.985
 6730SOL    HW221090   2.334   0.081   0.113
 6731SOL     OW21091   2.848   4.371   1.334
 6731SOL    HW121092   2.813   4.285   1.373
 6731SOL    HW221093   2.887   4.353   1.244
 6732SOL     OW21094   2.723   5.896   0.303
 6732SOL    HW121095   2.809   5.875   0.257
 6732SOL    HW221096   2.654   5.918   0.235
 6733SOL     OW21097   4.619   5.694   6.197
 6733SOL    HW121098   4.699   5.754   6.204
 6733SOL    HW221099   4.541   5.748   6.165
 6734SOL     OW21100   1.083   3.402   5.708
 6734SOL    HW121101   1.087   3.453   5.795
 6734SOL    HW221102   1.176   3.381   5.677
 6735SOL     OW21103   0.211   5.116   5.261
 6735SOL    HW121104   0.290   5.090   5.315
 6735SOL    HW221105   0.207   5.060   5.179
 6736SOL     OW21106   2.402   3.392   0.933
 6736SOL    HW121107   2.371   3.449   1.009
 6736SOL    HW221108   2.437   3.306   0.968
 6737SOL     OW21109   2.285   1.247   2.005
 6737SOL    HW121110   2.220   1.305   2.054
 6737SOL    HW221111   2.301   1.284   1.914
 6738SOL     OW21112   2.540   1.934   2.443
 6738SOL    HW121113   2.467   1.893   2.387
 6738SOL    HW221114   2.593   1.862   2.487
 6739SOL     OW21115   3.329   5.215   5.266
 6739SOL    HW121116   3.360   5.210   5.171
 6739SOL    HW221117   3.267   5.294   5.276
 6740SOL     OW21118   1.655   1.203   4.160
 6740SOL    HW121119   1.653   1.295   4.198
 6740SOL    HW221120   1.708   1.143   4.220
 6741SOL     OW21121   5.035   1.570   6.044
 6741SOL    HW121122   5.115   1.629   6.030
 6741SOL    HW221123   5.050   1.514   6.125
 6742SOL     OW21124   0.438   5.752   4.576
 6742SOL    HW121125   0.419   5.770   4.672
 6742SOL    HW221126   0.523   5.796   4.549
 6743SOL     OW21127   4.120   3.177   6.907
 6743SOL    HW121128   4.067   3.225   6.838
 6743SOL    HW221129   4.174   3.105   6.864
 6744SOL     OW21130   3.657   4.776   5.998
 6744SOL    HW121131   3.684   4.792   6.093
 6744SOL    HW221132   3.569   4.728   5.995
 6745SOL     OW21133   1.164   5.164   2.983
 6745SOL    HW121134   1.230   5.219   2.933
 6745SOL    HW221135   1.085   5.220   3.007
 6746SOL     OW21136   0.656   0.995   1.363
 6746SOL    HW121137   0.607   1.069   1.409
 6746SOL    HW221138   0.595   0.951   1.296
 6747SOL     OW21139   5.562   6.572   4.076
 6747SOL    HW121140   5.651   6.548   4.117
 6747SOL    HW221141   5.573   6.581   3.977
 6748SOL     OW21142   0.646   0.860   2.365
 6748SOL    HW121143   0.687   0.949   2.345
 6748SOL    HW221144   0.633   0.809   2.280
 6749SOL     OW21145   3.389   0.140   0.129
 6749SOL    HW121146   3.394   0.151   0.030
 6749SOL    HW221147   3.417   0.226   0.173
 6750SOL     OW21148   2.518   1.928   4.086
 6750SOL    HW121149   2.481   1.845   4.043
 6750SOL    HW221150   2.493   1.930   4.182
 6751SOL     OW21151   2.944   2.192   3.660
 6751SOL    HW121152   2.910   2.099   3.672
 6751SOL    HW221153   2.900   2.253   3.726
 6752SOL     OW21154   6.094   2.657   1.215
 6752SOL    HW121155   6.090   2.589   1.289
 6752SOL    HW221156   6.059   2.744   1.248
 6753SOL     OW21157   4.162   1.692   6.096
 6753SOL    HW121158   4.089   1.639   6.052
 6753SOL    HW221159   4.125   1.742   6.174
 6754SOL     OW21160   6.398   1.802   6.013
 6754SOL    HW121161   6.494   1.793   6.037
 6754SOL    HW221162   6.359   1.711   5.997
 6755SOL     OW21163   5.550   1.701   3.335
 6755SOL    HW121164   5.634   1.708   3.282
 6755SOL    HW221165   5.471   1.709   3.274
 6756SOL     OW21166   4.564   4.457   4.527
 6756SOL    HW121167   4.653   4.499   4.512
 6756SOL    HW221168   4.549   4.446   4.626
 6757SOL     OW21169   4.809   6.066   0.810
 6757SOL    HW121170   4.736   6.050   0.744
 6757SOL    HW221171   4.791   6.150   0.860
 6758SOL     OW21172   5.135   3.440   2.020
 6758SOL    HW121173   5.133   3.343   1.994
 6758SOL    HW221174   5.042   3.475   2.026
 6759SOL     OW21175   1.671   4.642   2.997
 6759SOL    HW121176   1.638   4.736   2.990
 6759SOL    HW221177   1.702   4.624   3.090
 6760SOL     OW21178   0.603   4.979   4.544
 6760SOL    HW121179   0.587   4.985   4.446
 6760SOL    HW221180   0.559   5.056   4.590
 6761SOL     OW21181   5.236   3.064   5.607
 6761SOL    HW121182   5.201   3.033   5.518
 6761SOL    HW221183   5.333   3.086   5.599
 6762SOL     OW21184   6.515   5.336   3.787
 6762SOL    HW121185   6.506   5.408   3.718
 6762SOL    HW221186   6.588   5.360   3.850
 6763SOL     OW21187   5.875   6.474   5.293
 6763SOL    HW121188   5.971   6.497   5.273
 6763SOL    HW221189   5.818   6.494   5.213
 6764SOL     OW21190   2.994   3.943   6.545
 6764SOL    HW121191   2.989   3.882   6.624
 6764SOL    HW221192   3.089   3.956   6.518
 6765SOL     OW21193   6.716   4.700   3.131
 6765SOL    HW121194   6.777   4.770   3.167
 6765SOL    HW221195   6.632   4.743   3.096
 6766SOL     OW21196   1.735   0.811   5.720
 6766SOL    HW121197   1.815   0.786   5.665
 6766SOL    HW221198   1.656   0.823   5.661
 6767SOL     OW21199   0.099   2.608   0.182
 6767SOL    HW121200   0.111   2.685   0.246
 6767SOL    HW221201   0.003   2.584   0.177
 6768SOL     OW21202   0.971   0.331   3.798
 6768SOL    HW121203   1.070   0.328   3.786
 6768SOL    HW221204   0.933   0.404   3.742
 6769SOL     OW21205   2.579   2.203   5.414
 6769SOL    HW121206   2.574   2.179   5.317
 6769SOL    HW221207   2.650   2.272   5.427
 6770SOL     OW21208   0.070   2.051   3.228
 6770SOL    HW121209   7.022   2.121   3.216
 6770SOL    HW221210   0.027   1.966   3.260
 6771SOL     OW21211   3.674   2.097   3.339
 6771SOL    HW121212   3.740   2.077   3.411
 6771SOL    HW221213   3.723   2.130   3.258
 6772SOL     OW21214   6.218   1.783   2.641
 6772SOL    HW121215   6.246   1.833   2.722
 6772SOL    HW221216   6.223   1.842   2.561
 6773SOL     OW21217   0.074   6.131   1.631
 6773SOL    HW121218   0.154   6.127   1.572
 6773SOL    HW221219   7.012   6.123   1.576
 6774SOL     OW21220   1.891   2.100   5.139
 6774SOL    HW121221   1.853   2.092   5.231
 6774SOL    HW221222   1.918   2.195   5.123
 6775SOL     OW21223   0.560   1.724   4.915
 6775SOL    HW121224   0.561   1.823   4.902
 6775SOL    HW221225   0.471   1.697   4.954
 6776SOL     OW21226   3.893   4.180   1.590
 6776SOL    HW121227   3.888   4.279   1.601
 6776SOL    HW221228   3.801   4.141   1.590
 6777SOL     OW21229   4.900   5.790   1.322
 6777SOL    HW121230   4.936   5.702   1.293
 6777SOL    HW221231   4.864   5.783   1.415
 6778SOL     OW21232   6.391   3.966   2.386
 6778SOL    HW121233   6.444   3.914   2.318
 6778SOL    HW221234   6.450   3.989   2.463
 6779SOL     OW21235   5.719   4.315   5.979
 6779SOL    HW121236   5.666   4.234   5.958
 6779SOL    HW221237   5.814   4.302   5.948
 6780SOL     OW21238   2.754   2.273   2.799
 6780SOL    HW121239   2.695   2.340   2.756
 6780SOL    HW221240   2.793   2.212   2.729
 6781SOL     OW21241   6.563   0.965   4.364
 6781SOL    HW121242   6.544   0.868   4.351
 6781SOL    HW221243   6.483   1.010   4.404
 6782SOL     OW21244   6.502   1.677   3.775
 6782SOL    HW121245   6.462   1.747   3.716
 6782SOL    HW221246   6.450   1.592   3.767
 6783SOL     OW21247   1.316   5.096   4.906
 6783SOL    HW121248   1.339   5.141   4.820
 6783SOL    HW221249   1.272   5.008   4.886
 6784SOL     OW21250   1.605   3.333   1.543
 6784SOL    HW121251   1.692   3.375   1.516
 6784SOL    HW221252   1.615   3.234   1.546
 6785SOL     OW21253   5.484   4.829   4.688
 6785SOL    HW121254   5.423   4.889   4.636
 6785SOL    HW221255   5.560   4.801   4.630
 6786SOL     OW21256   6.786   2.251   0.330
 6786SOL    HW121257   6.750   2.322   0.389
 6786SOL    HW221258   6.886   2.252   0.334
 6787SOL     OW21259   3.516   2.072   6.802
 6787SOL    HW121260   3.503   2.159   6.756
 6787SOL    HW221261   3.481   1.998   6.745
 6788SOL     OW21262   0.386   4.134   3.785
 6788SOL    HW121263   0.318   4.197   3.824
 6788SOL    HW221264   0.434   4.180   3.710
 6789SOL     OW21265   6.465   3.957   3.867
 6789SOL    HW121266   6.427   4.019   3.798
 6789SOL    HW221267   6.561   3.940   3.847
 6790SOL     OW21268   0.833   4.792   5.715
 6790SOL    HW121269   0.766   4.757   5.781
 6790SOL    HW221270   0.915   4.735   5.717
 6791SOL     OW21271   4.097   0.859   3.966
 6791SOL    HW121272   4.061   0.951   3.947
 6791SOL    HW221273   4.166   0.836   3.898
 6792SOL     OW21274   4.279   0.229   5.500
 6792SOL    HW121275   4.250   0.154   5.560
 6792SOL    HW221276   4.249   0.210   5.407
 6793SOL     OW21277   2.389   3.408   0.433
 6793SOL    HW121278   2.312   3.441   0.379
 6793SOL    HW221279   2.393   3.457   0.520
 6794SOL     OW21280   4.729   1.345   6.146
 6794SOL    HW121281   4.797   1.288   6.100
 6794SOL    HW221282   4.748   1.347   6.244
 6795SOL     OW21283   0.928   0.741   1.168
 6795SOL    HW121284   0.892   0.834   1.155
 6795SOL    HW221285   0.985   0.739   1.250
 6796SOL     OW21286   5.784   1.359   2.796
 6796SOL    HW121287   5.843   1.370   2.876
 6796SOL    HW221288   5.756   1.448   2.762
 6797SOL     OW21289   0.420   2.388   1.705
 6797SOL    HW121290   0.432   2.359   1.610
 6797SOL    HW221291   0.457   2.318   1.766
 6798SOL     OW21292   5.341   0.490   1.891
 6798SOL    HW121293   5.364   0.520   1.984
 6798SOL    HW221294   5.278   0.413   1.896
 6799SOL     OW21295   5.085   0.704   3.654
 6799SOL    HW121296   5.152   0.631   3.641
 6799SOL    HW221297   5.073   0.754   3.569
 6800SOL     OW21298   0.028   1.713   1.130
 6800SOL    HW121299   0.053   1.768   1.210
 6800SOL    HW221300   0.023   1.616   1.156
 6801SOL     OW21301   0.970   5.752   5.712
 6801SOL    HW121302   0.899   5.816   5.683
 6801SOL    HW221303   0.974   5.675   5.648
 6802SOL     OW21304   3.203   5.067   1.396
 6802SOL    HW121305   3.179   5.114   1.481
 6802SOL    HW221306   3.139   5.096   1.324
 6803SOL     OW21307   5.034   4.521   6.137
 6803SOL    HW121308   5.045   4.615   6.106
 6803SOL    HW221309   4.985   4.468   6.067
 6804SOL     OW21310   3.192   4.973   3.002
 6804SOL    HW121311   3.125   4.918   3.052
 6804SOL    HW221312   3.163   4.982   2.906
 6805SOL     OW21313   6.970   4.130   5.626
 6805SOL    HW121314   6.961   4.188   5.545
 6805SOL    HW221315   7.018   4.046   5.602
 6806SOL     OW21316   6.777   1.155   3.276
 6806SOL    HW121317   6.864   1.144   3.323
 6806SOL    HW221318   6.784   1.117   3.184
 6807SOL     OW21319   3.789   3.753   1.781
 6807SOL    HW121320   3.828   3.744   1.690
 6807SOL    HW221321   3.835   3.690   1.844
 6808SOL     OW21322   3.810   1.153   4.504
 6808SOL    HW121323   3.809   1.128   4.407
 6808SOL    HW221324   3.795   1.252   4.514
 6809SOL     OW21325   5.389   3.693   2.309
 6809SOL    HW121326   5.403   3.634   2.230
 6809SOL    HW221327   5.318   3.760   2.289
 6810SOL     OW21328   2.683   1.086   4.367
 6810SOL    HW121329   2.703   1.030   4.286
 6810SOL    HW221330   2.769   1.117   4.408
 6811SOL     OW21331   6.602   1.512   1.912
 6811SOL    HW121332   6.531   1.582   1.918
 6811SOL    HW221333   6.637   1.491   2.003
 6812SOL     OW21334   2.922   4.011   5.160
 6812SOL    HW121335   2.932   4.062   5.075
 6812SOL    HW221336   2.942   4.071   5.237
 6813SOL     OW21337   5.922   3.935   2.011
 6813SOL    HW121338   5.868   4.018   1.998
 6813SOL    HW221339   6.000   3.954   2.070
 6814SOL     OW21340   5.147   1.288   6.448
 6814SOL    HW121341   5.239   1.274   6.484
 6814SOL    HW221342   5.079   1.261   6.517
 6815SOL     OW21343   2.229   4.741   6.347
 6815SOL    HW121344   2.208   4.671   6.415
 6815SOL    HW221345   2.315   4.718   6.302
 6816SOL     OW21346   0.595   1.545   3.571
 6816SOL    HW121347   0.685   1.588   3.562
 6816SOL    HW221348   0.531   1.611   3.612
 6817SOL     OW21349   3.714   1.964   1.991
 6817SOL    HW121350   3.689   1.942   2.085
 6817SOL    HW221351   3.718   2.064   1.980
 6818SOL     OW21352   1.866   6.570   6.070
 6818SOL    HW121353   1.870   6.670   6.075
 6818SOL    HW221354   1.773   6.541   6.047
 6819SOL     OW21355   4.516   4.498   2.194
 6819SOL    HW121356   4.546   4.589   2.167
 6819SOL    HW221357   4.488   4.447   2.114
 6820SOL     OW21358   3.041   5.977   1.353
 6820SOL    HW121359   2.955   6.028   1.356
 6820SOL    HW221360   3.073   5.971   1.258
 6821SOL     OW21361   4.184   2.944   5.765
 6821SOL    HW121362   4.085   2.957   5.762
 6821SOL    HW221363   4.228   3.033   5.779
 6822SOL     OW21364   0.117   2.506   6.249
 6822SOL    HW121365   0.081   2.555   6.170
 6822SOL    HW221366   0.088   2.552   6.333
 6823SOL     OW21367   5.905   3.441   6.732
 6823SOL    HW121368   5.984   3.380   6.728
 6823SOL    HW221369   5.837   3.414   6.665
 6824SOL     OW21370   0.631   2.671   6.295
 6824SOL    HW121371   0.677   2.660   6.383
 6824SOL    HW221372   0.672   2.608   6.228
 6825SOL     OW21373   6.033   5.610   2.055
 6825SOL    HW121374   6.117   5.570   2.016
 6825SOL    HW221375   5.954   5.559   2.021
 6826SOL     OW21376   0.353   3.895   3.382
 6826SOL    HW121377   0.361   3.874   3.284
 6826SOL    HW221378   0.427   3.957   3.409
 6827SOL     OW21379   4.791   5.785   4.990
 6827SOL    HW121380   4.843   5.818   5.069
 6827SOL    HW221381   4.811   5.688   4.976
 6828SOL     OW21382   3.198   1.408   2.310
 6828SOL    HW121383   3.154   1.489   2.272
 6828SOL    HW221384   3.294   1.406   2.282
 6829SOL     OW21385   4.996   6.862   4.483
 6829SOL    HW121386   5.072   6.833   4.424
 6829SOL    HW221387   4.976   6.790   4.549
 6830SOL     OW21388   5.214   0.070   3.056
 6830SOL    HW121389   5.141   0.031   3.112
 6830SOL    HW221390   5.223   0.168   3.077
 6831SOL     OW21391   1.185   1.531   6.606
 6831SOL    HW121392   1.131   1.587   6.668
 6831SOL    HW221393   1.135   1.517   6.521
 6832SOL     OW21394   2.802   2.240   0.469
 6832SOL    HW121395   2.704   2.224   0.464
 6832SOL    HW221396   2.837   2.202   0.555
 6833SOL     OW21397   3.018   5.067   6.049
 6833SOL    HW121398   2.942   5.119   6.008
 6833SOL    HW221399   3.039   4.989   5.990
 6834SOL     OW21400   5.445   0.377   0.746
 6834SOL    HW121401   5.399   0.303   0.697
 6834SOL    HW221402   5.395   0.399   0.829
 6835SOL     OW21403   2.598   2.068   4.527
 6835SOL    HW121404   2.530   2.132   4.562
 6835SOL    HW221405   2.589   1.980   4.575
 6836SOL     OW21406   1.971   4.852   6.336
 6836SOL    HW121407   2.066   4.822   6.324
 6836SOL    HW221408   1.910   4.778   6.306
 6837SOL     OW21409   0.473   0.278   1.872
 6837SOL    HW121410   0.436   0.208   1.934
 6837SOL    HW221411   0.436   0.264   1.780
 6838SOL     OW21412   2.634   4.450   5.310
 6838SOL    HW121413   2.598   4.357   5.299
 6838SOL    HW221414   2.733   4.449   5.295
 6839SOL     OW21415   5.642   2.665   3.987
 6839SOL    HW121416   5.649   2.654   3.888
 6839SOL    HW221417   5.570   2.606   4.023
 6840SOL     OW21418   2.860   6.816   5.105
 6840SOL    HW121419   2.948   6.825   5.058
 6840SOL    HW221420   2.862   6.735   5.163
 6841SOL     OW21421   4.427   5.923   1.457
 6841SOL    HW121422   4.370   5.877   1.525
 6841SOL    HW221423   4.429   6.022   1.476
 6842SOL     OW21424   0.459   4.235   6.781
 6842SOL    HW121425   0.410   4.268   6.700
 6842SOL    HW221426   0.426   4.143   6.804
 6843SOL     OW21427   3.354   1.822   2.038
 6843SOL    HW121428   3.376   1.794   1.944
 6843SOL    HW221429   3.439   1.835   2.089
 6844SOL     OW21430   4.986   5.175   4.118
 6844SOL    HW121431   4.927   5.170   4.037
 6844SOL    HW221432   5.082   5.171   4.089
 6845SOL     OW21433   4.687   4.734   1.878
 6845SOL    HW121434   4.623   4.739   1.955
 6845SOL    HW221435   4.738   4.820   1.871
 6846SOL     OW21436   3.691   2.996   2.465
 6846SOL    HW121437   3.645   3.085   2.471
 6846SOL    HW221438   3.777   3.007   2.415
 6847SOL     OW21439   5.391   3.510   1.861
 6847SOL    HW121440   5.353   3.596   1.826
 6847SOL    HW221441   5.380   3.507   1.961
 6848SOL     OW21442   1.023   5.884   3.669
 6848SOL    HW121443   0.968   5.813   3.626
 6848SOL    HW221444   1.080   5.844   3.741
 6849SOL     OW21445   3.890   5.971   3.964
 6849SOL    HW121446   3.990   5.982   3.969
 6849SOL    HW221447   3.847   6.061   3.960
 6850SOL     OW21448   5.332   3.069   2.759
 6850SOL    HW121449   5.246   3.018   2.768
 6850SOL    HW221450   5.395   3.017   2.701
 6851SOL     OW21451   1.580   5.064   5.570
 6851SOL    HW121452   1.574   5.010   5.653
 6851SOL    HW221453   1.634   5.147   5.587
 6852SOL     OW21454   1.486   4.564   1.871
 6852SOL    HW121455   1.532   4.594   1.788
 6852SOL    HW221456   1.398   4.609   1.879
 6853SOL     OW21457   0.632   4.393   5.599
 6853SOL    HW121458   0.721   4.348   5.596
 6853SOL    HW221459   0.625   4.457   5.522
 6854SOL     OW21460   7.017   2.914   6.272
 6854SOL    HW121461   6.930   2.927   6.225
 6854SOL    HW221462   0.010   2.817   6.290
 6855SOL     OW21463   3.118   6.988   2.103
 6855SOL    HW121464   3.132   0.065   2.113
 6855SOL    HW221465   3.021   6.967   2.104
 6856SOL     OW21466   6.398   3.374   4.668
 6856SOL    HW121467   6.358   3.436   4.600
 6856SOL    HW221468   6.329   3.350   4.736
 6857SOL     OW21469   2.807   2.351   6.464
 6857SOL    HW121470   2.856   2.368   6.549
 6857SOL    HW221471   2.773   2.257   6.463
 6858SOL     OW21472   4.073   3.481   4.849
 6858SOL    HW121473   4.100   3.410   4.914
 6858SOL    HW221474   4.066   3.441   4.757
 6859SOL     OW21475   2.955   6.912   0.762
 6859SOL    HW121476   2.926   6.865   0.678
 6859SOL    HW221477   2.885   6.900   0.832
 6860SOL     OW21478   5.801   4.566   0.810
 6860SOL    HW121479   5.787   4.598   0.904
 6860SOL    HW221480   5.895   4.535   0.799
 6861SOL     OW21481   5.739   5.592   7.009
 6861SOL    HW121482   5.727   5.514   0.049
 6861SOL    HW221483   5.783   5.562   6.925
 6862SOL     OW21484   3.420   5.355   4.644
 6862SOL    HW121485   3.341   5.338   4.703
 6862SOL    HW221486   3.389   5.373   4.551
 6863SOL     OW21487   5.775   1.507   3.930
 6863SOL    HW121488   5.699   1.529   3.870
 6863SOL    HW221489   5.842   1.581   3.927
 6864SOL     OW21490   2.710   6.160   3.669
 6864SOL    HW121491   2.693   6.214   3.587
 6864SOL    HW221492   2.808   6.146   3.680
 6865SOL     OW21493   6.762   4.415   4.379
 6865SOL    HW121494   6.754   4.489   4.312
 6865SOL    HW221495   6.752   4.327   4.334
 6866SOL     OW21496   6.541   3.652   2.018
 6866SOL    HW121497   6.588   3.565   2.032
 6866SOL    HW221498   6.448   3.635   1.986
 6867SOL     OW21499   2.171   4.140   2.317
 6867SOL    HW121500   2.125   4.207   2.374
 6867SOL    HW221501   2.246   4.185   2.267
 6868SOL     OW21502   2.170   6.140   4.923
 6868SOL    HW121503   2.206   6.233   4.938
 6868SOL    HW221504   2.087   6.145   4.868
 6869SOL     OW21505   5.148   1.934   5.886
 6869SOL    HW121506   5.187   1.853   5.930
 6869SOL    HW221507   5.053   1.945   5.915
 6870SOL     OW21508   5.478   3.923   3.313
 6870SOL    HW121509   5.490   3.886   3.221
 6870SOL    HW221510   5.384   3.906   3.344
 6871SOL     OW21511   5.596   5.536   1.258
 6871SOL    HW121512   5.666   5.464   1.252
 6871SOL    HW221513   5.590   5.568   1.353
 6872SOL     OW21514   2.218   3.147   0.678
 6872SOL    HW121515   2.313   3.137   0.649
 6872SOL    HW221516   2.207   3.233   0.728
 6873SOL     OW21517   6.174   3.262   6.191
 6873SOL    HW121518   6.243   3.242   6.261
 6873SOL    HW221519   6.203   3.224   6.103
 6874SOL     OW21520   0.250   2.789   3.830
 6874SOL    HW121521   0.324   2.723   3.844
 6874SOL    HW221522   0.227   2.793   3.733
 6875SOL     OW21523   1.362   1.247   2.631
 6875SOL    HW121524   1.336   1.167   2.685
 6875SOL    HW221525   1.451   1.231   2.588
 6876SOL     OW21526   3.648   5.673   0.266
 6876SOL    HW121527   3.628   5.578   0.290
 6876SOL    HW221528   3.744   5.693   0.285
 6877SOL     OW21529   2.330   3.676   0.379
 6877SOL    HW121530   2.317   3.737   0.458
 6877SOL    HW221531   2.425   3.684   0.348
 6878SOL     OW21532   2.138   1.609   4.688
 6878SOL    HW121533   2.121   1.540   4.759
 6878SOL    HW221534   2.051   1.646   4.655
 6879SOL     OW21535   0.601   2.210   0.141
 6879SOL    HW121536   0.694   2.175   0.129
 6879SOL    HW221537   0.604   2.307   0.164
 6880SOL     OW21538   2.017   4.289   5.172
 6880SOL    HW121539   2.115   4.304   5.176
 6880SOL    HW221540   1.996   4.218   5.105
 6881SOL     OW21541   0.661   4.609   1.223
 6881SOL    HW121542   0.705   4.547   1.288
 6881SOL    HW221543   0.616   4.557   1.151
 6882SOL     OW21544   2.092   0.938   5.493
 6882SOL    HW121545   2.031   1.002   5.445
 6882SOL    HW221546   2.158   0.900   5.428
 6883SOL     OW21547   4.183   0.456   1.294
 6883SOL    HW121548   4.111   0.503   1.345
 6883SOL    HW221549   4.152   0.438   1.201
 6884SOL     OW21550   2.406   4.658   4.703
 6884SOL    HW121551   2.492   4.701   4.732
 6884SOL    HW221552   2.421   4.559   4.692
 6885SOL     OW21553   3.193   6.108   4.196
 6885SOL    HW121554   3.094   6.093   4.193
 6885SOL    HW221555   3.229   6.111   4.102
 6886SOL     OW21556   5.292   1.357   2.494
 6886SOL    HW121557   5.221   1.342   2.564
 6886SOL    HW221558   5.382   1.352   2.537
 6887SOL     OW21559   5.690   0.596   4.995
 6887SOL    HW121560   5.714   0.544   4.913
 6887SOL    HW221561   5.655   0.685   4.969
 6888SOL     OW21562   6.212   0.189   4.995
 6888SOL    HW121563   6.238   0.255   5.065
 6888SOL    HW221564   6.268   0.107   5.004
 6889SOL     OW21565   1.415   3.840   6.426
 6889SOL    HW121566   1.405   3.775   6.502
 6889SOL    HW221567   1.489   3.904   6.446
 6890SOL     OW21568   2.258   6.798   1.263
 6890SOL    HW121569   2.229   6.718   1.212
 6890SOL    HW221570   2.319   6.771   1.338
 6891SOL     OW21571   2.067   3.668   4.004
 6891SOL    HW121572   1.972   3.646   4.027
 6891SOL    HW221573   2.099   3.742   4.063
 6892SOL     OW21574   3.689   0.218   4.143
 6892SOL    HW121575   3.704   0.195   4.047
 6892SOL    HW221576   3.602   0.267   4.152
 6893SOL     OW21577   5.373   5.971   3.470
 6893SOL    HW121578   5.299   6.036   3.455
 6893SOL    HW221579   5.419   5.992   3.556
 6894SOL     OW21580   5.884   5.767   0.473
 6894SOL    HW121581   5.809   5.707   0.501
 6894SOL    HW221582   5.888   5.846   0.535
 6895SOL     OW21583   3.042   3.698   0.245
 6895SOL    HW121584   2.943   3.685   0.240
 6895SOL    HW221585   3.088   3.612   0.228
 6896SOL     OW21586   3.731   0.485   3.401
 6896SOL    HW121587   3.819   0.523   3.429
 6896SOL    HW221588   3.707   0.522   3.311
 6897SOL     OW21589   3.124   3.443   0.216
 6897SOL    HW121590   3.171   3.404   0.295
 6897SOL    HW221591   3.048   3.384   0.190
 6898SOL     OW21592   4.101   1.307   1.582
 6898SOL    HW121593   4.077   1.360   1.501
 6898SOL    HW221594   4.151   1.225   1.555
 6899SOL     OW21595   4.860   6.768   5.986
 6899SOL    HW121596   4.829   6.829   6.060
 6899SOL    HW221597   4.798   6.778   5.908
 6900SOL     OW21598   5.608   0.577   6.246
 6900SOL    HW121599   5.609   0.503   6.314
 6900SOL    HW221600   5.568   0.544   6.161
 6901SOL     OW21601   1.820   0.600   6.267
 6901SOL    HW121602   1.825   0.612   6.366
 6901SOL    HW221603   1.773   0.514   6.246
 6902SOL     OW21604   0.834   6.480   7.000
 6902SOL    HW121605   0.835   6.569   0.024
 6902SOL    HW221606   0.893   6.483   6.920
 6903SOL     OW21607   3.873   4.436   0.551
 6903SOL    HW121608   3.773   4.446   0.551
 6903SOL    HW221609   3.897   4.345   0.586
 6904SOL     OW21610   6.016   0.500   4.003
 6904SOL    HW121611   5.990   0.590   3.968
 6904SOL    HW221612   6.011   0.433   3.930
 6905SOL     OW21613   5.880   6.550   0.682
 6905SOL    HW121614   5.860   6.537   0.585
 6905SOL    HW221615   5.961   6.607   0.692
 6906SOL     OW21616   3.620   0.615   3.619
 6906SOL    HW121617   3.687   0.689   3.621
 6906SOL    HW221618   3.642   0.551   3.545
 6907SOL     OW21619   3.739   0.676   1.579
 6907SOL    HW121620   3.663   0.648   1.521
 6907SOL    HW221621   3.709   0.680   1.674
 6908SOL     OW21622   1.382   6.380   5.418
 6908SOL    HW121623   1.301   6.322   5.412
 6908SOL    HW221624   1.423   6.371   5.509
 6909SOL     OW21625   5.179   4.551   0.596
 6909SOL    HW121626   5.085   4.526   0.620
 6909SOL    HW221627   5.237   4.470   0.602
 6910SOL     OW21628   6.503   1.789   1.854
 6910SOL    HW121629   6.594   1.830   1.857
 6910SOL    HW221630   6.471   1.787   1.759
 6911SOL     OW21631   4.121   0.146   4.210
 6911SOL    HW121632   4.141   0.243   4.225
 6911SOL    HW221633   4.186   0.091   4.262
 6912SOL     OW21634   4.975   4.768   0.768
 6912SOL    HW121635   5.073   4.768   0.789
 6912SOL    HW221636   4.941   4.862   0.767
 6913SOL     OW21637   5.055   4.773   4.553
 6913SOL    HW121638   5.003   4.851   4.587
 6913SOL    HW221639   5.003   4.688   4.569
 6914SOL     OW21640   6.022   5.208   0.013
 6914SOL    HW121641   6.111   5.249   0.030
 6914SOL    HW221642   5.999   5.216   6.938
 6915SOL     OW21643   0.414   4.598   2.772
 6915SOL    HW121644   0.352   4.608   2.850
 6915SOL    HW221645   0.509   4.602   2.804
 6916SOL     OW21646   6.212   4.006   6.884
 6916SOL    HW121647   6.297   4.049   6.914
 6916SOL    HW221648   6.200   3.918   6.932
 6917SOL     OW21649   4.495   6.592   6.073
 6917SOL    HW121650   4.460   6.567   5.983
 6917SOL    HW221651   4.558   6.521   6.104
 6918SOL     OW21652   0.336   3.921   3.927
 6918SOL    HW121653   0.401   3.851   3.899
 6918SOL    HW221654   0.359   4.008   3.882
 6919SOL     OW21655   2.191   6.425   2.394
 6919SOL    HW121656   2.194   6.437   2.493
 6919SOL    HW221657   2.270   6.470   2.353
 6920SOL     OW21658   5.450   5.421   4.740
 6920SOL    HW121659   5.442   5.412   4.839
 6920SOL    HW221660   5.402   5.345   4.696
 6921SOL     OW21661   6.417   6.581   3.678
 6921SOL    HW121662   6.451   6.489   3.659
 6921SOL    HW221663   6.405   6.631   3.593
 6922SOL     OW21664   2.642   6.106   0.615
 6922SOL    HW121665   2.704   6.183   0.631
 6922SOL    HW221666   2.689   6.036   0.561
 6923SOL     OW21667   4.475   0.118   3.950
 6923SOL    HW121668   4.490   0.178   4.029
 6923SOL    HW221669   4.490   0.169   3.865
 6924SOL     OW21670   0.591   5.044   0.578
 6924SOL    HW121671   0.627   4.977   0.513
 6924SOL    HW221672   0.565   5.127   0.529
 6925SOL     OW21673   4.391   6.447   3.327
 6925SOL    HW121674   4.335   6.392   3.264
 6925SOL    HW221675   4.477   6.399   3.345
 6926SOL     OW21676   3.797   3.932   3.756
 6926SOL    HW121677   3.710   3.882   3.762
 6926SOL    HW221678   3.815   3.956   3.661
 6927SOL     OW21679   5.253   3.524   6.797
 6927SOL    HW121680   5.158   3.553   6.807
 6927SOL    HW221681   5.265   3.433   6.835
 6928SOL     OW21682   4.833   0.487   6.561
 6928SOL    HW121683   4.854   0.565   6.502
 6928SOL    HW221684   4.896   0.486   6.639
 6929SOL     OW21685   3.959   6.000   6.978
 6929SOL    HW121686   3.969   6.093   6.941
 6929SOL    HW221687   3.871   5.962   6.949
 6930SOL     OW21688   0.946   6.777   1.875
 6930SOL    HW121689   0.940   6.680   1.899
 6930SOL    HW221690   0.924   6.832   1.955
 6931SOL     OW21691   1.002   6.899   1.603
 6931SOL    HW121692   0.982   6.844   1.685
 6931SOL    HW221693   0.918   6.937   1.566
 6932SOL     OW21694   2.820   0.975   0.134
 6932SOL    HW121695   2.812   0.924   0.048
 6932SOL    HW221696   2.839   1.071   0.114
 6933SOL     OW21697   3.934   5.648   5.681
 6933SOL    HW121698   3.926   5.549   5.682
 6933SOL    HW221699   3.987   5.677   5.601
 6934SOL     OW21700   5.024   2.731   0.233
 6934SOL    HW121701   4.941   2.718   0.179
 6934SOL    HW221702   5.021   2.671   0.313
 6935SOL     OW21703   4.165   6.176   3.761
 6935SOL    HW121704   4.255   6.186   3.804
 6935SOL    HW221705   4.105   6.122   3.821
 6936SOL     OW21706   0.565   2.746   1.595
 6936SOL    HW121707   0.596   2.804   1.520
 6936SOL    HW221708   0.634   2.675   1.611
 6937SOL     OW21709   4.249   6.590   5.646
 6937SOL    HW121710   4.291   6.661   5.702
 6937SOL    HW221711   4.151   6.585   5.666
 6938SOL     OW21712   4.856   3.373   5.514
 6938SOL    HW121713   4.931   3.307   5.528
 6938SOL    HW221714   4.825   3.407   5.603
 6939SOL     OW21715   0.246   4.455   2.150
 6939SOL    HW121716   0.333   4.446   2.199
 6939SOL    HW221717   0.239   4.547   2.111
 6940SOL     OW21718   4.668   0.438   6.132
 6940SOL    HW121719   4.688   0.394   6.044
 6940SOL    HW221720   4.674   0.537   6.122
 6941SOL     OW21721   3.115   3.011   2.665
 6941SOL    HW121722   3.049   2.991   2.593
 6941SOL    HW221723   3.207   3.015   2.625
 6942SOL     OW21724   6.808   3.152   0.593
 6942SOL    HW121725   6.817   3.251   0.580
 6942SOL    HW221726   6.769   3.133   0.683
 6943SOL     OW21727   5.293   6.365   6.265
 6943SOL    HW121728   5.371   6.317   6.304
 6943SOL    HW221729   5.208   6.324   6.298
 6944SOL     OW21730   1.161   5.432   5.974
 6944SOL    HW121731   1.085   5.411   5.912
 6944SOL    HW221732   1.152   5.525   6.007
 6945SOL     OW21733   6.506   3.054   6.109
 6945SOL    HW121734   6.444   3.063   6.188
 6945SOL    HW221735   6.598   3.035   6.142
 6946SOL     OW21736   5.787   4.365   2.837
 6946SOL    HW121737   5.740   4.451   2.852
 6946SOL    HW221738   5.721   4.290   2.832
 6947SOL     OW21739   3.524   6.922   2.594
 6947SOL    HW121740   3.556   7.007   2.551
 6947SOL    HW221741   3.598   6.883   2.649
 6948SOL     OW21742   4.828   0.363   0.421
 6948SOL    HW121743   4.845   0.359   0.323
 6948SOL    HW221744   4.852   0.276   0.463
 6949SOL     OW21745   5.147   6.735   2.930
 6949SOL    HW121746   5.246   6.720   2.923
 6949SOL    HW221747   5.126   6.828   2.898
 6950SOL     OW21748   2.217   0.726   3.129
 6950SOL    HW121749   2.212   0.763   3.036
 6950SOL    HW221750   2.192   0.629   3.127
 6951SOL     OW21751   6.491   6.306   5.820
 6951SOL    HW121752   6.394   6.313   5.844
 6951SOL    HW221753   6.532   6.229   5.870
 6952SOL     OW21754   0.612   5.549   4.008
 6952SOL    HW121755   0.700   5.522   4.048
 6952SOL    HW221756   0.612   5.526   3.911
 6953SOL     OW21757   4.910   1.135   6.274
 6953SOL    HW121758   4.965   1.148   6.192
 6953SOL    HW221759   4.883   1.224   6.310
 6954SOL     OW21760   7.016   2.981   4.248
 6954SOL    HW121761   0.059   2.972   4.172
 6954SOL    HW221762   6.923   2.968   4.214
 6955SOL     OW21763   0.314   6.025   1.495
 6955SOL    HW121764   0.403   6.068   1.486
 6955SOL    HW221765   0.322   5.927   1.475
 6956SOL     OW21766   4.673   5.600   2.007
 6956SOL    HW121767   4.762   5.562   2.035
 6956SOL    HW221768   4.610   5.526   1.988
 6957SOL     OW21769   6.715   4.630   1.600
 6957SOL    HW121770   6.641   4.563   1.601
 6957SOL    HW221771   6.764   4.627   1.687
 6958SOL     OW21772   2.101   2.553   6.199
 6958SOL    HW121773   2.183   2.497   6.196
 6958SOL    HW221774   2.126   2.650   6.201
 6959SOL     OW21775   3.341   1.559   4.815
 6959SOL    HW121776   3.303   1.469   4.838
 6959SOL    HW221777   3.375   1.602   4.898
 6960SOL     OW21778   0.067   5.135   0.282
 6960SOL    HW121779   0.118   5.075   0.344
 6960SOL    HW221780   0.054   5.088   0.194
 6961SOL     OW21781   1.026   1.900   3.407
 6961SOL    HW121782   1.098   1.896   3.476
 6961SOL    HW221783   1.061   1.865   3.320
 6962SOL     OW21784   5.079   5.267   2.282
 6962SOL    HW121785   5.175   5.242   2.287
 6962SOL    HW221786   5.056   5.326   2.360
 6963SOL     OW21787   0.424   4.989   1.709
 6963SOL    HW121788   0.440   4.905   1.656
 6963SOL    HW221789   0.422   5.067   1.647
 6964SOL     OW21790   4.776   5.308   5.408
 6964SOL    HW121791   4.743   5.401   5.389
 6964SOL    HW221792   4.700   5.243   5.397
 6965SOL     OW21793   6.677   3.496   6.299
 6965SOL    HW121794   6.604   3.505   6.367
 6965SOL    HW221795   6.643   3.443   6.222
 6966SOL     OW21796   5.092   2.920   2.761
 6966SOL    HW121797   5.081   2.895   2.664
 6966SOL    HW221798   5.007   2.901   2.810
 6967SOL     OW21799   1.110   2.261   6.278
 6967SOL    HW121800   1.129   2.247   6.376
 6967SOL    HW221801   1.192   2.239   6.225
 6968SOL     OW21802   4.655   5.618   0.967
 6968SOL    HW121803   4.742   5.655   1.000
 6968SOL    HW221804   4.636   5.531   1.012
 6969SOL     OW21805   3.613   1.171   1.401
 6969SOL    HW121806   3.699   1.215   1.375
 6969SOL    HW221807   3.618   1.073   1.382
 6970SOL     OW21808   3.845   4.712   0.589
 6970SOL    HW121809   3.899   4.646   0.641
 6970SOL    HW221810   3.808   4.667   0.507
 6971SOL     OW21811   6.150   2.587   1.770
 6971SOL    HW121812   6.245   2.615   1.751
 6971SOL    HW221813   6.134   2.495   1.734
 6972SOL     OW21814   5.482   4.380   3.723
 6972SOL    HW121815   5.577   4.391   3.749
 6972SOL    HW221816   5.424   4.432   3.786
 6973SOL     OW21817   1.643   5.176   4.658
 6973SOL    HW121818   1.698   5.199   4.739
 6973SOL    HW221819   1.690   5.209   4.576
 6974SOL     OW21820   3.855   4.045   3.511
 6974SOL    HW121821   3.931   4.028   3.448
 6974SOL    HW221822   3.768   4.035   3.462
 6975SOL     OW21823   3.367   0.497   5.898
 6975SOL    HW121824   3.345   0.497   5.800
 6975SOL    HW221825   3.328   0.415   5.941
 6976SOL     OW21826   2.853   4.568   6.522
 6976SOL    HW121827   2.804   4.643   6.477
 6976SOL    HW221828   2.841   4.484   6.470
 6977SOL     OW21829   3.817   1.456   2.302
 6977SOL    HW121830   3.868   1.518   2.362
 6977SOL    HW221831   3.739   1.419   2.352
 6978SOL     OW21832   6.906   0.697   2.096
 6978SOL    HW121833   6.838   0.675   2.166
 6978SOL    HW221834   6.888   0.644   2.014
 6979SOL     OW21835   1.374   4.745   2.431
 6979SOL    HW121836   1.341   4.651   2.441
 6979SOL    HW221837   1.313   4.807   2.481
 6980SOL     OW21838   2.401   1.132   3.338
 6980SOL    HW121839   2.441   1.112   3.427
 6980SOL    HW221840   2.462   1.098   3.266
 6981SOL     OW21841   2.481   3.981   0.227
 6981SOL    HW121842   2.449   4.053   0.165
 6981SOL    HW221843   2.469   4.012   0.322
 6982SOL     OW21844   1.227   0.859   4.391
 6982SOL    HW121845   1.195   0.849   4.485
 6982SOL    HW221846   1.327   0.860   4.389
 6983SOL     OW21847   6.922   0.309   4.313
 6983SOL    HW121848   7.010   0.283   4.352
 6983SOL    HW221849   6.883   0.230   4.265
 6984SOL     OW21850   1.878   1.692   5.026
 6984SOL    HW121851   1.937   1.624   4.983
 6984SOL    HW221852   1.915   1.783   5.010
 6985SOL     OW21853   3.927   5.883   2.152
 6985SOL    HW121854   3.950   5.866   2.248
 6985SOL    HW221855   3.830   5.861   2.137
 6986SOL     OW21856   1.780   6.272   5.685
 6986SOL    HW121857   1.770   6.254   5.783
 6986SOL    HW221858   1.795   6.370   5.671
 6987SOL     OW21859   0.362   2.628   6.156
 6987SOL    HW121860   0.283   2.583   6.198
 6987SOL    HW221861   0.430   2.646   6.226
 6988SOL     OW21862   5.223   1.481   4.315
 6988SOL    HW121863   5.224   1.499   4.413
 6988SOL    HW221864   5.133   1.500   4.278
 6989SOL     OW21865   0.974   1.255   3.343
 6989SOL    HW121866   0.904   1.188   3.368
 6989SOL    HW221867   0.991   1.249   3.244
 6990SOL     OW21868   4.971   2.519   0.415
 6990SOL    HW121869   4.995   2.464   0.495
 6990SOL    HW221870   5.009   2.477   0.333
 6991SOL     OW21871   2.300   4.299   5.397
 6991SOL    HW121872   2.284   4.354   5.315
 6991SOL    HW221873   2.383   4.245   5.385
 6992SOL     OW21874   6.488   6.636   4.738
 6992SOL    HW121875   6.428   6.605   4.664
 6992SOL    HW221876   6.530   6.557   4.782
 6993SOL     OW21877   6.548   0.214   3.469
 6993SOL    HW121878   6.500   0.291   3.510
 6993SOL    HW221879   6.646   0.225   3.481
 6994SOL     OW21880   1.354   3.381   5.729
 6994SOL    HW121881   1.429   3.327   5.767
 6994SOL    HW221882   1.356   3.473   5.769
 6995SOL     OW21883   5.710   5.652   4.853
 6995SOL    HW121884   5.760   5.585   4.798
 6995SOL    HW221885   5.681   5.728   4.794
 6996SOL     OW21886   2.767   0.849   5.216
 6996SOL    HW121887   2.685   0.906   5.210
 6996SOL    HW221888   2.805   0.856   5.309
 6997SOL     OW21889   4.972   5.953   4.854
 6997SOL    HW121890   4.907   5.879   4.869
 6997SOL    HW221891   5.028   5.966   4.936
 6998SOL     OW21892   1.563   2.739   1.724
 6998SOL    HW121893   1.660   2.738   1.745
 6998SOL    HW221894   1.511   2.759   1.807
 6999SOL     OW21895   1.963   1.966   6.136
 6999SOL    HW121896   2.050   2.014   6.149
 6999SOL    HW221897   1.937   1.968   6.040
 7000SOL     OW21898   0.667   5.879   2.476
 7000SOL    HW121899   0.590   5.840   2.425
 7000SOL    HW221900   0.702   5.811   2.541
 7001SOL     OW21901   2.574   2.478   5.785
 7001SOL    HW121902   2.479   2.509   5.789
 7001SOL    HW221903   2.629   2.546   5.736
 7002SOL     OW21904   2.710   4.941   3.836
 7002SOL    HW121905   2.640   4.949   3.908
 7002SOL    HW221906   2.799   4.965   3.874
 7003SOL     OW21907   2.688   7.013   0.133
 7003SOL    HW121908   2.654   0.083   0.156
 7003SOL    HW221909   2.668   6.993   0.037
 7004SOL     OW21910   1.972   4.090   1.718
 7004SOL    HW121911   2.066   4.079   1.750
 7004SOL    HW221912   1.951   4.187   1.706
 7005SOL     OW21913   6.327   6.201   6.024
 7005SOL    HW121914   6.386   6.128   5.990
 7005SOL    HW221915   6.267   6.165   6.095
 7006SOL     OW21916   4.810   4.032   4.849
 7006SOL    HW121917   4.778   3.951   4.800
 7006SOL    HW221918   4.794   4.113   4.794
 7007SOL     OW21919   4.909   6.602   2.945
 7007SOL    HW121920   4.985   6.667   2.942
 7007SOL    HW221921   4.826   6.649   2.975
 7008SOL     OW21922   2.071   5.132   4.617
 7008SOL    HW121923   2.033   5.043   4.644
 7008SOL    HW221924   2.051   5.199   4.689
 7009SOL     OW21925   6.344   5.812   2.481
 7009SOL    HW121926   6.413   5.845   2.417
 7009SOL    HW221927   6.384   5.801   2.572
 7010SOL     OW21928   3.285   4.581   6.198
 7010SOL    HW121929   3.365   4.598   6.255
 7010SOL    HW221930   3.205   4.626   6.239
 7011SOL     OW21931   2.081   6.720   5.397
 7011SOL    HW121932   2.151   6.695   5.331
 7011SOL    HW221933   1.992   6.729   5.350
 7012SOL     OW21934   0.913   6.980   2.110
 7012SOL    HW121935   1.000   0.007   2.102
 7012SOL    HW221936   0.923   6.904   2.175
 7013SOL     OW21937   1.002   6.727   1.310
 7013SOL    HW121938   1.092   6.761   1.336
 7013SOL    HW221939   0.975   6.654   1.373
 7014SOL     OW21940   3.595   4.403   1.082
 7014SOL    HW121941   3.547   4.489   1.097
 7014SOL    HW221942   3.587   4.345   1.163
 7015SOL     OW21943   5.360   3.341   2.489
 7015SOL    HW121944   5.381   3.296   2.403
 7015SOL    HW221945   5.445   3.368   2.535
 7016SOL     OW21946   4.574   5.180   2.058
 7016SOL    HW121947   4.524   5.245   2.116
 7016SOL    HW221948   4.515   5.101   2.039
 7017SOL     OW21949   2.967   1.608   3.355
 7017SOL    HW121950   3.042   1.546   3.380
 7017SOL    HW221951   2.961   1.616   3.256
 7018SOL     OW21952   0.117   4.387   4.908
 7018SOL    HW121953   0.018   4.390   4.898
 7018SOL    HW221954   0.158   4.344   4.828
 7019SOL     OW21955   2.011   4.503   6.893
 7019SOL    HW121956   2.057   4.464   6.813
 7019SOL    HW221957   2.018   4.440   6.970
 7020SOL     OW21958   6.130   0.268   0.218
 7020SOL    HW121959   6.068   0.257   0.140
 7020SOL    HW221960   6.219   0.229   0.195
 7021SOL     OW21961   2.758   1.378   4.670
 7021SOL    HW121962   2.782   1.451   4.606
 7021SOL    HW221963   2.659   1.377   4.684
 7022SOL     OW21964   5.267   3.213   1.021
 7022SOL    HW121965   5.227   3.222   0.930
 7022SOL    HW221966   5.365   3.231   1.016
 7023SOL     OW21967   5.890   2.450   2.663
 7023SOL    HW121968   5.921   2.529   2.611
 7023SOL    HW221969   5.889   2.471   2.760
 7024SOL     OW21970   1.775   6.006   6.674
 7024SOL    HW121971   1.807   5.946   6.747
 7024SOL    HW221972   1.853   6.038   6.621
 7025SOL     OW21973   2.671   1.941   6.843
 7025SOL    HW121974   2.728   1.862   6.820
 7025SOL    HW221975   2.605   1.916   6.914
 7026SOL     OW21976   3.179   1.124   2.266
 7026SOL    HW121977   3.180   1.224   2.272
 7026SOL    HW221978   3.212   1.085   2.351
 7027SOL     OW21979   4.090   5.387   3.604
 7027SOL    HW121980   4.051   5.316   3.546
 7027SOL    HW221981   4.050   5.475   3.581
 7028SOL     OW21982   4.832   6.720   3.495
 7028SOL    HW121983   4.837   6.711   3.395
 7028SOL    HW221984   4.738   6.745   3.521
 7029SOL     OW21985   3.317   6.555   6.393
 7029SOL    HW121986   3.403   6.596   6.425
 7029SOL    HW221987   3.319   6.457   6.411
 7030SOL     OW21988   0.243   3.805   5.385
 7030SOL    HW121989   0.227   3.840   5.477
 7030SOL    HW221990   0.169   3.742   5.360
 7031SOL     OW21991   2.317   5.909   4.089
 7031SOL    HW121992   2.381   5.838   4.121
 7031SOL    HW221993   2.366   5.995   4.078
 7032SOL     OW21994   4.510   0.060   2.894
 7032SOL    HW121995   4.566   0.004   2.832
 7032SOL    HW221996   4.414   0.053   2.867
 7033SOL     OW21997   6.817   1.087   4.410
 7033SOL    HW121998   6.731   1.054   4.371
 7033SOL    HW221999   6.832   1.182   4.380
 7034SOL     OW22000   4.956   0.214   2.905
 7034SOL    HW122001   4.994   0.265   2.981
 7034SOL    HW222002   4.918   0.127   2.939
 7035SOL     OW22003   0.961   6.286   2.683
 7035SOL    HW122004   1.044   6.332   2.650
 7035SOL    HW222005   0.881   6.343   2.662
 7036SOL     OW22006   6.685   5.656   1.746
 7036SOL    HW122007   6.604   5.680   1.693
 7036SOL    HW222008   6.670   5.681   1.842
 7037SOL     OW22009   0.616   6.394   5.462
 7037SOL    HW122010   0.560   6.469   5.496
 7037SOL    HW222011   0.703   6.393   5.510
 7038SOL     OW22012   1.041   4.389   3.712
 7038SOL    HW122013   0.985   4.402   3.630
 7038SOL    HW222014   1.016   4.302   3.755
 7039SOL     OW22015   3.835   0.044   0.011
 7039SOL    HW122016   3.807   0.139   0.026
 7039SOL    HW222017   3.849   0.029   6.935
 7040SOL     OW22018   4.578   2.883   6.279
 7040SOL    HW122019   4.610   2.789   6.270
 7040SOL    HW222020   4.586   2.912   6.375
 7041SOL     OW22021   1.250   0.969   3.188
 7041SOL    HW122022   1.162   0.994   3.147
 7041SOL    HW222023   1.237   0.888   3.245
 7042SOL     OW22024   4.961   5.236   6.321
 7042SOL    HW122025   4.959   5.301   6.245
 7042SOL    HW222026   4.876   5.243   6.374
 7043SOL     OW22027   1.910   2.983   3.228
 7043SOL    HW122028   1.932   3.043   3.152
 7043SOL    HW222029   1.986   2.983   3.294
 7044SOL     OW22030   4.464   5.018   2.618
 7044SOL    HW122031   4.444   5.098   2.561
 7044SOL    HW222032   4.380   4.966   2.634
 7045SOL     OW22033   5.064   6.628   0.934
 7045SOL    HW122034   5.057   6.697   0.862
 7045SOL    HW222035   4.973   6.609   0.971
 7046SOL     OW22036   3.862   0.987   4.704
 7046SOL    HW122037   3.805   0.918   4.660
 7046SOL    HW222038   3.873   1.065   4.643
 7047SOL     OW22039   0.594   1.964   3.311
 7047SOL    HW122040   0.497   1.989   3.320
 7047SOL    HW222041   0.601   1.872   3.273
 7048SOL     OW22042   1.353   6.233   1.138
 7048SOL    HW122043   1.258   6.214   1.164
 7048SOL    HW222044   1.412   6.222   1.218
 7049SOL     OW22045   1.911   0.832   0.945
 7049SOL    HW122046   1.879   0.740   0.920
 7049SOL    HW222047   2.009   0.839   0.930
 7050SOL     OW22048   3.970   3.954   4.331
 7050SOL    HW122049   4.000   4.012   4.406
 7050SOL    HW222050   3.875   3.975   4.308
 7051SOL     OW22051   0.076   0.656   1.276
 7051SOL    HW122052   0.068   0.601   1.359
 7051SOL    HW222053   0.023   0.740   1.285
 7052SOL     OW22054   6.836   1.989   4.744
 7052SOL    HW122055   6.862   2.080   4.711
 7052SOL    HW222056   6.890   1.966   4.825
 7053SOL     OW22057   0.337   3.796   6.199
 7053SOL    HW122058   0.354   3.707   6.242
 7053SOL    HW222059   0.291   3.783   6.111
 7054SOL     OW22060   6.866   6.177   1.152
 7054SOL    HW122061   6.951   6.178   1.101
 7054SOL    HW222062   6.843   6.271   1.180
 7055SOL     OW22063   4.353   0.414   5.962
 7055SOL    HW122064   4.374   0.334   6.018
 7055SOL    HW222065   4.378   0.396   5.867
 7056SOL     OW22066   5.478   4.651   3.196
 7056SOL    HW122067   5.557   4.684   3.144
 7056SOL    HW222068   5.506   4.576   3.256
 7057SOL     OW22069   0.104   4.002   4.791
 7057SOL    HW122070   0.148   3.978   4.704
 7057SOL    HW222071   0.169   3.987   4.866
 7058SOL     OW22072   0.398   5.654   4.986
 7058SOL    HW122073   0.424   5.661   5.082
 7058SOL    HW222074   0.438   5.571   4.947
 7059SOL     OW22075   0.383   6.814   1.912
 7059SOL    HW122076   0.360   6.879   1.984
 7059SOL    HW222077   0.299   6.772   1.877
 7060SOL     OW22078   3.200   0.396   1.460
 7060SOL    HW122079   3.180   0.474   1.401
 7060SOL    HW222080   3.117   0.343   1.474
 7061SOL     OW22081   0.163   1.994   2.986
 7061SOL    HW122082   0.174   1.895   2.996
 7061SOL    HW222083   0.128   2.033   3.071
 7062SOL     OW22084   5.770   2.021   5.592
 7062SOL    HW122085   5.724   2.085   5.530
 7062SOL    HW222086   5.702   1.976   5.649
 7063SOL     OW22087   1.783   5.981   0.993
 7063SOL    HW122088   1.823   5.890   0.986
 7063SOL    HW222089   1.691   5.981   0.955
 7064SOL     OW22090   4.200   2.195   1.533
 7064SOL    HW122091   4.132   2.182   1.460
 7064SOL    HW222092   4.153   2.202   1.621
 7065SOL     OW22093   4.625   4.130   1.467
 7065SOL    HW122094   4.591   4.137   1.561
 7065SOL    HW222095   4.554   4.161   1.404
 7066SOL     OW22096   3.597   0.906   0.473
 7066SOL    HW122097   3.522   0.953   0.428
 7066SOL    HW222098   3.604   0.813   0.437
 7067SOL     OW22099   0.937   3.926   5.216
 7067SOL    HW122100   0.844   3.913   5.181
 7067SOL    HW222101   0.941   3.898   5.312
 7068SOL     OW22102   1.045   3.090   3.385
 7068SOL    HW122103   0.954   3.065   3.352
 7068SOL    HW222104   1.048   3.077   3.484
 7069SOL     OW22105   6.387   3.806   5.176
 7069SOL    HW122106   6.402   3.897   5.214
 7069SOL    HW222107   6.424   3.802   5.083
 7070SOL     OW22108   6.386   5.036   5.098
 7070SOL    HW122109   6.369   5.131   5.071
 7070SOL    HW222110   6.465   5.000   5.046
 7071SOL     OW22111   1.007   6.208   5.121
 7071SOL    HW122112   1.042   6.191   5.213
 7071SOL    HW222113   0.937   6.280   5.125
 7072SOL     OW22114   6.722   6.407   6.031
 7072SOL    HW122115   6.759   6.408   5.938
 7072SOL    HW222116   6.791   6.443   6.094
 7073SOL     OW22117   6.647   1.134   5.233
 7073SOL    HW122118   6.578   1.187   5.282
 7073SOL    HW222119   6.609   1.103   5.146
 7074SOL     OW22120   3.138   3.152   2.036
 7074SOL    HW122121   3.132   3.052   2.031
 7074SOL    HW222122   3.219   3.178   2.088
 7075SOL     OW22123   1.785   6.141   4.576
 7075SOL    HW122124   1.700   6.190   4.557
 7075SOL    HW222125   1.790   6.061   4.517
 7076SOL     OW22126   3.429   1.766   6.876
 7076SOL    HW122127   3.420   1.668   6.858
 7076SOL    HW222128   3.491   1.781   6.953
 7077SOL     OW22129   2.140   5.335   5.572
 7077SOL    HW122130   2.060   5.282   5.545
 7077SOL    HW222131   2.121   5.383   5.658
 7078SOL     OW22132   6.165   6.914   2.813
 7078SOL    HW122133   6.245   6.952   2.860
 7078SOL    HW222134   6.195   6.841   2.751
 7079SOL     OW22135   6.701   6.018   5.482
 7079SOL    HW122136   6.766   5.943   5.483
 7079SOL    HW222137   6.649   6.016   5.396
 7080SOL     OW22138   4.097   2.219   3.746
 7080SOL    HW122139   4.059   2.211   3.653
 7080SOL    HW222140   4.032   2.183   3.812
 7081SOL     OW22141   3.551   1.443   5.435
 7081SOL    HW122142   3.584   1.535   5.416
 7081SOL    HW222143   3.553   1.427   5.534
 7082SOL     OW22144   5.401   0.341   0.306
 7082SOL    HW122145   5.375   0.431   0.270
 7082SOL    HW222146   5.466   0.352   0.380
 7083SOL     OW22147   2.846   1.129   6.443
 7083SOL    HW122148   2.796   1.077   6.513
 7083SOL    HW222149   2.916   1.071   6.402
 7084SOL     OW22150   0.088   6.570   5.274
 7084SOL    HW122151   0.179   6.569   5.233
 7084SOL    HW222152   0.095   6.545   5.370
 7085SOL     OW22153   2.338   2.097   2.999
 7085SOL    HW122154   2.438   2.086   2.993
 7085SOL    HW222155   2.296   2.065   2.914
 7086SOL     OW22156   5.627   0.937   6.239
 7086SOL    HW122157   5.629   0.917   6.141
 7086SOL    HW222158   5.698   0.884   6.285
 7087SOL     OW22159   0.892   2.741   4.607
 7087SOL    HW122160   0.965   2.768   4.670
 7087SOL    HW222161   0.836   2.670   4.651
 7088SOL     OW22162   4.702   2.676   4.388
 7088SOL    HW122163   4.681   2.646   4.295
 7088SOL    HW222164   4.625   2.656   4.448
 7089SOL     OW22165   3.300   2.523   6.222
 7089SOL    HW122166   3.227   2.562   6.278
 7089SOL    HW222167   3.269   2.515   6.128
 7090SOL     OW22168   1.913   1.436   5.697
 7090SOL    HW122169   1.896   1.338   5.689
 7090SOL    HW222170   1.938   1.473   5.608
 7091SOL     OW22171   0.368   1.418   6.469
 7091SOL    HW122172   0.347   1.423   6.371
 7091SOL    HW222173   0.283   1.416   6.522
 7092SOL     OW22174   4.277   3.666   0.259
 7092SOL    HW122175   4.179   3.648   0.271
 7092SOL    HW222176   4.318   3.594   0.203
 7093SOL     OW22177   3.280   4.085   4.413
 7093SOL    HW122178   3.352   4.115   4.476
 7093SOL    HW222179   3.311   4.100   4.318
 7094SOL     OW22180   0.510   6.822   5.601
 7094SOL    HW122181   0.491   6.898   5.663
 7094SOL    HW222182   0.424   6.783   5.569
 7095SOL     OW22183   2.173   2.782   0.024
 7095SOL    HW122184   2.247   2.722   7.015
 7095SOL    HW222185   2.087   2.752   7.005
 7096SOL     OW22186   5.260   2.503   3.557
 7096SOL    HW122187   5.203   2.473   3.480
 7096SOL    HW222188   5.290   2.423   3.609
 7097SOL     OW22189   6.889   0.520   1.898
 7097SOL    HW122190   6.969   0.487   1.847
 7097SOL    HW222191   6.809   0.467   1.871
 7098SOL     OW22192   1.678   6.041   4.966
 7098SOL    HW122193   1.748   6.029   4.895
 7098SOL    HW222194   1.723   6.062   5.053
 7099SOL     OW22195   1.357   1.222   5.111
 7099SOL    HW122196   1.412   1.204   5.193
 7099SOL    HW222197   1.296   1.144   5.094
 7100SOL     OW22198   5.058   3.715   1.076
 7100SOL    HW122199   5.008   3.799   1.096
 7100SOL    HW222200   4.994   3.639   1.072
 7101SOL     OW22201   3.028   0.349   4.501
 7101SOL    HW122202   3.042   0.409   4.580
 7101SOL    HW222203   2.989   0.401   4.426
 7102SOL     OW22204   4.269   0.973   0.871
 7102SOL    HW122205   4.193   0.998   0.930
 7102SOL    HW222206   4.280   1.041   0.799
 7103SOL     OW22207   3.540   5.691   6.626
 7103SOL    HW122208   3.635   5.660   6.627
 7103SOL    HW222209   3.493   5.656   6.708
 7104SOL     OW22210   1.485   3.561   3.619
 7104SOL    HW122211   1.465   3.464   3.629
 7104SOL    HW222212   1.551   3.589   3.690
 7105SOL     OW22213   3.509   2.953   4.752
 7105SOL    HW122214   3.489   2.913   4.841
 7105SOL    HW222215   3.608   2.959   4.739
 7106SOL     OW22216   3.907   2.976   3.805
 7106SOL    HW122217   3.930   2.985   3.708
 7106SOL    HW222218   3.812   2.945   3.814
 7107SOL     OW22219   2.638   0.970   0.401
 7107SOL    HW122220   2.629   0.893   0.464
 7107SOL    HW222221   2.580   0.955   0.321
 7108SOL     OW22222   4.193   6.438   1.560
 7108SOL    HW122223   4.265   6.442   1.629
 7108SOL    HW222224   4.218   6.373   1.488
 7109SOL     OW22225   3.614   6.959   6.075
 7109SOL    HW122226   3.695   7.005   6.111
 7109SOL    HW222227   3.554   0.004   6.031
 7110SOL     OW22228   5.416   5.270   3.779
 7110SOL    HW122229   5.475   5.346   3.751
 7110SOL    HW222230   5.367   5.234   3.699
 7111SOL     OW22231   1.157   3.144   4.431
 7111SOL    HW122232   1.213   3.074   4.474
 7111SOL    HW222233   1.079   3.101   4.385
 7112SOL     OW22234   1.782   5.429   4.377
 7112SOL    HW122235   1.813   5.368   4.304
 7112SOL    HW222236   1.858   5.489   4.406
 7113SOL     OW22237   3.731   4.018   4.431
 7113SOL    HW122238   3.809   4.005   4.492
 7113SOL    HW222239   3.663   3.948   4.449
 7114SOL     OW22240   4.128   0.035   1.719
 7114SOL    HW122241   4.214   0.060   1.676
 7114SOL    HW222242   4.117   0.086   1.804
 7115SOL     OW22243   5.239   1.997   1.496
 7115SOL    HW122244   5.141   1.994   1.478
 7115SOL    HW222245   5.275   2.088   1.471
 7116SOL     OW22246   5.720   4.197   3.603
 7116SOL    HW122247   5.714   4.160   3.695
 7116SOL    HW222248   5.628   4.202   3.563
 7117SOL     OW22249   6.998   6.601   3.877
 7117SOL    HW122250   6.961   6.534   3.940
 7117SOL    HW222251   0.069   6.627   3.906
 7118SOL     OW22252   5.288   3.596   1.005
 7118SOL    HW122253   5.273   3.526   0.935
 7118SOL    HW222254   5.199   3.628   1.039
 7119SOL     OW22255   5.008   0.967   2.980
 7119SOL    HW122256   4.993   0.899   2.908
 7119SOL    HW222257   5.097   1.011   2.966
 7120SOL     OW22258   4.147   1.874   2.392
 7120SOL    HW122259   4.236   1.828   2.393
 7120SOL    HW222260   4.109   1.873   2.300
 7121SOL     OW22261   2.044   0.160   3.726
 7121SOL    HW122262   1.977   0.116   3.667
 7121SOL    HW222263   2.063   0.253   3.693
 7122SOL     OW22264   0.128   0.650   0.035
 7122SOL    HW122265   0.159   0.598   6.977
 7122SOL    HW222266   0.206   0.696   0.078
 7123SOL     OW22267   3.185   5.730   1.331
 7123SOL    HW122268   3.275   5.731   1.289
 7123SOL    HW222269   3.140   5.818   1.316
 7124SOL     OW22270   1.395   4.510   0.896
 7124SOL    HW122271   1.480   4.561   0.877
 7124SOL    HW222272   1.402   4.466   0.985
 7125SOL     OW22273   6.395   6.253   1.167
 7125SOL    HW122274   6.403   6.304   1.081
 7125SOL    HW222275   6.300   6.254   1.197
 7126SOL     OW22276   2.409   3.552   0.677
 7126SOL    HW122277   2.431   3.482   0.745
 7126SOL    HW222278   2.324   3.598   0.702
 7127SOL     OW22279   2.974   5.408   4.485
 7127SOL    HW122280   2.940   5.323   4.445
 7127SOL    HW222281   3.008   5.390   4.578
 7128SOL     OW22282   3.154   4.739   0.322
 7128SOL    HW122283   3.123   4.750   0.228
 7128SOL    HW222284   3.211   4.818   0.348
 7129SOL     OW22285   2.928   0.532   1.026
 7129SOL    HW122286   3.015   0.514   0.980
 7129SOL    HW222287   2.880   0.445   1.040
 7130SOL     OW22288   3.222   5.067   4.380
 7130SOL    HW122289   3.197   5.141   4.319
 7130SOL    HW222290   3.237   4.983   4.327
 7131SOL     OW22291   2.486   1.629   1.024
 7131SOL    HW122292   2.430   1.688   1.082
 7131SOL    HW222293   2.554   1.685   0.976
 7132SOL     OW22294   3.994   3.464   2.363
 7132SOL    HW122295   4.016   3.557   2.395
 7132SOL    HW222296   3.987   3.403   2.442
 7133SOL     OW22297   5.234   5.036   3.387
 7133SOL    HW122298   5.214   5.076   3.298
 7133SOL    HW222299   5.156   4.981   3.417
 7134SOL     OW22300   6.392   5.964   4.208
 7134SOL    HW122301   6.369   5.990   4.114
 7134SOL    HW222302   6.459   6.029   4.244
 7135SOL     OW22303   1.253   1.245   4.260
 7135SOL    HW122304   1.316   1.199   4.198
 7135SOL    HW222305   1.284   1.234   4.354
 7136SOL     OW22306   1.723   1.486   0.893
 7136SOL    HW122307   1.640   1.433   0.879
 7136SOL    HW222308   1.793   1.457   0.828
 7137SOL     OW22309   3.942   1.353   4.799
 7137SOL    HW122310   3.916   1.438   4.754
 7137SOL    HW222311   3.869   1.324   4.860
 7138SOL     OW22312   3.131   2.631   1.512
 7138SOL    HW122313   3.230   2.637   1.495
 7138SOL    HW222314   3.103   2.535   1.509
 7139SOL     OW22315   4.936   3.221   2.133
 7139SOL    HW122316   4.876   3.177   2.067
 7139SOL    HW222317   4.910   3.317   2.142
 7140SOL     OW22318   6.225   2.835   5.188
 7140SOL    HW122319   6.259   2.825   5.281
 7140SOL    HW222320   6.129   2.861   5.190
 7141SOL     OW22321   3.305   6.895   1.076
 7141SOL    HW122322   3.333   6.970   1.135
 7141SOL    HW222323   3.260   6.931   0.994
 7142SOL     OW22324   4.325   6.911   3.681
 7142SOL    HW122325   4.335   7.011   3.681
 7142SOL    HW222326   4.323   6.878   3.587
 7143SOL     OW22327   1.797   3.129   6.012
 7143SOL    HW122328   1.735   3.087   6.078
 7143SOL    HW222329   1.877   3.070   6.000
 7144SOL     OW22330   0.904   0.829   3.239
 7144SOL    HW122331   0.880   0.925   3.225
 7144SOL    HW222332   0.857   0.795   3.320
 7145SOL     OW22333   4.078   6.402   6.035
 7145SOL    HW122334   4.156   6.342   6.051
 7145SOL    HW222335   3.993   6.349   6.038
 7146SOL     OW22336   2.125   0.025   0.754
 7146SOL    HW122337   2.201   0.065   0.703
 7146SOL    HW222338   2.138   0.043   0.852
 7147SOL     OW22339   6.250   6.893   3.722
 7147SOL    HW122340   6.337   6.854   3.754
 7147SOL    HW222341   6.269   6.972   3.664
 7148SOL     OW22342   1.117   6.003   1.743
 7148SOL    HW122343   1.105   5.933   1.813
 7148SOL    HW222344   1.083   5.969   1.656
 7149SOL     OW22345   6.572   0.371   3.764
 7149SOL    HW122346   6.616   0.409   3.845
 7149SOL    HW222347   6.561   0.443   3.695
 7150SOL     OW22348   4.673   2.897   1.520
 7150SOL    HW122349   4.578   2.879   1.493
 7150SOL    HW222350   4.677   2.981   1.574
 7151SOL     OW22351   1.585   5.519   0.939
 7151SOL    HW122352   1.642   5.544   0.861
 7151SOL    HW222353   1.580   5.596   1.003
 7152SOL     OW22354   0.410   3.343   5.580
 7152SOL    HW122355   0.343   3.287   5.530
 7152SOL    HW222356   0.417   3.433   5.536
 7153SOL     OW22357   3.986   6.522   5.090
 7153SOL    HW122358   3.989   6.602   5.150
 7153SOL    HW222359   3.891   6.505   5.064
 7154SOL     OW22360   4.303   5.751   4.752
 7154SOL    HW122361   4.261   5.705   4.830
 7154SOL    HW222362   4.265   5.714   4.667
 7155SOL     OW22363   1.740   6.175   1.630
 7155SOL    HW122364   1.782   6.229   1.557
 7155SOL    HW222365   1.727   6.081   1.599
 7156SOL     OW22366   0.275   4.949   4.419
 7156SOL    HW122367   0.327   4.864   4.407
 7156SOL    HW222368   0.310   4.999   4.498
 7157SOL     OW22369   6.350   5.376   0.742
 7157SOL    HW122370   6.256   5.393   0.713
 7157SOL    HW222371   6.413   5.414   0.674
 7158SOL     OW22372   0.001   6.930   3.516
 7158SOL    HW122373   6.981   7.021   3.522
 7158SOL    HW222374   6.996   6.876   3.596
 7159SOL     OW22375   0.541   4.474   1.548
 7159SOL    HW122376   0.537   4.449   1.451
 7159SOL    HW222377   0.636   4.479   1.577
 7160SOL     OW22378   6.651   0.841   2.382
 7160SOL    HW122379   6.635   0.789   2.465
 7160SOL    HW222380   6.656   0.778   2.304
 7161SOL     OW22381   3.350   4.116   4.127
 7161SOL    HW122382   3.447   4.134   4.144
 7161SOL    HW222383   3.325   4.152   4.036
 7162SOL     OW22384   3.095   5.562   5.416
 7162SOL    HW122385   3.159   5.520   5.480
 7162SOL    HW222386   3.080   5.501   5.339
 7163SOL     OW22387   3.691   6.955   4.232
 7163SOL    HW122388   3.598   6.919   4.224
 7163SOL    HW222389   3.692   0.030   4.205
 7164SOL     OW22390   1.610   1.662   2.784
 7164SOL    HW122391   1.669   1.737   2.815
 7164SOL    HW222392   1.658   1.575   2.797
 7165SOL     OW22393   6.012   0.693   0.309
 7165SOL    HW122394   6.076   0.630   0.265
 7165SOL    HW222395   5.923   0.648   0.319
 7166SOL     OW22396   4.900   4.452   1.572
 7166SOL    HW122397   4.988   4.412   1.548
 7166SOL    HW222398   4.895   4.466   1.671
 7167SOL     OW22399   5.125   3.752   4.964
 7167SOL    HW122400   5.221   3.746   4.992
 7167SOL    HW222401   5.110   3.837   4.915
 7168SOL     OW22402   1.171   1.959   4.110
 7168SOL    HW122403   1.258   1.991   4.146
 7168SOL    HW222404   1.097   2.015   4.149
 7169SOL     OW22405   1.624   3.129   5.574
 7169SOL    HW122406   1.623   3.176   5.663
 7169SOL    HW222407   1.531   3.103   5.549
 7170SOL     OW22408   4.404   5.154   3.292
 7170SOL    HW122409   4.362   5.149   3.201
 7170SOL    HW222410   4.332   5.157   3.362
 7171SOL     OW22411   5.194   3.451   6.220
 7171SOL    HW122412   5.231   3.387   6.287
 7171SOL    HW222413   5.117   3.501   6.260
 7172SOL     OW22414   1.471   6.817   6.536
 7172SOL    HW122415   1.568   6.800   6.518
 7172SOL    HW222416   1.440   6.759   6.610
 7173SOL     OW22417   6.738   5.350   4.974
 7173SOL    HW122418   6.834   5.372   4.960
 7173SOL    HW222419   6.711   5.278   4.910
 7174SOL     OW22420   1.124   5.371   6.962
 7174SOL    HW122421   1.124   5.468   6.987
 7174SOL    HW222422   1.211   5.330   6.990
 7175SOL     OW22423   4.955   3.019   1.189
 7175SOL    HW122424   4.904   3.060   1.265
 7175SOL    HW222425   5.036   2.972   1.225
 7176SOL     OW22426   0.513   5.361   2.265
 7176SOL    HW122427   0.590   5.394   2.320
 7176SOL    HW222428   0.481   5.434   2.204
 7177SOL     OW22429   1.770   6.020   4.137
 7177SOL    HW122430   1.742   5.937   4.090
 7177SOL    HW222431   1.835   6.070   4.081
 7178SOL     OW22432   2.308   2.680   6.006
 7178SOL    HW122433   2.312   2.591   6.052
 7178SOL    HW222434   2.394   2.696   5.957
 7179SOL     OW22435   2.310   3.282   5.892
 7179SOL    HW122436   2.250   3.324   5.960
 7179SOL    HW222437   2.264   3.278   5.804
 7180SOL     OW22438   1.068   5.557   6.418
 7180SOL    HW122439   1.084   5.487   6.487
 7180SOL    HW222440   1.155   5.591   6.384
 7181SOL     OW22441   3.772   0.304   0.569
 7181SOL    HW122442   3.799   0.237   0.500
 7181SOL    HW222443   3.810   0.278   0.658
 7182SOL     OW22444   1.790   3.807   6.009
 7182SOL    HW122445   1.805   3.900   5.976
 7182SOL    HW222446   1.871   3.751   5.989
 7183SOL     OW22447   2.054   5.092   2.832
 7183SOL    HW122448   2.123   5.158   2.800
 7183SOL    HW222449   2.094   5.034   2.903
 7184SOL     OW22450   0.509   6.846   3.314
 7184SOL    HW122451   0.511   6.887   3.223
 7184SOL    HW222452   0.520   6.918   3.383
 7185SOL     OW22453   4.878   2.641   6.989
 7185SOL    HW122454   4.963   2.590   7.003
 7185SOL    HW222455   4.800   2.578   6.988
 7186SOL     OW22456   6.981   6.835   5.237
 7186SOL    HW122457   0.005   6.751   5.266
 7186SOL    HW222458   6.917   6.865   5.309
 7187SOL     OW22459   1.952   4.416   1.801
 7187SOL    HW122460   1.947   4.491   1.736
 7187SOL    HW222461   1.868   4.414   1.856
 7188SOL     OW22462   5.875   0.050   1.256
 7188SOL    HW122463   5.826   6.987   1.273
 7188SOL    HW222464   5.834   0.124   1.310
 7189SOL     OW22465   6.345   1.729   6.397
 7189SOL    HW122466   6.285   1.685   6.330
 7189SOL    HW222467   6.323   1.826   6.404
 7190SOL     OW22468   5.313   3.930   3.623
 7190SOL    HW122469   5.359   3.853   3.668
 7190SOL    HW222470   5.378   4.006   3.614
 7191SOL     OW22471   0.995   4.330   2.557
 7191SOL    HW122472   0.997   4.230   2.556
 7191SOL    HW222473   1.083   4.364   2.591
 7192SOL     OW22474   2.308   6.218   5.604
 7192SOL    HW122475   2.212   6.216   5.633
 7192SOL    HW222476   2.365   6.242   5.682
 7193SOL     OW22477   3.054   2.128   4.136
 7193SOL    HW122478   3.126   2.127   4.205
 7193SOL    HW222479   3.093   2.147   4.046
 7194SOL     OW22480   2.099   1.744   1.082
 7194SOL    HW122481   2.073   1.662   1.032
 7194SOL    HW222482   2.017   1.798   1.102
 7195SOL     OW22483   0.561   4.773   0.302
 7195SOL    HW122484   0.561   4.851   0.239
 7195SOL    HW222485   0.625   4.791   0.377
 7196SOL     OW22486   3.199   3.109   3.054
 7196SOL    HW122487   3.251   3.043   3.000
 7196SOL    HW222488   3.134   3.157   2.995
 7197SOL     OW22489   6.725   1.996   5.812
 7197SOL    HW122490   6.802   1.957   5.861
 7197SOL    HW222491   6.745   1.998   5.714
 7198SOL     OW22492   1.039   0.095   6.190
 7198SOL    HW122493   1.114   0.066   6.130
 7198SOL    HW222494   0.953   0.057   6.156
 7199SOL     OW22495   0.812   0.975   2.105
 7199SOL    HW122496   0.749   0.896   2.105
 7199SOL    HW222497   0.773   1.049   2.160
 7200SOL     OW22498   2.564   0.595   0.331
 7200SOL    HW122499   2.618   0.657   0.388
 7200SOL    HW222500   2.563   0.504   0.373
 7201SOL     OW22501   2.000   5.220   3.183
 7201SOL    HW122502   1.973   5.126   3.205
 7201SOL    HW222503   1.943   5.254   3.109
 7202SOL     OW22504   3.891   0.145   6.420
 7202SOL    HW122505   3.928   0.236   6.440
 7202SOL    HW222506   3.855   0.105   6.504
 7203SOL     OW22507   6.221   0.532   0.741
 7203SOL    HW122508   6.181   0.576   0.660
 7203SOL    HW222509   6.309   0.492   0.717
 7204SOL     OW22510   6.167   6.860   4.290
 7204SOL    HW122511   6.154   6.850   4.389
 7204SOL    HW222512   6.255   6.821   4.264
 7205SOL     OW22513   1.282   5.597   3.072
 7205SOL    HW122514   1.331   5.655   3.007
 7205SOL    HW222515   1.335   5.589   3.156
 7206SOL     OW22516   0.324   1.244   1.322
 7206SOL    HW122517   0.340   1.293   1.407
 7206SOL    HW222518   0.398   1.264   1.258
 7207SOL     OW22519   4.004   0.415   1.068
 7207SOL    HW122520   3.917   0.450   1.102
 7207SOL    HW222521   4.020   0.450   0.976
 7208SOL     OW22522   4.203   6.644   4.329
 7208SOL    HW122523   4.142   6.716   4.361
 7208SOL    HW222524   4.255   6.677   4.250
 7209SOL     OW22525   2.973   3.269   3.980
 7209SOL    HW122526   2.924   3.182   3.975
 7209SOL    HW222527   2.971   3.313   3.890
 7210SOL     OW22528   4.571   1.304   3.222
 7210SOL    HW122529   4.617   1.323   3.308
 7210SOL    HW222530   4.472   1.305   3.237
 7211SOL     OW22531   0.994   6.237   3.420
 7211SOL    HW122532   0.973   6.199   3.510
 7211SOL    HW222533   0.917   6.221   3.358
 7212SOL     OW22534   0.799   6.149   4.310
 7212SOL    HW122535   0.720   6.091   4.287
 7212SOL    HW222536   0.768   6.243   4.323
 7213SOL     OW22537   5.379   6.739   5.216
 7213SOL    HW122538   5.461   6.752   5.160
 7213SOL    HW222539   5.403   6.745   5.313
 7214SOL     OW22540   2.452   5.832   4.441
 7214SOL    HW122541   2.380   5.765   4.460
 7214SOL    HW222542   2.541   5.792   4.461
 7215SOL     OW22543   0.753   2.924   4.455
 7215SOL    HW122544   0.815   2.854   4.493
 7215SOL    HW222545   0.802   2.977   4.385
 7216SOL     OW22546   2.731   4.777   6.837
 7216SOL    HW122547   2.787   4.696   6.821
 7216SOL    HW222548   2.783   4.844   6.889
 7217SOL     OW22549   1.718   4.432   1.940
 7217SOL    HW122550   1.620   4.450   1.932
 7217SOL    HW222551   1.767   4.519   1.946
 7218SOL     OW22552   4.879   2.575   5.228
 7218SOL    HW122553   4.808   2.633   5.266
 7218SOL    HW222554   4.935   2.537   5.302
 7219SOL     OW22555   4.532   6.666   3.405
 7219SOL    HW122556   4.498   6.581   3.365
 7219SOL    HW222557   4.519   6.664   3.504
 7220SOL     OW22558   6.661   0.498   3.429
 7220SOL    HW122559   6.641   0.474   3.334
 7220SOL    HW222560   6.749   0.458   3.455
 7221SOL     OW22561   5.344   4.865   5.757
 7221SOL    HW122562   5.305   4.773   5.751
 7221SOL    HW222563   5.379   4.893   5.667
 7222SOL     OW22564   6.736   6.821   0.662
 7222SOL    HW122565   6.661   6.869   0.708
 7222SOL    HW222566   6.809   6.801   0.727
 7223SOL     OW22567   3.019   1.983   0.858
 7223SOL    HW122568   2.998   2.015   0.765
 7223SOL    HW222569   3.022   2.061   0.920
 7224SOL     OW22570   5.691   1.509   4.550
 7224SOL    HW122571   5.712   1.454   4.469
 7224SOL    HW222572   5.633   1.586   4.523
 7225SOL     OW22573   1.796   5.657   0.271
 7225SOL    HW122574   1.719   5.691   0.324
 7225SOL    HW222575   1.870   5.629   0.332
 7226SOL     OW22576   0.206   7.005   0.330
 7226SOL    HW122577   0.152   0.051   0.380
 7226SOL    HW222578   0.300   0.016   0.321
 7227SOL     OW22579   0.363   2.099   0.009
 7227SOL    HW122580   0.459   2.127   0.019
 7227SOL    HW222581   0.304   2.173   0.040
 7228SOL     OW22582   0.423   6.927   2.200
 7228SOL    HW122583   0.445   6.830   2.196
 7228SOL    HW222584   0.342   6.941   2.256
 7229SOL     OW22585   1.076   0.635   4.521
 7229SOL    HW122586   1.053   0.717   4.468
 7229SOL    HW222587   1.155   0.590   4.480
 7230SOL     OW22588   4.314   5.236   4.400
 7230SOL    HW122589   4.379   5.162   4.421
 7230SOL    HW222590   4.228   5.196   4.366
 7231SOL     OW22591   5.463   1.882   6.386
 7231SOL    HW122592   5.401   1.917   6.315
 7231SOL    HW222593   5.456   1.783   6.390
 7232SOL     OW22594   3.894   5.392   3.241
 7232SOL    HW122595   3.811   5.444   3.220
 7232SOL    HW222596   3.944   5.374   3.156
 7233SOL     OW22597   0.437   2.932   5.079
 7233SOL    HW122598   0.493   2.854   5.108
 7233SOL    HW222599   0.455   3.010   5.139
 7234SOL     OW22600   5.741   2.518   1.957
 7234SOL    HW122601   5.825   2.498   2.006
 7234SOL    HW222602   5.759   2.583   1.884
 7235SOL     OW22603   5.846   4.036   4.382
 7235SOL    HW122604   5.816   4.000   4.293
 7235SOL    HW222605   5.794   4.118   4.404
 7236SOL     OW22606   3.459   1.755   2.980
 7236SOL    HW122607   3.375   1.711   3.012
 7236SOL    HW222608   3.463   1.750   2.880
 7237SOL     OW22609   6.563   6.315   5.318
 7237SOL    HW122610   6.652   6.292   5.279
 7237SOL    HW222611   6.574   6.388   5.386
 7238SOL     OW22612   2.454   1.134   2.436
 7238SOL    HW122613   2.488   1.228   2.427
 7238SOL    HW222614   2.412   1.106   2.349
 7239SOL     OW22615   2.058   1.836   2.837
 7239SOL    HW122616   2.088   1.823   2.743
 7239SOL    HW222617   2.078   1.930   2.866
 7240SOL     OW22618   2.937   4.129   0.823
 7240SOL    HW122619   2.968   4.053   0.766
 7240SOL    HW222620   2.842   4.151   0.800
 7241SOL     OW22621   3.516   0.825   5.759
 7241SOL    HW122622   3.591   0.778   5.712
 7241SOL    HW222623   3.512   0.794   5.854
 7242SOL     OW22624   5.834   4.314   0.193
 7242SOL    HW122625   5.912   4.259   0.162
 7242SOL    HW222626   5.765   4.254   0.232
 7243SOL     OW22627   1.466   4.833   6.463
 7243SOL    HW122628   1.560   4.865   6.467
 7243SOL    HW222629   1.428   4.848   6.372
 7244SOL     OW22630   5.413   1.332   0.688
 7244SOL    HW122631   5.421   1.247   0.635
 7244SOL    HW222632   5.317   1.355   0.700
 7245SOL     OW22633   0.108   2.331   4.873
 7245SOL    HW122634   0.144   2.410   4.923
 7245SOL    HW222635   0.077   2.262   4.939
 7246SOL     OW22636   6.026   6.989   4.851
 7246SOL    HW122637   6.001   0.059   4.881
 7246SOL    HW222638   6.118   6.967   4.885
 7247SOL     OW22639   2.554   6.038   1.748
 7247SOL    HW122640   2.456   6.051   1.762
 7247SOL    HW222641   2.574   6.039   1.650
 7248SOL     OW22642   3.805   1.004   4.237
 7248SOL    HW122643   3.820   1.090   4.188
 7248SOL    HW222644   3.891   0.954   4.243
 7249SOL     OW22645   5.199   4.517   1.136
 7249SOL    HW122646   5.264   4.573   1.084
 7249SOL    HW222647   5.106   4.549   1.117
 7250SOL     OW22648   2.159   4.965   6.679
 7250SOL    HW122649   2.249   4.946   6.640
 7250SOL    HW222650   2.094   4.895   6.649
 7251SOL     OW22651   6.797   6.276   5.164
 7251SOL    HW122652   6.875   6.251   5.221
 7251SOL    HW222653   6.818   6.257   5.068
 7252SOL     OW22654   3.335   3.324   4.804
 7252SOL    HW122655   3.249   3.359   4.767
 7252SOL    HW222656   3.405   3.395   4.797
 7253SOL     OW22657   2.756   6.283   1.075
 7253SOL    HW122658   2.707   6.370   1.083
 7253SOL    HW222659   2.705   6.221   1.017
 7254SOL     OW22660   3.706   5.276   4.085
 7254SOL    HW122661   3.763   5.317   4.156
 7254SOL    HW222662   3.763   5.222   4.023
 7255SOL     OW22663   2.877   3.233   1.886
 7255SOL    HW122664   2.961   3.197   1.927
 7255SOL    HW222665   2.798   3.187   1.926
 7256SOL     OW22666   4.424   4.970   4.452
 7256SOL    HW122667   4.494   4.948   4.519
 7256SOL    HW222668   4.343   4.913   4.469
 7257SOL     OW22669   5.843   2.111   3.232
 7257SOL    HW122670   5.897   2.027   3.233
 7257SOL    HW222671   5.889   2.180   3.178
 7258SOL     OW22672   4.182   0.530   4.514
 7258SOL    HW122673   4.123   0.461   4.555
 7258SOL    HW222674   4.157   0.621   4.548
 7259SOL     OW22675   2.691   3.814   6.830
 7259SOL    HW122676   2.783   3.808   6.869
 7259SOL    HW222677   2.658   3.908   6.834
 7260SOL     OW22678   3.659   2.047   2.730
 7260SOL    HW122679   3.643   2.047   2.829
 7260SOL    HW222680   3.572   2.053   2.682
 7261SOL     OW22681   2.435   3.246   1.721
 7261SOL    HW122682   2.519   3.208   1.760
 7261SOL    HW222683   2.417   3.335   1.763
 7262SOL     OW22684   5.309   2.058   4.619
 7262SOL    HW122685   5.349   2.079   4.530
 7262SOL    HW222686   5.213   2.032   4.607
 7263SOL     OW22687   1.205   5.692   1.486
 7263SOL    HW122688   1.188   5.609   1.433
 7263SOL    HW222689   1.190   5.772   1.427
 7264SOL     OW22690   6.995   1.076   6.626
 7264SOL    HW122691   7.006   1.003   6.558
 7264SOL    HW222692   6.927   1.141   6.594
 7265SOL     OW22693   5.252   4.994   6.048
 7265SOL    HW122694   5.282   4.899   6.048
 7265SOL    HW222695   5.266   5.033   5.956
 7266SOL     OW22696   4.924   0.506   1.741
 7266SOL    HW122697   4.973   0.419   1.739
 7266SOL    HW222698   4.988   0.580   1.763
 7267SOL     OW22699   0.340   3.868   4.861
 7267SOL    HW122700   0.281   3.799   4.903
 7267SOL    HW222701   0.359   3.843   4.766
 7268SOL     OW22702   3.952   5.910   1.305
 7268SOL    HW122703   3.961   5.906   1.405
 7268SOL    HW222704   4.041   5.925   1.264
 7269SOL     OW22705   0.888   5.371   1.637
 7269SOL    HW122706   0.929   5.282   1.615
 7269SOL    HW222707   0.845   5.367   1.727
 7270SOL     OW22708   2.414   1.772   2.895
 7270SOL    HW122709   2.391   1.747   2.801
 7270SOL    HW222710   2.361   1.716   2.959
 7271SOL     OW22711   0.084   3.691   2.609
 7271SOL    HW122712   0.111   3.769   2.664
 7271SOL    HW222713   0.045   3.620   2.668
 7272SOL     OW22714   4.839   2.808   2.917
 7272SOL    HW122715   4.901   2.752   2.973
 7272SOL    HW222716   4.831   2.899   2.957
 7273SOL     OW22717   5.572   4.272   1.847
 7273SOL    HW122718   5.551   4.363   1.813
 7273SOL    HW222719   5.548   4.266   1.944
 7274SOL     OW22720   6.871   5.106   5.728
 7274SOL    HW122721   6.970   5.096   5.716
 7274SOL    HW222722   6.852   5.198   5.765
 7275SOL     OW22723   0.070   0.639   6.701
 7275SOL    HW122724   0.091   0.612   6.607
 7275SOL    HW222725   0.124   0.719   6.726
 7276SOL     OW22726   1.660   2.432   3.872
 7276SOL    HW122727   1.602   2.512   3.856
 7276SOL    HW222728   1.670   2.417   3.971
 7277SOL     OW22729   4.946   1.548   4.866
 7277SOL    HW122730   4.872   1.615   4.857
 7277SOL    HW222731   4.946   1.511   4.959
 7278SOL     OW22732   3.772   1.248   3.543
 7278SOL    HW122733   3.674   1.243   3.523
 7278SOL    HW222734   3.812   1.157   3.539
 7279SOL     OW22735   4.448   4.566   0.260
 7279SOL    HW122736   4.533   4.514   0.272
 7279SOL    HW222737   4.421   4.564   0.163
 7280SOL     OW22738   5.292   1.844   5.300
 7280SOL    HW122739   5.301   1.745   5.313
 7280SOL    HW222740   5.200   1.866   5.269
 7281SOL     OW22741   3.435   6.413   1.577
 7281SOL    HW122742   3.358   6.424   1.641
 7281SOL    HW222743   3.468   6.504   1.551
 7282SOL     OW22744   6.622   5.516   2.270
 7282SOL    HW122745   6.571   5.600   2.285
 7282SOL    HW222746   6.559   5.443   2.244
 7283SOL     OW22747   3.254   5.672   2.729
 7283SOL    HW122748   3.243   5.580   2.691
 7283SOL    HW222749   3.193   5.685   2.807
 7284SOL     OW22750   6.736   2.209   3.846
 7284SOL    HW122751   6.794   2.132   3.820
 7284SOL    HW222752   6.731   2.274   3.770
 7285SOL     OW22753   4.977   2.978   1.881
 7285SOL    HW122754   4.998   2.886   1.911
 7285SOL    HW222755   4.890   3.008   1.922
 7286SOL     OW22756   0.437   1.003   0.765
 7286SOL    HW122757   0.459   0.921   0.712
 7286SOL    HW222758   0.385   1.066   0.708
 7287SOL     OW22759   1.164   2.228   3.573
 7287SOL    HW122760   1.106   2.165   3.625
 7287SOL    HW222761   1.244   2.252   3.628
 7288SOL     OW22762   3.077   2.006   2.918
 7288SOL    HW122763   2.980   1.985   2.931
 7288SOL    HW222764   3.088   2.066   2.839
 7289SOL     OW22765   6.377   2.500   1.507
 7289SOL    HW122766   6.440   2.422   1.511
 7289SOL    HW222767   6.428   2.583   1.487
 7290SOL     OW22768   4.016   1.870   4.659
 7290SOL    HW122769   4.107   1.906   4.679
 7290SOL    HW222770   4.012   1.844   4.562
 7291SOL     OW22771   3.505   0.584   6.792
 7291SOL    HW122772   3.600   0.590   6.823
 7291SOL    HW222773   3.503   0.550   6.698
 7292SOL     OW22774   2.153   0.166   3.418
 7292SOL    HW122775   2.217   0.152   3.342
 7292SOL    HW222776   2.165   0.092   3.485
 7293SOL     OW22777   1.134   0.615   5.336
 7293SOL    HW122778   1.077   0.671   5.396
 7293SOL    HW222779   1.197   0.561   5.391
 7294SOL     OW22780   3.209   4.796   1.515
 7294SOL    HW122781   3.240   4.888   1.491
 7294SOL    HW222782   3.287   4.733   1.512
 7295SOL     OW22783   6.394   5.405   2.497
 7295SOL    HW122784   6.462   5.478   2.501
 7295SOL    HW222785   6.310   5.439   2.454
 7296SOL     OW22786   4.069   4.800   2.394
 7296SOL    HW122787   4.086   4.806   2.295
 7296SOL    HW222788   3.972   4.815   2.411
 7297SOL     OW22789   3.199   6.163   1.696
 7297SOL    HW122790   3.191   6.254   1.654
 7297SOL    HW222791   3.285   6.157   1.747
 7298SOL     OW22792   4.926   5.729   6.686
 7298SOL    HW122793   4.937   5.712   6.588
 7298SOL    HW222794   4.983   5.807   6.713
 7299SOL     OW22795   1.279   2.996   0.324
 7299SOL    HW122796   1.273   3.082   0.373
 7299SOL    HW222797   1.363   2.993   0.269
 7300SOL     OW22798   0.781   4.898   1.403
 7300SOL    HW122799   0.691   4.865   1.431
 7300SOL    HW222800   0.842   4.897   1.481
 7301SOL     OW22801   5.506   6.804   5.470
 7301SOL    HW122802   5.546   6.862   5.399
 7301SOL    HW222803   5.566   6.725   5.486
 7302SOL     OW22804   5.148   2.954   5.836
 7302SOL    HW122805   5.062   2.997   5.864
 7302SOL    HW222806   5.175   2.990   5.746
 7303SOL     OW22807   2.520   1.134   1.058
 7303SOL    HW122808   2.562   1.224   1.046
 7303SOL    HW222809   2.452   1.138   1.131
 7304SOL     OW22810   2.968   5.302   2.040
 7304SOL    HW122811   2.890   5.317   2.100
 7304SOL    HW222812   2.973   5.206   2.015
 7305SOL     OW22813   5.908   2.339   0.363
 7305SOL    HW122814   5.985   2.323   0.301
 7305SOL    HW222815   5.924   2.291   0.449
 7306SOL     OW22816   2.456   1.394   1.573
 7306SOL    HW122817   2.505   1.473   1.609
 7306SOL    HW222818   2.421   1.416   1.482
 7307SOL     OW22819   1.675   6.450   1.391
 7307SOL    HW122820   1.612   6.475   1.317
 7307SOL    HW222821   1.703   6.532   1.441
 7308SOL     OW22822   4.641   0.583   1.669
 7308SOL    HW122823   4.613   0.659   1.728
 7308SOL    HW222824   4.738   0.564   1.683
 7309SOL     OW22825   2.535   5.148   2.695
 7309SOL    HW122826   2.543   5.056   2.655
 7309SOL    HW222827   2.544   5.142   2.794
 7310SOL     OW22828   1.588   2.653   0.152
 7310SOL    HW122829   1.600   2.604   0.238
 7310SOL    HW222830   1.491   2.656   0.129
 7311SOL     OW22831   0.531   6.771   6.889
 7311SOL    HW122832   0.453   6.794   6.830
 7311SOL    HW222833   0.616   6.790   6.841
 7312SOL     OW22834   0.296   2.710   5.594
 7312SOL    HW122835   0.196   2.710   5.597
 7312SOL    HW222836   0.332   2.680   5.682
 7313SOL     OW22837   2.489   0.841   2.075
 7313SOL    HW122838   2.574   0.884   2.105
 7313SOL    HW222839   2.438   0.809   2.155
 7314SOL     OW22840   0.193   4.285   0.092
 7314SOL    HW122841   0.110   4.266   0.145
 7314SOL    HW222842   0.259   4.212   0.105
 7315SOL     OW22843   0.685   4.986   2.492
 7315SOL    HW122844   0.640   5.033   2.416
 7315SOL    HW222845   0.682   4.888   2.477
 7316SOL     OW22846   3.185   2.097   6.846
 7316SOL    HW122847   3.198   2.003   6.815
 7316SOL    HW222848   3.236   2.111   6.931
 7317SOL     OW22849   3.518   1.289   1.850
 7317SOL    HW122850   3.465   1.254   1.927
 7317SOL    HW222851   3.584   1.357   1.883
 7318SOL     OW22852   3.696   0.165   1.801
 7318SOL    HW122853   3.653   0.088   1.754
 7318SOL    HW222854   3.745   0.220   1.734
 7319SOL     OW22855   6.500   4.816   0.303
 7319SOL    HW122856   6.576   4.839   0.364
 7319SOL    HW222857   6.535   4.804   0.210
 7320SOL     OW22858   6.971   3.654   1.439
 7320SOL    HW122859   0.013   3.596   1.388
 7320SOL    HW222860   6.928   3.601   1.511
 7321SOL     OW22861   2.387   6.193   6.395
 7321SOL    HW122862   2.340   6.107   6.374
 7321SOL    HW222863   2.383   6.210   6.494
 7322SOL     OW22864   0.435   2.355   2.072
 7322SOL    HW122865   0.461   2.324   2.164
 7322SOL    HW222866   0.383   2.440   2.079
 7323SOL     OW22867   1.182   1.688   0.933
 7323SOL    HW122868   1.108   1.725   0.989
 7323SOL    HW222869   1.239   1.762   0.899
 7324SOL     OW22870   5.913   4.661   3.281
 7324SOL    HW122871   5.838   4.613   3.237
 7324SOL    HW222872   5.880   4.704   3.366
 7325SOL     OW22873   3.915   1.103   6.058
 7325SOL    HW122874   3.879   1.195   6.045
 7325SOL    HW222875   3.852   1.036   6.020
 7326SOL     OW22876   2.572   0.804   6.971
 7326SOL    HW122877   2.667   0.779   6.950
 7326SOL    HW222878   2.528   0.728   7.018
 7327SOL     OW22879   5.830   3.908   3.156
 7327SOL    HW122880   5.768   3.938   3.228
 7327SOL    HW222881   5.901   3.850   3.196
 7328SOL     OW22882   4.045   4.833   5.568
 7328SOL    HW122883   3.999   4.903   5.513
 7328SOL    HW222884   4.116   4.877   5.624
 7329SOL     OW22885   2.488   2.950   0.883
 7329SOL    HW122886   2.499   3.048   0.866
 7329SOL    HW222887   2.573   2.902   0.860
 7330SOL     OW22888   3.674   2.949   1.684
 7330SOL    HW122889   3.670   2.861   1.730
 7330SOL    HW222890   3.757   2.954   1.628
 7331SOL     OW22891   4.317   0.627   1.747
 7331SOL    HW122892   4.287   0.711   1.791
 7331SOL    HW222893   4.240   0.564   1.739
 7332SOL     OW22894   3.080   4.197   0.043
 7332SOL    HW122895   3.151   4.127   0.042
 7332SOL    HW222896   2.990   4.154   0.057
 7333SOL     OW22897   6.496   2.426   1.905
 7333SOL    HW122898   6.576   2.442   1.962
 7333SOL    HW222899   6.414   2.459   1.953
 7334SOL     OW22900   3.096   6.626   5.863
 7334SOL    HW122901   3.194   6.607   5.854
 7334SOL    HW222902   3.076   6.664   5.953
 7335SOL     OW22903   6.513   3.043   2.606
 7335SOL    HW122904   6.471   2.982   2.539
 7335SOL    HW222905   6.444   3.104   2.645
 7336SOL     OW22906   1.658   5.936   1.275
 7336SOL    HW122907   1.605   5.856   1.248
 7336SOL    HW222908   1.747   5.934   1.229
 7337SOL     OW22909   2.359   2.323   2.315
 7337SOL    HW122910   2.409   2.407   2.338
 7337SOL    HW222911   2.271   2.323   2.362
 7338SOL     OW22912   5.545   3.028   1.675
 7338SOL    HW122913   5.452   3.052   1.649
 7338SOL    HW222914   5.560   3.047   1.772
 7339SOL     OW22915   6.448   5.695   5.152
 7339SOL    HW122916   6.467   5.712   5.248
 7339SOL    HW222917   6.422   5.599   5.139
 7340SOL     OW22918   2.468   0.554   0.095
 7340SOL    HW122919   2.374   0.523   0.109
 7340SOL    HW222920   2.501   0.600   0.178
 7341SOL     OW22921   0.564   5.016   4.280
 7341SOL    HW122922   0.515   4.957   4.216
 7341SOL    HW222923   0.586   5.103   4.236
 7342SOL     OW22924   6.783   0.268   0.554
 7342SOL    HW122925   6.788   0.325   0.472
 7342SOL    HW222926   6.688   0.244   0.571
 7343SOL     OW22927   5.845   3.867   2.827
 7343SOL    HW122928   5.768   3.807   2.802
 7343SOL    HW222929   5.853   3.871   2.927
 7344SOL     OW22930   2.039   6.556   0.069
 7344SOL    HW122931   2.119   6.497   0.060
 7344SOL    HW222932   2.067   6.651   0.059
 7345SOL     OW22933   4.493   5.389   5.981
 7345SOL    HW122934   4.457   5.301   5.952
 7345SOL    HW222935   4.504   5.448   5.901
 7346SOL     OW22936   3.792   4.819   1.337
 7346SOL    HW122937   3.749   4.732   1.362
 7346SOL    HW222938   3.725   4.893   1.345
 7347SOL     OW22939   6.133   1.781   1.996
 7347SOL    HW122940   6.074   1.837   2.054
 7347SOL    HW222941   6.172   1.706   2.050
 7348SOL     OW22942   1.297   2.650   3.794
 7348SOL    HW122943   1.204   2.616   3.802
 7348SOL    HW222944   1.324   2.651   3.697
 7349SOL     OW22945   3.608   1.869   0.721
 7349SOL    HW122946   3.552   1.921   0.786
 7349SOL    HW222947   3.573   1.885   0.629
 7350SOL     OW22948   0.654   2.504   2.881
 7350SOL    HW122949   0.699   2.573   2.824
 7350SOL    HW222950   0.710   2.421   2.882
 7351SOL     OW22951   4.207   5.017   6.398
 7351SOL    HW122952   4.271   5.052   6.467
 7351SOL    HW222953   4.213   5.072   6.315
 7352SOL     OW22954   1.559   1.935   2.203
 7352SOL    HW122955   1.556   1.969   2.297
 7352SOL    HW222956   1.496   1.988   2.146
 7353SOL     OW22957   6.378   1.794   4.643
 7353SOL    HW122958   6.341   1.811   4.551
 7353SOL    HW222959   6.310   1.822   4.711
 7354SOL     OW22960   6.479   6.512   5.620
 7354SOL    HW122961   6.496   6.442   5.690
 7354SOL    HW222962   6.406   6.482   5.559
 7355SOL     OW22963   1.146   5.608   1.733
 7355SOL    HW122964   1.164   5.640   1.640
 7355SOL    HW222965   1.064   5.550   1.733
 7356SOL     OW22966   6.376   1.781   6.746
 7356SOL    HW122967   6.372   1.863   6.803
 7356SOL    HW222968   6.340   1.802   6.655
 7357SOL     OW22969   5.186   1.738   6.902
 7357SOL    HW122970   5.172   1.829   6.863
 7357SOL    HW222971   5.281   1.730   6.935
 7358SOL     OW22972   3.324   1.775   3.973
 7358SOL    HW122973   3.318   1.720   3.889
 7358SOL    HW222974   3.232   1.798   4.004
 7359SOL     OW22975   3.864   3.303   2.558
 7359SOL    HW122976   3.871   3.255   2.646
 7359SOL    HW222977   3.770   3.301   2.526
 7360SOL     OW22978   1.115   2.382   5.249
 7360SOL    HW122979   1.126   2.433   5.334
 7360SOL    HW222980   1.067   2.296   5.268
 7361SOL     OW22981   5.374   6.438   1.259
 7361SOL    HW122982   5.407   6.384   1.182
 7361SOL    HW222983   5.276   6.422   1.271
 7362SOL     OW22984   1.921   6.242   5.131
 7362SOL    HW122985   1.886   6.277   5.044
 7362SOL    HW222986   1.931   6.317   5.196
 7363SOL     OW22987   5.470   2.874   0.067
 7363SOL    HW122988   5.480   2.822   0.152
 7363SOL    HW222989   5.381   2.917   0.065
 7364SOL     OW22990   4.499   6.604   1.191
 7364SOL    HW122991   4.430   6.560   1.134
 7364SOL    HW222992   4.501   6.702   1.172
 7365SOL     OW22993   2.946   0.281   2.445
 7365SOL    HW122994   2.951   0.352   2.515
 7365SOL    HW222995   2.851   0.270   2.416
 7366SOL     OW22996   0.749   5.352   6.809
 7366SOL    HW122997   0.793   5.270   6.773
 7366SOL    HW222998   0.651   5.334   6.822
 7367SOL     OW22999   4.862   3.565   1.349
 7367SOL    HW123000   4.908   3.650   1.375
 7367SOL    HW223001   4.922   3.487   1.369
 7368SOL     OW23002   2.956   3.229   4.541
 7368SOL    HW123003   2.878   3.231   4.604
 7368SOL    HW223004   2.928   3.269   4.453
 7369SOL     OW23005   4.995   4.194   1.231
 7369SOL    HW123006   4.997   4.184   1.131
 7369SOL    HW223007   5.079   4.157   1.270
 7370SOL     OW23008   2.507   6.829   0.689
 7370SOL    HW123009   2.480   6.860   0.598
 7370SOL    HW223010   2.602   6.797   0.686
 7371SOL     OW23011   2.952   5.033   3.961
 7371SOL    HW123012   2.896   5.107   3.998
 7371SOL    HW223013   3.040   5.070   3.932
 7372SOL     OW23014   3.752   0.380   5.712
 7372SOL    HW123015   3.821   0.313   5.740
 7372SOL    HW223016   3.704   0.414   5.793
 7373SOL     OW23017   3.804   0.708   4.019
 7373SOL    HW123018   3.852   0.633   3.973
 7373SOL    HW223019   3.863   0.749   4.087
 7374SOL     OW23020   2.008   2.962   5.926
 7374SOL    HW123021   1.979   2.870   5.954
 7374SOL    HW223022   2.105   2.975   5.948
 7375SOL     OW23023   1.385   1.162   4.492
 7375SOL    HW123024   1.371   1.166   4.591
 7375SOL    HW223025   1.448   1.088   4.470
 7376SOL     OW23026   2.836   3.101   6.972
 7376SOL    HW123027   2.817   3.107   6.874
 7376SOL    HW223028   2.901   3.027   6.988
 7377SOL     OW23029   4.862   4.532   1.849
 7377SOL    HW123030   4.927   4.525   1.925
 7377SOL    HW223031   4.788   4.594   1.873
 7378SOL     OW23032   0.459   2.000   4.914
 7378SOL    HW123033   0.541   2.053   4.935
 7378SOL    HW223034   0.404   2.050   4.846
 7379SOL     OW23035   3.571   1.031   1.770
 7379SOL    HW123036   3.528   1.106   1.821
 7379SOL    HW223037   3.631   1.069   1.700
 7380SOL     OW23038   6.777   2.940   5.557
 7380SOL    HW123039   6.770   3.027   5.508
 7380SOL    HW223040   6.847   2.947   5.627
 7381SOL     OW23041   4.811   2.878   2.223
 7381SOL    HW123042   4.820   2.957   2.163
 7381SOL    HW223043   4.739   2.895   2.289
 7382SOL     OW23044   0.482   4.586   4.630
 7382SOL    HW123045   0.527   4.503   4.596
 7382SOL    HW223046   0.505   4.663   4.571
 7383SOL     OW23047   0.278   6.471   2.380
 7383SOL    HW123048   0.308   6.379   2.405
 7383SOL    HW223049   0.289   6.532   2.458
 7384SOL     OW23050   4.822   6.650   2.219
 7384SOL    HW123051   4.853   6.555   2.207
 7384SOL    HW223052   4.788   6.663   2.312
 7385SOL     OW23053   4.647   6.172   1.792
 7385SOL    HW123054   4.673   6.269   1.793
 7385SOL    HW223055   4.725   6.118   1.759
 7386SOL     OW23056   1.343   2.838   5.866
 7386SOL    HW123057   1.313   2.934   5.867
 7386SOL    HW223058   1.266   2.780   5.841
 7387SOL     OW23059   4.496   5.619   4.085
 7387SOL    HW123060   4.575   5.678   4.103
 7387SOL    HW223061   4.497   5.541   4.147
 7388SOL     OW23062   6.822   5.190   4.244
 7388SOL    HW123063   6.785   5.193   4.338
 7388SOL    HW223064   6.877   5.272   4.228
 7389SOL     OW23065   1.276   3.839   6.852
 7389SOL    HW123066   1.252   3.928   6.813
 7389SOL    HW223067   1.373   3.838   6.877
 7390SOL     OW23068   0.011   1.682   6.563
 7390SOL    HW123069   6.956   1.657   6.622
 7390SOL    HW223070   0.011   1.624   6.481
 7391SOL     OW23071   5.852   3.706   6.045
 7391SOL    HW123072   5.850   3.792   6.095
 7391SOL    HW223073   5.927   3.649   6.079
 7392SOL     OW23074   1.356   5.216   4.649
 7392SOL    HW123075   1.454   5.205   4.665
 7392SOL    HW223076   1.339   5.303   4.603
 7393SOL     OW23077   6.095   5.591   2.738
 7393SOL    HW123078   6.110   5.655   2.663
 7393SOL    HW223079   6.043   5.512   2.704
 7394SOL     OW23080   4.191   3.439   6.478
 7394SOL    HW123081   4.117   3.371   6.478
 7394SOL    HW223082   4.247   3.428   6.396
 7395SOL     OW23083   0.552   0.161   6.321
 7395SOL    HW123084   0.531   0.226   6.395
 7395SOL    HW223085   0.630   0.194   6.269
 7396SOL     OW23086   1.087   0.680   5.797
 7396SOL    HW123087   1.052   0.745   5.865
 7396SOL    HW223088   1.119   0.597   5.844
 7397SOL     OW23089   6.425   4.555   4.554
 7397SOL    HW123090   6.392   4.507   4.636
 7397SOL    HW223091   6.522   4.578   4.566
 7398SOL     OW23092   4.628   5.151   4.309
 7398SOL    HW123093   4.662   5.237   4.272
 7398SOL    HW223094   4.550   5.120   4.255
 7399SOL     OW23095   6.342   3.763   5.960
 7399SOL    HW123096   6.362   3.790   6.055
 7399SOL    HW223097   6.381   3.831   5.898
 7400SOL     OW23098   3.018   4.699   0.061
 7400SOL    HW123099   2.946   4.709   7.015
 7400SOL    HW223100   3.045   4.603   0.068
 7401SOL     OW23101   0.070   1.575   3.981
 7401SOL    HW123102   0.076   1.576   4.081
 7401SOL    HW223103   0.090   1.483   3.948
 7402SOL     OW23104   2.267   0.202   4.056
 7402SOL    HW123105   2.323   0.229   4.134
 7402SOL    HW223106   2.215   0.281   4.023
 7403SOL     OW23107   1.896   3.194   3.709
 7403SOL    HW123108   1.883   3.138   3.791
 7403SOL    HW223109   1.981   3.246   3.719
 7404SOL     OW23110   1.431   0.460   1.178
 7404SOL    HW123111   1.502   0.500   1.121
 7404SOL    HW223112   1.352   0.523   1.181
 7405SOL     OW23113   2.149   5.356   5.210
 7405SOL    HW123114   2.146   5.405   5.297
 7405SOL    HW223115   2.230   5.296   5.209
 7406SOL     OW23116   1.737   3.599   2.545
 7406SOL    HW123117   1.683   3.602   2.629
 7406SOL    HW223118   1.685   3.552   2.474
 7407SOL     OW23119   0.513   6.169   4.547
 7407SOL    HW123120   0.426   6.121   4.543
 7407SOL    HW223121   0.560   6.161   4.459
 7408SOL     OW23122   1.808   4.058   5.873
 7408SOL    HW123123   1.792   4.014   5.784
 7408SOL    HW223124   1.811   4.157   5.861
 7409SOL     OW23125   0.891   0.784   5.250
 7409SOL    HW123126   0.839   0.778   5.165
 7409SOL    HW223127   0.986   0.758   5.234
 7410SOL     OW23128   0.557   4.412   1.044
 7410SOL    HW123129   0.485   4.355   1.005
 7410SOL    HW223130   0.640   4.403   0.989
 7411SOL     OW23131   2.821   6.400   4.772
 7411SOL    HW123132   2.737   6.360   4.734
 7411SOL    HW223133   2.901   6.353   4.736
 7412SOL     OW23134   2.194   0.792   0.908
 7412SOL    HW123135   2.204   0.750   0.998
 7412SOL    HW223136   2.243   0.879   0.905
 7413SOL     OW23137   6.922   3.236   4.361
 7413SOL    HW123138   6.961   3.151   4.326
 7413SOL    HW223139   6.960   3.255   4.452
 7414SOL     OW23140   6.780   0.308   2.317
 7414SOL    HW123141   6.771   0.396   2.366
 7414SOL    HW223142   6.851   0.316   2.248
 7415SOL     OW23143   1.895   3.294   3.047
 7415SOL    HW123144   1.915   3.383   3.006
 7415SOL    HW223145   1.980   3.241   3.056
 7416SOL     OW23146   3.744   1.418   4.554
 7416SOL    HW123147   3.820   1.483   4.559
 7416SOL    HW223148   3.658   1.469   4.548
 7417SOL     OW23149   1.740   0.147   5.772
 7417SOL    HW123150   1.717   0.179   5.865
 7417SOL    HW223151   1.839   0.155   5.758
 7418SOL     OW23152   2.330   4.065   1.119
 7418SOL    HW123153   2.266   4.142   1.121
 7418SOL    HW223154   2.326   4.021   1.029
 7419SOL     OW23155   5.736   1.690   4.951
 7419SOL    HW123156   5.824   1.718   4.912
 7419SOL    HW223157   5.734   1.713   5.048
 7420SOL     OW23158   6.431   6.484   1.831
 7420SOL    HW123159   6.377   6.486   1.747
 7420SOL    HW223160   6.529   6.485   1.808
 7421SOL     OW23161   3.676   4.018   1.596
 7421SOL    HW123162   3.723   3.960   1.663
 7421SOL    HW223163   3.578   3.999   1.599
 7422SOL     OW23164   0.075   3.418   0.775
 7422SOL    HW123165   0.024   3.389   0.694
 7422SOL    HW223166   0.070   3.518   0.784
 7423SOL     OW23167   2.104   4.679   6.026
 7423SOL    HW123168   2.046   4.727   6.092
 7423SOL    HW223169   2.083   4.710   5.933
 7424SOL     OW23170   5.963   1.602   4.553
 7424SOL    HW123171   5.880   1.549   4.563
 7424SOL    HW223172   5.944   1.686   4.502
 7425SOL     OW23173   3.337   4.332   5.967
 7425SOL    HW123174   3.284   4.397   5.912
 7425SOL    HW223175   3.405   4.287   5.909
 7426SOL     OW23176   0.292   1.971   6.633
 7426SOL    HW123177   0.321   1.882   6.668
 7426SOL    HW223178   0.192   1.979   6.642
 7427SOL     OW23179   3.358   6.086   4.867
 7427SOL    HW123180   3.325   6.037   4.786
 7427SOL    HW223181   3.281   6.116   4.922
 7428SOL     OW23182   3.863   2.534   5.896
 7428SOL    HW123183   3.765   2.530   5.880
 7428SOL    HW223184   3.907   2.590   5.826
 7429SOL     OW23185   0.068   0.482   2.736
 7429SOL    HW123186   0.064   0.453   2.641
 7429SOL    HW223187   0.163   0.505   2.760
 7430SOL     OW23188   6.460   3.836   4.908
 7430SOL    HW123189   6.373   3.875   4.880
 7430SOL    HW223190   6.533   3.871   4.849
 7431SOL     OW23191   0.767   3.548   1.869
 7431SOL    HW123192   0.843   3.613   1.868
 7431SOL    HW223193   0.741   3.526   1.775
 7432SOL     OW23194   0.582   6.326   3.404
 7432SOL    HW123195   0.498   6.273   3.397
 7432SOL    HW223196   0.561   6.423   3.395
 7433SOL     OW23197   6.453   5.288   1.017
 7433SOL    HW123198   6.423   5.318   0.927
 7433SOL    HW223199   6.374   5.263   1.072
 7434SOL     OW23200   2.270   1.974   6.762
 7434SOL    HW123201   2.359   1.999   6.723
 7434SOL    HW223202   2.236   1.892   6.716
 7435SOL     OW23203   3.524   6.806   6.276
 7435SOL    HW123204   3.557   6.874   6.210
 7435SOL    HW223205   3.521   6.716   6.232
 7436SOL     OW23206   5.702   3.239   6.836
 7436SOL    HW123207   5.681   3.335   6.855
 7436SOL    HW223208   5.756   3.202   6.911
 7437SOL     OW23209   0.517   4.916   6.470
 7437SOL    HW123210   0.515   5.016   6.460
 7437SOL    HW223211   0.437   4.886   6.522
 7438SOL     OW23212   0.750   4.348   2.250
 7438SOL    HW123213   0.842   4.334   2.213
 7438SOL    HW223214   0.698   4.407   2.189
 7439SOL     OW23215   2.516   0.169   4.363
 7439SOL    HW123216   2.487   0.171   4.459
 7439SOL    HW223217   2.468   0.241   4.313
 7440SOL     OW23218   1.387   2.850   4.784
 7440SOL    HW123219   1.460   2.865   4.717
 7440SOL    HW223220   1.302   2.827   4.736
 7441SOL     OW23221   5.106   1.114   4.253
 7441SOL    HW123222   5.033   1.178   4.279
 7441SOL    HW223223   5.130   1.129   4.157
 7442SOL     OW23224   1.001   1.689   6.792
 7442SOL    HW123225   1.021   1.770   6.846
 7442SOL    HW223226   0.911   1.697   6.749
 7443SOL     OW23227   6.968   2.009   6.925
 7443SOL    HW123228   6.892   1.945   6.932
 7443SOL    HW223229   0.009   1.994   7.001
 7444SOL     OW23230   6.889   3.211   6.512
 7444SOL    HW123231   6.826   3.145   6.552
 7444SOL    HW223232   6.885   3.204   6.412
 7445SOL     OW23233   5.366   1.436   1.544
 7445SOL    HW123234   5.352   1.435   1.445
 7445SOL    HW223235   5.279   1.421   1.591
 7446SOL     OW23236   6.609   3.852   0.047
 7446SOL    HW123237   6.525   3.886   0.090
 7446SOL    HW223238   6.688   3.900   0.084
 7447SOL     OW23239   1.870   4.571   0.751
 7447SOL    HW123240   1.875   4.559   0.851
 7447SOL    HW223241   1.948   4.526   0.708
 7448SOL     OW23242   5.285   0.097   5.618
 7448SOL    HW123243   5.309   0.005   5.650
 7448SOL    HW223244   5.322   0.110   5.526
 7449SOL     OW23245   4.623   2.276   2.042
 7449SOL    HW123246   4.701   2.214   2.035
 7449SOL    HW223247   4.605   2.297   2.138
 7450SOL     OW23248   4.843   2.598   3.150
 7450SOL    HW123249   4.873   2.671   3.212
 7450SOL    HW223250   4.744   2.590   3.153
 7451SOL     OW23251   1.654   1.089   4.752
 7451SOL    HW123252   1.554   1.085   4.755
 7451SOL    HW223253   1.690   1.091   4.845
 7452SOL     OW23254   1.751   0.681   5.087
 7452SOL    HW123255   1.805   0.748   5.034
 7452SOL    HW223256   1.773   0.691   5.184
 7453SOL     OW23257   5.753   6.542   4.806
 7453SOL    HW123258   5.836   6.596   4.814
 7453SOL    HW223259   5.705   6.566   4.722
 7454SOL     OW23260   0.707   3.371   1.136
 7454SOL    HW123261   0.788   3.319   1.165
 7454SOL    HW223262   0.723   3.469   1.151
 7455SOL     OW23263   5.505   2.184   0.663
 7455SOL    HW123264   5.542   2.149   0.577
 7455SOL    HW223265   5.406   2.197   0.654
 7456SOL     OW23266   1.623   3.195   4.711
 7456SOL    HW123267   1.663   3.258   4.779
 7456SOL    HW223268   1.533   3.165   4.743
 7457SOL     OW23269   5.337   1.128   5.415
 7457SOL    HW123270   5.422   1.083   5.388
 7457SOL    HW223271   5.343   1.154   5.512
 7458SOL     OW23272   2.911   6.845   0.161
 7458SOL    HW123273   2.824   6.894   0.167
 7458SOL    HW223274   2.969   6.870   0.238
 7459SOL     OW23275   4.824   0.299   5.554
 7459SOL    HW123276   4.914   0.269   5.522
 7459SOL    HW223277   4.758   0.226   5.542
 7460SOL     OW23278   2.277   4.460   0.954
 7460SOL    HW123279   2.219   4.541   0.957
 7460SOL    HW223280   2.373   4.488   0.950
 7461SOL     OW23281   5.612   1.218   6.059
 7461SOL    HW123282   5.657   1.175   6.138
 7461SOL    HW223283   5.574   1.306   6.086
 7462SOL     OW23284   2.028   2.319   1.650
 7462SOL    HW123285   1.965   2.339   1.725
 7462SOL    HW223286   2.089   2.397   1.636
 7463SOL     OW23287   3.507   3.013   1.316
 7463SOL    HW123288   3.520   2.970   1.405
 7463SOL    HW223289   3.565   3.094   1.309
 7464SOL     OW23290   3.653   6.018   0.758
 7464SOL    HW123291   3.562   5.997   0.793
 7464SOL    HW223292   3.660   5.989   0.663
 7465SOL     OW23293   1.962   0.052   1.364
 7465SOL    HW123294   1.942   6.982   1.330
 7465SOL    HW223295   1.918   0.066   1.452
 7466SOL     OW23296   0.348   0.518   6.291
 7466SOL    HW123297   0.436   0.546   6.253
 7466SOL    HW223298   0.299   0.462   6.224
 7467SOL     OW23299   0.007   2.497   1.073
 7467SOL    HW123300   7.007   2.507   1.170
 7467SOL    HW223301   0.020   2.400   1.051
 7468SOL     OW23302   4.982   2.299   2.255
 7468SOL    HW123303   5.021   2.391   2.259
 7468SOL    HW223304   4.953   2.279   2.162
 7469SOL     OW23305   1.232   6.820   6.269
 7469SOL    HW123306   1.266   6.868   6.350
 7469SOL    HW223307   1.222   6.886   6.194
 7470SOL     OW23308   0.539   2.022   2.505
 7470SOL    HW123309   0.591   1.936   2.507
 7470SOL    HW223310   0.575   2.083   2.576
 7471SOL     OW23311   6.284   6.883   5.003
 7471SOL    HW123312   6.292   6.865   4.905
 7471SOL    HW223313   6.375   6.880   5.045
 7472SOL     OW23314   4.039   0.325   4.631
 7472SOL    HW123315   3.957   0.370   4.595
 7472SOL    HW223316   4.025   0.226   4.634
 7473SOL     OW23317   0.166   3.354   4.534
 7473SOL    HW123318   0.216   3.400   4.607
 7473SOL    HW223319   0.137   3.264   4.565
 7474SOL     OW23320   3.173   0.655   4.043
 7474SOL    HW123321   3.081   0.680   4.075
 7474SOL    HW223322   3.235   0.732   4.060
 7475SOL     OW23323   4.716   0.674   2.204
 7475SOL    HW123324   4.632   0.711   2.243
 7475SOL    HW223325   4.712   0.574   2.202
 7476SOL     OW23326   4.632   6.103   4.641
 7476SOL    HW123327   4.574   6.111   4.560
 7476SOL    HW223328   4.703   6.034   4.624
 7477SOL     OW23329   4.192   1.155   4.399
 7477SOL    HW123330   4.276   1.161   4.345
 7477SOL    HW223331   4.212   1.179   4.494
 7478SOL     OW23332   3.079   3.615   6.345
 7478SOL    HW123333   3.167   3.663   6.356
 7478SOL    HW223334   3.021   3.633   6.424
 7479SOL     OW23335   3.972   1.672   0.378
 7479SOL    HW123336   4.011   1.661   0.470
 7479SOL    HW223337   3.922   1.589   0.353
 7480SOL     OW23338   5.884   5.600   1.722
 7480SOL    HW123339   5.827   5.547   1.660
 7480SOL    HW223340   5.850   5.588   1.816
 7481SOL     OW23341   5.168   5.263   0.872
 7481SOL    HW123342   5.089   5.315   0.903
 7481SOL    HW223343   5.250   5.321   0.874
 7482SOL     OW23344   3.934   0.791   1.816
 7482SOL    HW123345   3.951   0.844   1.733
 7482SOL    HW223346   4.020   0.771   1.862
 7483SOL     OW23347   3.599   1.829   4.302
 7483SOL    HW123348   3.628   1.804   4.210
 7483SOL    HW223349   3.507   1.795   4.320
 7484SOL     OW23350   1.429   6.674   1.586
 7484SOL    HW123351   1.481   6.702   1.666
 7484SOL    HW223352   1.341   6.636   1.616
 7485SOL     OW23353   3.219   6.225   5.998
 7485SOL    HW123354   3.189   6.167   5.922
 7485SOL    HW223355   3.144   6.283   6.028
 7486SOL     OW23356   3.197   0.017   4.952
 7486SOL    HW123357   3.193   6.977   4.874
 7486SOL    HW223358   3.106   0.055   4.969
 7487SOL     OW23359   2.548   6.556   3.069
 7487SOL    HW123360   2.565   6.589   3.161
 7487SOL    HW223361   2.597   6.614   3.003
 7488SOL     OW23362   2.896   6.752   5.682
 7488SOL    HW123363   2.915   6.851   5.677
 7488SOL    HW223364   2.948   6.712   5.757
 7489SOL     OW23365   4.447   2.078   4.362
 7489SOL    HW123366   4.369   2.035   4.315
 7489SOL    HW223367   4.520   2.096   4.296
 7490SOL     OW23368   0.253   0.709   0.991
 7490SOL    HW123369   0.349   0.684   1.006
 7490SOL    HW223370   0.208   0.639   0.936
 7491SOL     OW23371   0.390   5.299   6.185
 7491SOL    HW123372   0.305   5.251   6.207
 7491SOL    HW223373   0.411   5.364   6.258
 7492SOL     OW23374   1.675   2.267   5.370
 7492SOL    HW123375   1.669   2.366   5.385
 7492SOL    HW223376   1.616   2.241   5.294
 7493SOL     OW23377   6.210   4.468   6.181
 7493SOL    HW123378   6.116   4.495   6.202
 7493SOL    HW223379   6.262   4.548   6.151
 7494SOL     OW23380   5.493   0.910   2.398
 7494SOL    HW123381   5.435   0.939   2.474
 7494SOL    HW223382   5.514   0.989   2.340
 7495SOL     OW23383   1.762   1.288   1.081
 7495SOL    HW123384   1.780   1.206   1.027
 7495SOL    HW223385   1.773   1.369   1.023
 7496SOL     OW23386   1.454   4.997   5.837
 7496SOL    HW123387   1.502   5.045   5.911
 7496SOL    HW223388   1.358   5.025   5.836
 7497SOL     OW23389   2.705   5.310   2.203
 7497SOL    HW123390   2.624   5.275   2.155
 7497SOL    HW223391   2.691   5.406   2.228
 7498SOL     OW23392   2.853   0.843   4.425
 7498SOL    HW123393   2.777   0.907   4.408
 7498SOL    HW223394   2.916   0.844   4.348
 7499SOL     OW23395   5.670   6.612   3.833
 7499SOL    HW123396   5.628   6.565   3.756
 7499SOL    HW223397   5.630   6.704   3.842
 7500SOL     OW23398   3.969   5.801   2.419
 7500SOL    HW123399   3.877   5.763   2.419
 7500SOL    HW223400   3.974   5.876   2.486
 7501SOL     OW23401   0.785   2.811   4.154
 7501SOL    HW123402   0.788   2.742   4.227
 7501SOL    HW223403   0.737   2.773   4.075
 7502SOL     OW23404   1.913   1.102   5.373
 7502SOL    HW123405   1.836   1.069   5.318
 7502SOL    HW223406   1.879   1.163   5.444
 7503SOL     OW23407   2.786   0.783   6.243
 7503SOL    HW123408   2.791   0.773   6.143
 7503SOL    HW223409   2.873   0.815   6.278
 7504SOL     OW23410   4.037   6.523   3.997
 7504SOL    HW123411   4.045   6.526   3.898
 7504SOL    HW223412   3.956   6.575   4.026
 7505SOL     OW23413   2.544   0.986   5.207
 7505SOL    HW123414   2.586   1.077   5.211
 7505SOL    HW223415   2.529   0.960   5.112
 7506SOL     OW23416   3.478   0.803   2.590
 7506SOL    HW123417   3.443   0.710   2.600
 7506SOL    HW223418   3.500   0.840   2.679
 7507SOL     OW23419   0.539   6.353   6.347
 7507SOL    HW123420   0.517   6.445   6.378
 7507SOL    HW223421   0.618   6.357   6.285
 7508SOL     OW23422   5.415   6.575   2.411
 7508SOL    HW123423   5.431   6.487   2.455
 7508SOL    HW223424   5.474   6.644   2.453
 7509SOL     OW23425   5.466   4.393   0.483
 7509SOL    HW123426   5.395   4.362   0.546
 7509SOL    HW223427   5.556   4.367   0.519
 7510SOL     OW23428   3.216   3.976   4.697
 7510SOL    HW123429   3.304   4.017   4.673
 7510SOL    HW223430   3.180   4.020   4.779
 7511SOL     OW23431   1.305   0.538   2.579
 7511SOL    HW123432   1.235   0.602   2.548
 7511SOL    HW223433   1.350   0.497   2.500
 7512SOL     OW23434   2.809   3.870   1.278
 7512SOL    HW123435   2.755   3.855   1.360
 7512SOL    HW223436   2.748   3.884   1.200
 7513SOL     OW23437   1.683   2.812   6.512
 7513SOL    HW123438   1.607   2.794   6.449
 7513SOL    HW223439   1.765   2.835   6.459
 7514SOL     OW23440   2.835   6.270   1.688
 7514SOL    HW123441   2.756   6.223   1.649
 7514SOL    HW223442   2.807   6.319   1.770
 7515SOL     OW23443   0.602   0.467   2.835
 7515SOL    HW123444   0.624   0.531   2.909
 7515SOL    HW223445   0.632   0.506   2.748
 7516SOL     OW23446   6.937   6.374   4.196
 7516SOL    HW123447   6.910   6.296   4.251
 7516SOL    HW223448   6.906   6.458   4.241
 7517SOL     OW23449   6.625   3.664   1.419
 7517SOL    HW123450   6.579   3.660   1.508
 7517SOL    HW223451   6.708   3.609   1.423
 7518SOL     OW23452   3.778   5.669   3.448
 7518SOL    HW123453   3.771   5.765   3.475
 7518SOL    HW223454   3.874   5.641   3.452
 7519SOL     OW23455   1.443   6.879   4.331
 7519SOL    HW123456   1.521   6.833   4.373
 7519SOL    HW223457   1.411   6.952   4.390
 7520SOL     OW23458   1.582   0.352   2.547
 7520SOL    HW123459   1.679   0.337   2.528
 7520SOL    HW223460   1.572   0.395   2.637
 7521SOL     OW23461   4.610   4.506   5.288
 7521SOL    HW123462   4.668   4.426   5.274
 7521SOL    HW223463   4.616   4.535   5.383
 7522SOL     OW23464   2.514   1.255   6.752
 7522SOL    HW123465   2.506   1.165   6.797
 7522SOL    HW223466   2.589   1.252   6.686
 7523SOL     OW23467   6.182   6.968   5.375
 7523SOL    HW123468   6.101   6.958   5.317
 7523SOL    HW223469   6.159   6.945   5.469
 7524SOL     OW23470   6.964   1.939   5.948
 7524SOL    HW123471   0.039   1.910   5.949
 7524SOL    HW223472   6.941   1.982   6.035
 7525SOL     OW23473   2.129   0.065   0.365
 7525SOL    HW123474   2.182   0.052   0.449
 7525SOL    HW223475   2.182   0.121   0.301
 7526SOL     OW23476   3.372   2.937   3.895
 7526SOL    HW123477   3.355   3.035   3.900
 7526SOL    HW223478   3.376   2.899   3.988
 7527SOL     OW23479   5.104   4.368   2.415
 7527SOL    HW123480   5.029   4.397   2.475
 7527SOL    HW223481   5.100   4.418   2.329
 7528SOL     OW23482   4.359   2.522   0.569
 7528SOL    HW123483   4.332   2.504   0.664
 7528SOL    HW223484   4.321   2.610   0.540
 7529SOL     OW23485   4.367   1.023   4.045
 7529SOL    HW123486   4.296   1.093   4.053
 7529SOL    HW223487   4.356   0.956   4.118
 7530SOL     OW23488   0.042   3.356   2.485
 7530SOL    HW123489   0.030   3.451   2.516
 7530SOL    HW223490   0.016   3.349   2.389
 7531SOL     OW23491   4.191   1.853   3.765
 7531SOL    HW123492   4.224   1.758   3.766
 7531SOL    HW223493   4.226   1.900   3.684
 7532SOL     OW23494   5.211   5.375   1.949
 7532SOL    HW123495   5.115   5.362   1.925
 7532SOL    HW223496   5.260   5.418   1.873
 7533SOL     OW23497   2.289   1.660   3.478
 7533SOL    HW123498   2.248   1.600   3.410
 7533SOL    HW223499   2.284   1.755   3.446
 7534SOL     OW23500   3.993   6.098   5.039
 7534SOL    HW123501   3.898   6.067   5.040
 7534SOL    HW223502   4.053   6.025   5.071
 7535SOL     OW23503   2.195   1.702   5.378
 7535SOL    HW123504   2.235   1.757   5.451
 7535SOL    HW223505   2.105   1.738   5.355
 7536SOL     OW23506   4.972   4.946   5.243
 7536SOL    HW123507   4.920   4.979   5.322
 7536SOL    HW223508   5.043   4.884   5.274
 7537SOL     OW23509   2.027   4.419   4.779
 7537SOL    HW123510   2.029   4.497   4.716
 7537SOL    HW223511   1.939   4.419   4.828
 7538SOL     OW23512   3.250   3.424   2.830
 7538SOL    HW123513   3.315   3.431   2.905
 7538SOL    HW223514   3.198   3.339   2.838
 7539SOL     OW23515   2.249   2.775   5.141
 7539SOL    HW123516   2.276   2.871   5.144
 7539SOL    HW223517   2.298   2.724   5.212
 7540SOL     OW23518   3.120   0.404   7.013
 7540SOL    HW123519   3.143   0.436   0.083
 7540SOL    HW223520   3.203   0.374   6.966
 7541SOL     OW23521   6.328   3.152   5.449
 7541SOL    HW123522   6.379   3.237   5.454
 7541SOL    HW223523   6.232   3.169   5.470
 7542SOL     OW23524   1.227   6.700   5.721
 7542SOL    HW123525   1.181   6.628   5.772
 7542SOL    HW223526   1.160   6.750   5.666
 7543SOL     OW23527   4.096   2.142   0.615
 7543SOL    HW123528   4.167   2.188   0.669
 7543SOL    HW223529   4.121   2.046   0.603
 7544SOL     OW23530   0.416   2.389   2.894
 7544SOL    HW123531   0.506   2.432   2.884
 7544SOL    HW223532   0.428   2.295   2.925
 7545SOL     OW23533   4.787   6.831   3.005
 7545SOL    HW123534   4.793   6.928   2.984
 7545SOL    HW223535   4.700   6.795   2.970
 7546SOL     OW23536   4.783   1.132   0.006
 7546SOL    HW123537   4.874   1.110   6.994
 7546SOL    HW223538   4.757   1.069   0.079
 7547SOL     OW23539   4.190   0.394   0.323
 7547SOL    HW123540   4.217   0.431   0.234
 7547SOL    HW223541   4.193   0.295   0.320
 7548SOL     OW23542   1.978   1.842   0.825
 7548SOL    HW123543   2.049   1.869   0.890
 7548SOL    HW223544   2.020   1.806   0.742
 7549SOL     OW23545   5.696   1.692   2.203
 7549SOL    HW123546   5.758   1.751   2.151
 7549SOL    HW223547   5.712   1.596   2.177
 7550SOL     OW23548   2.078   5.858   2.543
 7550SOL    HW123549   2.057   5.778   2.488
 7550SOL    HW223550   2.073   5.940   2.486
 7551SOL     OW23551   4.618   3.661   0.156
 7551SOL    HW123552   4.664   3.709   0.231
 7551SOL    HW223553   4.601   3.567   0.183
 7552SOL     OW23554   2.684   5.676   4.464
 7552SOL    HW123555   2.776   5.704   4.437
 7552SOL    HW223556   2.665   5.584   4.428
 7553SOL     OW23557   3.854   4.584   5.906
 7553SOL    HW123558   3.863   4.615   5.811
 7553SOL    HW223559   3.783   4.638   5.952
 7554SOL     OW23560   4.847   2.199   0.530
 7554SOL    HW123561   4.787   2.203   0.450
 7554SOL    HW223562   4.827   2.116   0.583
 7555SOL     OW23563   0.815   5.795   5.452
 7555SOL    HW123564   0.825   5.773   5.355
 7555SOL    HW223565   0.723   5.829   5.469
 7556SOL     OW23566   0.590   3.314   5.280
 7556SOL    HW123567   0.519   3.261   5.326
 7556SOL    HW223568   0.679   3.272   5.295
 7557SOL     OW23569   5.461   3.923   6.191
 7557SOL    HW123570   5.481   3.872   6.275
 7557SOL    HW223571   5.420   3.862   6.123
 7558SOL     OW23572   2.320   2.313   4.019
 7558SOL    HW123573   2.241   2.297   3.960
 7558SOL    HW223574   2.370   2.393   3.987
 7559SOL     OW23575   6.406   4.951   0.994
 7559SOL    HW123576   6.418   4.874   1.058
 7559SOL    HW223577   6.490   4.966   0.944
 7560SOL     OW23578   4.801   6.928   0.086
 7560SOL    HW123579   4.821   6.904   7.012
 7560SOL    HW223580   4.812   6.847   0.143
 7561SOL     OW23581   0.798   3.871   0.900
 7561SOL    HW123582   0.796   3.889   0.802
 7561SOL    HW223583   0.821   3.956   0.949
 7562SOL     OW23584   5.892   6.054   4.626
 7562SOL    HW123585   5.921   6.074   4.532
 7562SOL    HW223586   5.875   6.139   4.675
 7563SOL     OW23587   2.714   0.413   1.548
 7563SOL    HW123588   2.738   0.506   1.575
 7563SOL    HW223589   2.672   0.414   1.456
 7564SOL     OW23590   5.179   0.345   3.100
 7564SOL    HW123591   5.236   0.392   3.033
 7564SOL    HW223592   5.173   0.399   3.184
 7565SOL     OW23593   4.588   4.872   6.419
 7565SOL    HW123594   4.550   4.938   6.354
 7565SOL    HW223595   4.687   4.866   6.407
 7566SOL     OW23596   0.528   5.182   3.924
 7566SOL    HW123597   0.480   5.258   3.881
 7566SOL    HW223598   0.552   5.206   4.018
 7567SOL     OW23599   2.381   3.921   6.005
 7567SOL    HW123600   2.287   3.919   5.972
 7567SOL    HW223601   2.439   3.969   5.938
 7568SOL     OW23602   5.883   5.785   4.267
 7568SOL    HW123603   5.975   5.777   4.229
 7568SOL    HW223604   5.833   5.700   4.250
 7569SOL     OW23605   4.173   6.194   6.648
 7569SOL    HW123606   4.095   6.208   6.586
 7569SOL    HW223607   4.203   6.098   6.643
 7570SOL     OW23608   5.617   4.189   4.934
 7570SOL    HW123609   5.559   4.256   4.981
 7570SOL    HW223610   5.640   4.223   4.843
 7571SOL     OW23611   5.190   3.847   2.255
 7571SOL    HW123612   5.190   3.946   2.269
 7571SOL    HW223613   5.098   3.811   2.268
 7572SOL     OW23614   5.042   0.388   4.148
 7572SOL    HW123615   5.135   0.356   4.131
 7572SOL    HW223616   5.037   0.427   4.240
 7573SOL     OW23617   6.987   5.936   4.431
 7573SOL    HW123618   6.922   5.860   4.436
 7573SOL    HW223619   0.059   5.899   4.436
 7574SOL     OW23620   5.895   1.226   3.808
 7574SOL    HW123621   5.937   1.246   3.897
 7574SOL    HW223622   5.909   1.304   3.747
 7575SOL     OW23623   4.162   0.851   6.015
 7575SOL    HW123624   4.144   0.935   5.965
 7575SOL    HW223625   4.192   0.873   6.108
 7576SOL     OW23626   5.691   5.174   0.264
 7576SOL    HW123627   5.768   5.133   0.312
 7576SOL    HW223628   5.636   5.102   0.221
 7577SOL     OW23629   6.460   0.244   4.798
 7577SOL    HW123630   6.553   0.275   4.820
 7577SOL    HW223631   6.394   0.289   4.858
 7578SOL     OW23632   2.076   6.384   4.095
 7578SOL    HW123633   2.044   6.378   4.189
 7578SOL    HW223634   2.141   6.460   4.086
 7579SOL     OW23635   4.432   2.150   1.900
 7579SOL    HW123636   4.347   2.200   1.885
 7579SOL    HW223637   4.496   2.206   1.951
 7580SOL     OW23638   1.143   3.709   2.895
 7580SOL    HW123639   1.066   3.752   2.848
 7580SOL    HW223640   1.134   3.724   2.994
 7581SOL     OW23641   4.798   1.772   0.530
 7581SOL    HW123642   4.787   1.855   0.475
 7581SOL    HW223643   4.712   1.750   0.574
 7582SOL     OW23644   3.750   1.558   0.599
 7582SOL    HW123645   3.689   1.593   0.527
 7582SOL    HW223646   3.825   1.623   0.613
 7583SOL     OW23647   5.999   4.283   2.190
 7583SOL    HW123648   5.941   4.344   2.136
 7583SOL    HW223649   6.088   4.273   2.145
 7584SOL     OW23650   2.587   6.819   1.197
 7584SOL    HW123651   2.619   6.746   1.258
 7584SOL    HW223652   2.596   6.789   1.102
 7585SOL     OW23653   0.983   4.308   6.415
 7585SOL    HW123654   0.909   4.245   6.389
 7585SOL    HW223655   0.977   4.391   6.361
 7586SOL     OW23656   2.680   0.322   2.302
 7586SOL    HW123657   2.665   0.420   2.318
 7586SOL    HW223658   2.749   0.310   2.231
 7587SOL     OW23659   2.195   1.697   6.999
 7587SOL    HW123660   2.274   1.646   0.013
 7587SOL    HW223661   2.185   1.678   6.901
 7588SOL     OW23662   0.849   4.634   1.937
 7588SOL    HW123663   0.808   4.724   1.917
 7588SOL    HW223664   0.877   4.631   2.033
 7589SOL     OW23665   6.003   6.089   0.397
 7589SOL    HW123666   6.096   6.121   0.414
 7589SOL    HW223667   5.939   6.141   0.455
 7590SOL     OW23668   2.619   1.503   5.400
 7590SOL    HW123669   2.647   1.597   5.382
 7590SOL    HW223670   2.585   1.495   5.494
 7591SOL     OW23671   0.319   5.179   0.148
 7591SOL    HW123672   0.271   5.241   0.085
 7591SOL    HW223673   0.255   5.140   0.213
 7592SOL     OW23674   7.015   4.990   0.019
 7592SOL    HW123675   0.016   5.042   6.958
 7592SOL    HW223676   0.076   4.945   0.052
 7593SOL     OW23677   5.468   2.630   6.925
 7593SOL    HW123678   5.484   2.717   6.971
 7593SOL    HW223679   5.545   2.569   6.940
 7594SOL     OW23680   0.635   4.633   2.964
 7594SOL    HW123681   0.685   4.716   2.938
 7594SOL    HW223682   0.699   4.564   2.996
 7595SOL     OW23683   0.350   2.980   6.551
 7595SOL    HW123684   0.353   3.015   6.457
 7595SOL    HW223685   0.256   2.984   6.585
 7596SOL     OW23686   5.177   5.095   2.490
 7596SOL    HW123687   5.205   5.134   2.577
 7596SOL    HW223688   5.079   5.078   2.490
 7597SOL     OW23689   3.488   5.824   1.854
 7597SOL    HW123690   3.471   5.922   1.848
 7597SOL    HW223691   3.553   5.797   1.783
 7598SOL     OW23692   6.428   0.557   3.242
 7598SOL    HW123693   6.483   0.482   3.205
 7598SOL    HW223694   6.333   0.528   3.250
 7599SOL     OW23695   5.230   1.331   3.687
 7599SOL    HW123696   5.174   1.385   3.624
 7599SOL    HW223697   5.212   1.234   3.673
 7600SOL     OW23698   1.438   0.924   2.296
 7600SOL    HW123699   1.433   0.992   2.223
 7600SOL    HW223700   1.386   0.843   2.268
 7601SOL     OW23701   1.645   5.431   3.588
 7601SOL    HW123702   1.680   5.431   3.494
 7601SOL    HW223703   1.663   5.342   3.629
 7602SOL     OW23704   2.277   4.442   4.864
 7602SOL    HW123705   2.182   4.453   4.835
 7602SOL    HW223706   2.317   4.363   4.818
 7603SOL     OW23707   1.472   6.564   6.397
 7603SOL    HW123708   1.405   6.630   6.433
 7603SOL    HW223709   1.543   6.548   6.465
 7604SOL     OW23710   3.355   6.153   3.990
 7604SOL    HW123711   3.321   6.202   3.910
 7604SOL    HW223712   3.402   6.217   4.051
 7605SOL     OW23713   1.392   5.830   0.094
 7605SOL    HW123714   1.336   5.816   0.176
 7605SOL    HW223715   1.364   5.916   0.051
 7606SOL     OW23716   0.151   2.893   2.105
 7606SOL    HW123717   0.215   2.939   2.166
 7606SOL    HW223718   0.192   2.885   2.014
 7607SOL     OW23719   4.371   6.983   0.007
 7607SOL    HW123720   4.457   0.010   7.017
 7607SOL    HW223721   4.385   6.902   0.064
 7608SOL     OW23722   3.369   4.152   3.857
 7608SOL    HW123723   3.449   4.212   3.859
 7608SOL    HW223724   3.335   4.147   3.763
 7609SOL     OW23725   6.843   3.501   3.339
 7609SOL    HW123726   6.800   3.538   3.258
 7609SOL    HW223727   6.854   3.573   3.407
 7610SOL     OW23728   6.157   0.626   1.195
 7610SOL    HW123729   6.217   0.705   1.213
 7610SOL    HW223730   6.120   0.633   1.103
 7611SOL     OW23731   1.060   2.167   0.282
 7611SOL    HW123732   1.132   2.105   0.250
 7611SOL    HW223733   0.995   2.183   0.208
 7612SOL     OW23734   3.833   1.562   4.214
 7612SOL    HW123735   3.734   1.564   4.204
 7612SOL    HW223736   3.874   1.631   4.154
 7613SOL     OW23737   4.960   1.972   1.449
 7613SOL    HW123738   4.933   1.917   1.371
 7613SOL    HW223739   4.880   2.019   1.487
 7614SOL     OW23740   3.871   2.452   1.683
 7614SOL    HW123741   3.954   2.423   1.731
 7614SOL    HW223742   3.790   2.416   1.731
 7615SOL     OW23743   5.123   4.620   6.907
 7615SOL    HW123744   5.056   4.555   6.944
 7615SOL    HW223745   5.198   4.570   6.863
 7616SOL     OW23746   0.835   4.266   4.260
 7616SOL    HW123747   0.773   4.330   4.305
 7616SOL    HW223748   0.837   4.180   4.311
 7617SOL     OW23749   2.912   5.859   3.810
 7617SOL    HW123750   2.947   5.947   3.778
 7617SOL    HW223751   2.888   5.802   3.732
 7618SOL     OW23752   1.153   2.232   6.561
 7618SOL    HW123753   1.094   2.195   6.633
 7618SOL    HW223754   1.240   2.261   6.601
 7619SOL     OW23755   5.791   3.206   5.584
 7619SOL    HW123756   5.764   3.119   5.544
 7619SOL    HW223757   5.712   3.266   5.591
 7620SOL     OW23758   3.740   0.187   1.104
 7620SOL    HW123759   3.775   0.229   1.021
 7620SOL    HW223760   3.796   0.217   1.182
 7621SOL     OW23761   0.846   0.828   0.421
 7621SOL    HW123762   0.841   0.847   0.519
 7621SOL    HW223763   0.805   0.739   0.402
 7622SOL     OW23764   5.522   2.909   1.969
 7622SOL    HW123765   5.468   2.827   1.990
 7622SOL    HW223766   5.617   2.882   1.953
 7623SOL     OW23767   4.746   5.316   6.442
 7623SOL    HW123768   4.671   5.308   6.508
 7623SOL    HW223769   4.713   5.363   6.360
 7624SOL     OW23770   0.532   2.139   4.113
 7624SOL    HW123771   0.545   2.201   4.035
 7624SOL    HW223772   0.548   2.045   4.083
 7625SOL     OW23773   5.101   0.965   0.505
 7625SOL    HW123774   5.023   0.903   0.498
 7625SOL    HW223775   5.113   1.014   0.419
 7626SOL     OW23776   0.099   6.422   4.742
 7626SOL    HW123777   0.063   6.503   4.787
 7626SOL    HW223778   0.145   6.448   4.657
 7627SOL     OW23779   6.119   3.515   0.462
 7627SOL    HW123780   6.130   3.466   0.549
 7627SOL    HW223781   6.029   3.495   0.423
 7628SOL     OW23782   3.124   1.100   1.289
 7628SOL    HW123783   3.176   1.066   1.367
 7628SOL    HW223784   3.033   1.057   1.290
 7629SOL     OW23785   6.131   6.398   2.798
 7629SOL    HW123786   6.230   6.401   2.791
 7629SOL    HW223787   6.093   6.350   2.718
 7630SOL     OW23788   5.989   6.555   2.242
 7630SOL    HW123789   6.002   6.549   2.143
 7630SOL    HW223790   6.073   6.530   2.288
 7631SOL     OW23791   1.071   2.084   5.548
 7631SOL    HW123792   1.052   2.111   5.454
 7631SOL    HW223793   1.090   1.986   5.552
 7632SOL     OW23794   3.654   1.925   1.076
 7632SOL    HW123795   3.679   1.857   1.007
 7632SOL    HW223796   3.697   2.012   1.054
 7633SOL     OW23797   5.506   2.716   0.285
 7633SOL    HW123798   5.592   2.664   0.287
 7633SOL    HW223799   5.473   2.728   0.379
 7634SOL     OW23800   0.934   1.393   2.256
 7634SOL    HW123801   1.027   1.408   2.226
 7634SOL    HW223802   0.927   1.412   2.354
 7635SOL     OW23803   2.486   5.500   5.450
 7635SOL    HW123804   2.487   5.475   5.353
 7635SOL    HW223805   2.570   5.468   5.494
 7636SOL     OW23806   0.950   1.423   3.710
 7636SOL    HW123807   1.001   1.343   3.679
 7636SOL    HW223808   0.892   1.398   3.788
 7637SOL     OW23809   2.110   6.795   3.271
 7637SOL    HW123810   2.161   6.712   3.250
 7637SOL    HW223811   2.012   6.778   3.256
 7638SOL     OW23812   5.612   5.534   1.605
 7638SOL    HW123813   5.531   5.540   1.663
 7638SOL    HW223814   5.645   5.627   1.585
 7639SOL     OW23815   1.463   2.075   6.789
 7639SOL    HW123816   1.406   1.993   6.782
 7639SOL    HW223817   1.538   2.069   6.723
 7640SOL     OW23818   2.326   1.996   0.028
 7640SOL    HW123819   2.310   2.000   6.951
 7640SOL    HW223820   2.267   2.063   0.074
 7641SOL     OW23821   1.081   4.671   1.712
 7641SOL    HW123822   1.129   4.622   1.785
 7641SOL    HW223823   1.065   4.609   1.635
 7642SOL     OW23824   2.617   1.917   2.763
 7642SOL    HW123825   2.671   1.952   2.839
 7642SOL    HW223826   2.525   1.896   2.794
 7643SOL     OW23827   4.844   2.371   3.411
 7643SOL    HW123828   4.787   2.321   3.476
 7643SOL    HW223829   4.843   2.468   3.433
 7644SOL     OW23830   6.185   2.354   2.651
 7644SOL    HW123831   6.271   2.402   2.669
 7644SOL    HW223832   6.117   2.420   2.618
 7645SOL     OW23833   4.990   5.086   6.018
 7645SOL    HW123834   4.935   5.078   6.101
 7645SOL    HW223835   5.074   5.032   6.029
 7646SOL     OW23836   1.987   2.139   2.479
 7646SOL    HW123837   1.943   2.082   2.548
 7646SOL    HW223838   1.964   2.104   2.388
 7647SOL     OW23839   0.866   3.478   1.435
 7647SOL    HW123840   0.958   3.450   1.405
 7647SOL    HW223841   0.815   3.513   1.356
 7648SOL     OW23842   4.248   2.324   3.443
 7648SOL    HW123843   4.298   2.314   3.529
 7648SOL    HW223844   4.156   2.287   3.453
 7649SOL     OW23845   0.753   0.547   2.304
 7649SOL    HW123846   0.758   0.518   2.400
 7649SOL    HW223847   0.694   0.485   2.253
 7650SOL     OW23848   6.001   3.332   2.133
 7650SOL    HW123849   5.946   3.265   2.083
 7650SOL    HW223850   5.941   3.398   2.178
 7651SOL     OW23851   1.888   0.138   6.534
 7651SOL    HW123852   1.804   0.139   6.479
 7651SOL    HW223853   1.866   0.119   6.629
 7652SOL     OW23854   6.702   3.843   4.117
 7652SOL    HW123855   6.752   3.759   4.142
 7652SOL    HW223856   6.710   3.858   4.019
 7653SOL     OW23857   1.822   1.084   0.901
 7653SOL    HW123858   1.865   0.999   0.932
 7653SOL    HW223859   1.846   1.101   0.805
 7654SOL     OW23860   5.038   2.473   2.984
 7654SOL    HW123861   4.967   2.418   2.940
 7654SOL    HW223862   5.000   2.521   3.063
 7655SOL     OW23863   3.805   0.195   3.891
 7655SOL    HW123864   3.750   0.269   3.851
 7655SOL    HW223865   3.851   0.145   3.818
 7656SOL     OW23866   0.824   5.985   6.145
 7656SOL    HW123867   0.880   5.926   6.204
 7656SOL    HW223868   0.767   5.929   6.086
 7657SOL     OW23869   3.077   2.128   2.684
 7657SOL    HW123870   2.987   2.121   2.643
 7657SOL    HW223871   3.146   2.137   2.612
 7658SOL     OW23872   4.409   0.158   6.027
 7658SOL    HW123873   4.369   0.154   6.118
 7658SOL    HW223874   4.422   0.065   5.991
 7659SOL     OW23875   5.566   6.667   0.091
 7659SOL    HW123876   5.473   6.706   0.087
 7659SOL    HW223877   5.561   6.568   0.077
 7660SOL     OW23878   5.988   5.739   4.520
 7660SOL    HW123879   5.946   5.783   4.440
 7660SOL    HW223880   5.928   5.752   4.599
 7661SOL     OW23881   6.027   1.931   4.405
 7661SOL    HW123882   5.973   1.971   4.331
 7661SOL    HW223883   5.996   1.969   4.492
 7662SOL     OW23884   1.644   2.588   2.033
 7662SOL    HW123885   1.583   2.519   1.995
 7662SOL    HW223886   1.721   2.543   2.080
 7663SOL     OW23887   6.605   5.879   6.381
 7663SOL    HW123888   6.636   5.973   6.389
 7663SOL    HW223889   6.625   5.845   6.289
 7664SOL     OW23890   3.148   6.801   2.719
 7664SOL    HW123891   3.217   6.775   2.652
 7664SOL    HW223892   3.153   6.740   2.798
 7665SOL     OW23893   3.446   6.944   3.557
 7665SOL    HW123894   3.400   7.004   3.623
 7665SOL    HW223895   3.507   6.882   3.606
 7666SOL     OW23896   6.863   6.968   1.590
 7666SOL    HW123897   6.818   0.013   1.530
 7666SOL    HW223898   6.959   6.994   1.601
 7667SOL     OW23899   5.571   5.754   0.489
 7667SOL    HW123900   5.613   5.676   0.535
 7667SOL    HW223901   5.632   5.787   0.416
 7668SOL     OW23902   3.171   3.933   1.393
 7668SOL    HW123903   3.233   3.863   1.357
 7668SOL    HW223904   3.134   3.987   1.318
 7669SOL     OW23905   5.280   1.534   4.583
 7669SOL    HW123906   5.344   1.603   4.550
 7669SOL    HW223907   5.279   1.536   4.683
 7670SOL     OW23908   1.378   6.225   6.432
 7670SOL    HW123909   1.333   6.301   6.478
 7670SOL    HW223910   1.419   6.164   6.500
 7671SOL     OW23911   4.473   1.153   4.329
 7671SOL    HW123912   4.505   1.209   4.405
 7671SOL    HW223913   4.512   1.186   4.243
 7672SOL     OW23914   5.945   6.958   3.632
 7672SOL    HW123915   5.971   6.892   3.561
 7672SOL    HW223916   5.992   6.934   3.717
 7673SOL     OW23917   2.153   5.014   0.702
 7673SOL    HW123918   2.161   4.940   0.636
 7673SOL    HW223919   2.106   4.981   0.784
 7674SOL     OW23920   6.885   1.869   4.159
 7674SOL    HW123921   6.877   1.858   4.060
 7674SOL    HW223922   6.980   1.850   4.187
 7675SOL     OW23923   5.228   0.546   2.193
 7675SOL    HW123924   5.204   0.449   2.188
 7675SOL    HW223925   5.231   0.574   2.289
 7676SOL     OW23926   0.414   1.851   0.125
 7676SOL    HW123927   0.358   1.860   0.207
 7676SOL    HW223928   0.406   1.933   0.069
 7677SOL     OW23929   1.596   3.022   2.044
 7677SOL    HW123930   1.543   3.104   2.065
 7677SOL    HW223931   1.544   2.941   2.068
 7678SOL     OW23932   1.195   1.126   6.167
 7678SOL    HW123933   1.233   1.034   6.166
 7678SOL    HW223934   1.269   1.192   6.180
 7679SOL     OW23935   1.467   5.947   4.848
 7679SOL    HW123936   1.544   5.980   4.903
 7679SOL    HW223937   1.382   5.961   4.899
 7680SOL     OW23938   2.322   3.207   6.859
 7680SOL    HW123939   2.334   3.108   6.863
 7680SOL    HW223940   2.374   3.244   6.783
 7681SOL     OW23941   3.195   0.165   0.313
 7681SOL    HW123942   3.166   0.230   0.242
 7681SOL    HW223943   3.287   0.132   0.292
 7682SOL     OW23944   2.182   0.269   1.570
 7682SOL    HW123945   2.270   0.226   1.552
 7682SOL    HW223946   2.179   0.359   1.528
 7683SOL     OW23947   6.497   2.416   3.468
 7683SOL    HW123948   6.582   2.363   3.463
 7683SOL    HW223949   6.457   2.423   3.377
 7684SOL     OW23950   5.898   2.324   6.973
 7684SOL    HW123951   5.878   2.227   6.962
 7684SOL    HW223952   5.814   2.377   6.960
 7685SOL     OW23953   3.837   2.399   6.955
 7685SOL    HW123954   3.792   2.437   0.015
 7685SOL    HW223955   3.773   2.401   6.878
 7686SOL     OW23956   4.202   0.304   3.060
 7686SOL    HW123957   4.106   0.328   3.072
 7686SOL    HW223958   4.248   0.305   3.149
 7687SOL     OW23959   5.374   5.740   5.750
 7687SOL    HW123960   5.354   5.834   5.725
 7687SOL    HW223961   5.462   5.736   5.797
 7688SOL     OW23962   0.061   6.731   6.520
 7688SOL    HW123963   0.045   6.825   6.491
 7688SOL    HW223964   0.099   6.730   6.612
 7689SOL     OW23965   4.909   6.016   3.864
 7689SOL    HW123966   4.993   5.963   3.859
 7689SOL    HW223967   4.903   6.077   3.785
 7690SOL     OW23968   5.756   5.470   2.525
 7690SOL    HW123969   5.723   5.485   2.618
 7690SOL    HW223970   5.855   5.457   2.526
 7691SOL     OW23971   4.839   2.907   4.343
 7691SOL    HW123972   4.804   2.813   4.347
 7691SOL    HW223973   4.841   2.937   4.248
 7692SOL     OW23974   0.637   6.733   1.430
 7692SOL    HW123975   0.672   6.826   1.440
 7692SOL    HW223976   0.682   6.673   1.495
 7693SOL     OW23977   4.284   1.083   7.013
 7693SOL    HW123978   4.337   1.007   0.031
 7693SOL    HW223979   4.187   1.066   0.005
 7694SOL     OW23980   1.127   4.587   3.883
 7694SOL    HW123981   1.164   4.524   3.951
 7694SOL    HW223982   1.118   4.540   3.795
 7695SOL     OW23983   4.066   0.124   0.828
 7695SOL    HW123984   4.153   0.153   0.867
 7695SOL    HW223985   4.076   0.112   0.729
 7696SOL     OW23986   6.935   2.070   4.348
 7696SOL    HW123987   6.899   1.994   4.295
 7696SOL    HW223988   0.010   2.085   4.325
 7697SOL     OW23989   2.566   1.013   3.170
 7697SOL    HW123990   2.666   1.009   3.165
 7697SOL    HW223991   2.528   1.010   3.078
 7698SOL     OW23992   0.371   2.959   4.350
 7698SOL    HW123993   0.344   3.018   4.274
 7698SOL    HW223994   0.382   3.014   4.432
 7699SOL     OW23995   2.728   5.776   6.844
 7699SOL    HW123996   2.787   5.851   6.874
 7699SOL    HW223997   2.766   5.733   6.762
 7700SOL     OW23998   4.971   6.692   5.328
 7700SOL    HW123999   4.963   6.662   5.233
 7700SOL    HW224000   5.027   6.775   5.333
 7701SOL     OW24001   6.283   1.397   6.567
 7701SOL    HW124002   6.353   1.336   6.529
 7701SOL    HW224003   6.327   1.467   6.623
 7702SOL     OW24004   3.854   6.239   6.019
 7702SOL    HW124005   3.833   6.149   5.980
 7702SOL    HW224006   3.772   6.277   6.061
 7703SOL     OW24007   6.509   1.531   5.205
 7703SOL    HW124008   6.442   1.597   5.238
 7703SOL    HW224009   6.496   1.516   5.107
 7704SOL     OW24010   4.381   4.663   5.913
 7704SOL    HW124011   4.456   4.724   5.938
 7704SOL    HW224012   4.329   4.640   5.996
 7705SOL     OW24013   3.303   4.660   5.533
 7705SOL    HW124014   3.221   4.683   5.584
 7705SOL    HW224015   3.382   4.660   5.594
 7706SOL     OW24016   5.495   1.100   5.854
 7706SOL    HW124017   5.538   1.146   5.931
 7706SOL    HW224018   5.481   1.004   5.877
 7707SOL     OW24019   0.474   5.493   6.403
 7707SOL    HW124020   0.570   5.519   6.409
 7707SOL    HW224021   0.418   5.559   6.453
 7708SOL     OW24022   5.089   6.096   5.065
 7708SOL    HW124023   5.017   6.154   5.026
 7708SOL    HW224024   5.050   6.036   5.134
 7709SOL     OW24025   5.418   3.218   2.241
 7709SOL    HW124026   5.514   3.216   2.271
 7709SOL    HW224027   5.394   3.130   2.200
 7710SOL     OW24028   2.034   0.506   1.157
 7710SOL    HW124029   2.058   0.538   1.066
 7710SOL    HW224030   1.962   0.564   1.195
 7711SOL     OW24031   6.384   6.602   5.134
 7711SOL    HW124032   6.292   6.636   5.114
 7711SOL    HW224033   6.390   6.505   5.111
 7712SOL     OW24034   6.628   5.150   1.328
 7712SOL    HW124035   6.609   5.199   1.413
 7712SOL    HW224036   6.612   5.210   1.250
 7713SOL     OW24037   2.254   3.695   0.884
 7713SOL    HW124038   2.253   3.787   0.921
 7713SOL    HW224039   2.288   3.631   0.953
 7714SOL     OW24040   6.352   5.054   4.766
 7714SOL    HW124041   6.349   4.972   4.823
 7714SOL    HW224042   6.394   5.032   4.678
 7715SOL     OW24043   4.942   1.089   1.152
 7715SOL    HW124044   4.997   1.061   1.231
 7715SOL    HW224045   4.874   1.018   1.132
 7716SOL     OW24046   4.997   3.088   3.367
 7716SOL    HW124047   4.987   3.187   3.375
 7716SOL    HW224048   4.909   3.044   3.388
 7717SOL     OW24049   2.529   1.559   5.074
 7717SOL    HW124050   2.617   1.560   5.123
 7717SOL    HW224051   2.456   1.538   5.139
 7718SOL     OW24052   1.573   1.941   3.599
 7718SOL    HW124053   1.478   1.957   3.627
 7718SOL    HW224054   1.633   2.000   3.652
 7719SOL     OW24055   6.676   3.386   3.663
 7719SOL    HW124056   6.748   3.343   3.608
 7719SOL    HW224057   6.642   3.321   3.730
 7720SOL     OW24058   6.831   6.644   0.883
 7720SOL    HW124059   6.870   6.710   0.948
 7720SOL    HW224060   6.847   6.551   0.916
 7721SOL     OW24061   2.100   4.089   2.959
 7721SOL    HW124062   2.059   4.132   2.879
 7721SOL    HW224063   2.027   4.061   3.022
 7722SOL     OW24064   0.362   5.113   2.578
 7722SOL    HW124065   0.437   5.168   2.613
 7722SOL    HW224066   0.375   5.017   2.605
 7723SOL     OW24067   6.869   3.976   0.849
 7723SOL    HW124068   6.831   3.913   0.781
 7723SOL    HW224069   6.919   4.049   0.802
 7724SOL     OW24070   2.228   4.652   2.089
 7724SOL    HW124071   2.326   4.662   2.109
 7724SOL    HW224072   2.217   4.616   1.996
 7725SOL     OW24073   5.276   2.580   2.896
 7725SOL    HW124074   5.299   2.599   2.992
 7725SOL    HW224075   5.186   2.537   2.890
 7726SOL     OW24076   0.382   4.474   3.925
 7726SOL    HW124077   0.330   4.556   3.903
 7726SOL    HW224078   0.480   4.494   3.922
 7727SOL     OW24079   5.939   1.719   3.929
 7727SOL    HW124080   6.034   1.729   3.958
 7727SOL    HW224081   5.927   1.763   3.840
 7728SOL     OW24082   1.118   3.211   2.958
 7728SOL    HW124083   1.071   3.280   3.013
 7728SOL    HW224084   1.152   3.139   3.018
 7729SOL     OW24085   6.029   2.553   1.460
 7729SOL    HW124086   5.933   2.579   1.459
 7729SOL    HW224087   6.042   2.471   1.515
 7730SOL     OW24088   5.971   5.734   2.296
 7730SOL    HW124089   6.025   5.721   2.213
 7730SOL    HW224090   5.875   5.712   2.277
 7731SOL     OW24091   6.026   1.048   0.908
 7731SOL    HW124092   5.963   1.080   0.838
 7731SOL    HW224093   6.104   1.111   0.914
 7732SOL     OW24094   4.571   6.063   0.656
 7732SOL    HW124095   4.541   5.994   0.590
 7732SOL    HW224096   4.516   6.054   0.740
 7733SOL     OW24097   4.149   6.702   1.655
 7733SOL    HW124098   4.167   6.613   1.613
 7733SOL    HW224099   4.235   6.746   1.680
 7734SOL     OW24100   1.424   3.542   3.302
 7734SOL    HW124101   1.412   3.635   3.267
 7734SOL    HW224102   1.449   3.546   3.399
 7735SOL     OW24103   4.601   4.628   6.829
 7735SOL    HW124104   4.597   4.528   6.838
 7735SOL    HW224105   4.567   4.654   6.739
 7736SOL     OW24106   5.477   4.666   0.458
 7736SOL    HW124107   5.453   4.569   0.460
 7736SOL    HW224108   5.554   4.682   0.519
 7737SOL     OW24109   4.697   1.620   0.830
 7737SOL    HW124110   4.683   1.554   0.757
 7737SOL    HW224111   4.645   1.703   0.811
 7738SOL     OW24112   2.406   6.025   0.752
 7738SOL    HW124113   2.487   6.051   0.701
 7738SOL    HW224114   2.377   6.100   0.811
 7739SOL     OW24115   0.297   2.285   0.937
 7739SOL    HW124116   0.348   2.292   1.023
 7739SOL    HW224117   0.337   2.347   0.869
 7740SOL     OW24118   0.322   0.411   2.897
 7740SOL    HW124119   0.419   0.429   2.881
 7740SOL    HW224120   0.312   0.354   2.979
 7741SOL     OW24121   1.513   5.694   4.780
 7741SOL    HW124122   1.535   5.667   4.686
 7741SOL    HW224123   1.494   5.792   4.783
 7742SOL     OW24124   6.291   1.651   3.407
 7742SOL    HW124125   6.250   1.735   3.444
 7742SOL    HW224126   6.308   1.663   3.309
 7743SOL     OW24127   4.656   3.266   5.942
 7743SOL    HW124128   4.558   3.260   5.920
 7743SOL    HW224129   4.696   3.175   5.943
 7744SOL     OW24130   0.161   6.250   4.025
 7744SOL    HW124131   0.252   6.266   3.987
 7744SOL    HW224132   0.120   6.337   4.051
 7745SOL     OW24133   3.743   2.136   6.182
 7745SOL    HW124134   3.783   2.073   6.249
 7745SOL    HW224135   3.808   2.208   6.160
 7746SOL     OW24136   2.275   0.236   0.217
 7746SOL    HW124137   2.263   0.281   0.306
 7746SOL    HW224138   2.224   0.285   0.147
 7747SOL     OW24139   4.995   6.341   0.785
 7747SOL    HW124140   5.017   6.310   0.877
 7747SOL    HW224141   4.898   6.367   0.781
 7748SOL     OW24142   3.153   3.640   5.817
 7748SOL    HW124143   3.115   3.729   5.844
 7748SOL    HW224144   3.187   3.646   5.723
 7749SOL     OW24145   4.642   2.987   5.824
 7749SOL    HW124146   4.594   2.966   5.909
 7749SOL    HW224147   4.740   2.967   5.836
 7750SOL     OW24148   0.779   6.151   1.447
 7750SOL    HW124149   0.838   6.206   1.388
 7750SOL    HW224150   0.708   6.208   1.486
 7751SOL     OW24151   1.354   2.007   2.034
 7751SOL    HW124152   1.338   1.908   2.033
 7751SOL    HW224153   1.297   2.051   1.965
 7752SOL     OW24154   4.870   0.751   4.642
 7752SOL    HW124155   4.948   0.747   4.704
 7752SOL    HW224156   4.902   0.762   4.548
 7753SOL     OW24157   2.025   1.458   4.259
 7753SOL    HW124158   2.023   1.556   4.276
 7753SOL    HW224159   2.118   1.424   4.273
 7754SOL     OW24160   3.722   6.235   1.819
 7754SOL    HW124161   3.701   6.144   1.781
 7754SOL    HW224162   3.652   6.300   1.790
 7755SOL     OW24163   1.530   4.117   6.788
 7755SOL    HW124164   1.539   4.026   6.829
 7755SOL    HW224165   1.615   4.169   6.804
 7756SOL     OW24166   2.246   6.064   1.386
 7756SOL    HW124167   2.308   6.141   1.373
 7756SOL    HW224168   2.295   5.988   1.428
 7757SOL     OW24169   0.205   4.740   1.654
 7757SOL    HW124170   0.268   4.674   1.694
 7757SOL    HW224171   0.164   4.795   1.726
 7758SOL     OW24172   1.588   1.032   6.244
 7758SOL    HW124173   1.620   1.114   6.196
 7758SOL    HW224174   1.501   1.002   6.205
 7759SOL     OW24175   2.475   2.171   6.181
 7759SOL    HW124176   2.557   2.175   6.124
 7759SOL    HW224177   2.428   2.084   6.167
 7760SOL     OW24178   4.290   1.962   1.784
 7760SOL    HW124179   4.315   2.048   1.827
 7760SOL    HW224180   4.321   1.962   1.689
 7761SOL     OW24181   5.409   5.315   4.264
 7761SOL    HW124182   5.355   5.385   4.311
 7761SOL    HW224183   5.430   5.241   4.328
 7762SOL     OW24184   0.251   0.238   3.800
 7762SOL    HW124185   0.187   0.170   3.837
 7762SOL    HW224186   0.217   0.330   3.819
 7763SOL     OW24187   2.538   0.428   5.278
 7763SOL    HW124188   2.461   0.383   5.234
 7763SOL    HW224189   2.549   0.392   5.371
 7764SOL     OW24190   3.282   3.785   5.290
 7764SOL    HW124191   3.283   3.884   5.273
 7764SOL    HW224192   3.228   3.740   5.219
 7765SOL     OW24193   7.009   3.273   3.897
 7765SOL    HW124194   0.022   3.187   3.859
 7765SOL    HW224195   6.920   3.295   3.856
 7766SOL     OW24196   0.856   4.612   0.272
 7766SOL    HW124197   0.777   4.597   0.333
 7766SOL    HW224198   0.933   4.645   0.326
 7767SOL     OW24199   3.720   0.503   2.531
 7767SOL    HW124200   3.707   0.426   2.593
 7767SOL    HW224201   3.650   0.499   2.459
 7768SOL     OW24202   4.489   4.805   2.823
 7768SOL    HW124203   4.572   4.748   2.817
 7768SOL    HW224204   4.499   4.884   2.763
 7769SOL     OW24205   3.915   2.065   5.423
 7769SOL    HW124206   3.836   2.113   5.386
 7769SOL    HW224207   3.982   2.049   5.350
 7770SOL     OW24208   1.220   3.120   4.721
 7770SOL    HW124209   1.247   3.062   4.798
 7770SOL    HW224210   1.281   3.200   4.716
 7771SOL     OW24211   3.249   2.678   5.894
 7771SOL    HW124212   3.275   2.583   5.914
 7771SOL    HW224213   3.284   2.737   5.967
 7772SOL     OW24214   5.228   0.855   1.197
 7772SOL    HW124215   5.292   0.866   1.121
 7772SOL    HW224216   5.245   0.767   1.241
 7773SOL     OW24217   3.378   5.765   0.306
 7773SOL    HW124218   3.478   5.755   0.302
 7773SOL    HW224219   3.336   5.675   0.314
 7774SOL     OW24220   5.000   1.899   2.721
 7774SOL    HW124221   5.041   1.972   2.666
 7774SOL    HW224222   5.072   1.851   2.770
 7775SOL     OW24223   3.530   0.848   6.871
 7775SOL    HW124224   3.504   0.762   6.827
 7775SOL    HW224225   3.568   0.829   6.961
 7776SOL     OW24226   1.012   6.687   5.331
 7776SOL    HW124227   0.934   6.696   5.270
 7776SOL    HW224228   1.064   6.773   5.332
 7777SOL     OW24229   5.864   5.010   4.097
 7777SOL    HW124230   5.917   4.990   4.015
 7777SOL    HW224231   5.780   4.956   4.097
 7778SOL     OW24232   6.354   4.315   2.821
 7778SOL    HW124233   6.308   4.393   2.779
 7778SOL    HW224234   6.389   4.342   2.911
 7779SOL     OW24235   3.046   6.247   2.104
 7779SOL    HW124236   3.084   6.218   2.192
 7779SOL    HW224237   2.993   6.172   2.064
 7780SOL     OW24238   6.418   5.670   5.444
 7780SOL    HW124239   6.513   5.696   5.460
 7780SOL    HW224240   6.406   5.572   5.464
 7781SOL     OW24241   1.968   2.761   0.569
 7781SOL    HW124242   1.954   2.662   0.563
 7781SOL    HW224243   1.951   2.802   0.479
 7782SOL     OW24244   6.576   4.567   3.372
 7782SOL    HW124245   6.486   4.576   3.330
 7782SOL    HW224246   6.644   4.611   3.313
 7783SOL     OW24247   0.920   7.011   5.322
 7783SOL    HW124248   0.900   0.086   5.310
 7783SOL    HW224249   0.867   6.975   5.399
 7784SOL     OW24250   2.513   2.508   2.103
 7784SOL    HW124251   2.488   2.416   2.133
 7784SOL    HW224252   2.589   2.502   2.038
 7785SOL     OW24253   1.827   6.167   2.702
 7785SOL    HW124254   1.771   6.084   2.705
 7785SOL    HW224255   1.923   6.142   2.694
 7786SOL     OW24256   4.005   0.521   0.055
 7786SOL    HW124257   3.994   0.543   0.152
 7786SOL    HW224258   4.089   0.470   0.041
 7787SOL     OW24259   2.691   3.386   1.114
 7787SOL    HW124260   2.660   3.342   1.198
 7787SOL    HW224261   2.684   3.322   1.038
 7788SOL     OW24262   1.709   4.641   1.288
 7788SOL    HW124263   1.634   4.574   1.281
 7788SOL    HW224264   1.677   4.721   1.339
 7789SOL     OW24265   3.567   0.436   6.543
 7789SOL    HW124266   3.657   0.403   6.570
 7789SOL    HW224267   3.505   0.359   6.529
 7790SOL     OW24268   5.807   4.955   2.485
 7790SOL    HW124269   5.735   4.898   2.445
 7790SOL    HW224270   5.864   4.993   2.413
 7791SOL     OW24271   2.029   5.725   1.662
 7791SOL    HW124272   2.039   5.631   1.628
 7791SOL    HW224273   2.051   5.726   1.760
 7792SOL     OW24274   0.618   1.402   2.860
 7792SOL    HW124275   0.609   1.350   2.945
 7792SOL    HW224276   0.702   1.375   2.813
 7793SOL     OW24277   3.996   1.673   0.090
 7793SOL    HW124278   4.078   1.724   0.064
 7793SOL    HW224279   3.979   1.684   0.187
 7794SOL     OW24280   0.962   5.616   2.758
 7794SOL    HW124281   0.999   5.685   2.821
 7794SOL    HW224282   1.037   5.560   2.723
 7795SOL     OW24283   2.894   5.530   5.906
 7795SOL    HW124284   2.902   5.453   5.970
 7795SOL    HW224285   2.948   5.607   5.939
 7796SOL     OW24286   3.732   3.096   6.144
 7796SOL    HW124287   3.672   3.020   6.119
 7796SOL    HW224288   3.749   3.093   6.243
 7797SOL     OW24289   0.950   5.285   3.027
 7797SOL    HW124290   0.881   5.280   2.955
 7797SOL    HW224291   0.909   5.258   3.114
 7798SOL     OW24292   0.575   2.001   1.511
 7798SOL    HW124293   0.638   2.052   1.569
 7798SOL    HW224294   0.624   1.925   1.468
 7799SOL     OW24295   2.667   6.332   2.936
 7799SOL    HW124296   2.710   6.248   2.966
 7799SOL    HW224297   2.645   6.389   3.015
 7800SOL     OW24298   0.866   6.067   0.949
 7800SOL    HW124299   0.944   6.006   0.965
 7800SOL    HW224300   0.782   6.013   0.947
 7801SOL     OW24301   1.474   2.673   2.661
 7801SOL    HW124302   1.472   2.578   2.691
 7801SOL    HW224303   1.390   2.719   2.689
 7802SOL     OW24304   6.510   3.971   5.861
 7802SOL    HW124305   6.551   4.051   5.903
 7802SOL    HW224306   6.446   4.000   5.790
 7803SOL     OW24307   5.173   2.316   5.566
 7803SOL    HW124308   5.168   2.338   5.663
 7803SOL    HW224309   5.261   2.273   5.546
 7804SOL     OW24310   2.298   2.066   4.530
 7804SOL    HW124311   2.301   1.987   4.592
 7804SOL    HW224312   2.303   2.150   4.584
 7805SOL     OW24313   5.478   2.534   1.780
 7805SOL    HW124314   5.498   2.579   1.693
 7805SOL    HW224315   5.563   2.529   1.834
 7806SOL     OW24316   6.385   2.098   5.294
 7806SOL    HW124317   6.407   2.188   5.332
 7806SOL    HW224318   6.426   2.089   5.204
 7807SOL     OW24319   2.379   4.828   5.952
 7807SOL    HW124320   2.432   4.787   5.878
 7807SOL    HW224321   2.341   4.756   6.011
 7808SOL     OW24322   5.079   4.137   2.859
 7808SOL    HW124323   5.057   4.233   2.875
 7808SOL    HW224324   5.136   4.128   2.778
 7809SOL     OW24325   5.290   5.279   3.520
 7809SOL    HW124326   5.281   5.179   3.512
 7809SOL    HW224327   5.210   5.323   3.478
 7810SOL     OW24328   4.479   6.144   4.869
 7810SOL    HW124329   4.491   6.081   4.946
 7810SOL    HW224330   4.556   6.134   4.806
 7811SOL     OW24331   1.261   5.490   2.335
 7811SOL    HW124332   1.315   5.556   2.283
 7811SOL    HW224333   1.320   5.417   2.369
 7812SOL     OW24334   2.770   2.652   5.636
 7812SOL    HW124335   2.818   2.715   5.697
 7812SOL    HW224336   2.682   2.692   5.611
 7813SOL     OW24337   5.686   2.507   1.442
 7813SOL    HW124338   5.613   2.562   1.401
 7813SOL    HW224339   5.656   2.412   1.450
 7814SOL     OW24340   6.328   3.065   2.070
 7814SOL    HW124341   6.373   3.075   1.981
 7814SOL    HW224342   6.229   3.057   2.056
 7815SOL     OW24343   6.158   2.666   5.586
 7815SOL    HW124344   6.076   2.714   5.555
 7815SOL    HW224345   6.144   2.568   5.578
 7816SOL     OW24346   0.679   1.705   5.388
 7816SOL    HW124347   0.710   1.792   5.425
 7816SOL    HW224348   0.623   1.722   5.307
 7817SOL     OW24349   2.967   3.438   6.162
 7817SOL    HW124350   2.871   3.419   6.182
 7817SOL    HW224351   3.006   3.494   6.234
 7818SOL     OW24352   5.260   1.416   2.224
 7818SOL    HW124353   5.270   1.416   2.323
 7818SOL    HW224354   5.164   1.401   2.200
 7819SOL     OW24355   0.815   3.803   4.305
 7819SOL    HW124356   0.870   3.724   4.335
 7819SOL    HW224357   0.775   3.783   4.216
 7820SOL     OW24358   1.476   0.862   5.546
 7820SOL    HW124359   1.490   0.764   5.533
 7820SOL    HW224360   1.380   0.884   5.533
 7821SOL     OW24361   6.284   5.725   0.305
 7821SOL    HW124362   6.226   5.803   0.282
 7821SOL    HW224363   6.277   5.656   0.233
 7822SOL     OW24364   1.380   1.148   4.769
 7822SOL    HW124365   1.353   1.244   4.780
 7822SOL    HW224366   1.358   1.098   4.852
 7823SOL     OW24367   1.267   4.132   6.780
 7823SOL    HW124368   1.268   4.153   6.877
 7823SOL    HW224369   1.360   4.137   6.743
 7824SOL     OW24370   5.541   2.246   2.640
 7824SOL    HW124371   5.591   2.216   2.558
 7824SOL    HW224372   5.453   2.284   2.612
 7825SOL     OW24373   2.774   2.988   1.438
 7825SOL    HW124374   2.705   2.922   1.466
 7825SOL    HW224375   2.864   2.944   1.438
 7826SOL     OW24376   5.896   1.287   0.290
 7826SOL    HW124377   5.899   1.380   0.327
 7826SOL    HW224378   5.983   1.242   0.308
 7827SOL     OW24379   4.735   5.221   1.833
 7827SOL    HW124380   4.678   5.217   1.915
 7827SOL    HW224381   4.791   5.139   1.828
 7828SOL     OW24382   1.125   6.239   0.686
 7828SOL    HW124383   1.120   6.330   0.645
 7828SOL    HW224384   1.074   6.238   0.771
 7829SOL     OW24385   2.904   2.944   1.751
 7829SOL    HW124386   2.959   3.017   1.712
 7829SOL    HW224387   2.953   2.857   1.745
 7830SOL     OW24388   6.173   3.511   6.493
 7830SOL    HW124389   6.193   3.541   6.587
 7830SOL    HW224390   6.113   3.431   6.496
 7831SOL     OW24391   1.144   3.404   0.555
 7831SOL    HW124392   1.127   3.399   0.456
 7831SOL    HW224393   1.064   3.443   0.601
 7832SOL     OW24394   2.656   1.825   5.330
 7832SOL    HW124395   2.717   1.879   5.386
 7832SOL    HW224396   2.709   1.770   5.266
 7833SOL     OW24397   0.794   6.689   0.381
 7833SOL    HW124398   0.804   6.787   0.395
 7833SOL    HW224399   0.770   6.672   0.285
 7834SOL     OW24400   0.630   0.757   2.081
 7834SOL    HW124401   0.545   0.808   2.071
 7834SOL    HW224402   0.619   0.665   2.042
 7835SOL     OW24403   2.312   2.870   4.783
 7835SOL    HW124404   2.278   2.923   4.706
 7835SOL    HW224405   2.338   2.931   4.858
 7836SOL     OW24406   2.996   6.877   6.509
 7836SOL    HW124407   3.085   6.853   6.470
 7836SOL    HW224408   2.941   6.926   6.442
 7837SOL     OW24409   5.871   6.693   2.541
 7837SOL    HW124410   5.862   6.668   2.638
 7837SOL    HW224411   5.785   6.729   2.507
 7838SOL     OW24412   4.297   0.003   4.333
 7838SOL    HW124413   4.269   7.009   4.428
 7838SOL    HW224414   4.350   6.946   4.301
 7839SOL     OW24415   5.857   4.545   4.549
 7839SOL    HW124416   5.930   4.479   4.528
 7839SOL    HW224417   5.768   4.502   4.536
 7840SOL     OW24418   4.814   2.911   3.985
 7840SOL    HW124419   4.847   2.993   4.032
 7840SOL    HW224420   4.718   2.923   3.961
 7841SOL     OW24421   6.724   2.216   6.802
 7841SOL    HW124422   6.758   2.199   6.895
 7841SOL    HW224423   6.800   2.214   6.738
 7842SOL     OW24424   2.199   1.659   2.993
 7842SOL    HW124425   2.142   1.734   2.958
 7842SOL    HW224426   2.165   1.572   2.958
 7843SOL     OW24427   5.637   4.098   1.457
 7843SOL    HW124428   5.678   4.092   1.366
 7843SOL    HW224429   5.686   4.165   1.512
 7844SOL     OW24430   4.318   0.605   3.274
 7844SOL    HW124431   4.383   0.649   3.212
 7844SOL    HW224432   4.228   0.648   3.264
 7845SOL     OW24433   6.832   0.814   4.169
 7845SOL    HW124434   6.907   0.876   4.189
 7845SOL    HW224435   6.865   0.720   4.168
 7846SOL     OW24436   2.043   0.613   1.691
 7846SOL    HW124437   2.125   0.618   1.748
 7846SOL    HW224438   2.001   0.703   1.683
 7847SOL     OW24439   0.249   0.546   0.766
 7847SOL    HW124440   0.182   0.540   0.693
 7847SOL    HW224441   0.298   0.459   0.774
 7848SOL     OW24442   4.075   3.993   1.486
 7848SOL    HW124443   4.022   3.942   1.418
 7848SOL    HW224444   4.015   4.059   1.531
 7849SOL     OW24445   5.047   2.992   4.518
 7849SOL    HW124446   4.972   2.956   4.463
 7849SOL    HW224447   5.015   3.013   4.610
 7850SOL     OW24448   6.888   1.047   5.167
 7850SOL    HW124449   6.802   1.088   5.198
 7850SOL    HW224450   6.869   0.972   5.104
 7851SOL     OW24451   5.924   0.140   0.347
 7851SOL    HW124452   6.005   0.190   0.314
 7851SOL    HW224453   5.875   0.103   0.268
 7852SOL     OW24454   3.240   6.573   6.930
 7852SOL    HW124455   3.199   6.594   6.842
 7852SOL    HW224456   3.173   6.585   7.003
 7853SOL     OW24457   2.610   1.750   0.462
 7853SOL    HW124458   2.683   1.773   0.398
 7853SOL    HW224459   2.612   1.652   0.482
 7854SOL     OW24460   3.242   4.030   2.402
 7854SOL    HW124461   3.209   3.937   2.420
 7854SOL    HW224462   3.213   4.058   2.311
 7855SOL     OW24463   4.295   5.045   6.125
 7855SOL    HW124464   4.309   5.110   6.051
 7855SOL    HW224465   4.234   4.972   6.094
 7856SOL     OW24466   5.858   3.797   5.095
 7856SOL    HW124467   5.949   3.772   5.129
 7856SOL    HW224468   5.855   3.781   4.996
 7857SOL     OW24469   5.979   2.071   5.774
 7857SOL    HW124470   5.897   2.063   5.718
 7857SOL    HW224471   5.958   2.044   5.868
 7858SOL     OW24472   6.427   4.193   3.682
 7858SOL    HW124473   6.401   4.266   3.745
 7858SOL    HW224474   6.405   4.220   3.588
 7859SOL     OW24475   1.156   4.970   6.123
 7859SOL    HW124476   1.088   4.943   6.055
 7859SOL    HW224477   1.160   5.070   6.128
 7860SOL     OW24478   4.060   6.867   1.941
 7860SOL    HW124479   4.120   6.842   1.865
 7860SOL    HW224480   4.027   6.960   1.927
 7861SOL     OW24481   4.086   5.234   1.380
 7861SOL    HW124482   4.089   5.266   1.475
 7861SOL    HW224483   4.157   5.165   1.366
 7862SOL     OW24484   3.057   4.198   1.751
 7862SOL    HW124485   3.008   4.114   1.774
 7862SOL    HW224486   3.019   4.274   1.804
 7863SOL     OW24487   6.704   6.082   2.577
 7863SOL    HW124488   6.674   6.022   2.503
 7863SOL    HW224489   6.625   6.120   2.625
 7864SOL     OW24490   0.503   6.093   5.533
 7864SOL    HW124491   0.553   6.167   5.489
 7864SOL    HW224492   0.486   6.116   5.629
 7865SOL     OW24493   3.536   6.597   3.055
 7865SOL    HW124494   3.592   6.516   3.036
 7865SOL    HW224495   3.595   6.672   3.084
 7866SOL     OW24496   2.651   2.029   3.244
 7866SOL    HW124497   2.646   1.966   3.321
 7866SOL    HW224498   2.629   2.122   3.275
 7867SOL     OW24499   6.480   5.801   2.171
 7867SOL    HW124500   6.506   5.825   2.077
 7867SOL    HW224501   6.382   5.814   2.183
 7868SOL     OW24502   5.333   6.145   0.972
 7868SOL    HW124503   5.365   6.155   0.878
 7868SOL    HW224504   5.298   6.232   1.005
 7869SOL     OW24505   6.790   3.252   1.540
 7869SOL    HW124506   6.709   3.193   1.531
 7869SOL    HW224507   6.764   3.339   1.582
 7870SOL     OW24508   0.015   5.437   3.998
 7870SOL    HW124509   0.050   5.530   3.988
 7870SOL    HW224510   0.027   5.388   3.911
 7871SOL     OW24511   5.923   3.033   2.829
 7871SOL    HW124512   5.997   2.993   2.883
 7871SOL    HW224513   5.836   2.990   2.854
 7872SOL     OW24514   0.314   3.822   3.080
 7872SOL    HW124515   0.373   3.846   3.003
 7872SOL    HW224516   0.247   3.895   3.095
 7873SOL     OW24517   6.931   6.432   6.198
 7873SOL    HW124518   6.974   6.378   6.270
 7873SOL    HW224519   6.979   6.519   6.188
 7874SOL     OW24520   5.673   1.545   0.031
 7874SOL    HW124521   5.670   1.592   0.119
 7874SOL    HW224522   5.746   1.585   6.996
 7875SOL     OW24523   5.238   4.004   6.613
 7875SOL    HW124524   5.210   3.955   6.695
 7875SOL    HW224525   5.331   4.039   6.624
 7876SOL     OW24526   6.591   0.270   4.374
 7876SOL    HW124527   6.651   0.298   4.449
 7876SOL    HW224528   6.634   0.293   4.287
 7877SOL     OW24529   6.689   2.582   2.912
 7877SOL    HW124530   6.781   2.565   2.877
 7877SOL    HW224531   6.694   2.598   3.011
 7878SOL     OW24532   4.657   4.542   2.432
 7878SOL    HW124533   4.618   4.498   2.351
 7878SOL    HW224534   4.583   4.578   2.489
 7879SOL     OW24535   5.139   6.130   3.392
 7879SOL    HW124536   5.110   6.115   3.297
 7879SOL    HW224537   5.109   6.221   3.422
 7880SOL     OW24538   0.586   6.194   6.795
 7880SOL    HW124539   0.552   6.214   6.887
 7880SOL    HW224540   0.554   6.265   6.732
 7881SOL     OW24541   0.015   4.193   5.372
 7881SOL    HW124542   0.067   4.269   5.331
 7881SOL    HW224543   6.998   4.137   5.299
 7882SOL     OW24544   0.884   2.983   2.695
 7882SOL    HW124545   0.842   3.073   2.684
 7882SOL    HW224546   0.877   2.932   2.609
 7883SOL     OW24547   2.884   1.210   2.874
 7883SOL    HW124548   2.807   1.273   2.885
 7883SOL    HW224549   2.865   1.146   2.800
 7884SOL     OW24550   1.740   4.913   3.892
 7884SOL    HW124551   1.807   4.923   3.819
 7884SOL    HW224552   1.649   4.903   3.853
 7885SOL     OW24553   5.691   5.524   2.789
 7885SOL    HW124554   5.604   5.574   2.796
 7885SOL    HW224555   5.681   5.434   2.831
 7886SOL     OW24556   4.832   3.357   1.780
 7886SOL    HW124557   4.748   3.391   1.738
 7886SOL    HW224558   4.851   3.265   1.747
 7887SOL     OW24559   3.971   3.269   6.428
 7887SOL    HW124560   3.962   3.172   6.408
 7887SOL    HW224561   3.901   3.320   6.379
 7888SOL     OW24562   6.071   1.585   4.238
 7888SOL    HW124563   6.114   1.633   4.161
 7888SOL    HW224564   6.141   1.561   4.305
 7889SOL     OW24565   6.192   5.292   0.394
 7889SOL    HW124566   6.253   5.321   0.320
 7889SOL    HW224567   6.141   5.371   0.427
 7890SOL     OW24568   1.576   2.905   4.608
 7890SOL    HW124569   1.562   3.003   4.595
 7890SOL    HW224570   1.673   2.884   4.604
 7891SOL     OW24571   0.027   2.326   3.953
 7891SOL    HW124572   0.058   2.325   4.048
 7891SOL    HW224573   0.102   2.354   3.893
 7892SOL     OW24574   1.888   2.633   5.130
 7892SOL    HW124575   1.903   2.637   5.229
 7892SOL    HW224576   1.938   2.708   5.086
 7893SOL     OW24577   6.641   0.574   2.157
 7893SOL    HW124578   6.619   0.489   2.109
 7893SOL    HW224579   6.638   0.558   2.256
 7894SOL     OW24580   2.256   1.650   6.425
 7894SOL    HW124581   2.191   1.633   6.351
 7894SOL    HW224582   2.291   1.563   6.461
 7895SOL     OW24583   3.644   6.107   3.681
 7895SOL    HW124584   3.598   6.057   3.754
 7895SOL    HW224585   3.589   6.102   3.597
 7896SOL     OW24586   4.217   2.521   1.718
 7896SOL    HW124587   4.183   2.585   1.650
 7896SOL    HW224588   4.312   2.544   1.741
 7897SOL     OW24589   3.687   4.100   6.264
 7897SOL    HW124590   3.697   4.192   6.226
 7897SOL    HW224591   3.703   4.033   6.192
 7898SOL     OW24592   5.009   0.117   4.460
 7898SOL    HW124593   4.976   0.023   4.470
 7898SOL    HW224594   5.034   0.153   4.550
 7899SOL     OW24595   5.224   5.325   1.503
 7899SOL    HW124596   5.227   5.265   1.423
 7899SOL    HW224597   5.286   5.291   1.573
 7900SOL     OW24598   0.748   4.377   0.847
 7900SOL    HW124599   0.817   4.315   0.808
 7900SOL    HW224600   0.672   4.386   0.783
 7901SOL     OW24601   5.415   1.057   6.369
 7901SOL    HW124602   5.335   1.091   6.321
 7901SOL    HW224603   5.495   1.060   6.308
 7902SOL     OW24604   6.960   5.917   2.884
 7902SOL    HW124605   0.009   5.852   2.855
 7902SOL    HW224606   6.973   6.004   2.837
 7903SOL     OW24607   2.712   1.633   4.025
 7903SOL    HW124608   2.614   1.646   4.033
 7903SOL    HW224609   2.735   1.609   3.930
 7904SOL     OW24610   6.081   0.589   2.375
 7904SOL    HW124611   5.988   0.556   2.391
 7904SOL    HW224612   6.097   0.596   2.276
 7905SOL     OW24613   5.597   0.837   0.614
 7905SOL    HW124614   5.522   0.901   0.596
 7905SOL    HW224615   5.682   0.874   0.577
 7906SOL     OW24616   1.731   5.036   1.193
 7906SOL    HW124617   1.821   5.079   1.192
 7906SOL    HW224618   1.671   5.081   1.127
 7907SOL     OW24619   6.113   0.571   2.778
 7907SOL    HW124620   6.189   0.558   2.714
 7907SOL    HW224621   6.109   0.667   2.806
 7908SOL     OW24622   0.509   1.177   6.469
 7908SOL    HW124623   0.492   1.274   6.452
 7908SOL    HW224624   0.603   1.154   6.442
 7909SOL     OW24625   5.349   4.399   2.532
 7909SOL    HW124626   5.280   4.364   2.469
 7909SOL    HW224627   5.368   4.330   2.603
 7910SOL     OW24628   1.927   3.452   0.784
 7910SOL    HW124629   1.955   3.546   0.762
 7910SOL    HW224630   2.007   3.398   0.809
 7911SOL     OW24631   0.884   4.127   0.999
 7911SOL    HW124632   0.805   4.135   1.059
 7911SOL    HW224633   0.964   4.169   1.042
 7912SOL     OW24634   5.058   5.429   0.227
 7912SOL    HW124635   5.007   5.359   0.177
 7912SOL    HW224636   5.114   5.386   0.298
 7913SOL     OW24637   0.949   4.220   0.747
 7913SOL    HW124638   0.958   4.149   0.817
 7913SOL    HW224639   0.969   4.182   0.657
 7914SOL     OW24640   6.553   5.145   5.487
 7914SOL    HW124641   6.643   5.103   5.475
 7914SOL    HW224642   6.485   5.094   5.433
 7915SOL     OW24643   3.695   0.400   2.955
 7915SOL    HW124644   3.779   0.348   2.964
 7915SOL    HW224645   3.658   0.389   2.863
 7916SOL     OW24646   0.742   6.800   4.476
 7916SOL    HW124647   0.774   6.787   4.570
 7916SOL    HW224648   0.787   6.880   4.437
 7917SOL     OW24649   4.094   2.782   6.965
 7917SOL    HW124650   4.033   2.820   6.896
 7917SOL    HW224651   4.056   2.696   6.999
 7918SOL     OW24652   1.935   0.843   4.974
 7918SOL    HW124653   1.909   0.863   4.879
 7918SOL    HW224654   2.031   0.867   4.989
 7919SOL     OW24655   1.420   4.814   3.237
 7919SOL    HW124656   1.490   4.763   3.287
 7919SOL    HW224657   1.359   4.860   3.303
 7920SOL     OW24658   4.892   0.547   1.451
 7920SOL    HW124659   4.902   0.621   1.518
 7920SOL    HW224660   4.823   0.482   1.484
 7921SOL     OW24661   5.375   1.854   1.679
 7921SOL    HW124662   5.343   1.893   1.592
 7921SOL    HW224663   5.297   1.841   1.740
 7922SOL     OW24664   1.023   6.581   6.829
 7922SOL    HW124665   1.085   6.502   6.826
 7922SOL    HW224666   1.041   6.640   6.750
 7923SOL     OW24667   3.838   1.925   6.337
 7923SOL    HW124668   3.841   1.934   6.437
 7923SOL    HW224669   3.889   1.845   6.309
 7924SOL     OW24670   6.099   6.928   1.350
 7924SOL    HW124671   6.032   7.000   1.337
 7924SOL    HW224672   6.105   6.905   1.448
 7925SOL     OW24673   2.947   6.240   0.328
 7925SOL    HW124674   2.908   6.285   0.248
 7925SOL    HW224675   3.047   6.234   0.317
 7926SOL     OW24676   5.737   0.600   6.844
 7926SOL    HW124677   5.770   0.514   6.882
 7926SOL    HW224678   5.654   0.584   6.792
 7927SOL     OW24679   4.773   0.115   2.164
 7927SOL    HW124680   4.791   0.148   2.257
 7927SOL    HW224681   4.808   0.022   2.154
 7928SOL     OW24682   6.803   0.657   3.173
 7928SOL    HW124683   6.885   0.600   3.180
 7928SOL    HW224684   6.807   0.729   3.242
 7929SOL     OW24685   4.503   3.754   6.680
 7929SOL    HW124686   4.506   3.853   6.690
 7929SOL    HW224687   4.425   3.729   6.623
 7930SOL     OW24688   3.751   5.419   5.897
 7930SOL    HW124689   3.718   5.405   5.804
 7930SOL    HW224690   3.848   5.440   5.895
 7931SOL     OW24691   2.518   2.212   0.413
 7931SOL    HW124692   2.539   2.185   0.319
 7931SOL    HW224693   2.426   2.181   0.437
 7932SOL     OW24694   0.248   5.673   0.918
 7932SOL    HW124695   0.197   5.594   0.951
 7932SOL    HW224696   0.207   5.706   0.833
 7933SOL     OW24697   6.249   0.900   5.225
 7933SOL    HW124698   6.174   0.839   5.199
 7933SOL    HW224699   6.219   0.960   5.299
 7934SOL     OW24700   1.570   4.392   1.108
 7934SOL    HW124701   1.492   4.366   1.165
 7934SOL    HW224702   1.654   4.355   1.148
 7935SOL     OW24703   5.353   4.103   2.994
 7935SOL    HW124704   5.266   4.066   2.962
 7935SOL    HW224705   5.402   4.032   3.046
 7936SOL     OW24706   3.642   6.520   3.845
 7936SOL    HW124707   3.703   6.598   3.837
 7936SOL    HW224708   3.582   6.533   3.924
 7937SOL     OW24709   2.334   6.237   5.334
 7937SOL    HW124710   2.273   6.180   5.278
 7937SOL    HW224711   2.326   6.211   5.430
 7938SOL     OW24712   5.214   0.402   4.975
 7938SOL    HW124713   5.284   0.363   4.916
 7938SOL    HW224714   5.165   0.329   5.023
 7939SOL     OW24715   1.105   1.694   5.206
 7939SOL    HW124716   1.107   1.756   5.285
 7939SOL    HW224717   1.174   1.623   5.218
 7940SOL     OW24718   4.337   1.990   2.684
 7940SOL    HW124719   4.366   1.938   2.603
 7940SOL    HW224720   4.338   1.930   2.764
 7941SOL     OW24721   4.454   6.707   3.000
 7941SOL    HW124722   4.375   6.750   2.956
 7941SOL    HW224723   4.434   6.610   3.017
 7942SOL     OW24724   0.866   2.806   1.938
 7942SOL    HW124725   0.784   2.754   1.913
 7942SOL    HW224726   0.887   2.872   1.866
 7943SOL     OW24727   2.009   4.827   5.827
 7943SOL    HW124728   1.914   4.857   5.835
 7943SOL    HW224729   2.069   4.897   5.868
 7944SOL     OW24730   0.913   3.015   1.023
 7944SOL    HW124731   0.865   3.056   0.946
 7944SOL    HW224732   0.951   2.926   0.996
 7945SOL     OW24733   6.071   5.425   3.313
 7945SOL    HW124734   6.066   5.508   3.257
 7945SOL    HW224735   6.158   5.424   3.364
 7946SOL     OW24736   3.958   0.205   5.752
 7946SOL    HW124737   3.995   0.152   5.828
 7946SOL    HW224738   3.963   0.151   5.668
 7947SOL     OW24739   1.932   2.677   5.395
 7947SOL    HW124740   1.907   2.771   5.417
 7947SOL    HW224741   2.028   2.661   5.420
 7948SOL     OW24742   1.487   4.968   2.201
 7948SOL    HW124743   1.481   4.873   2.231
 7948SOL    HW224744   1.412   5.021   2.240
 7949SOL     OW24745   4.851   4.779   6.106
 7949SOL    HW124746   4.831   4.864   6.156
 7949SOL    HW224747   4.944   4.783   6.071
 7950SOL     OW24748   5.267   5.645   5.489
 7950SOL    HW124749   5.252   5.729   5.437
 7950SOL    HW224750   5.305   5.667   5.579
 7951SOL     OW24751   2.813   5.742   2.183
 7951SOL    HW124752   2.898   5.723   2.135
 7951SOL    HW224753   2.828   5.815   2.250
 7952SOL     OW24754   6.244   3.841   0.112
 7952SOL    HW124755   6.262   3.744   0.102
 7952SOL    HW224756   6.167   3.854   0.175
 7953SOL     OW24757   4.066   1.719   0.944
 7953SOL    HW124758   4.145   1.714   0.883
 7953SOL    HW224759   4.056   1.633   0.993
 7954SOL     OW24760   3.940   3.618   6.624
 7954SOL    HW124761   3.984   3.686   6.682
 7954SOL    HW224762   4.006   3.584   6.556
 7955SOL     OW24763   1.717   1.380   6.588
 7955SOL    HW124764   1.741   1.391   6.684
 7955SOL    HW224765   1.626   1.419   6.571
 7956SOL     OW24766   6.329   1.431   1.475
 7956SOL    HW124767   6.363   1.489   1.549
 7956SOL    HW224768   6.242   1.390   1.502
 7957SOL     OW24769   4.360   0.798   5.566
 7957SOL    HW124770   4.317   0.884   5.594
 7957SOL    HW224771   4.390   0.747   5.646
 7958SOL     OW24772   5.663   3.487   6.206
 7958SOL    HW124773   5.683   3.402   6.254
 7958SOL    HW224774   5.744   3.515   6.153
 7959SOL     OW24775   5.081   0.878   6.263
 7959SOL    HW124776   5.151   0.824   6.215
 7959SOL    HW224777   5.118   0.969   6.283
 7960SOL     OW24778   6.707   0.596   6.358
 7960SOL    HW124779   6.627   0.656   6.355
 7960SOL    HW224780   6.777   0.636   6.416
 7961SOL     OW24781   6.953   6.395   0.215
 7961SOL    HW124782   6.914   6.320   0.268
 7961SOL    HW224783   6.941   6.481   0.265
 7962SOL     OW24784   6.631   6.749   6.263
 7962SOL    HW124785   6.645   6.847   6.279
 7962SOL    HW224786   6.568   6.736   6.187
 7963SOL     OW24787   6.185   4.225   4.331
 7963SOL    HW124788   6.138   4.149   4.376
 7963SOL    HW224789   6.280   4.199   4.311
 7964SOL     OW24790   6.941   3.590   1.820
 7964SOL    HW124791   0.004   3.632   1.787
 7964SOL    HW224792   6.949   3.568   1.917
 7965SOL     OW24793   4.660   2.194   0.289
 7965SOL    HW124794   4.602   2.224   0.365
 7965SOL    HW224795   4.620   2.222   0.202
 7966SOL     OW24796   4.162   4.216   5.305
 7966SOL    HW124797   4.080   4.159   5.301
 7966SOL    HW224798   4.149   4.298   5.249
 7967SOL     OW24799   1.759   5.053   2.204
 7967SOL    HW124800   1.679   4.994   2.202
 7967SOL    HW224801   1.801   5.050   2.294
 7968SOL     OW24802   6.588   1.895   4.815
 7968SOL    HW124803   6.531   1.886   4.734
 7968SOL    HW224804   6.678   1.932   4.789
 7969SOL     OW24805   4.604   5.903   0.044
 7969SOL    HW124806   4.657   5.907   6.981
 7969SOL    HW224807   4.589   5.996   0.078
 7970SOL     OW24808   6.338   3.183   2.763
 7970SOL    HW124809   6.354   3.279   2.739
 7970SOL    HW224810   6.320   3.177   2.861
 7971SOL     OW24811   3.375   1.412   1.093
 7971SOL    HW124812   3.349   1.448   1.003
 7971SOL    HW224813   3.461   1.453   1.122
 7972SOL     OW24814   4.194   3.297   1.950
 7972SOL    HW124815   4.117   3.315   2.011
 7972SOL    HW224816   4.259   3.236   1.995
 7973SOL     OW24817   6.270   3.970   3.618
 7973SOL    HW124818   6.292   4.067   3.616
 7973SOL    HW224819   6.190   3.953   3.560
 7974SOL     OW24820   6.144   1.482   5.270
 7974SOL    HW124821   6.045   1.495   5.281
 7974SOL    HW224822   6.162   1.388   5.241
 7975SOL     OW24823   4.210   1.435   0.397
 7975SOL    HW124824   4.115   1.464   0.389
 7975SOL    HW224825   4.235   1.378   0.319
 7976SOL     OW24826   1.680   0.364   6.214
 7976SOL    HW124827   1.706   0.284   6.159
 7976SOL    HW224828   1.582   0.382   6.202
 7977SOL     OW24829   5.616   6.098   2.908
 7977SOL    HW124830   5.705   6.064   2.876
 7977SOL    HW224831   5.562   6.129   2.831
 7978SOL     OW24832   0.413   4.059   1.047
 7978SOL    HW124833   0.389   4.082   0.952
 7978SOL    HW224834   0.346   4.099   1.109
 7979SOL     OW24835   1.889   3.917   4.645
 7979SOL    HW124836   1.981   3.898   4.609
 7979SOL    HW224837   1.852   3.998   4.601
 7980SOL     OW24838   3.637   4.285   5.550
 7980SOL    HW124839   3.577   4.298   5.471
 7980SOL    HW224840   3.581   4.260   5.630
 7981SOL     OW24841   2.060   5.090   3.519
 7981SOL    HW124842   2.116   5.058   3.443
 7981SOL    HW224843   2.048   5.189   3.512
 7982SOL     OW24844   1.002   1.492   5.913
 7982SOL    HW124845   0.916   1.508   5.962
 7982SOL    HW224846   1.008   1.554   5.835
 7983SOL     OW24847   5.125   1.043   1.360
 7983SOL    HW124848   5.128   1.002   1.451
 7983SOL    HW224849   5.148   0.974   1.291
 7984SOL     OW24850   0.651   1.976   1.066
 7984SOL    HW124851   0.679   2.066   1.034
 7984SOL    HW224852   0.559   1.981   1.105
 7985SOL     OW24853   2.218   2.131   5.384
 7985SOL    HW124854   2.163   2.199   5.432
 7985SOL    HW224855   2.246   2.167   5.295
 7986SOL     OW24856   3.460   2.044   4.501
 7986SOL    HW124857   3.554   2.060   4.528
 7986SOL    HW224858   3.454   1.959   4.448
 7987SOL     OW24859   1.508   3.730   0.708
 7987SOL    HW124860   1.575   3.675   0.758
 7987SOL    HW224861   1.442   3.669   0.663
 7988SOL     OW24862   6.975   0.784   1.633
 7988SOL    HW124863   6.882   0.797   1.669
 7988SOL    HW224864   0.016   0.769   1.709
 7989SOL     OW24865   1.661   4.325   0.843
 7989SOL    HW124866   1.643   4.348   0.939
 7989SOL    HW224867   1.574   4.320   0.793
 7990SOL     OW24868   2.710   6.626   4.897
 7990SOL    HW124869   2.621   6.616   4.941
 7990SOL    HW224870   2.742   6.537   4.865
 7991SOL     OW24871   5.451   1.730   4.539
 7991SOL    HW124872   5.511   1.760   4.465
 7991SOL    HW224873   5.427   1.809   4.596
 7992SOL     OW24874   2.312   0.561   0.703
 7992SOL    HW124875   2.242   0.624   0.670
 7992SOL    HW224876   2.346   0.592   0.792
 7993SOL     OW24877   0.069   0.159   1.916
 7993SOL    HW124878   7.008   0.107   1.894
 7993SOL    HW224879   0.148   0.117   1.872
 7994SOL     OW24880   4.709   0.566   3.303
 7994SOL    HW124881   4.796   0.561   3.254
 7994SOL    HW224882   4.641   0.613   3.247
 7995SOL     OW24883   6.539   4.764   2.514
 7995SOL    HW124884   6.633   4.769   2.480
 7995SOL    HW224885   6.479   4.729   2.443
 7996SOL     OW24886   4.047   0.222   3.360
 7996SOL    HW124887   4.134   0.173   3.354
 7996SOL    HW224888   4.036   0.256   3.454
 7997SOL     OW24889   0.872   2.171   0.092
 7997SOL    HW124890   0.900   2.231   0.017
 7997SOL    HW224891   0.837   2.085   0.055
 7998SOL     OW24892   2.535   0.262   0.133
 7998SOL    HW124893   2.540   0.361   0.121
 7998SOL    HW224894   2.456   0.239   0.190
 7999SOL     OW24895   1.212   2.451   5.949
 7999SOL    HW124896   1.152   2.386   5.903
 7999SOL    HW224897   1.267   2.404   6.017
 8000SOL     OW24898   5.823   6.337   6.172
 8000SOL    HW124899   5.844   6.279   6.252
 8000SOL    HW224900   5.909   6.367   6.130
 8001SOL     OW24901   4.993   0.083   0.887
 8001SOL    HW124902   5.028   0.045   0.801
 8001SOL    HW224903   5.018   0.023   0.963
 8002SOL     OW24904   0.645   1.022   5.804
 8002SOL    HW124905   0.559   0.987   5.768
 8002SOL    HW224906   0.678   0.961   5.876
 8003SOL     OW24907   2.029   6.867   2.416
 8003SOL    HW124908   1.986   6.954   2.442
 8003SOL    HW224909   2.020   6.854   2.317
 8004SOL     OW24910   1.749   2.940   3.484
 8004SOL    HW124911   1.778   2.956   3.390
 8004SOL    HW224912   1.704   3.022   3.520
 8005SOL     OW24913   2.907   6.972   4.303
 8005SOL    HW124914   2.998   6.985   4.264
 8005SOL    HW224915   2.838   6.999   4.236
 8006SOL     OW24916   3.606   5.197   4.802
 8006SOL    HW124917   3.539   5.212   4.729
 8006SOL    HW224918   3.683   5.144   4.766
 8007SOL     OW24919   6.252   2.028   6.422
 8007SOL    HW124920   6.268   2.014   6.324
 8007SOL    HW224921   6.155   2.043   6.438
 8008SOL     OW24922   3.770   6.539   0.347
 8008SOL    HW124923   3.855   6.508   0.389
 8008SOL    HW224924   3.692   6.503   0.398
 8009SOL     OW24925   5.102   1.553   0.913
 8009SOL    HW124926   5.056   1.468   0.939
 8009SOL    HW224927   5.188   1.562   0.964
 8010SOL     OW24928   2.948   2.425   5.815
 8010SOL    HW124929   2.940   2.497   5.746
 8010SOL    HW224930   2.930   2.464   5.905
 8011SOL     OW24931   3.593   1.933   1.738
 8011SOL    HW124932   3.630   1.936   1.830
 8011SOL    HW224933   3.654   1.879   1.679
 8012SOL     OW24934   1.031   3.140   5.717
 8012SOL    HW124935   1.017   3.082   5.636
 8012SOL    HW224936   1.046   3.234   5.688
 8013SOL     OW24937   0.892   2.650   3.056
 8013SOL    HW124938   0.897   2.586   2.980
 8013SOL    HW224939   0.920   2.741   3.025
 8014SOL     OW24940   1.854   0.035   3.502
 8014SOL    HW124941   1.774   6.997   3.498
 8014SOL    HW224942   1.832   0.123   3.460
 8015SOL     OW24943   1.176   0.452   5.946
 8015SOL    HW124944   1.265   0.420   5.980
 8015SOL    HW224945   1.128   0.376   5.902
 8016SOL     OW24946   3.863   1.363   5.208
 8016SOL    HW124947   3.882   1.280   5.260
 8016SOL    HW224948   3.812   1.427   5.265
 8017SOL     OW24949   6.612   0.004   0.469
 8017SOL    HW124950   6.551   0.052   0.532
 8017SOL    HW224951   6.668   6.960   0.520
 8018SOL     OW24952   3.824   1.630   6.900
 8018SOL    HW124953   3.904   1.659   6.952
 8018SOL    HW224954   3.837   1.654   6.803
 8019SOL     OW24955   2.929   3.222   0.889
 8019SOL    HW124956   3.010   3.169   0.862
 8019SOL    HW224957   2.947   3.269   0.975
 8020SOL     OW24958   5.772   0.037   5.476
 8020SOL    HW124959   5.730   0.010   5.390
 8020SOL    HW224960   5.805   6.977   5.525
 8021SOL     OW24961   2.413   2.071   2.176
 8021SOL    HW124962   2.388   2.155   2.224
 8021SOL    HW224963   2.504   2.082   2.136
 8022SOL     OW24964   6.228   0.654   1.513
 8022SOL    HW124965   6.140   0.611   1.494
 8022SOL    HW224966   6.301   0.588   1.496
 8023SOL     OW24967   5.637   5.704   3.111
 8023SOL    HW124968   5.566   5.756   3.160
 8023SOL    HW224969   5.707   5.767   3.077
 8024SOL     OW24970   1.801   6.036   6.324
 8024SOL    HW124971   1.738   6.067   6.252
 8024SOL    HW224972   1.870   6.107   6.341
 8025SOL     OW24973   1.868   4.609   1.624
 8025SOL    HW124974   1.771   4.633   1.633
 8025SOL    HW224975   1.924   4.691   1.637
 8026SOL     OW24976   0.274   4.568   0.553
 8026SOL    HW124977   0.312   4.655   0.584
 8026SOL    HW224978   0.272   4.503   0.629
 8027SOL     OW24979   4.254   6.607   5.381
 8027SOL    HW124980   4.264   6.613   5.481
 8027SOL    HW224981   4.197   6.529   5.358
 8028SOL     OW24982   3.344   5.710   4.458
 8028SOL    HW124983   3.341   5.698   4.558
 8028SOL    HW224984   3.377   5.802   4.437
 8029SOL     OW24985   5.111   2.113   1.969
 8029SOL    HW124986   5.204   2.147   1.977
 8029SOL    HW224987   5.113   2.014   1.953
 8030SOL     OW24988   5.962   4.944   0.991
 8030SOL    HW124989   6.013   5.014   0.941
 8030SOL    HW224990   6.016   4.860   0.995
 8031SOL     OW24991   5.505   0.470   3.525
 8031SOL    HW124992   5.587   0.527   3.519
 8031SOL    HW224993   5.524   0.379   3.488
 8032SOL     OW24994   5.282   3.123   1.606
 8032SOL    HW124995   5.239   3.148   1.693
 8032SOL    HW224996   5.212   3.117   1.535
 8033SOL     OW24997   3.887   3.748   0.291
 8033SOL    HW124998   3.855   3.738   0.385
 8033SOL    HW224999   3.892   3.658   0.248
 8034SOL     OW25000   5.649   0.618   5.372
 8034SOL    HW125001   5.626   0.598   5.467
 8034SOL    HW225002   5.593   0.561   5.311
 8035SOL     OW25003   4.475   0.647   2.499
 8035SOL    HW125004   4.392   0.633   2.553
 8035SOL    HW225005   4.450   0.664   2.403
 8036SOL     OW25006   6.728   2.918   3.689
 8036SOL    HW125007   6.809   2.870   3.725
 8036SOL    HW225008   6.662   2.851   3.656
 8037SOL     OW25009   1.484   2.969   0.045
 8037SOL    HW125010   1.532   3.052   0.015
 8037SOL    HW225011   1.530   2.888   0.008
 8038SOL     OW25012   5.697   6.327   2.117
 8038SOL    HW125013   5.756   6.335   2.037
 8038SOL    HW225014   5.643   6.411   2.127
 8039SOL     OW25015   0.236   2.604   5.319
 8039SOL    HW125016   0.180   2.685   5.305
 8039SOL    HW225017   0.302   2.621   5.393
 8040SOL     OW25018   1.831   5.733   6.130
 8040SOL    HW125019   1.861   5.740   6.225
 8040SOL    HW225020   1.737   5.699   6.127
 8041SOL     OW25021   3.215   1.656   3.090
 8041SOL    HW125022   3.234   1.570   3.137
 8041SOL    HW225023   3.117   1.674   3.092
 8042SOL     OW25024   4.327   4.276   6.080
 8042SOL    HW125025   4.360   4.316   5.994
 8042SOL    HW225026   4.252   4.331   6.115
 8043SOL     OW25027   4.633   4.827   1.439
 8043SOL    HW125028   4.726   4.805   1.467
 8043SOL    HW225029   4.568   4.792   1.507
 8044SOL     OW25030   3.915   4.024   1.104
 8044SOL    HW125031   3.926   3.953   1.034
 8044SOL    HW225032   3.870   4.104   1.063
 8045SOL     OW25033   0.144   1.477   2.814
 8045SOL    HW125034   0.109   1.384   2.803
 8045SOL    HW225035   0.170   1.493   2.909
 8046SOL     OW25036   0.323   4.764   2.118
 8046SOL    HW125037   0.419   4.739   2.108
 8046SOL    HW225038   0.315   4.863   2.125
 8047SOL     OW25039   4.082   6.811   6.298
 8047SOL    HW125040   4.161   6.754   6.318
 8047SOL    HW225041   4.056   6.801   6.202
 8048SOL     OW25042   3.603   3.132   0.581
 8048SOL    HW125043   3.616   3.139   0.680
 8048SOL    HW225044   3.543   3.055   0.561
 8049SOL     OW25045   1.292   6.766   0.283
 8049SOL    HW125046   1.214   6.709   0.307
 8049SOL    HW225047   1.307   6.834   0.355
 8050SOL     OW25048   1.569   4.186   4.418
 8050SOL    HW125049   1.529   4.227   4.336
 8050SOL    HW225050   1.611   4.258   4.473
 8051SOL     OW25051   4.972   5.971   4.435
 8051SOL    HW125052   5.031   5.986   4.514
 8051SOL    HW225053   4.920   5.887   4.447
 8052SOL     OW25054   2.525   1.173   2.134
 8052SOL    HW125055   2.589   1.106   2.096
 8052SOL    HW225056   2.456   1.196   2.064
 8053SOL     OW25057   2.993   3.068   5.718
 8053SOL    HW125058   3.048   3.127   5.659
 8053SOL    HW225059   2.931   3.014   5.661
 8054SOL     OW25060   5.881   4.417   4.966
 8054SOL    HW125061   5.901   4.365   5.049
 8054SOL    HW225062   5.963   4.419   4.908
 8055SOL     OW25063   0.260   0.452   5.025
 8055SOL    HW125064   0.224   0.542   5.003
 8055SOL    HW225065   0.324   0.459   5.102
 8056SOL     OW25066   2.432   6.651   3.875
 8056SOL    HW125067   2.512   6.597   3.903
 8056SOL    HW225068   2.394   6.613   3.791
 8057SOL     OW25069   2.533   2.233   1.868
 8057SOL    HW125070   2.580   2.321   1.867
 8057SOL    HW225071   2.435   2.247   1.853
 8058SOL     OW25072   3.064   6.368   3.491
 8058SOL    HW125073   3.091   6.301   3.421
 8058SOL    HW225074   2.984   6.419   3.460
 8059SOL     OW25075   3.307   1.789   5.561
 8059SOL    HW125076   3.236   1.795   5.492
 8059SOL    HW225077   3.272   1.738   5.640
 8060SOL     OW25078   6.890   0.614   6.141
 8060SOL    HW125079   6.834   0.605   6.223
 8060SOL    HW225080   6.841   0.578   6.062
 8061SOL     OW25081   0.329   0.878   2.189
 8061SOL    HW125082   0.254   0.813   2.174
 8061SOL    HW225083   0.320   0.954   2.124
 8062SOL     OW25084   4.037   5.411   4.702
 8062SOL    HW125085   4.007   5.316   4.696
 8062SOL    HW225086   4.105   5.429   4.631
 8063SOL     OW25087   3.411   0.472   3.013
 8063SOL    HW125088   3.374   0.440   3.100
 8063SOL    HW225089   3.504   0.436   3.001
 8064SOL     OW25090   6.448   3.323   0.469
 8064SOL    HW125091   6.539   3.312   0.428
 8064SOL    HW225092   6.456   3.326   0.568
 8065SOL     OW25093   3.917   0.078   4.616
 8065SOL    HW125094   3.917   0.010   4.689
 8065SOL    HW225095   3.822   0.101   4.592
 8066SOL     OW25096   6.680   1.233   4.825
 8066SOL    HW125097   6.639   1.275   4.744
 8066SOL    HW225098   6.755   1.172   4.796
 8067SOL     OW25099   5.275   3.502   3.574
 8067SOL    HW125100   5.200   3.485   3.511
 8067SOL    HW225101   5.239   3.540   3.660
 8068SOL     OW25102   0.455   5.149   1.461
 8068SOL    HW125103   0.390   5.150   1.385
 8068SOL    HW225104   0.507   5.063   1.459
 8069SOL     OW25105   3.203   5.432   2.223
 8069SOL    HW125106   3.226   5.366   2.295
 8069SOL    HW225107   3.139   5.390   2.158
 8070SOL     OW25108   4.010   4.182   0.653
 8070SOL    HW125109   3.987   4.087   0.632
 8070SOL    HW225110   4.093   4.208   0.605
 8071SOL     OW25111   4.342   6.616   5.105
 8071SOL    HW125112   4.340   6.592   5.203
 8071SOL    HW225113   4.427   6.582   5.065
 8072SOL     OW25114   2.759   2.526   0.414
 8072SOL    HW125115   2.789   2.446   0.465
 8072SOL    HW225116   2.659   2.531   0.416
 8073SOL     OW25117   2.893   0.175   6.279
 8073SOL    HW125118   2.990   0.154   6.273
 8073SOL    HW225119   2.881   0.262   6.327
 8074SOL     OW25120   1.844   1.146   0.445
 8074SOL    HW125121   1.756   1.143   0.397
 8074SOL    HW225122   1.844   1.222   0.510
 8075SOL     OW25123   0.800   6.742   0.086
 8075SOL    HW125124   0.895   6.773   0.081
 8075SOL    HW225125   0.739   6.821   0.081
 8076SOL     OW25126   0.182   6.795   6.761
 8076SOL    HW125127   0.129   6.819   6.843
 8076SOL    HW225128   0.242   6.871   6.737
 8077SOL     OW25129   4.096   6.002   1.900
 8077SOL    HW125130   4.146   6.024   1.816
 8077SOL    HW225131   4.052   6.084   1.935
 8078SOL     OW25132   1.038   1.333   0.788
 8078SOL    HW125133   1.117   1.290   0.830
 8078SOL    HW225134   0.954   1.289   0.821
 8079SOL     OW25135   0.128   1.429   4.585
 8079SOL    HW125136   0.059   1.404   4.652
 8079SOL    HW225137   0.219   1.405   4.619
 8080SOL     OW25138   1.085   2.956   2.236
 8080SOL    HW125139   1.020   2.880   2.241
 8080SOL    HW225140   1.050   3.033   2.289
 8081SOL     OW25141   6.027   4.416   5.630
 8081SOL    HW125142   6.049   4.385   5.722
 8081SOL    HW225143   5.928   4.431   5.623
 8082SOL     OW25144   2.838   0.688   2.076
 8082SOL    HW125145   2.930   0.664   2.044
 8082SOL    HW225146   2.820   0.784   2.055
 8083SOL     OW25147   5.500   3.142   4.165
 8083SOL    HW125148   5.527   3.047   4.150
 8083SOL    HW225149   5.433   3.169   4.096
 8084SOL     OW25150   2.289   0.329   5.749
 8084SOL    HW125151   2.270   0.232   5.739
 8084SOL    HW225152   2.339   0.345   5.834
 8085SOL     OW25153   6.725   5.662   3.001
 8085SOL    HW125154   6.817   5.628   3.019
 8085SOL    HW225155   6.723   5.707   2.912
 8086SOL     OW25156   0.144   1.047   1.218
 8086SOL    HW125157   0.056   1.080   1.252
 8086SOL    HW225158   0.213   1.118   1.231
 8087SOL     OW25159   1.380   0.866   6.165
 8087SOL    HW125160   1.456   0.803   6.152
 8087SOL    HW225161   1.294   0.816   6.158
 8088SOL     OW25162   5.842   6.601   6.805
 8088SOL    HW125163   5.901   6.567   6.878
 8088SOL    HW225164   5.890   6.592   6.717
 8089SOL     OW25165   5.698   2.748   6.268
 8089SOL    HW125166   5.743   2.754   6.179
 8089SOL    HW225167   5.713   2.833   6.319
 8090SOL     OW25168   4.196   1.163   6.531
 8090SOL    HW125169   4.109   1.137   6.489
 8090SOL    HW225170   4.240   1.233   6.475
 8091SOL     OW25171   1.210   4.451   4.501
 8091SOL    HW125172   1.255   4.391   4.567
 8091SOL    HW225173   1.164   4.396   4.431
 8092SOL     OW25174   4.414   1.985   5.364
 8092SOL    HW125175   4.486   1.918   5.380
 8092SOL    HW225176   4.357   1.956   5.287
 8093SOL     OW25177   3.253   6.042   2.644
 8093SOL    HW125178   3.212   6.002   2.726
 8093SOL    HW225179   3.255   5.973   2.571
 8094SOL     OW25180   0.638   3.868   5.260
 8094SOL    HW125181   0.614   3.854   5.164
 8094SOL    HW225182   0.576   3.935   5.301
 8095SOL     OW25183   1.161   4.862   4.889
 8095SOL    HW125184   1.205   4.782   4.847
 8095SOL    HW225185   1.065   4.866   4.861
 8096SOL     OW25186   0.598   0.355   2.158
 8096SOL    HW125187   0.616   0.265   2.119
 8096SOL    HW225188   0.593   0.423   2.084
 8097SOL     OW25189   4.167   0.370   5.110
 8097SOL    HW125190   4.183   0.459   5.066
 8097SOL    HW225191   4.076   0.337   5.085
 8098SOL     OW25192   1.610   6.609   3.966
 8098SOL    HW125193   1.631   6.611   3.868
 8098SOL    HW225194   1.649   6.525   4.007
 8099SOL     OW25195   4.490   6.109   4.423
 8099SOL    HW125196   4.514   6.022   4.380
 8099SOL    HW225197   4.487   6.181   4.354
 8100SOL     OW25198   6.234   1.517   6.008
 8100SOL    HW125199   6.185   1.528   6.095
 8100SOL    HW225200   6.171   1.481   5.939
 8101SOL     OW25201   2.122   5.296   0.651
 8101SOL    HW125202   2.148   5.200   0.658
 8101SOL    HW225203   2.193   5.346   0.602
 8102SOL     OW25204   1.097   3.668   4.290
 8102SOL    HW125205   1.063   3.750   4.243
 8102SOL    HW225206   1.038   3.590   4.268
 8103SOL     OW25207   3.493   0.498   1.777
 8103SOL    HW125208   3.523   0.591   1.798
 8103SOL    HW225209   3.559   0.432   1.812
 8104SOL     OW25210   2.015   6.885   5.806
 8104SOL    HW125211   2.036   6.982   5.819
 8104SOL    HW225212   1.978   6.848   5.891
 8105SOL     OW25213   0.220   2.444   2.696
 8105SOL    HW125214   0.287   2.407   2.761
 8105SOL    HW225215   0.225   2.392   2.611
 8106SOL     OW25216   2.428   6.453   3.475
 8106SOL    HW125217   2.520   6.415   3.468
 8106SOL    HW225218   2.361   6.379   3.468
 8107SOL     OW25219   0.973   5.869   4.513
 8107SOL    HW125220   1.031   5.808   4.567
 8107SOL    HW225221   0.981   5.846   4.416
 8108SOL     OW25222   6.680   1.349   6.593
 8108SOL    HW125223   6.608   1.387   6.535
 8108SOL    HW225224   6.655   1.363   6.689
 8109SOL     OW25225   0.287   4.241   5.921
 8109SOL    HW125226   0.377   4.201   5.902
 8109SOL    HW225227   0.292   4.340   5.911
 8110SOL     OW25228   3.997   4.550   1.729
 8110SOL    HW125229   4.063   4.559   1.654
 8110SOL    HW225230   3.915   4.504   1.696
 8111SOL     OW25231   5.449   1.023   4.029
 8111SOL    HW125232   5.367   1.003   3.974
 8111SOL    HW225233   5.429   1.100   4.090
 8112SOL     OW25234   1.157   3.367   4.587
 8112SOL    HW125235   1.082   3.370   4.653
 8112SOL    HW225236   1.173   3.273   4.558
 8113SOL     OW25237   5.914   3.475   1.037
 8113SOL    HW125238   6.009   3.445   1.047
 8113SOL    HW225239   5.855   3.419   1.095
 8114SOL     OW25240   1.344   3.650   2.126
 8114SOL    HW125241   1.315   3.733   2.077
 8114SOL    HW225242   1.368   3.579   2.060
 8115SOL     OW25243   3.078   6.415   5.654
 8115SOL    HW125244   3.114   6.505   5.681
 8115SOL    HW225245   3.027   6.375   5.730
 8116SOL     OW25246   4.260   5.337   0.662
 8116SOL    HW125247   4.329   5.321   0.732
 8116SOL    HW225248   4.293   5.408   0.599
 8117SOL     OW25249   2.201   7.001   3.135
 8117SOL    HW125250   2.196   6.985   3.037
 8117SOL    HW225251   2.179   6.916   3.184
 8118SOL     OW25252   6.461   3.946   6.612
 8118SOL    HW125253   6.533   4.006   6.578
 8118SOL    HW225254   6.501   3.875   6.670
 8119SOL     OW25255   4.886   6.481   6.291
 8119SOL    HW125256   4.938   6.399   6.313
 8119SOL    HW225257   4.937   6.537   6.226
 8120SOL     OW25258   2.759   5.006   0.347
 8120SOL    HW125259   2.791   4.957   0.428
 8120SOL    HW225260   2.820   4.986   0.270
 8121SOL     OW25261   0.976   4.662   2.257
 8121SOL    HW125262   1.045   4.616   2.202
 8121SOL    HW225263   1.012   4.678   2.349
 8122SOL     OW25264   1.236   4.703   3.064
 8122SOL    HW125265   1.294   4.742   3.135
 8122SOL    HW225266   1.222   4.606   3.082
 8123SOL     OW25267   6.887   1.152   6.986
 8123SOL    HW125268   6.858   1.242   7.020
 8123SOL    HW225269   6.983   1.157   6.958
 8124SOL     OW25270   5.752   6.245   3.547
 8124SOL    HW125271   5.694   6.314   3.502
 8124SOL    HW225272   5.813   6.204   3.479
 8125SOL     OW25273   0.732   1.014   2.642
 8125SOL    HW125274   0.716   0.919   2.617
 8125SOL    HW225275   0.830   1.028   2.658
 8126SOL     OW25276   4.911   5.185   3.646
 8126SOL    HW125277   4.979   5.139   3.704
 8126SOL    HW225278   4.957   5.251   3.587
 8127SOL     OW25279   2.861   3.041   6.456
 8127SOL    HW125280   2.940   3.077   6.406
 8127SOL    HW225281   2.818   3.114   6.508
 8128SOL     OW25282   2.896   2.094   1.814
 8128SOL    HW125283   2.882   2.174   1.872
 8128SOL    HW225284   2.987   2.056   1.831
 8129SOL     OW25285   2.021   2.209   6.810
 8129SOL    HW125286   2.117   2.218   6.783
 8129SOL    HW225287   2.016   2.173   6.903
 8130SOL     OW25288   1.828   6.544   6.893
 8130SOL    HW125289   1.791   6.454   6.870
 8130SOL    HW225290   1.896   6.534   6.966
 8131SOL     OW25291   2.338   2.450   1.463
 8131SOL    HW125292   2.346   2.530   1.404
 8131SOL    HW225293   2.309   2.479   1.554
 8132SOL     OW25294   6.130   6.561   4.595
 8132SOL    HW125295   6.167   6.475   4.630
 8132SOL    HW225296   6.062   6.542   4.524
 8133SOL     OW25297   3.810   5.442   2.341
 8133SOL    HW125298   3.900   5.434   2.300
 8133SOL    HW225299   3.743   5.466   2.271
 8134SOL     OW25300   6.707   1.126   6.341
 8134SOL    HW125301   6.784   1.179   6.376
 8134SOL    HW225302   6.733   1.030   6.332
 8135SOL     OW25303   1.624   0.798   1.654
 8135SOL    HW125304   1.657   0.706   1.673
 8135SOL    HW225305   1.551   0.822   1.718
 8136SOL     OW25306   5.586   5.140   2.386
 8136SOL    HW125307   5.623   5.064   2.439
 8136SOL    HW225308   5.662   5.200   2.358
 8137SOL     OW25309   2.957   1.083   4.951
 8137SOL    HW125310   2.911   0.994   4.950
 8137SOL    HW225311   3.033   1.083   4.886
 8138SOL     OW25312   5.348   1.085   1.627
 8138SOL    HW125313   5.431   1.119   1.584
 8138SOL    HW225314   5.293   1.162   1.660
 8139SOL     OW25315   0.729   1.362   2.021
 8139SOL    HW125316   0.649   1.327   2.070
 8139SOL    HW225317   0.795   1.398   2.087
 8140SOL     OW25318   4.858   1.155   4.531
 8140SOL    HW125319   4.786   1.109   4.582
 8140SOL    HW225320   4.900   1.225   4.588
 8141SOL     OW25321   4.063   5.449   5.948
 8141SOL    HW125322   4.106   5.366   5.913
 8141SOL    HW225323   4.127   5.496   6.009
 8142SOL     OW25324   6.384   5.080   7.005
 8142SOL    HW125325   6.455   5.068   0.052
 8142SOL    HW225326   6.320   5.004   7.009
 8143SOL     OW25327   6.605   4.760   0.058
 8143SOL    HW125328   6.676   4.796   7.019
 8143SOL    HW225329   6.543   4.702   0.006
 8144SOL     OW25330   5.518   0.157   0.124
 8144SOL    HW125331   5.502   0.236   0.183
 8144SOL    HW225332   5.496   0.073   0.173
 8145SOL     OW25333   5.671   6.015   2.509
 8145SOL    HW125334   5.703   5.943   2.570
 8145SOL    HW225335   5.586   5.987   2.464
 8146SOL     OW25336   3.516   1.472   5.711
 8146SOL    HW125337   3.601   1.443   5.755
 8146SOL    HW225338   3.515   1.572   5.702
 8147SOL     OW25339   5.253   1.891   3.431
 8147SOL    HW125340   5.240   1.976   3.481
 8147SOL    HW225341   5.277   1.911   3.336
 8148SOL     OW25342   5.623   3.725   2.674
 8148SOL    HW125343   5.682   3.732   2.593
 8148SOL    HW225344   5.530   3.752   2.650
 8149SOL     OW25345   2.550   5.731   3.176
 8149SOL    HW125346   2.451   5.723   3.164
 8149SOL    HW225347   2.570   5.771   3.265
 8150SOL     OW25348   0.181   4.977   0.467
 8150SOL    HW125349   0.278   4.959   0.479
 8150SOL    HW225350   0.130   4.940   0.545
 8151SOL     OW25351   0.997   2.042   3.116
 8151SOL    HW125352   1.039   2.120   3.161
 8151SOL    HW225353   0.925   2.005   3.174
 8152SOL     OW25354   1.759   1.857   2.982
 8152SOL    HW125355   1.775   1.954   2.998
 8152SOL    HW225356   1.747   1.810   3.070
 8153SOL     OW25357   3.004   6.999   2.626
 8153SOL    HW125358   3.054   0.036   2.563
 8153SOL    HW225359   3.068   6.935   2.670
 8154SOL     OW25360   2.257   5.967   4.635
 8154SOL    HW125361   2.273   5.919   4.549
 8154SOL    HW225362   2.329   5.943   4.701
 8155SOL     OW25363   3.070   3.031   2.319
 8155SOL    HW125364   3.164   3.062   2.303
 8155SOL    HW225365   3.053   2.948   2.266
 8156SOL     OW25366   5.807   0.277   5.351
 8156SOL    HW125367   5.805   0.214   5.428
 8156SOL    HW225368   5.716   0.284   5.310
 8157SOL     OW25369   5.531   5.678   6.407
 8157SOL    HW125370   5.572   5.602   6.456
 8157SOL    HW225371   5.433   5.680   6.425
 8158SOL     OW25372   1.530   5.962   0.799
 8158SOL    HW125373   1.472   6.004   0.729
 8158SOL    HW225374   1.621   5.946   0.761
 8159SOL     OW25375   2.221   5.513   2.104
 8159SOL    HW125376   2.143   5.513   2.043
 8159SOL    HW225377   2.306   5.520   2.051
 8160SOL     OW25378   4.799   1.553   1.087
 8160SOL    HW125379   4.787   1.587   0.994
 8160SOL    HW225380   4.862   1.476   1.087
 8161SOL     OW25381   4.792   0.929   0.802
 8161SOL    HW125382   4.876   0.979   0.781
 8161SOL    HW225383   4.790   0.908   0.900
 8162SOL     OW25384   6.283   6.575   0.171
 8162SOL    HW125385   6.328   6.486   0.162
 8162SOL    HW225386   6.238   6.581   0.260
 8163SOL     OW25387   2.648   4.036   5.550
 8163SOL    HW125388   2.724   4.087   5.508
 8163SOL    HW225389   2.641   3.946   5.507
 8164SOL     OW25390   5.712   3.249   1.558
 8164SOL    HW125391   5.702   3.295   1.647
 8164SOL    HW225392   5.622   3.216   1.528
 8165SOL     OW25393   2.407   4.409   1.275
 8165SOL    HW125394   2.409   4.374   1.181
 8165SOL    HW225395   2.325   4.465   1.288
 8166SOL     OW25396   2.293   0.978   1.935
 8166SOL    HW125397   2.279   1.070   1.970
 8166SOL    HW225398   2.377   0.939   1.974
 8167SOL     OW25399   5.907   2.470   3.750
 8167SOL    HW125400   5.964   2.404   3.701
 8167SOL    HW225401   5.839   2.508   3.687
 8168SOL     OW25402   3.500   1.695   2.714
 8168SOL    HW125403   3.593   1.730   2.704
 8168SOL    HW225404   3.473   1.648   2.629
 8169SOL     OW25405   4.037   3.868   0.739
 8169SOL    HW125406   3.947   3.911   0.738
 8169SOL    HW225407   4.078   3.873   0.648
 8170SOL     OW25408   1.554   5.958   3.490
 8170SOL    HW125409   1.458   5.939   3.512
 8170SOL    HW225410   1.598   5.875   3.455
 8171SOL     OW25411   0.737   2.246   6.765
 8171SOL    HW125412   0.646   2.272   6.797
 8171SOL    HW225413   0.752   2.149   6.784
 8172SOL     OW25414   0.294   0.297   1.029
 8172SOL    HW125415   0.321   0.390   1.053
 8172SOL    HW225416   0.195   0.294   1.014
 8173SOL     OW25417   3.594   2.566   6.852
 8173SOL    HW125418   3.545   2.636   6.800
 8173SOL    HW225419   3.691   2.589   6.856
 8174SOL     OW25420   5.850   1.800   0.885
 8174SOL    HW125421   5.797   1.725   0.844
 8174SOL    HW225422   5.909   1.840   0.815
 8175SOL     OW25423   6.899   2.414   6.560
 8175SOL    HW125424   6.843   2.485   6.517
 8175SOL    HW225425   6.919   2.440   6.655
 8176SOL     OW25426   2.577   5.594   2.168
 8176SOL    HW125427   2.536   5.560   2.253
 8176SOL    HW225428   2.663   5.642   2.190
 8177SOL     OW25429   1.435   6.251   3.982
 8177SOL    HW125430   1.364   6.317   4.005
 8177SOL    HW225431   1.522   6.299   3.967
 8178SOL     OW25432   2.239   0.052   5.998
 8178SOL    HW125433   2.323   0.083   6.043
 8178SOL    HW225434   2.252   0.051   5.899
 8179SOL     OW25435   3.286   2.858   0.018
 8179SOL    HW125436   3.301   2.775   0.071
 8179SOL    HW225437   3.352   2.863   6.965
 8180SOL     OW25438   6.807   0.150   4.141
 8180SOL    HW125439   6.836   0.056   4.124
 8180SOL    HW225440   6.710   0.159   4.120
 8181SOL     OW25441   2.548   2.440   2.962
 8181SOL    HW125442   2.604   2.415   3.041
 8181SOL    HW225443   2.510   2.357   2.921
 8182SOL     OW25444   3.264   2.033   5.850
 8182SOL    HW125445   3.357   2.028   5.815
 8182SOL    HW225446   3.216   2.109   5.805
 8183SOL     OW25447   0.924   3.498   5.156
 8183SOL    HW125448   0.834   3.456   5.145
 8183SOL    HW225449   0.934   3.573   5.090
 8184SOL     OW25450   6.592   0.610   5.674
 8184SOL    HW125451   6.494   0.604   5.657
 8184SOL    HW225452   6.612   0.692   5.727
 8185SOL     OW25453   2.757   0.984   0.988
 8185SOL    HW125454   2.774   1.016   0.895
 8185SOL    HW225455   2.665   1.013   1.016
 8186SOL     OW25456   3.291   6.156   5.576
 8186SOL    HW125457   3.240   6.138   5.660
 8186SOL    HW225458   3.307   6.254   5.566
 8187SOL     OW25459   1.423   1.498   5.373
 8187SOL    HW125460   1.341   1.444   5.351
 8187SOL    HW225461   1.467   1.527   5.288
 8188SOL     OW25462   5.107   1.688   2.309
 8188SOL    HW125463   5.013   1.668   2.337
 8188SOL    HW225464   5.169   1.619   2.346
 8189SOL     OW25465   5.714   4.556   2.252
 8189SOL    HW125466   5.719   4.579   2.349
 8189SOL    HW225467   5.621   4.575   2.218
 8190SOL     OW25468   5.520   4.201   4.240
 8190SOL    HW125469   5.505   4.163   4.332
 8190SOL    HW225470   5.444   4.177   4.181
 8191SOL     OW25471   0.659   5.431   3.771
 8191SOL    HW125472   0.561   5.416   3.759
 8191SOL    HW225473   0.708   5.347   3.748
 8192SOL     OW25474   2.940   5.365   1.619
 8192SOL    HW125475   2.881   5.443   1.601
 8192SOL    HW225476   3.033   5.397   1.638
 8193SOL     OW25477   5.535   6.291   5.298
 8193SOL    HW125478   5.571   6.363   5.239
 8193SOL    HW225479   5.441   6.270   5.272
 8194SOL     OW25480   6.421   1.528   6.891
 8194SOL    HW125481   6.409   1.619   6.850
 8194SOL    HW225482   6.375   1.525   6.979
 8195SOL     OW25483   0.011   0.234   0.185
 8195SOL    HW125484   7.002   0.169   0.254
 8195SOL    HW225485   0.012   0.326   0.223
 8196SOL     OW25486   3.664   6.492   5.808
 8196SOL    HW125487   3.652   6.459   5.902
 8196SOL    HW225488   3.650   6.416   5.745
 8197SOL     OW25489   6.654   0.813   5.818
 8197SOL    HW125490   6.650   0.909   5.794
 8197SOL    HW225491   6.619   0.800   5.911
 8198SOL     OW25492   2.708   6.746   2.933
 8198SOL    HW125493   2.701   6.838   2.894
 8198SOL    HW225494   2.757   6.687   2.869
 8199SOL     OW25495   0.818   3.928   0.631
 8199SOL    HW125496   0.748   3.895   0.567
 8199SOL    HW225497   0.862   4.009   0.593
 8200SOL     OW25498   4.657   4.052   1.741
 8200SOL    HW125499   4.567   4.088   1.767
 8200SOL    HW225500   4.644   3.972   1.683
 8201SOL     OW25501   5.488   0.432   4.305
 8201SOL    HW125502   5.579   0.472   4.308
 8201SOL    HW225503   5.496   0.332   4.301
 8202SOL     OW25504   1.881   4.941   3.675
 8202SOL    HW125505   1.957   5.002   3.656
 8202SOL    HW225506   1.870   4.877   3.598
 8203SOL     OW25507   4.673   3.731   1.248
 8203SOL    HW125508   4.730   3.650   1.264
 8203SOL    HW225509   4.612   3.713   1.171
 8204SOL     OW25510   3.369   6.905   2.002
 8204SOL    HW125511   3.284   6.936   2.045
 8204SOL    HW225512   3.441   6.901   2.071
 8205SOL     OW25513   5.421   5.848   2.099
 8205SOL    HW125514   5.428   5.930   2.043
 8205SOL    HW225515   5.326   5.817   2.101
 8206SOL     OW25516   4.060   2.191   5.630
 8206SOL    HW125517   3.980   2.176   5.572
 8206SOL    HW225518   4.116   2.107   5.632
 8207SOL     OW25519   3.067   4.722   5.642
 8207SOL    HW125520   3.025   4.634   5.620
 8207SOL    HW225521   3.015   4.796   5.598
 8208SOL     OW25522   1.828   5.398   1.665
 8208SOL    HW125523   1.831   5.321   1.602
 8208SOL    HW225524   1.847   5.483   1.615
 8209SOL     OW25525   1.696   0.927   5.345
 8209SOL    HW125526   1.607   0.890   5.371
 8209SOL    HW225527   1.765   0.854   5.351
 8210SOL     OW25528   2.088   1.039   0.337
 8210SOL    HW125529   2.071   0.997   0.247
 8210SOL    HW225530   2.006   1.033   0.393
 8211SOL     OW25531   3.028   3.704   4.012
 8211SOL    HW125532   2.960   3.725   3.942
 8211SOL    HW225533   3.062   3.789   4.053
 8212SOL     OW25534   1.904   0.264   1.550
 8212SOL    HW125535   1.847   0.267   1.468
 8212SOL    HW225536   1.995   0.298   1.528
 8213SOL     OW25537   4.474   4.556   1.850
 8213SOL    HW125538   4.556   4.610   1.867
 8213SOL    HW225539   4.487   4.463   1.884
 8214SOL     OW25540   3.104   5.631   4.370
 8214SOL    HW125541   3.070   5.544   4.406
 8214SOL    HW225542   3.197   5.646   4.402
 8215SOL     OW25543   3.875   6.412   6.686
 8215SOL    HW125544   3.841   6.500   6.718
 8215SOL    HW225545   3.811   6.372   6.621
 8216SOL     OW25546   4.615   6.137   2.782
 8216SOL    HW125547   4.538   6.188   2.820
 8216SOL    HW225548   4.625   6.159   2.685
 8217SOL     OW25549   2.482   4.611   3.202
 8217SOL    HW125550   2.427   4.689   3.232
 8217SOL    HW225551   2.579   4.632   3.215
 8218SOL     OW25552   1.700   0.342   4.778
 8218SOL    HW125553   1.683   0.274   4.849
 8218SOL    HW225554   1.788   0.324   4.735
 8219SOL     OW25555   4.128   3.648   1.175
 8219SOL    HW125556   4.185   3.693   1.243
 8219SOL    HW225557   4.031   3.660   1.199
 8220SOL     OW25558   3.559   4.179   4.854
 8220SOL    HW125559   3.527   4.268   4.819
 8220SOL    HW225560   3.530   4.107   4.791
 8221SOL     OW25561   6.168   3.238   3.752
 8221SOL    HW125562   6.151   3.227   3.850
 8221SOL    HW225563   6.083   3.262   3.706
 8222SOL     OW25564   6.133   2.331   1.626
 8222SOL    HW125565   6.157   2.259   1.691
 8222SOL    HW225566   6.213   2.355   1.571
 8223SOL     OW25567   6.700   5.651   5.477
 8223SOL    HW125568   6.702   5.679   5.382
 8223SOL    HW225569   6.735   5.557   5.485
 8224SOL     OW25570   4.677   1.926   0.333
 8224SOL    HW125571   4.646   2.017   0.302
 8224SOL    HW225572   4.689   1.866   0.254
 8225SOL     OW25573   4.278   1.337   0.145
 8225SOL    HW125574   4.226   1.279   0.082
 8225SOL    HW225575   4.370   1.301   0.155
 8226SOL     OW25576   3.290   0.740   0.315
 8226SOL    HW125577   3.191   0.727   0.318
 8226SOL    HW225578   3.312   0.820   0.260
 8227SOL     OW25579   5.634   1.856   2.705
 8227SOL    HW125580   5.726   1.891   2.688
 8227SOL    HW225581   5.569   1.932   2.706
 8228SOL     OW25582   0.802   0.939   5.572
 8228SOL    HW125583   0.845   0.982   5.492
 8228SOL    HW225584   0.786   1.008   5.642
 8229SOL     OW25585   4.069   4.775   1.161
 8229SOL    HW125586   3.999   4.784   1.090
 8229SOL    HW225587   4.056   4.688   1.210
 8230SOL     OW25588   4.045   0.621   5.933
 8230SOL    HW125589   4.079   0.710   5.964
 8230SOL    HW225590   3.994   0.632   5.848
 8231SOL     OW25591   3.461   1.316   1.574
 8231SOL    HW125592   3.502   1.316   1.665
 8231SOL    HW225593   3.523   1.271   1.509
 8232SOL     OW25594   4.096   0.280   2.460
 8232SOL    HW125595   4.178   0.309   2.509
 8232SOL    HW225596   4.120   0.258   2.365
 8233SOL     OW25597   0.575   0.923   5.215
 8233SOL    HW125598   0.634   0.988   5.263
 8233SOL    HW225599   0.624   0.884   5.137
 8234SOL     OW25600   2.396   2.939   6.913
 8234SOL    HW125601   2.386   2.841   6.894
 8234SOL    HW225602   2.419   2.953   7.009
 8235SOL     OW25603   6.935   5.379   0.224
 8235SOL    HW125604   6.990   5.452   0.265
 8235SOL    HW225605   6.977   5.290   0.243
 8236SOL     OW25606   1.092   6.531   5.888
 8236SOL    HW125607   1.108   6.443   5.844
 8236SOL    HW225608   1.161   6.546   5.959
 8237SOL     OW25609   4.606   5.426   6.225
 8237SOL    HW125610   4.566   5.398   6.138
 8237SOL    HW225611   4.609   5.526   6.230
 8238SOL     OW25612   2.401   4.743   0.792
 8238SOL    HW125613   2.407   4.839   0.762
 8238SOL    HW225614   2.375   4.740   0.888
 8239SOL     OW25615   0.654   2.188   5.508
 8239SOL    HW125616   0.676   2.217   5.415
 8239SOL    HW225617   0.599   2.259   5.553
 8240SOL     OW25618   3.732   3.743   4.611
 8240SOL    HW125619   3.731   3.644   4.611
 8240SOL    HW225620   3.827   3.775   4.620
 8241SOL     OW25621   1.198   3.628   6.702
 8241SOL    HW125622   1.208   3.700   6.771
 8241SOL    HW225623   1.150   3.664   6.622
 8242SOL     OW25624   0.877   4.053   4.395
 8242SOL    HW125625   0.964   4.071   4.441
 8242SOL    HW225626   0.871   3.956   4.370
 8243SOL     OW25627   0.553   4.751   5.135
 8243SOL    HW125628   0.613   4.758   5.215
 8243SOL    HW225629   0.570   4.666   5.087
 8244SOL     OW25630   1.739   0.343   3.904
 8244SOL    HW125631   1.653   0.392   3.915
 8244SOL    HW225632   1.783   0.372   3.819
 8245SOL     OW25633   5.090   1.204   3.996
 8245SOL    HW125634   5.032   1.186   3.917
 8245SOL    HW225635   5.123   1.299   3.993
 8246SOL     OW25636   1.365   4.464   6.885
 8246SOL    HW125637   1.343   4.366   6.875
 8246SOL    HW225638   1.290   4.510   6.932
 8247SOL     OW25639   2.959   5.348   3.533
 8247SOL    HW125640   2.900   5.281   3.577
 8247SOL    HW225641   2.911   5.388   3.455
 8248SOL     OW25642   0.562   5.230   2.945
 8248SOL    HW125643   0.605   5.208   3.033
 8248SOL    HW225644   0.560   5.148   2.888
 8249SOL     OW25645   2.154   2.173   6.152
 8249SOL    HW125646   2.247   2.174   6.115
 8249SOL    HW225647   2.095   2.229   6.093
 8250SOL     OW25648   1.390   1.828   6.526
 8250SOL    HW125649   1.366   1.763   6.455
 8250SOL    HW225650   1.489   1.825   6.543
 8251SOL     OW25651   6.735   2.540   4.659
 8251SOL    HW125652   6.743   2.639   4.672
 8251SOL    HW225653   6.674   2.502   4.729
 8252SOL     OW25654   1.797   2.335   6.735
 8252SOL    HW125655   1.880   2.284   6.757
 8252SOL    HW225656   1.813   2.393   6.655
 8253SOL     OW25657   3.908   5.750   0.254
 8253SOL    HW125658   3.920   5.797   0.167
 8253SOL    HW225659   3.934   5.654   0.244
 8254SOL     OW25660   5.575   5.275   0.762
 8254SOL    HW125661   5.586   5.307   0.669
 8254SOL    HW225662   5.664   5.265   0.806
 8255SOL     OW25663   0.232   6.796   5.506
 8255SOL    HW125664   0.215   6.894   5.500
 8255SOL    HW225665   0.226   6.767   5.602
 8256SOL     OW25666   2.093   6.082   2.717
 8256SOL    HW125667   2.117   6.013   2.649
 8256SOL    HW225668   2.085   6.038   2.807
 8257SOL     OW25669   4.808   4.021   4.214
 8257SOL    HW125670   4.760   4.108   4.225
 8257SOL    HW225671   4.905   4.034   4.234
 8258SOL     OW25672   6.303   3.562   1.867
 8258SOL    HW125673   6.237   3.638   1.864
 8258SOL    HW225674   6.277   3.499   1.941
 8259SOL     OW25675   4.451   2.120   4.023
 8259SOL    HW125676   4.476   2.137   3.928
 8259SOL    HW225677   4.532   2.095   4.075
 8260SOL     OW25678   2.744   0.429   0.653
 8260SOL    HW125679   2.768   0.361   0.723
 8260SOL    HW225680   2.729   0.518   0.696
 8261SOL     OW25681   4.936   0.296   3.630
 8261SOL    HW125682   4.895   0.386   3.643
 8261SOL    HW225683   4.877   0.241   3.571
 8262SOL     OW25684   6.948   3.884   1.573
 8262SOL    HW125685   6.997   3.876   1.660
 8262SOL    HW225686   6.982   3.816   1.509
 8263SOL     OW25687   6.924   2.515   6.839
 8263SOL    HW125688   6.974   2.430   6.853
 8263SOL    HW225689   6.907   2.558   6.928
 8264SOL     OW25690   1.983   6.588   3.030
 8264SOL    HW125691   2.038   6.584   3.113
 8264SOL    HW225692   1.973   6.496   2.991
 8265SOL     OW25693   5.075   0.692   0.918
 8265SOL    HW125694   5.103   0.786   0.935
 8265SOL    HW225695   5.007   0.665   0.986
 8266SOL     OW25696   2.401   6.951   3.930
 8266SOL    HW125697   2.430   6.867   3.883
 8266SOL    HW225698   2.449   6.957   4.018
 8267SOL     OW25699   1.354   3.806   3.114
 8267SOL    HW125700   1.411   3.878   3.154
 8267SOL    HW225701   1.262   3.810   3.154
 8268SOL     OW25702   3.268   4.258   6.606
 8268SOL    HW125703   3.207   4.235   6.531
 8268SOL    HW225704   3.361   4.273   6.571
 8269SOL     OW25705   4.354   2.413   3.187
 8269SOL    HW125706   4.273   2.363   3.158
 8269SOL    HW225707   4.345   2.439   3.283
 8270SOL     OW25708   3.806   0.162   6.146
 8270SOL    HW125709   3.894   0.195   6.113
 8270SOL    HW225710   3.807   0.158   6.246
 8271SOL     OW25711   4.885   6.216   4.983
 8271SOL    HW125712   4.868   6.313   5.002
 8271SOL    HW225713   4.881   6.200   4.884
 8272SOL     OW25714   0.629   6.745   1.817
 8272SOL    HW125715   0.679   6.832   1.817
 8272SOL    HW225716   0.534   6.761   1.845
 8273SOL     OW25717   3.060   6.554   0.115
 8273SOL    HW125718   2.993   6.482   0.095
 8273SOL    HW225719   3.013   6.642   0.121
 8274SOL     OW25720   4.807   6.287   6.580
 8274SOL    HW125721   4.800   6.307   6.678
 8274SOL    HW225722   4.730   6.330   6.532
 8275SOL     OW25723   6.198   0.803   4.693
 8275SOL    HW125724   6.278   0.857   4.715
 8275SOL    HW225725   6.219   0.706   4.704
 8276SOL     OW25726   6.611   3.326   6.706
 8276SOL    HW125727   6.646   3.233   6.712
 8276SOL    HW225728   6.636   3.376   6.789
 8277SOL     OW25729   0.958   5.369   5.805
 8277SOL    HW125730   0.923   5.275   5.799
 8277SOL    HW225731   0.967   5.408   5.713
 8278SOL     OW25732   3.626   1.253   0.008
 8278SOL    HW125733   3.632   1.344   6.988
 8278SOL    HW225734   3.533   1.218   7.021
 8279SOL     OW25735   4.518   6.165   6.036
 8279SOL    HW125736   4.560   6.160   5.946
 8279SOL    HW225737   4.561   6.237   6.090
 8280SOL     OW25738   5.058   2.837   0.618
 8280SOL    HW125739   4.980   2.779   0.640
 8280SOL    HW225740   5.036   2.894   0.539
 8281SOL     OW25741   2.038   4.702   0.053
 8281SOL    HW125742   1.957   4.709   0.112
 8281SOL    HW225743   2.028   4.624   7.013
 8282SOL     OW25744   2.951   2.890   1.023
 8282SOL    HW125745   2.885   2.964   1.032
 8282SOL    HW225746   2.907   2.803   1.046
 8283SOL     OW25747   0.311   4.751   3.377
 8283SOL    HW125748   0.279   4.840   3.409
 8283SOL    HW225749   0.344   4.759   3.283
 8284SOL     OW25750   1.881   1.984   1.656
 8284SOL    HW125751   1.884   1.956   1.752
 8284SOL    HW225752   1.928   2.073   1.646
 8285SOL     OW25753   3.231   4.300   5.655
 8285SOL    HW125754   3.174   4.374   5.621
 8285SOL    HW225755   3.175   4.237   5.709
 8286SOL     OW25756   5.607   1.101   4.397
 8286SOL    HW125757   5.517   1.140   4.378
 8286SOL    HW225758   5.604   1.002   4.384
 8287SOL     OW25759   1.576   0.429   3.580
 8287SOL    HW125760   1.524   0.437   3.665
 8287SOL    HW225761   1.674   0.432   3.600
 8288SOL     OW25762   1.438   1.482   2.343
 8288SOL    HW125763   1.378   1.560   2.329
 8288SOL    HW225764   1.484   1.491   2.432
 8289SOL     OW25765   6.107   1.568   5.584
 8289SOL    HW125766   6.102   1.565   5.484
 8289SOL    HW225767   6.144   1.656   5.613
 8290SOL     OW25768   3.658   2.682   1.798
 8290SOL    HW125769   3.606   2.733   1.867
 8290SOL    HW225770   3.654   2.584   1.819
 8291SOL     OW25771   5.678   6.129   5.925
 8291SOL    HW125772   5.713   6.058   5.864
 8291SOL    HW225773   5.751   6.160   5.985
 8292SOL     OW25774   1.428   3.780   4.640
 8292SOL    HW125775   1.366   3.739   4.573
 8292SOL    HW225776   1.423   3.729   4.726
 8293SOL     OW25777   2.652   5.283   2.981
 8293SOL    HW125778   2.642   5.362   2.921
 8293SOL    HW225779   2.598   5.296   3.064
 8294SOL     OW25780   6.601   3.788   6.364
 8294SOL    HW125781   6.609   3.800   6.463
 8294SOL    HW225782   6.648   3.704   6.337
 8295SOL     OW25783   4.732   4.235   2.319
 8295SOL    HW125784   4.739   4.285   2.233
 8295SOL    HW225785   4.734   4.137   2.302
 8296SOL     OW25786   3.537   6.520   1.147
 8296SOL    HW125787   3.527   6.602   1.090
 8296SOL    HW225788   3.635   6.503   1.163
 8297SOL     OW25789   6.400   4.618   2.940
 8297SOL    HW125790   6.483   4.622   2.885
 8297SOL    HW225791   6.320   4.625   2.880
 8298SOL     OW25792   6.860   0.034   6.561
 8298SOL    HW125793   6.838   0.131   6.554
 8298SOL    HW225794   6.958   0.022   6.546
 8299SOL     OW25795   0.713   3.822   1.481
 8299SOL    HW125796   0.791   3.792   1.536
 8299SOL    HW225797   0.631   3.773   1.509
 8300SOL     OW25798   5.944   5.173   3.228
 8300SOL    HW125799   6.003   5.236   3.279
 8300SOL    HW225800   5.901   5.109   3.292
 8301SOL     OW25801   4.429   6.548   0.871
 8301SOL    HW125802   4.335   6.579   0.862
 8301SOL    HW225803   4.485   6.591   0.800
 8302SOL     OW25804   3.600   6.808   4.836
 8302SOL    HW125805   3.547   6.879   4.882
 8302SOL    HW225806   3.556   6.719   4.851
 8303SOL     OW25807   6.773   6.956   2.591
 8303SOL    HW125808   6.811   6.875   2.636
 8303SOL    HW225809   6.722   7.010   2.659
 8304SOL     OW25810   6.209   4.243   3.473
 8304SOL    HW125811   6.111   4.256   3.459
 8304SOL    HW225812   6.260   4.303   3.411
 8305SOL     OW25813   4.949   5.651   4.476
 8305SOL    HW125814   5.027   5.648   4.539
 8305SOL    HW225815   4.975   5.611   4.389
 8306SOL     OW25816   6.042   0.921   2.265
 8306SOL    HW125817   6.055   0.825   2.286
 8306SOL    HW225818   5.968   0.958   2.321
 8307SOL     OW25819   2.082   4.869   2.217
 8307SOL    HW125820   2.144   4.790   2.213
 8307SOL    HW225821   1.989   4.838   2.201
 8308SOL     OW25822   1.322   5.166   0.032
 8308SOL    HW125823   1.385   5.140   0.105
 8308SOL    HW225824   1.367   5.152   6.965
 8309SOL     OW25825   6.326   4.309   3.926
 8309SOL    HW125826   6.319   4.217   3.965
 8309SOL    HW225827   6.258   4.368   3.969
 8310SOL     OW25828   1.050   6.529   0.345
 8310SOL    HW125829   0.953   6.551   0.359
 8310SOL    HW225830   1.061   6.487   0.254
 8311SOL     OW25831   5.383   6.961   4.349
 8311SOL    HW125832   5.333   0.016   4.310
 8311SOL    HW225833   5.477   6.961   4.313
 8312SOL     OW25834   5.324   0.940   0.041
 8312SOL    HW125835   5.346   1.037   0.030
 8312SOL    HW225836   5.386   0.898   0.107
 8313SOL     OW25837   4.705   1.531   4.554
 8313SOL    HW125838   4.748   1.593   4.489
 8313SOL    HW225839   4.772   1.507   4.625
 8314SOL     OW25840   4.766   6.569   5.719
 8314SOL    HW125841   4.754   6.664   5.748
 8314SOL    HW225842   4.862   6.554   5.695
 8315SOL     OW25843   3.806   3.202   4.464
 8315SOL    HW125844   3.809   3.229   4.368
 8315SOL    HW225845   3.871   3.257   4.516
 8316SOL     OW25846   1.333   2.661   0.094
 8316SOL    HW125847   1.261   2.719   0.132
 8316SOL    HW225848   1.313   2.566   0.114
 8317SOL     OW25849   1.357   1.881   3.819
 8317SOL    HW125850   1.262   1.851   3.828
 8317SOL    HW225851   1.414   1.805   3.791
 8318SOL     OW25852   3.934   6.842   6.587
 8318SOL    HW125853   3.902   6.844   6.493
 8318SOL    HW225854   3.982   6.756   6.604
 8319SOL     OW25855   2.287   0.476   6.072
 8319SOL    HW125856   2.267   0.517   6.161
 8319SOL    HW225857   2.341   0.393   6.086
 8320SOL     OW25858   3.073   3.390   4.737
 8320SOL    HW125859   3.024   3.477   4.734
 8320SOL    HW225860   3.038   3.329   4.665
 8321SOL     OW25861   6.641   6.636   0.230
 8321SOL    HW125862   6.577   6.699   0.274
 8321SOL    HW225863   6.643   6.654   0.132
 8322SOL     OW25864   0.128   1.044   6.893
 8322SOL    HW125865   0.091   1.028   6.802
 8322SOL    HW225866   0.198   0.976   6.913
 8323SOL     OW25867   4.459   4.714   1.187
 8323SOL    HW125868   4.535   4.677   1.242
 8323SOL    HW225869   4.379   4.655   1.197
 8324SOL     OW25870   5.885   6.165   6.379
 8324SOL    HW125871   5.842   6.080   6.349
 8324SOL    HW225872   5.849   6.192   6.468
 8325SOL     OW25873   1.216   5.520   5.466
 8325SOL    HW125874   1.201   5.487   5.559
 8325SOL    HW225875   1.149   5.477   5.405
 8326SOL     OW25876   1.871   3.650   1.710
 8326SOL    HW125877   1.917   3.581   1.765
 8326SOL    HW225878   1.809   3.703   1.768
 8327SOL     OW25879   1.044   0.220   4.495
 8327SOL    HW125880   1.103   0.196   4.418
 8327SOL    HW225881   0.967   0.274   4.462
 8328SOL     OW25882   1.394   0.265   5.977
 8328SOL    HW125883   1.356   0.182   6.017
 8328SOL    HW225884   1.429   0.246   5.885
 8329SOL     OW25885   1.228   2.678   5.393
 8329SOL    HW125886   1.319   2.717   5.407
 8329SOL    HW225887   1.191   2.711   5.306
 8330SOL     OW25888   3.510   0.665   6.456
 8330SOL    HW125889   3.541   0.576   6.489
 8330SOL    HW225890   3.567   0.693   6.379
 8331SOL     OW25891   1.880   2.085   0.054
 8331SOL    HW125892   1.791   2.129   0.062
 8331SOL    HW225893   1.875   2.009   7.010
 8332SOL     OW25894   5.852   4.832   2.040
 8332SOL    HW125895   5.787   4.876   1.978
 8332SOL    HW225896   5.807   4.809   2.126
 8333SOL     OW25897   3.014   4.721   1.320
 8333SOL    HW125898   2.942   4.676   1.373
 8333SOL    HW225899   3.087   4.750   1.382
 8334SOL     OW25900   3.463   1.937   6.579
 8334SOL    HW125901   3.509   2.002   6.519
 8334SOL    HW225902   3.378   1.907   6.536
 8335SOL     OW25903   5.127   3.299   5.994
 8335SOL    HW125904   5.141   3.338   6.084
 8335SOL    HW225905   5.206   3.319   5.936
 8336SOL     OW25906   1.093   3.734   3.185
 8336SOL    HW125907   1.079   3.809   3.250
 8336SOL    HW225908   1.100   3.648   3.235
 8337SOL     OW25909   0.577   1.210   4.323
 8337SOL    HW125910   0.608   1.272   4.395
 8337SOL    HW225911   0.478   1.195   4.332
 8338SOL     OW25912   3.982   5.416   2.781
 8338SOL    HW125913   4.004   5.361   2.862
 8338SOL    HW225914   3.899   5.468   2.798
 8339SOL     OW25915   6.535   0.495   0.503
 8339SOL    HW125916   6.472   0.491   0.425
 8339SOL    HW225917   6.622   0.534   0.472
 8340SOL     OW25918   5.737   2.618   0.336
 8340SOL    HW125919   5.830   2.595   0.309
 8340SOL    HW225920   5.726   2.603   0.434
 8341SOL     OW25921   3.249   0.855   6.748
 8341SOL    HW125922   3.328   0.896   6.794
 8341SOL    HW225923   3.183   0.825   6.817
 8342SOL     OW25924   4.603   0.085   0.110
 8342SOL    HW125925   4.587   0.126   0.200
 8342SOL    HW225926   4.684   0.026   0.114
 8343SOL     OW25927   6.736   3.847   3.850
 8343SOL    HW125928   6.801   3.903   3.799
 8343SOL    HW225929   6.756   3.750   3.835
 8344SOL     OW25930   1.066   5.591   5.140
 8344SOL    HW125931   1.125   5.521   5.100
 8344SOL    HW225932   1.108   5.681   5.125
 8345SOL     OW25933   4.417   0.699   2.225
 8345SOL    HW125934   4.369   0.617   2.193
 8345SOL    HW225935   4.386   0.778   2.173
 8346SOL     OW25936   4.601   2.896   5.510
 8346SOL    HW125937   4.519   2.936   5.469
 8346SOL    HW225938   4.604   2.920   5.607
 8347SOL     OW25939   2.474   0.278   6.046
 8347SOL    HW125940   2.527   0.194   6.043
 8347SOL    HW225941   2.534   0.355   6.069
 8348SOL     OW25942   3.587   6.543   1.872
 8348SOL    HW125943   3.664   6.543   1.808
 8348SOL    HW225944   3.546   6.634   1.875
 8349SOL     OW25945   1.410   6.487   2.124
 8349SOL    HW125946   1.480   6.497   2.053
 8349SOL    HW225947   1.380   6.391   2.128
 8350SOL     OW25948   2.400   0.054   6.571
 8350SOL    HW125949   2.303   0.078   6.576
 8350SOL    HW225950   2.453   0.134   6.545
 8351SOL     OW25951   0.165   4.356   3.738
 8351SOL    HW125952   0.138   4.440   3.785
 8351SOL    HW225953   0.209   4.380   3.651
 8352SOL     OW25954   2.792   5.119   1.604
 8352SOL    HW125955   2.845   5.203   1.593
 8352SOL    HW225956   2.855   5.042   1.615
 8353SOL     OW25957   1.307   4.040   2.485
 8353SOL    HW125958   1.343   3.965   2.428
 8353SOL    HW225959   1.340   4.029   2.579
 8354SOL     OW25960   3.216   6.979   3.848
 8354SOL    HW125961   3.306   6.962   3.888
 8354SOL    HW225962   3.209   0.054   3.822
 8355SOL     OW25963   2.117   6.139   5.783
 8355SOL    HW125964   2.162   6.073   5.843
 8355SOL    HW225965   2.019   6.117   5.777
 8356SOL     OW25966   1.407   5.475   1.298
 8356SOL    HW125967   1.461   5.493   1.380
 8356SOL    HW225968   1.324   5.424   1.323
 8357SOL     OW25969   4.011   5.846   5.878
 8357SOL    HW125970   4.110   5.851   5.867
 8357SOL    HW225971   3.973   5.788   5.806
 8358SOL     OW25972   1.172   2.559   5.036
 8358SOL    HW125973   1.181   2.476   5.091
 8358SOL    HW225974   1.174   2.536   4.939
 8359SOL     OW25975   3.312   1.802   5.152
 8359SOL    HW125976   3.253   1.810   5.072
 8359SOL    HW225977   3.353   1.891   5.173
 8360SOL     OW25978   5.060   6.626   0.454
 8360SOL    HW125979   5.091   6.555   0.517
 8360SOL    HW225980   5.094   6.606   0.362
 8361SOL     OW25981   3.157   0.133   0.618
 8361SOL    HW125982   3.238   0.139   0.559
 8361SOL    HW225983   3.094   0.065   0.580
 8362SOL     OW25984   6.384   3.581   1.100
 8362SOL    HW125985   6.451   3.524   1.147
 8362SOL    HW225986   6.422   3.614   1.014
 8363SOL     OW25987   3.088   2.540   6.868
 8363SOL    HW125988   3.007   2.502   6.824
 8363SOL    HW225989   3.157   2.559   6.799
 8364SOL     OW25990   0.272   2.410   3.864
 8364SOL    HW125991   0.258   2.348   3.786
 8364SOL    HW225992   0.339   2.480   3.838
 8365SOL     OW25993   2.201   2.475   2.929
 8365SOL    HW125994   2.278   2.466   2.993
 8365SOL    HW225995   2.231   2.454   2.837
 8366SOL     OW25996   5.010   5.881   0.779
 8366SOL    HW125997   4.964   5.969   0.774
 8366SOL    HW225998   4.965   5.824   0.848
 8367SOL     OW25999   4.515   5.213   4.867
 8367SOL    HW126000   4.582   5.250   4.932
 8367SOL    HW226001   4.516   5.268   4.784
 8368SOL     OW26002   1.166   6.229   0.208
 8368SOL    HW126003   1.079   6.209   0.254
 8368SOL    HW226004   1.162   6.321   0.169
 8369SOL     OW26005   1.314   1.430   0.199
 8369SOL    HW126006   1.218   1.458   0.200
 8369SOL    HW226007   1.331   1.368   0.123
 8370SOL     OW26008   3.058   2.276   0.250
 8370SOL    HW126009   2.969   2.234   0.265
 8370SOL    HW226010   3.056   2.371   0.280
 8371SOL     OW26011   1.768   4.388   5.975
 8371SOL    HW126012   1.758   4.488   5.975
 8371SOL    HW226013   1.825   4.360   5.899
 8372SOL     OW26014   1.705   6.364   2.264
 8372SOL    HW126015   1.717   6.267   2.242
 8372SOL    HW226016   1.760   6.388   2.343
 8373SOL     OW26017   0.001   0.999   4.266
 8373SOL    HW126018   0.045   0.938   4.331
 8373SOL    HW226019   6.938   1.035   4.305
 8374SOL     OW26020   1.829   0.870   4.722
 8374SOL    HW126021   1.793   0.802   4.659
 8374SOL    HW226022   1.767   0.948   4.726
 8375SOL     OW26023   4.322   1.530   5.019
 8375SOL    HW126024   4.226   1.501   5.018
 8375SOL    HW226025   4.380   1.451   5.043
 8376SOL     OW26026   2.035   0.703   3.328
 8376SOL    HW126027   2.118   0.742   3.286
 8376SOL    HW226028   1.991   0.642   3.262
 8377SOL     OW26029   5.315   5.490   6.872
 8377SOL    HW126030   5.254   5.475   6.794
 8377SOL    HW226031   5.390   5.549   6.844
 8378SOL     OW26032   6.324   5.755   3.655
 8378SOL    HW126033   6.387   5.830   3.635
 8378SOL    HW226034   6.281   5.770   3.744
 8379SOL     OW26035   5.622   1.119   2.207
 8379SOL    HW126036   5.574   1.206   2.206
 8379SOL    HW226037   5.637   1.087   2.113
 8380SOL     OW26038   6.562   5.380   0.527
 8380SOL    HW126039   6.639   5.326   0.493
 8380SOL    HW226040   6.576   5.476   0.504
 8381SOL     OW26041   0.145   1.912   2.712
 8381SOL    HW126042   0.179   1.940   2.802
 8381SOL    HW226043   0.201   1.954   2.641
 8382SOL     OW26044   2.762   0.157   0.352
 8382SOL    HW126045   2.744   0.173   0.449
 8382SOL    HW226046   2.812   0.071   0.341
 8383SOL     OW26047   3.264   6.726   4.653
 8383SOL    HW126048   3.336   6.676   4.702
 8383SOL    HW226049   3.185   6.666   4.640
 8384SOL     OW26050   0.103   2.799   0.676
 8384SOL    HW126051   0.016   2.780   0.721
 8384SOL    HW226052   0.113   2.897   0.662
 8385SOL     OW26053   4.548   3.209   0.560
 8385SOL    HW126054   4.638   3.192   0.600
 8385SOL    HW226055   4.484   3.235   0.632
 8386SOL     OW26056   1.784   5.787   1.785
 8386SOL    HW126057   1.879   5.764   1.765
 8386SOL    HW226058   1.737   5.813   1.701
 8387SOL     OW26059   2.148   1.515   1.521
 8387SOL    HW126060   2.195   1.587   1.571
 8387SOL    HW226061   2.107   1.553   1.438
 8388SOL     OW26062   3.235   6.412   0.556
 8388SOL    HW126063   3.208   6.430   0.650
 8388SOL    HW226064   3.296   6.332   0.553
 8389SOL     OW26065   1.128   2.770   4.705
 8389SOL    HW126066   1.090   2.785   4.797
 8389SOL    HW226067   1.167   2.678   4.700
 8390SOL     OW26068   1.980   0.706   6.064
 8390SOL    HW126069   2.037   0.785   6.085
 8390SOL    HW226070   1.965   0.653   6.147
 8391SOL     OW26071   4.921   5.806   1.893
 8391SOL    HW126072   4.861   5.754   1.954
 8391SOL    HW226073   4.988   5.858   1.948
 8392SOL     OW26074   5.717   5.932   5.159
 8392SOL    HW126075   5.742   5.998   5.230
 8392SOL    HW226076   5.739   5.970   5.069
 8393SOL     OW26077   6.838   6.328   2.890
 8393SOL    HW126078   6.870   6.257   2.828
 8393SOL    HW226079   6.899   6.336   2.968
 8394SOL     OW26080   0.650   1.745   3.187
 8394SOL    HW126081   0.735   1.693   3.196
 8394SOL    HW226082   0.625   1.752   3.090
 8395SOL     OW26083   0.192   6.519   4.488
 8395SOL    HW126084   0.128   6.589   4.457
 8395SOL    HW226085   0.280   6.533   4.442
 8396SOL     OW26086   4.571   4.391   2.759
 8396SOL    HW126087   4.523   4.465   2.712
 8396SOL    HW226088   4.625   4.339   2.693
 8397SOL     OW26089   2.080   6.382   2.683
 8397SOL    HW126090   2.100   6.288   2.712
 8397SOL    HW226091   2.159   6.440   2.702
 8398SOL     OW26092   4.329   1.574   0.014
 8398SOL    HW126093   4.310   1.489   0.064
 8398SOL    HW226094   4.245   1.628   0.008
 8399SOL     OW26095   5.914   5.835   7.004
 8399SOL    HW126096   5.939   5.746   0.019
 8399SOL    HW226097   5.817   5.852   7.020
 8400SOL     OW26098   0.226   0.240   3.122
 8400SOL    HW126099   0.299   0.181   3.156
 8400SOL    HW226100   0.196   0.302   3.194
 8401SOL     OW26101   3.612   3.904   6.443
 8401SOL    HW126102   3.646   3.924   6.352
 8401SOL    HW226103   3.627   3.808   6.464
 8402SOL     OW26104   3.728   1.705   6.628
 8402SOL    HW126105   3.805   1.646   6.605
 8402SOL    HW226106   3.667   1.711   6.549
 8403SOL     OW26107   1.659   1.453   4.296
 8403SOL    HW126108   1.590   1.472   4.366
 8403SOL    HW226109   1.749   1.451   4.339
 8404SOL     OW26110   4.692   6.344   5.481
 8404SOL    HW126111   4.751   6.423   5.497
 8404SOL    HW226112   4.735   6.283   5.414
 8405SOL     OW26113   0.560   2.544   6.581
 8405SOL    HW126114   0.658   2.552   6.562
 8405SOL    HW226115   0.541   2.451   6.614
 8406SOL     OW26116   4.761   1.752   1.261
 8406SOL    HW126117   4.764   1.681   1.190
 8406SOL    HW226118   4.690   1.819   1.238
 8407SOL     OW26119   5.703   4.721   3.832
 8407SOL    HW126120   5.736   4.631   3.861
 8407SOL    HW226121   5.627   4.710   3.768
 8408SOL     OW26122   4.866   0.956   4.066
 8408SOL    HW126123   4.883   0.918   3.975
 8408SOL    HW226124   4.953   0.979   4.110
 8409SOL     OW26125   1.094   1.783   3.931
 8409SOL    HW126126   1.006   1.742   3.954
 8409SOL    HW226127   1.125   1.840   4.007
 8410SOL     OW26128   5.095   6.754   1.549
 8410SOL    HW126129   5.170   6.818   1.565
 8410SOL    HW226130   5.099   6.680   1.616
 8411SOL     OW26131   1.545   4.613   4.085
 8411SOL    HW126132   1.475   4.679   4.057
 8411SOL    HW226133   1.527   4.525   4.042
 8412SOL     OW26134   4.511   2.318   1.674
 8412SOL    HW126135   4.484   2.225   1.699
 8412SOL    HW226136   4.465   2.384   1.734
 8413SOL     OW26137   3.642   4.907   0.366
 8413SOL    HW126138   3.711   4.977   0.348
 8413SOL    HW226139   3.683   4.817   0.357
 8414SOL     OW26140   3.665   6.220   3.219
 8414SOL    HW126141   3.752   6.268   3.206
 8414SOL    HW226142   3.591   6.287   3.226
 8415SOL     OW26143   0.107   4.218   3.348
 8415SOL    HW126144   0.074   4.126   3.367
 8415SOL    HW226145   0.125   4.266   3.434
 8416SOL     OW26146   5.195   4.096   2.586
 8416SOL    HW126147   5.185   4.142   2.498
 8416SOL    HW226148   5.284   4.117   2.625
 8417SOL     OW26149   2.236   6.290   6.005
 8417SOL    HW126150   2.335   6.302   6.010
 8417SOL    HW226151   2.208   6.278   5.910
 8418SOL     OW26152   6.004   6.089   2.642
 8418SOL    HW126153   5.988   6.001   2.599
 8418SOL    HW226154   6.085   6.132   2.602
 8419SOL     OW26155   4.405   0.237   2.226
 8419SOL    HW126156   4.417   0.210   2.321
 8419SOL    HW226157   4.381   0.157   2.171
 8420SOL     OW26158   3.769   0.556   6.896
 8420SOL    HW126159   3.807   0.648   6.884
 8420SOL    HW226160   3.823   0.506   6.963
 8421SOL     OW26161   1.654   0.150   2.156
 8421SOL    HW126162   1.592   0.097   2.213
 8421SOL    HW226163   1.724   0.089   2.118
 8422SOL     OW26164   5.190   6.596   0.199
 8422SOL    HW126165   5.180   6.527   0.128
 8422SOL    HW226166   5.248   6.670   0.166
 8423SOL     OW26167   3.672   4.835   6.980
 8423SOL    HW126168   3.614   4.785   0.022
 8423SOL    HW226169   3.680   4.784   6.895
 8424SOL     OW26170   3.389   1.746   2.384
 8424SOL    HW126171   3.291   1.767   2.379
 8424SOL    HW226172   3.400   1.649   2.408
 8425SOL     OW26173   6.493   5.325   1.516
 8425SOL    HW126174   6.485   5.285   1.608
 8425SOL    HW226175   6.544   5.411   1.522
 8426SOL     OW26176   3.827   3.568   3.861
 8426SOL    HW126177   3.914   3.547   3.817
 8426SOL    HW226178   3.839   3.574   3.960
 8427SOL     OW26179   1.529   3.876   6.933
 8427SOL    HW126180   1.553   3.914   0.001
 8427SOL    HW226181   1.612   3.845   6.887
 8428SOL     OW26182   0.465   4.297   1.867
 8428SOL    HW126183   0.509   4.252   1.789
 8428SOL    HW226184   0.403   4.234   1.912
 8429SOL     OW26185   2.542   4.991   4.037
 8429SOL    HW126186   2.602   5.034   4.104
 8429SOL    HW226187   2.464   4.950   4.083
 8430SOL     OW26188   4.711   4.865   2.569
 8430SOL    HW126189   4.728   4.812   2.652
 8430SOL    HW226190   4.623   4.912   2.577
 8431SOL     OW26191   3.487   4.881   1.285
 8431SOL    HW126192   3.461   4.900   1.190
 8431SOL    HW226193   3.473   4.962   1.341
 8432SOL     OW26194   4.196   5.530   6.380
 8432SOL    HW126195   4.199   5.434   6.408
 8432SOL    HW226196   4.266   5.582   6.429
 8433SOL     OW26197   1.140   2.542   6.693
 8433SOL    HW126198   1.060   2.598   6.717
 8433SOL    HW226199   1.212   2.557   6.761
 8434SOL     OW26200   4.351   6.776   5.805
 8434SOL    HW126201   4.419   6.829   5.756
 8434SOL    HW226202   4.312   6.830   5.879
 8435SOL     OW26203   4.149   1.958   1.159
 8435SOL    HW126204   4.073   1.900   1.189
 8435SOL    HW226205   4.174   1.934   1.065
 8436SOL     OW26206   3.830   4.876   2.488
 8436SOL    HW126207   3.837   4.876   2.587
 8436SOL    HW226208   3.769   4.950   2.458
 8437SOL     OW26209   0.473   0.927   1.119
 8437SOL    HW126210   0.386   0.890   1.151
 8437SOL    HW226211   0.457   1.015   1.073
 8438SOL     OW26212   3.007   4.858   2.238
 8438SOL    HW126213   2.931   4.922   2.252
 8438SOL    HW226214   3.002   4.819   2.146
 8439SOL     OW26215   7.004   5.588   2.097
 8439SOL    HW126216   7.012   5.509   2.157
 8439SOL    HW226217   6.910   5.596   2.064
 8440SOL     OW26218   0.178   0.763   1.843
 8440SOL    HW126219   0.235   0.719   1.912
 8440SOL    HW226220   0.217   0.747   1.753
 8441SOL     OW26221   5.554   5.655   6.835
 8441SOL    HW126222   5.532   5.748   6.867
 8441SOL    HW226223   5.630   5.619   6.889
 8442SOL     OW26224   2.415   4.217   0.115
 8442SOL    HW126225   2.371   4.208   0.025
 8442SOL    HW226226   2.498   4.271   0.105
 8443SOL     OW26227   0.804   0.506   3.655
 8443SOL    HW126228   0.731   0.512   3.723
 8443SOL    HW226229   0.807   0.590   3.602
 8444SOL     OW26230   3.835   6.685   4.050
 8444SOL    HW126231   3.891   6.745   4.107
 8444SOL    HW226232   3.759   6.650   4.105
 8445SOL     OW26233   3.651   5.302   2.978
 8445SOL    HW126234   3.637   5.213   2.934
 8445SOL    HW226235   3.661   5.373   2.908
 8446SOL     OW26236   5.269   5.815   3.052
 8446SOL    HW126237   5.270   5.894   2.991
 8446SOL    HW226238   5.201   5.749   3.019
 8447SOL     OW26239   5.372   2.281   1.834
 8447SOL    HW126240   5.409   2.365   1.797
 8447SOL    HW226241   5.350   2.293   1.930
 8448SOL     OW26242   0.572   3.857   5.825
 8448SOL    HW126243   0.537   3.951   5.825
 8448SOL    HW226244   0.495   3.793   5.820
 8449SOL     OW26245   0.352   3.218   4.867
 8449SOL    HW126246   0.420   3.148   4.845
 8449SOL    HW226247   0.391   3.281   4.934
 8450SOL     OW26248   1.668   6.531   3.071
 8450SOL    HW126249   1.595   6.599   3.075
 8450SOL    HW226250   1.756   6.577   3.076
 8451SOL     OW26251   3.550   2.650   0.937
 8451SOL    HW126252   3.519   2.698   1.019
 8451SOL    HW226253   3.623   2.586   0.961
 8452SOL     OW26254   6.739   0.518   1.144
 8452SOL    HW126255   6.671   0.591   1.138
 8452SOL    HW226256   6.818   0.541   1.087
 8453SOL     OW26257   6.515   5.044   6.286
 8453SOL    HW126258   6.577   5.060   6.209
 8453SOL    HW226259   6.423   5.078   6.262
 8454SOL     OW26260   1.854   6.735   2.678
 8454SOL    HW126261   1.895   6.802   2.739
 8454SOL    HW226262   1.926   6.679   2.636
 8455SOL     OW26263   5.013   1.499   1.398
 8455SOL    HW126264   4.941   1.554   1.441
 8455SOL    HW226265   5.084   1.560   1.362
 8456SOL     OW26266   5.691   5.550   3.728
 8456SOL    HW126267   5.603   5.530   3.686
 8456SOL    HW226268   5.765   5.529   3.663
 8457SOL     OW26269   6.741   0.068   5.277
 8457SOL    HW126270   6.656   0.049   5.227
 8457SOL    HW226271   6.746   0.165   5.300
 8458SOL     OW26272   2.133   1.315   0.278
 8458SOL    HW126273   2.067   1.354   0.214
 8458SOL    HW226274   2.114   1.217   0.291
 8459SOL     OW26275   3.713   6.100   2.457
 8459SOL    HW126276   3.771   6.179   2.441
 8459SOL    HW226277   3.632   6.128   2.510
 8460SOL     OW26278   4.458   2.534   6.987
 8460SOL    HW126279   4.422   2.593   6.915
 8460SOL    HW226280   4.430   2.570   0.054
 8461SOL     OW26281   0.355   3.545   1.843
 8461SOL    HW126282   0.376   3.578   1.935
 8461SOL    HW226283   0.372   3.446   1.838
 8462SOL     OW26284   3.902   3.511   0.117
 8462SOL    HW126285   3.898   3.515   0.017
 8462SOL    HW226286   3.895   3.416   0.147
 8463SOL     OW26287   6.695   2.254   0.058
 8463SOL    HW126288   6.749   2.255   0.142
 8463SOL    HW226289   6.639   2.172   0.055
 8464SOL     OW26290   0.149   3.420   6.045
 8464SOL    HW126291   0.063   3.447   6.088
 8464SOL    HW226292   0.213   3.388   6.115
 8465SOL     OW26293   2.813   2.579   0.761
 8465SOL    HW126294   2.734   2.534   0.802
 8465SOL    HW226295   2.895   2.523   0.776
 8466SOL     OW26296   5.484   0.516   5.603
 8466SOL    HW126297   5.432   0.473   5.676
 8466SOL    HW226298   5.426   0.582   5.555
 8467SOL     OW26299   3.541   0.659   0.391
 8467SOL    HW126300   3.447   0.663   0.357
 8467SOL    HW226301   3.545   0.603   0.474
 8468SOL     OW26302   6.109   3.709   6.320
 8468SOL    HW126303   6.135   3.632   6.377
 8468SOL    HW226304   6.038   3.762   6.366
 8469SOL     OW26305   3.900   2.874   5.972
 8469SOL    HW126306   3.979   2.927   6.004
 8469SOL    HW226307   3.876   2.903   5.880
 8470SOL     OW26308   0.814   4.800   0.904
 8470SOL    HW126309   0.856   4.773   0.991
 8470SOL    HW226310   0.764   4.886   0.917
 8471SOL     OW26311   3.134   0.598   4.747
 8471SOL    HW126312   3.212   0.621   4.805
 8471SOL    HW226313   3.123   0.667   4.675
 8472SOL     OW26314   5.809   1.640   6.159
 8472SOL    HW126315   5.835   1.672   6.068
 8472SOL    HW226316   5.795   1.719   6.220
 8473SOL     OW26317   4.355   4.575   0.001
 8473SOL    HW126318   4.426   4.605   6.959
 8473SOL    HW226319   4.338   4.477   7.010
 8474SOL     OW26320   2.870   3.508   2.949
 8474SOL    HW126321   2.882   3.438   3.020
 8474SOL    HW226322   2.773   3.534   2.944
 8475SOL     OW26323   0.286   3.785   1.383
 8475SOL    HW126324   0.270   3.870   1.333
 8475SOL    HW226325   0.200   3.736   1.394
 8476SOL     OW26326   6.594   0.402   1.358
 8476SOL    HW126327   6.674   0.420   1.301
 8476SOL    HW226328   6.511   0.408   1.303
 8477SOL     OW26329   5.395   5.897   1.472
 8477SOL    HW126330   5.481   5.866   1.432
 8477SOL    HW226331   5.334   5.931   1.400
 8478SOL     OW26332   1.011   0.739   5.538
 8478SOL    HW126333   0.923   0.773   5.571
 8478SOL    HW226334   1.064   0.703   5.614
 8479SOL     OW26335   1.921   2.134   1.055
 8479SOL    HW126336   2.021   2.135   1.065
 8479SOL    HW226337   1.898   2.113   0.960
 8480SOL     OW26338   4.727   2.616   0.323
 8480SOL    HW126339   4.793   2.541   0.335
 8480SOL    HW226340   4.635   2.578   0.315
 8481SOL     OW26341   3.874   2.019   4.144
 8481SOL    HW126342   3.853   2.016   4.242
 8481SOL    HW226343   3.827   1.943   4.097
 8482SOL     OW26344   4.009   1.110   0.014
 8482SOL    HW126345   3.977   1.201   7.009
 8482SOL    HW226346   3.962   1.041   6.980
 8483SOL     OW26347   3.411   5.953   3.570
 8483SOL    HW126348   3.343   5.956   3.643
 8483SOL    HW226349   3.376   5.898   3.494
 8484SOL     OW26350   6.278   5.891   5.322
 8484SOL    HW126351   6.369   5.912   5.286
 8484SOL    HW226352   6.286   5.832   5.402
 8485SOL     OW26353   3.494   2.185   0.313
 8485SOL    HW126354   3.463   2.120   0.383
 8485SOL    HW226355   3.465   2.154   0.223
 8486SOL     OW26356   2.184   1.391   2.303
 8486SOL    HW126357   2.283   1.385   2.318
 8486SOL    HW226358   2.166   1.448   2.223
 8487SOL     OW26359   5.406   1.618   6.388
 8487SOL    HW126360   5.467   1.552   6.433
 8487SOL    HW226361   5.314   1.581   6.385
 8488SOL     OW26362   5.828   5.206   2.935
 8488SOL    HW126363   5.811   5.137   3.005
 8488SOL    HW226364   5.857   5.162   2.850
 8489SOL     OW26365   5.484   0.891   1.431
 8489SOL    HW126366   5.551   0.832   1.477
 8489SOL    HW226367   5.393   0.874   1.469
 8490SOL     OW26368   2.652   0.127   6.461
 8490SOL    HW126369   2.637   0.198   6.392
 8490SOL    HW226370   2.729   0.153   6.520
 8491SOL     OW26371   2.339   6.222   2.740
 8491SOL    HW126372   2.417   6.231   2.678
 8491SOL    HW226373   2.263   6.178   2.692
 8492SOL     OW26374   6.046   4.401   3.777
 8492SOL    HW126375   6.055   4.302   3.772
 8492SOL    HW226376   6.089   4.434   3.861
 8493SOL     OW26377   2.752   1.219   0.358
 8493SOL    HW126378   2.720   1.125   0.368
 8493SOL    HW226379   2.676   1.282   0.373
 8494SOL     OW26380   5.454   4.689   1.732
 8494SOL    HW126381   5.516   4.710   1.657
 8494SOL    HW226382   5.411   4.774   1.764
 8495SOL     OW26383   6.549   6.057   0.698
 8495SOL    HW126384   6.563   5.959   0.707
 8495SOL    HW226385   6.637   6.105   0.702
 8496SOL     OW26386   5.324   1.343   1.968
 8496SOL    HW126387   5.301   1.385   2.056
 8496SOL    HW226388   5.330   1.244   1.978
 8497SOL     OW26389   0.272   0.425   3.334
 8497SOL    HW126390   0.361   0.471   3.330
 8497SOL    HW226391   0.277   0.347   3.396
 8498SOL     OW26392   5.267   6.765   3.657
 8498SOL    HW126393   5.240   6.837   3.720
 8498SOL    HW226394   5.262   6.676   3.703
 8499SOL     OW26395   0.955   5.639   0.687
 8499SOL    HW126396   1.042   5.689   0.691
 8499SOL    HW226397   0.901   5.661   0.769
 8500SOL     OW26398   1.751   0.605   5.945
 8500SOL    HW126399   1.830   0.643   5.993
 8500SOL    HW226400   1.738   0.654   5.859
 8501SOL     OW26401   0.226   2.335   0.160
 8501SOL    HW126402   0.303   2.313   0.220
 8501SOL    HW226403   0.204   2.432   0.169
 8502SOL     OW26404   0.568   2.958   0.281
 8502SOL    HW126405   0.529   2.874   0.316
 8502SOL    HW226406   0.561   2.959   0.181
 8503SOL     OW26407   6.620   6.085   4.620
 8503SOL    HW126408   6.570   6.164   4.586
 8503SOL    HW226409   6.569   6.041   4.694
 8504SOL     OW26410   1.949   5.280   2.392
 8504SOL    HW126411   2.039   5.236   2.392
 8504SOL    HW226412   1.880   5.214   2.364
 8505SOL     OW26413   5.403   3.839   2.537
 8505SOL    HW126414   5.306   3.860   2.540
 8505SOL    HW226415   5.420   3.770   2.467
 8506SOL     OW26416   1.304   1.238   6.612
 8506SOL    HW126417   1.233   1.246   6.542
 8506SOL    HW226418   1.391   1.273   6.576
 8507SOL     OW26419   4.397   0.005   5.064
 8507SOL    HW126420   4.434   0.050   4.982
 8507SOL    HW226421   4.425   6.931   5.065
 8508SOL     OW26422   4.192   1.936   6.282
 8508SOL    HW126423   4.291   1.925   6.287
 8508SOL    HW226424   4.169   1.999   6.208
 8509SOL     OW26425   5.581   0.211   3.466
 8509SOL    HW126426   5.666   0.230   3.416
 8509SOL    HW226427   5.586   0.120   3.507
 8510SOL     OW26428   5.431   2.908   3.823
 8510SOL    HW126429   5.392   2.818   3.845
 8510SOL    HW226430   5.391   2.977   3.883
 8511SOL     OW26431   5.901   3.455   2.597
 8511SOL    HW126432   5.907   3.357   2.614
 8511SOL    HW226433   5.896   3.504   2.684
 8512SOL     OW26434   2.229   0.366   3.585
 8512SOL    HW126435   2.279   0.439   3.538
 8512SOL    HW226436   2.187   0.306   3.517
 8513SOL     OW26437   6.080   5.873   0.200
 8513SOL    HW126438   6.028   5.852   0.117
 8513SOL    HW226439   6.035   5.947   0.250
 8514SOL     OW26440   3.391   6.369   3.201
 8514SOL    HW126441   3.444   6.431   3.258
 8514SOL    HW226442   3.324   6.421   3.148
 8515SOL     OW26443   5.578   2.549   0.992
 8515SOL    HW126444   5.538   2.457   0.996
 8515SOL    HW226445   5.676   2.541   0.972
 8516SOL     OW26446   6.833   2.200   2.753
 8516SOL    HW126447   6.900   2.265   2.788
 8516SOL    HW226448   6.767   2.248   2.695
 8517SOL     OW26449   0.991   2.500   0.221
 8517SOL    HW126450   1.023   2.405   0.222
 8517SOL    HW226451   1.047   2.554   0.284
 8518SOL     OW26452   3.799   5.087   0.260
 8518SOL    HW126453   3.839   5.034   0.185
 8518SOL    HW226454   3.858   5.166   0.280
 8519SOL     OW26455   1.752   6.113   2.261
 8519SOL    HW126456   1.757   6.062   2.175
 8519SOL    HW226457   1.788   6.057   2.335
 8520SOL     OW26458   3.852   1.434   0.355
 8520SOL    HW126459   3.826   1.364   0.289
 8520SOL    HW226460   3.853   1.395   0.447
 8521SOL     OW26461   0.423   6.685   5.968
 8521SOL    HW126462   0.384   6.620   6.033
 8521SOL    HW226463   0.373   6.678   5.881
 8522SOL     OW26464   1.227   6.598   3.296
 8522SOL    HW126465   1.156   6.640   3.352
 8522SOL    HW226466   1.259   6.664   3.228
 8523SOL     OW26467   2.477   6.816   6.046
 8523SOL    HW126468   2.509   6.774   5.961
 8523SOL    HW226469   2.412   6.755   6.091
 8524SOL     OW26470   1.150   3.368   5.226
 8524SOL    HW126471   1.170   3.365   5.324
 8524SOL    HW226472   1.061   3.410   5.212
 8525SOL     OW26473   5.775   3.347   3.209
 8525SOL    HW126474   5.819   3.264   3.242
 8525SOL    HW226475   5.771   3.345   3.109
 8526SOL     OW26476   2.469   2.929   1.740
 8526SOL    HW126477   2.391   2.940   1.679
 8526SOL    HW226478   2.532   3.006   1.728
 8527SOL     OW26479   4.798   0.686   4.386
 8527SOL    HW126480   4.711   0.681   4.435
 8527SOL    HW226481   4.780   0.683   4.287
 8528SOL     OW26482   4.851   3.105   6.437
 8528SOL    HW126483   4.901   3.036   6.489
 8528SOL    HW226484   4.895   3.194   6.450
 8529SOL     OW26485   1.565   5.094   0.223
 8529SOL    HW126486   1.602   5.182   0.196
 8529SOL    HW226487   1.638   5.026   0.223
 8530SOL     OW26488   1.430   4.274   5.864
 8530SOL    HW126489   1.341   4.247   5.902
 8530SOL    HW226490   1.429   4.260   5.765
 8531SOL     OW26491   4.976   4.385   2.919
 8531SOL    HW126492   4.974   4.484   2.907
 8531SOL    HW226493   4.889   4.355   2.958
 8532SOL     OW26494   3.616   5.032   5.067
 8532SOL    HW126495   3.637   5.001   4.974
 8532SOL    HW226496   3.697   5.026   5.124
 8533SOL     OW26497   3.030   1.104   4.318
 8533SOL    HW126498   3.082   1.185   4.346
 8533SOL    HW226499   2.996   1.117   4.225
 8534SOL     OW26500   1.330   3.709   2.708
 8534SOL    HW126501   1.395   3.784   2.714
 8534SOL    HW226502   1.265   3.714   2.784
 8535SOL     OW26503   0.932   1.911   4.766
 8535SOL    HW126504   0.878   1.855   4.830
 8535SOL    HW226505   0.976   1.985   4.816
 8536SOL     OW26506   0.229   1.672   5.459
 8536SOL    HW126507   0.241   1.745   5.526
 8536SOL    HW226508   0.312   1.617   5.453
 8537SOL     OW26509   5.388   0.838   0.975
 8537SOL    HW126510   5.348   0.917   0.929
 8537SOL    HW226511   5.458   0.797   0.916
 8538SOL     OW26512   6.992   0.823   4.834
 8538SOL    HW126513   0.013   0.913   4.823
 8538SOL    HW226514   6.902   0.834   4.876
 8539SOL     OW26515   0.289   2.609   1.744
 8539SOL    HW126516   0.328   2.521   1.771
 8539SOL    HW226517   0.318   2.632   1.652
 8540SOL     OW26518   3.255   0.827   0.586
 8540SOL    HW126519   3.303   0.911   0.608
 8540SOL    HW226520   3.273   0.803   0.491
 8541SOL     OW26521   3.012   1.532   4.795
 8541SOL    HW126522   3.002   1.432   4.799
 8541SOL    HW226523   3.105   1.555   4.770
 8542SOL     OW26524   2.003   4.364   0.089
 8542SOL    HW126525   2.027   4.288   0.149
 8542SOL    HW226526   1.956   4.434   0.142
 8543SOL     OW26527   2.684   2.586   5.337
 8543SOL    HW126528   2.696   2.525   5.258
 8543SOL    HW226529   2.737   2.551   5.414
 8544SOL     OW26530   4.928   3.925   5.218
 8544SOL    HW126531   4.925   3.965   5.310
 8544SOL    HW226532   4.951   3.995   5.151
 8545SOL     OW26533   3.342   6.966   5.359
 8545SOL    HW126534   3.329   6.893   5.292
 8545SOL    HW226535   3.435   6.961   5.396
 8546SOL     OW26536   5.800   0.713   2.004
 8546SOL    HW126537   5.793   0.731   2.102
 8546SOL    HW226538   5.862   0.779   1.962
 8547SOL     OW26539   6.880   6.438   5.719
 8547SOL    HW126540   6.840   6.528   5.704
 8547SOL    HW226541   6.820   6.368   5.681
 8548SOL     OW26542   0.796   3.132   6.377
 8548SOL    HW126543   0.837   3.202   6.436
 8548SOL    HW226544   0.847   3.047   6.386
 8549SOL     OW26545   2.009   0.631   3.583
 8549SOL    HW126546   2.076   0.680   3.639
 8549SOL    HW226547   2.024   0.654   3.487
 8550SOL     OW26548   0.682   4.292   0.199
 8550SOL    HW126549   0.739   4.347   0.260
 8550SOL    HW226550   0.589   4.328   0.199
 8551SOL     OW26551   1.776   1.831   6.311
 8551SOL    HW126552   1.849   1.865   6.252
 8551SOL    HW226553   1.816   1.778   6.386
 8552SOL     OW26554   2.714   1.426   2.603
 8552SOL    HW126555   2.685   1.520   2.584
 8552SOL    HW226556   2.691   1.401   2.697
 8553SOL     OW26557   4.561   2.711   1.090
 8553SOL    HW126558   4.512   2.799   1.090
 8553SOL    HW226559   4.654   2.725   1.123
 8554SOL     OW26560   0.582   6.802   0.930
 8554SOL    HW126561   0.624   6.805   1.020
 8554SOL    HW226562   0.647   6.767   0.863
 8555SOL     OW26563   4.480   1.458   3.641
 8555SOL    HW126564   4.552   1.448   3.710
 8555SOL    HW226565   4.452   1.367   3.610
 8556SOL     OW26566   2.157   6.247   6.843
 8556SOL    HW126567   2.202   6.309   6.907
 8556SOL    HW226568   2.072   6.212   6.885
 8557SOL     OW26569   6.627   0.781   6.698
 8557SOL    HW126570   6.669   0.870   6.717
 8557SOL    HW226571   6.677   0.736   6.624
 8558SOL     OW26572   2.989   4.824   3.099
 8558SOL    HW126573   2.947   4.787   3.182
 8558SOL    HW226574   2.945   4.785   3.019
 8559SOL     OW26575   1.181   4.952   2.613
 8559SOL    HW126576   1.101   4.996   2.573
 8559SOL    HW226577   1.177   4.960   2.713
 8560SOL     OW26578   2.693   4.913   1.196
 8560SOL    HW126579   2.777   4.892   1.147
 8560SOL    HW226580   2.706   4.993   1.253
 8561SOL     OW26581   3.345   0.268   2.658
 8561SOL    HW126582   3.303   0.221   2.581
 8561SOL    HW226583   3.278   0.331   2.699
 8562SOL     OW26584   3.952   1.092   6.701
 8562SOL    HW126585   3.992   1.177   6.737
 8562SOL    HW226586   3.861   1.079   6.741
 8563SOL     OW26587   1.436   5.567   3.291
 8563SOL    HW126588   1.532   5.539   3.295
 8563SOL    HW226589   1.413   5.622   3.372
 8564SOL     OW26590   3.730   6.553   0.011
 8564SOL    HW126591   3.643   6.591   0.043
 8564SOL    HW226592   3.753   6.592   6.944
 8565SOL     OW26593   3.470   5.355   0.845
 8565SOL    HW126594   3.427   5.398   0.924
 8565SOL    HW226595   3.556   5.313   0.872
 8566SOL     OW26596   3.078   1.035   3.210
 8566SOL    HW126597   3.075   1.059   3.307
 8566SOL    HW226598   3.153   0.970   3.194
 8567SOL     OW26599   2.066   1.846   1.499
 8567SOL    HW126600   1.989   1.903   1.528
 8567SOL    HW226601   2.032   1.768   1.447
 8568SOL     OW26602   0.016   1.479   6.863
 8568SOL    HW126603   0.095   1.489   6.923
 8568SOL    HW226604   6.994   1.569   6.851
 8569SOL     OW26605   5.317   2.577   6.542
 8569SOL    HW126606   5.240   2.536   6.493
 8569SOL    HW226607   5.283   2.634   6.617
 8570SOL     OW26608   1.132   2.156   4.863
 8570SOL    HW126609   1.225   2.191   4.871
 8570SOL    HW226610   1.115   2.091   4.937
 8571SOL     OW26611   2.013   0.687   4.221
 8571SOL    HW126612   1.939   0.742   4.182
 8571SOL    HW226613   1.975   0.628   4.292
 8572SOL     OW26614   3.306   3.992   5.688
 8572SOL    HW126615   3.289   3.973   5.784
 8572SOL    HW226616   3.235   3.950   5.632
 8573SOL     OW26617   3.495   6.086   1.059
 8573SOL    HW126618   3.584   6.068   1.099
 8573SOL    HW226619   3.437   6.005   1.067
 8574SOL     OW26620   0.063   6.480   5.542
 8574SOL    HW126621   0.072   6.381   5.531
 8574SOL    HW226622   7.010   6.499   5.606
 8575SOL     OW26623   3.294   6.804   2.499
 8575SOL    HW126624   3.382   6.853   2.501
 8575SOL    HW226625   3.246   6.826   2.414
 8576SOL     OW26626   0.544   3.814   4.400
 8576SOL    HW126627   0.640   3.832   4.381
 8576SOL    HW226628   0.511   3.743   4.338
 8577SOL     OW26629   1.384   1.291   6.235
 8577SOL    HW126630   1.419   1.385   6.233
 8577SOL    HW226631   1.410   1.248   6.322
 8578SOL     OW26632   6.104   6.585   5.160
 8578SOL    HW126633   6.145   6.565   5.071
 8578SOL    HW226634   6.057   6.673   5.156
 8579SOL     OW26635   2.652   5.868   2.492
 8579SOL    HW126636   2.601   5.910   2.417
 8579SOL    HW226637   2.746   5.850   2.462
 8580SOL     OW26638   1.077   6.541   1.069
 8580SOL    HW126639   1.063   6.444   1.048
 8580SOL    HW226640   1.059   6.596   0.988
 8581SOL     OW26641   3.622   4.998   1.534
 8581SOL    HW126642   3.647   5.043   1.620
 8581SOL    HW226643   3.561   5.057   1.481
 8582SOL     OW26644   3.853   4.647   5.630
 8582SOL    HW126645   3.935   4.705   5.633
 8582SOL    HW226646   3.789   4.684   5.562
 8583SOL     OW26647   4.070   0.561   2.500
 8583SOL    HW126648   4.033   0.470   2.480
 8583SOL    HW226649   4.011   0.631   2.460
 8584SOL     OW26650   6.377   1.106   4.509
 8584SOL    HW126651   6.288   1.135   4.474
 8584SOL    HW226652   6.429   1.186   4.538
 8585SOL     OW26653   5.811   2.394   1.222
 8585SOL    HW126654   5.896   2.355   1.258
 8585SOL    HW226655   5.757   2.432   1.297
 8586SOL     OW26656   5.366   6.356   1.529
 8586SOL    HW126657   5.383   6.392   1.437
 8586SOL    HW226658   5.410   6.267   1.539
 8587SOL     OW26659   1.039   1.660   5.687
 8587SOL    HW126660   1.133   1.690   5.676
 8587SOL    HW226661   1.013   1.602   5.609
 8588SOL     OW26662   2.925   1.807   6.876
 8588SOL    HW126663   2.921   1.708   6.867
 8588SOL    HW226664   3.012   1.840   6.840
 8589SOL     OW26665   0.127   3.417   5.730
 8589SOL    HW126666   0.153   3.344   5.668
 8589SOL    HW226667   0.152   3.392   5.824
 8590SOL     OW26668   6.895   1.808   2.640
 8590SOL    HW126669   6.898   1.816   2.541
 8590SOL    HW226670   6.977   1.850   2.679
 8591SOL     OW26671   6.732   5.240   0.343
 8591SOL    HW126672   6.806   5.267   0.281
 8591SOL    HW226673   6.748   5.146   0.375
 8592SOL     OW26674   0.529   2.855   7.012
 8592SOL    HW126675   0.452   2.842   6.950
 8592SOL    HW226676   0.568   2.946   6.999
 8593SOL     OW26677   3.130   0.340   6.159
 8593SOL    HW126678   3.181   0.402   6.219
 8593SOL    HW226679   3.180   0.327   6.074
 8594SOL     OW26680   6.039   2.990   6.138
 8594SOL    HW126681   6.075   3.074   6.178
 8594SOL    HW226682   6.103   2.954   6.070
 8595SOL     OW26683   5.080   6.772   2.410
 8595SOL    HW126684   5.168   6.818   2.416
 8595SOL    HW226685   5.066   6.737   2.317
 8596SOL     OW26686   1.014   3.418   3.903
 8596SOL    HW126687   1.106   3.425   3.941
 8596SOL    HW226688   0.980   3.325   3.917
 8597SOL     OW26689   6.213   3.697   1.258
 8597SOL    HW126690   6.292   3.656   1.213
 8597SOL    HW226691   6.178   3.633   1.327
 8598SOL     OW26692   5.437   0.890   5.030
 8598SOL    HW126693   5.524   0.872   4.984
 8598SOL    HW226694   5.392   0.968   4.986
 8599SOL     OW26695   1.436   3.272   3.579
 8599SOL    HW126696   1.390   3.231   3.501
 8599SOL    HW226697   1.535   3.254   3.574
 8600SOL     OW26698   4.302   3.589   0.971
 8600SOL    HW126699   4.227   3.597   1.037
 8600SOL    HW226700   4.294   3.502   0.921
 8601SOL     OW26701   0.919   0.898   3.941
 8601SOL    HW126702   0.903   0.800   3.925
 8601SOL    HW226703   0.882   0.924   4.030
 8602SOL     OW26704   2.639   6.942   4.107
 8602SOL    HW126705   2.674   6.880   4.037
 8602SOL    HW226706   2.606   6.889   4.185
 8603SOL     OW26707   6.893   0.566   0.076
 8603SOL    HW126708   6.820   0.596   0.014
 8603SOL    HW226709   6.977   0.615   0.055
 8604SOL     OW26710   0.789   4.148   5.913
 8604SOL    HW126711   0.696   4.124   5.887
 8604SOL    HW226712   0.850   4.071   5.892
 8605SOL     OW26713   0.233   4.651   4.764
 8605SOL    HW126714   0.317   4.626   4.715
 8605SOL    HW226715   0.153   4.621   4.713
 8606SOL     OW26716   1.971   1.954   6.583
 8606SOL    HW126717   1.998   2.016   6.509
 8606SOL    HW226718   1.980   2.001   6.671
 8607SOL     OW26719   2.338   4.738   1.458
 8607SOL    HW126720   2.288   4.692   1.384
 8607SOL    HW226721   2.423   4.690   1.477
 8608SOL     OW26722   2.814   4.786   2.811
 8608SOL    HW126723   2.878   4.777   2.734
 8608SOL    HW226724   2.728   4.740   2.788
 8609SOL     OW26725   4.862   1.403   3.619
 8609SOL    HW126726   4.956   1.423   3.592
 8609SOL    HW226727   4.862   1.343   3.699
 8610SOL     OW26728   6.955   6.388   3.131
 8610SOL    HW126729   0.028   6.416   3.148
 8610SOL    HW226730   6.913   6.360   3.217
 8611SOL     OW26731   3.434   1.040   3.810
 8611SOL    HW126732   3.417   1.103   3.886
 8611SOL    HW226733   3.466   0.952   3.846
 8612SOL     OW26734   3.881   3.124   3.077
 8612SOL    HW126735   3.980   3.133   3.085
 8612SOL    HW226736   3.851   3.043   3.127
 8613SOL     OW26737   3.089   2.381   1.446
 8613SOL    HW126738   3.048   2.351   1.533
 8613SOL    HW226739   3.019   2.383   1.375
 8614SOL     OW26740   1.524   2.345   1.943
 8614SOL    HW126741   1.603   2.307   1.895
 8614SOL    HW226742   1.441   2.324   1.892
 8615SOL     OW26743   4.526   2.154   3.757
 8615SOL    HW126744   4.615   2.179   3.718
 8615SOL    HW226745   4.488   2.076   3.707
 8616SOL     OW26746   4.223   4.898   2.600
 8616SOL    HW126747   4.179   4.987   2.609
 8616SOL    HW226748   4.163   4.836   2.550
 8617SOL     OW26749   5.170   6.562   3.842
 8617SOL    HW126750   5.076   6.580   3.812
 8617SOL    HW226751   5.187   6.608   3.929
 8618SOL     OW26752   6.191   3.816   1.627
 8618SOL    HW126753   6.219   3.867   1.546
 8618SOL    HW226754   6.099   3.780   1.613
 8619SOL     OW26755   5.328   4.930   1.838
 8619SOL    HW126756   5.244   4.915   1.785
 8619SOL    HW226757   5.312   5.001   1.906
 8620SOL     OW26758   2.491   0.852   4.973
 8620SOL    HW126759   2.478   0.774   5.034
 8620SOL    HW226760   2.497   0.819   4.878
 8621SOL     OW26761   4.730   2.661   2.037
 8621SOL    HW126762   4.768   2.674   1.945
 8621SOL    HW226763   4.713   2.750   2.079
 8622SOL     OW26764   6.630   5.228   2.632
 8622SOL    HW126765   6.621   5.327   2.631
 8622SOL    HW226766   6.700   5.202   2.699
 8623SOL     OW26767   6.847   3.525   4.597
 8623SOL    HW126768   6.921   3.537   4.531
 8623SOL    HW226769   6.871   3.569   4.683
 8624SOL     OW26770   3.214   3.486   6.023
 8624SOL    HW126771   3.152   3.485   6.101
 8624SOL    HW226772   3.176   3.543   5.951
 8625SOL     OW26773   3.615   1.694   5.376
 8625SOL    HW126774   3.689   1.737   5.325
 8625SOL    HW226775   3.528   1.714   5.331
 8626SOL     OW26776   4.666   2.891   0.726
 8626SOL    HW126777   4.701   2.802   0.697
 8626SOL    HW226778   4.735   2.961   0.709
 8627SOL     OW26779   1.638   1.381   2.683
 8627SOL    HW126780   1.707   1.414   2.748
 8627SOL    HW226781   1.563   1.339   2.734
 8628SOL     OW26782   0.198   6.605   0.165
 8628SOL    HW126783   0.211   6.546   0.245
 8628SOL    HW226784   0.249   6.566   0.088
 8629SOL     OW26785   0.730   0.063   4.327
 8629SOL    HW126786   0.791   0.133   4.292
 8629SOL    HW226787   0.652   0.106   4.374
 8630SOL     OW26788   4.905   3.345   3.432
 8630SOL    HW126789   4.900   3.397   3.347
 8630SOL    HW226790   4.895   3.407   3.510
 8631SOL     OW26791   2.667   5.542   0.221
 8631SOL    HW126792   2.677   5.564   0.124
 8631SOL    HW226793   2.592   5.595   0.259
 8632SOL     OW26794   4.293   4.602   5.341
 8632SOL    HW126795   4.197   4.590   5.367
 8632SOL    HW226796   4.314   4.543   5.263
 8633SOL     OW26797   5.340   4.082   5.652
 8633SOL    HW126798   5.327   4.156   5.717
 8633SOL    HW226799   5.394   4.009   5.695
 8634SOL     OW26800   5.884   5.237   0.685
 8634SOL    HW126801   5.829   5.251   0.602
 8634SOL    HW226802   5.856   5.151   0.729
 8635SOL     OW26803   6.094   3.179   6.808
 8635SOL    HW126804   6.060   3.098   6.760
 8635SOL    HW226805   6.054   3.183   6.899
 8636SOL     OW26806   4.161   6.111   0.802
 8636SOL    HW126807   4.077   6.165   0.789
 8636SOL    HW226808   4.240   6.173   0.801
 8637SOL     OW26809   1.466   1.487   6.542
 8637SOL    HW126810   1.381   1.489   6.595
 8637SOL    HW226811   1.449   1.521   6.449
 8638SOL     OW26812   4.043   2.951   5.389
 8638SOL    HW126813   4.005   3.044   5.391
 8638SOL    HW226814   4.142   2.956   5.376
 8639SOL     OW26815   4.871   3.094   6.928
 8639SOL    HW126816   4.917   3.010   6.899
 8639SOL    HW226817   4.781   3.071   6.966
 8640SOL     OW26818   3.390   3.151   1.072
 8640SOL    HW126819   3.337   3.231   1.043
 8640SOL    HW226820   3.413   3.160   1.169
 8641SOL     OW26821   4.327   5.317   3.070
 8641SOL    HW126822   4.345   5.276   2.981
 8641SOL    HW226823   4.315   5.416   3.060
 8642SOL     OW26824   0.919   6.784   3.835
 8642SOL    HW126825   0.984   6.825   3.900
 8642SOL    HW226826   0.891   6.853   3.769
 8643SOL     OW26827   3.059   6.952   0.354
 8643SOL    HW126828   3.088   0.025   0.335
 8643SOL    HW226829   3.133   6.904   0.401
 8644SOL     OW26830   6.449   2.506   6.397
 8644SOL    HW126831   6.520   2.561   6.354
 8644SOL    HW226832   6.484   2.466   6.481
 8645SOL     OW26833   5.784   4.275   1.661
 8645SOL    HW126834   5.719   4.253   1.734
 8645SOL    HW226835   5.856   4.206   1.659
 8646SOL     OW26836   0.584   2.577   5.400
 8646SOL    HW126837   0.576   2.484   5.437
 8646SOL    HW226838   0.677   2.611   5.416
 8647SOL     OW26839   2.749   5.158   1.315
 8647SOL    HW126840   2.729   5.151   1.412
 8647SOL    HW226841   2.709   5.242   1.278
 8648SOL     OW26842   5.780   6.602   0.900
 8648SOL    HW126843   5.830   6.583   0.815
 8648SOL    HW226844   5.840   6.651   0.963
 8649SOL     OW26845   4.430   6.740   0.182
 8649SOL    HW126846   4.398   6.655   0.225
 8649SOL    HW226847   4.492   6.717   0.107
 8650SOL     OW26848   2.471   0.186   4.988
 8650SOL    HW126849   2.435   0.105   4.943
 8650SOL    HW226850   2.426   0.198   5.076
 8651SOL     OW26851   2.876   1.314   0.706
 8651SOL    HW126852   2.906   1.373   0.780
 8651SOL    HW226853   2.813   1.364   0.647
 8652SOL     OW26854   0.991   4.694   4.260
 8652SOL    HW126855   1.013   4.770   4.199
 8652SOL    HW226856   0.892   4.680   4.260
 8653SOL     OW26857   0.258   1.973   6.190
 8653SOL    HW126858   0.300   1.939   6.274
 8653SOL    HW226859   0.160   1.984   6.204
 8654SOL     OW26860   1.173   4.546   1.940
 8654SOL    HW126861   1.147   4.449   1.944
 8654SOL    HW226862   1.184   4.581   2.033
 8655SOL     OW26863   6.485   1.452   5.575
 8655SOL    HW126864   6.500   1.547   5.602
 8655SOL    HW226865   6.566   1.418   5.527
 8656SOL     OW26866   5.531   0.072   1.844
 8656SOL    HW126867   5.578   0.111   1.923
 8656SOL    HW226868   5.474   0.142   1.801
 8657SOL     OW26869   5.905   0.460   2.127
 8657SOL    HW126870   5.835   0.453   2.056
 8657SOL    HW226871   5.868   0.510   2.205
 8658SOL     OW26872   6.129   5.027   1.778
 8658SOL    HW126873   6.133   4.954   1.846
 8658SOL    HW226874   6.053   5.009   1.715
 8659SOL     OW26875   4.702   2.173   2.678
 8659SOL    HW126876   4.622   2.233   2.671
 8659SOL    HW226877   4.760   2.204   2.753
 8660SOL     OW26878   0.897   2.696   1.019
 8660SOL    HW126879   0.802   2.700   0.990
 8660SOL    HW226880   0.946   2.626   0.966
 8661SOL     OW26881   6.292   3.128   3.007
 8661SOL    HW126882   6.338   3.112   3.094
 8661SOL    HW226883   6.200   3.089   3.009
 8662SOL     OW26884   3.221   5.789   2.496
 8662SOL    HW126885   3.273   5.738   2.427
 8662SOL    HW226886   3.240   5.752   2.587
 8663SOL     OW26887   3.371   5.655   3.211
 8663SOL    HW126888   3.457   5.632   3.256
 8663SOL    HW226889   3.360   5.754   3.210
 8664SOL     OW26890   2.269   5.721   3.202
 8664SOL    HW126891   2.236   5.815   3.217
 8664SOL    HW226892   2.245   5.664   3.280
 8665SOL     OW26893   5.802   4.920   5.759
 8665SOL    HW126894   5.882   4.866   5.783
 8665SOL    HW226895   5.728   4.902   5.824
 8666SOL     OW26896   5.294   0.320   4.022
 8666SOL    HW126897   5.254   0.277   3.941
 8666SOL    HW226898   5.362   0.388   3.993
 8667SOL     OW26899   4.787   1.639   3.877
 8667SOL    HW126900   4.739   1.700   3.940
 8667SOL    HW226901   4.775   1.671   3.783
 8668SOL     OW26902   5.571   2.923   4.910
 8668SOL    HW126903   5.561   2.868   4.993
 8668SOL    HW226904   5.588   2.863   4.832
 8669SOL     OW26905   6.458   6.419   6.107
 8669SOL    HW126906   6.553   6.409   6.077
 8669SOL    HW226907   6.403   6.345   6.068
 8670SOL     OW26908   5.940   5.198   5.811
 8670SOL    HW126909   5.864   5.220   5.750
 8670SOL    HW226910   5.919   5.113   5.860
 8671SOL     OW26911   0.505   2.281   2.317
 8671SOL    HW126912   0.581   2.318   2.370
 8671SOL    HW226913   0.510   2.181   2.317
 8672SOL     OW26914   7.011   0.192   3.538
 8672SOL    HW126915   0.079   0.234   3.554
 8672SOL    HW226916   6.955   0.254   3.484
 8673SOL     OW26917   0.182   1.219   0.135
 8673SOL    HW126918   0.217   1.197   0.044
 8673SOL    HW226919   0.254   1.261   0.189
 8674SOL     OW26920   0.771   4.226   3.061
 8674SOL    HW126921   0.801   4.172   2.982
 8674SOL    HW226922   0.780   4.171   3.144
 8675SOL     OW26923   3.405   1.549   6.142
 8675SOL    HW126924   3.460   1.523   6.222
 8675SOL    HW226925   3.435   1.638   6.109
 8676SOL     OW26926   5.838   1.253   1.310
 8676SOL    HW126927   5.752   1.303   1.308
 8676SOL    HW226928   5.836   1.180   1.242
 8677SOL     OW26929   1.611   6.593   5.884
 8677SOL    HW126930   1.688   6.575   5.823
 8677SOL    HW226931   1.584   6.508   5.930
 8678SOL     OW26932   1.312   6.992   0.442
 8678SOL    HW126933   1.232   0.028   0.430
 8678SOL    HW226934   1.330   6.979   0.540
 8679SOL     OW26935   1.786   0.936   4.083
 8679SOL    HW126936   1.881   0.963   4.102
 8679SOL    HW226937   1.763   0.962   3.989
 8680SOL     OW26938   6.674   2.858   5.888
 8680SOL    HW126939   6.635   2.950   5.895
 8680SOL    HW226940   6.619   2.803   5.826
 8681SOL     OW26941   5.381   5.717   0.778
 8681SOL    HW126942   5.374   5.794   0.841
 8681SOL    HW226943   5.446   5.739   0.705
 8682SOL     OW26944   0.036   0.319   1.002
 8682SOL    HW126945   0.029   0.418   1.016
 8682SOL    HW226946   6.986   0.273   1.055
 8683SOL     OW26947   1.635   3.540   4.833
 8683SOL    HW126948   1.717   3.597   4.828
 8683SOL    HW226949   1.659   3.452   4.876
 8684SOL     OW26950   0.567   3.920   4.979
 8684SOL    HW126951   0.478   3.902   4.937
 8684SOL    HW226952   0.582   4.019   4.984
 8685SOL     OW26953   5.293   2.675   5.795
 8685SOL    HW126954   5.244   2.743   5.850
 8685SOL    HW226955   5.296   2.588   5.844
 8686SOL     OW26956   6.425   6.204   2.670
 8686SOL    HW126957   6.347   6.181   2.611
 8686SOL    HW226958   6.433   6.303   2.676
 8687SOL     OW26959   6.100   3.236   3.273
 8687SOL    HW126960   6.086   3.334   3.283
 8687SOL    HW226961   6.132   3.198   3.359
 8688SOL     OW26962   1.645   4.022   6.473
 8688SOL    HW126963   1.578   4.097   6.478
 8688SOL    HW226964   1.698   4.019   6.558
 8689SOL     OW26965   4.277   3.062   0.622
 8689SOL    HW126966   4.353   3.091   0.563
 8689SOL    HW226967   4.191   3.068   0.571
 8690SOL     OW26968   1.395   1.948   3.016
 8690SOL    HW126969   1.431   1.966   3.108
 8690SOL    HW226970   1.469   1.955   2.950
 8691SOL     OW26971   3.272   2.066   4.709
 8691SOL    HW126972   3.294   2.065   4.611
 8691SOL    HW226973   3.190   2.121   4.724
 8692SOL     OW26974   4.432   2.215   5.717
 8692SOL    HW126975   4.417   2.259   5.629
 8692SOL    HW226976   4.502   2.144   5.708
 8693SOL     OW26977   6.461   1.165   6.672
 8693SOL    HW126978   6.427   1.125   6.587
 8693SOL    HW226979   6.551   1.206   6.656
 8694SOL     OW26980   6.330   3.356   4.385
 8694SOL    HW126981   6.261   3.362   4.313
 8694SOL    HW226982   6.421   3.368   4.346
 8695SOL     OW26983   4.303   3.712   6.524
 8695SOL    HW126984   4.325   3.753   6.435
 8695SOL    HW226985   4.246   3.631   6.510
 8696SOL     OW26986   2.818   5.706   5.719
 8696SOL    HW126987   2.724   5.737   5.707
 8696SOL    HW226988   2.824   5.645   5.797
 8697SOL     OW26989   1.510   4.411   6.075
 8697SOL    HW126990   1.470   4.354   6.003
 8697SOL    HW226991   1.608   4.423   6.058
 8698SOL     OW26992   4.919   6.091   6.055
 8698SOL    HW126993   4.840   6.053   6.006
 8698SOL    HW226994   4.937   6.183   6.022
 8699SOL     OW26995   2.629   2.495   6.784
 8699SOL    HW126996   2.612   2.534   6.875
 8699SOL    HW226997   2.545   2.500   6.729
 8700SOL     OW26998   0.711   0.589   5.372
 8700SOL    HW126999   0.775   0.658   5.337
 8700SOL    HW227000   0.723   0.504   5.323
 8701SOL     OW27001   0.766   1.845   0.103
 8701SOL    HW127002   0.704   1.767   0.092
 8701SOL    HW227003   0.779   1.890   0.015
 8702SOL     OW27004   5.095   4.846   1.662
 8702SOL    HW127005   5.151   4.825   1.582
 8702SOL    HW227006   5.007   4.882   1.632
 8703SOL     OW27007   2.657   4.702   0.276
 8703SOL    HW127008   2.744   4.746   0.302
 8703SOL    HW227009   2.624   4.742   0.191
 8704SOL     OW27010   0.598   2.201   4.380
 8704SOL    HW127011   0.599   2.173   4.284
 8704SOL    HW227012   0.547   2.286   4.389
 8705SOL     OW27013   4.305   2.703   0.146
 8705SOL    HW127014   4.370   2.770   0.184
 8705SOL    HW227015   4.233   2.751   0.097
 8706SOL     OW27016   5.729   2.924   0.330
 8706SOL    HW127017   5.662   2.859   0.295
 8706SOL    HW227018   5.815   2.913   0.280
 8707SOL     OW27019   1.306   1.737   4.426
 8707SOL    HW127020   1.216   1.761   4.391
 8707SOL    HW227021   1.355   1.820   4.453
 8708SOL     OW27022   5.076   2.022   3.186
 8708SOL    HW127023   5.090   2.102   3.128
 8708SOL    HW227024   5.071   2.051   3.282
 8709SOL     OW27025   6.623   7.014   6.303
 8709SOL    HW127026   6.693   7.007   6.374
 8709SOL    HW227027   6.546   0.046   6.337
 8710SOL     OW27028   2.422   1.397   3.287
 8710SOL    HW127029   2.422   1.317   3.347
 8710SOL    HW227030   2.516   1.420   3.263
 8711SOL     OW27031   1.219   1.378   2.189
 8711SOL    HW127032   1.285   1.429   2.244
 8711SOL    HW227033   1.259   1.361   2.099
 8712SOL     OW27034   2.417   2.414   5.431
 8712SOL    HW127035   2.454   2.321   5.433
 8712SOL    HW227036   2.471   2.471   5.369
 8713SOL     OW27037   1.139   4.274   1.968
 8713SOL    HW127038   1.157   4.218   2.049
 8713SOL    HW227039   1.075   4.225   1.908
 8714SOL     OW27040   0.344   6.079   6.718
 8714SOL    HW127041   0.440   6.104   6.732
 8714SOL    HW227042   0.286   6.137   6.775
 8715SOL     OW27043   2.524   1.834   0.045
 8715SOL    HW127044   2.579   1.874   0.119
 8715SOL    HW227045   2.430   1.867   0.052
 8716SOL     OW27046   0.056   6.309   1.381
 8716SOL    HW127047   0.005   6.366   1.317
 8716SOL    HW227048   0.058   6.215   1.347
 8717SOL     OW27049   2.267   4.106   6.898
 8717SOL    HW127050   2.299   4.015   6.926
 8717SOL    HW227051   2.167   4.107   6.901
 8718SOL     OW27052   1.652   3.447   6.514
 8718SOL    HW127053   1.629   3.456   6.417
 8718SOL    HW227054   1.579   3.487   6.570
 8719SOL     OW27055   3.518   1.163   6.314
 8719SOL    HW127056   3.507   1.082   6.255
 8719SOL    HW227057   3.434   1.216   6.314
 8720SOL     OW27058   6.139   4.442   5.275
 8720SOL    HW127059   6.107   4.505   5.346
 8720SOL    HW227060   6.064   4.381   5.249
 8721SOL     OW27061   0.244   6.265   6.512
 8721SOL    HW127062   0.278   6.208   6.586
 8721SOL    HW227063   0.252   6.362   6.538
 8722SOL     OW27064   3.437   0.667   1.017
 8722SOL    HW127065   3.377   0.593   1.047
 8722SOL    HW227066   3.408   0.700   0.927
 8723SOL     OW27067   5.119   0.293   1.940
 8723SOL    HW127068   5.119   0.214   1.878
 8723SOL    HW227069   5.156   0.265   2.029
 8724SOL     OW27070   4.227   0.409   4.267
 8724SOL    HW127071   4.231   0.448   4.359
 8724SOL    HW227072   4.210   0.482   4.200
 8725SOL     OW27073   0.440   6.585   4.452
 8725SOL    HW127074   0.505   6.538   4.511
 8725SOL    HW227075   0.472   6.678   4.435
 8726SOL     OW27076   0.352   0.889   0.388
 8726SOL    HW127077   0.262   0.909   0.426
 8726SOL    HW227078   0.414   0.966   0.406
 8727SOL     OW27079   5.688   5.935   6.360
 8727SOL    HW127080   5.690   5.988   6.445
 8727SOL    HW227081   5.644   5.847   6.376
 8728SOL     OW27082   5.529   0.840   3.250
 8728SOL    HW127083   5.476   0.925   3.251
 8728SOL    HW227084   5.513   0.789   3.334
 8729SOL     OW27085   3.621   4.954   5.765
 8729SOL    HW127086   3.603   5.051   5.786
 8729SOL    HW227087   3.661   4.910   5.845
 8730SOL     OW27088   5.407   4.556   2.819
 8730SOL    HW127089   5.334   4.535   2.885
 8730SOL    HW227090   5.371   4.551   2.726
 8731SOL     OW27091   0.335   2.072   3.342
 8731SOL    HW127092   0.247   2.054   3.299
 8731SOL    HW227093   0.358   2.169   3.330
 8732SOL     OW27094   4.975   5.449   0.932
 8732SOL    HW127095   4.952   5.388   1.007
 8732SOL    HW227096   4.900   5.514   0.918
 8733SOL     OW27097   0.647   5.014   0.836
 8733SOL    HW127098   0.639   5.034   0.738
 8733SOL    HW227099   0.579   4.946   0.862
 8734SOL     OW27100   6.763   3.906   2.122
 8734SOL    HW127101   6.696   3.869   2.059
 8734SOL    HW227102   6.721   3.981   2.175
 8735SOL     OW27103   1.932   3.969   5.175
 8735SOL    HW127104   2.003   4.013   5.230
 8735SOL    HW227105   1.956   3.976   5.078
 8736SOL     OW27106   0.497   5.337   1.753
 8736SOL    HW127107   0.441   5.320   1.834
 8736SOL    HW227108   0.582   5.382   1.780
 8737SOL     OW27109   1.342   5.558   6.608
 8737SOL    HW127110   1.281   5.493   6.652
 8737SOL    HW227111   1.333   5.648   6.652
 8738SOL     OW27112   1.013   3.694   3.856
 8738SOL    HW127113   0.967   3.694   3.767
 8738SOL    HW227114   1.024   3.599   3.887
 8739SOL     OW27115   5.253   3.980   5.203
 8739SOL    HW127116   5.271   3.888   5.237
 8739SOL    HW227117   5.168   3.981   5.151
 8740SOL     OW27118   3.612   1.725   3.210
 8740SOL    HW127119   3.548   1.782   3.262
 8740SOL    HW227120   3.572   1.701   3.122
 8741SOL     OW27121   1.442   0.055   2.625
 8741SOL    HW127122   1.439   6.986   2.583
 8741SOL    HW227123   1.483   0.120   2.561
 8742SOL     OW27124   3.570   0.929   2.813
 8742SOL    HW127125   3.644   0.982   2.772
 8742SOL    HW227126   3.502   0.991   2.853
 8743SOL     OW27127   1.425   0.786   1.879
 8743SOL    HW127128   1.335   0.804   1.919
 8743SOL    HW227129   1.484   0.743   1.948
 8744SOL     OW27130   3.935   3.271   6.717
 8744SOL    HW127131   3.861   3.204   6.717
 8744SOL    HW227132   3.968   3.284   6.623
 8745SOL     OW27133   6.594   1.666   6.557
 8745SOL    HW127134   6.526   1.667   6.483
 8745SOL    HW227135   6.590   1.752   6.607
 8746SOL     OW27136   5.027   5.499   4.026
 8746SOL    HW127137   5.039   5.562   3.949
 8746SOL    HW227138   5.075   5.414   4.007
 8747SOL     OW27139   6.365   1.098   2.277
 8747SOL    HW127140   6.385   1.041   2.357
 8747SOL    HW227141   6.295   1.054   2.222
 8748SOL     OW27142   0.710   1.870   4.317
 8748SOL    HW127143   0.614   1.847   4.333
 8748SOL    HW227144   0.745   1.923   4.395
 8749SOL     OW27145   2.596   1.087   5.933
 8749SOL    HW127146   2.609   1.183   5.908
 8749SOL    HW227147   2.500   1.062   5.920
 8750SOL     OW27148   4.499   2.491   6.153
 8750SOL    HW127149   4.547   2.541   6.225
 8750SOL    HW227150   4.400   2.494   6.170
 8751SOL     OW27151   0.016   6.457   1.637
 8751SOL    HW127152   6.952   6.463   1.687
 8751SOL    HW227153   0.016   6.375   1.580
 8752SOL     OW27154   4.727   2.906   0.287
 8752SOL    HW127155   4.793   2.955   0.344
 8752SOL    HW227156   4.722   2.811   0.316
 8753SOL     OW27157   1.540   3.051   0.302
 8753SOL    HW127158   1.576   3.134   0.344
 8753SOL    HW227159   1.587   3.034   0.215
 8754SOL     OW27160   2.460   4.648   6.226
 8754SOL    HW127161   2.515   4.646   6.142
 8754SOL    HW227162   2.424   4.556   6.244
 8755SOL     OW27163   0.615   1.645   1.639
 8755SOL    HW127164   0.605   1.546   1.633
 8755SOL    HW227165   0.547   1.689   1.581
 8756SOL     OW27166   2.479   2.550   3.939
 8756SOL    HW127167   2.463   2.625   4.002
 8756SOL    HW227168   2.564   2.503   3.963
 8757SOL     OW27169   5.289   6.510   5.093
 8757SOL    HW127170   5.338   6.582   5.142
 8757SOL    HW227171   5.252   6.444   5.158
 8758SOL     OW27172   3.251   6.611   3.450
 8758SOL    HW127173   3.342   6.596   3.411
 8758SOL    HW227174   3.213   6.524   3.482
 8759SOL     OW27175   6.369   0.778   6.763
 8759SOL    HW127176   6.306   0.846   6.727
 8759SOL    HW227177   6.460   0.791   6.723
 8760SOL     OW27178   2.350   1.557   3.733
 8760SOL    HW127179   2.351   1.598   3.642
 8760SOL    HW227180   2.350   1.457   3.725
 8761SOL     OW27181   5.006   1.358   1.988
 8761SOL    HW127182   4.991   1.440   1.933
 8761SOL    HW227183   5.009   1.383   2.085
 8762SOL     OW27184   1.874   4.955   4.150
 8762SOL    HW127185   1.837   4.937   4.058
 8762SOL    HW227186   1.962   4.908   4.160
 8763SOL     OW27187   6.912   0.853   5.385
 8763SOL    HW127188   6.903   0.936   5.329
 8763SOL    HW227189   7.009   0.829   5.394
 8764SOL     OW27190   4.366   5.173   5.873
 8764SOL    HW127191   4.352   5.238   5.798
 8764SOL    HW227192   4.341   5.081   5.843
 8765SOL     OW27193   5.089   0.558   5.343
 8765SOL    HW127194   5.046   0.633   5.394
 8765SOL    HW227195   5.162   0.595   5.286
 8766SOL     OW27196   5.054   4.043   6.158
 8766SOL    HW127197   4.962   4.022   6.124
 8766SOL    HW227198   5.056   4.137   6.191
 8767SOL     OW27199   2.953   0.388   3.906
 8767SOL    HW127200   3.022   0.387   3.978
 8767SOL    HW227201   2.983   0.330   3.830
 8768SOL     OW27202   6.668   2.807   0.159
 8768SOL    HW127203   6.579   2.822   0.118
 8768SOL    HW227204   6.675   2.859   0.244
 8769SOL     OW27205   6.542   1.130   1.657
 8769SOL    HW127206   6.462   1.094   1.705
 8769SOL    HW227207   6.550   1.228   1.676
 8770SOL     OW27208   5.374   3.499   2.122
 8770SOL    HW127209   5.412   3.409   2.142
 8770SOL    HW227210   5.278   3.489   2.095
 8771SOL     OW27211   0.712   3.561   6.319
 8771SOL    HW127212   0.774   3.551   6.241
 8771SOL    HW227213   0.762   3.540   6.403
 8772SOL     OW27214   5.547   0.438   5.166
 8772SOL    HW127215   5.607   0.499   5.115
 8772SOL    HW227216   5.515   0.364   5.106
 8773SOL     OW27217   0.138   1.827   4.217
 8773SOL    HW127218   0.201   1.900   4.244
 8773SOL    HW227219   0.172   1.782   4.135
 8774SOL     OW27220   1.040   6.988   6.929
 8774SOL    HW127221   1.044   6.910   6.993
 8774SOL    HW227222   0.948   6.993   6.889
 8775SOL     OW27223   5.398   2.108   4.325
 8775SOL    HW127224   5.312   2.127   4.276
 8775SOL    HW227225   5.459   2.056   4.265
 8776SOL     OW27226   4.831   2.490   0.841
 8776SOL    HW127227   4.890   2.535   0.907
 8776SOL    HW227228   4.748   2.457   0.887
 8777SOL     OW27229   0.965   2.904   2.968
 8777SOL    HW127230   1.047   2.945   3.009
 8777SOL    HW227231   0.944   2.951   2.882
 8778SOL     OW27232   4.594   4.453   5.593
 8778SOL    HW127233   4.680   4.410   5.565
 8778SOL    HW227234   4.517   4.395   5.566
 8779SOL     OW27235   3.443   4.887   2.731
 8779SOL    HW127236   3.455   4.790   2.708
 8779SOL    HW227237   3.346   4.908   2.740
 8780SOL     OW27238   0.372   5.568   2.170
 8780SOL    HW127239   0.284   5.527   2.192
 8780SOL    HW227240   0.367   5.611   2.080
 8781SOL     OW27241   4.052   0.179   2.207
 8781SOL    HW127242   3.995   0.151   2.285
 8781SOL    HW227243   4.132   0.118   2.201
 8782SOL     OW27244   4.665   0.793   1.454
 8782SOL    HW127245   4.648   0.698   1.482
 8782SOL    HW227246   4.759   0.819   1.476
 8783SOL     OW27247   4.896   3.502   4.613
 8783SOL    HW127248   4.922   3.512   4.709
 8783SOL    HW227249   4.876   3.592   4.574
 8784SOL     OW27250   5.837   6.553   0.420
 8784SOL    HW127251   5.756   6.495   0.431
 8784SOL    HW227252   5.845   6.582   0.325
 8785SOL     OW27253   6.789   5.870   6.653
 8785SOL    HW127254   6.720   5.890   6.584
 8785SOL    HW227255   6.835   5.955   6.679
 8786SOL     OW27256   4.201   2.279   1.857
 8786SOL    HW127257   4.120   2.293   1.914
 8786SOL    HW227258   4.204   2.350   1.786
 8787SOL     OW27259   3.490   0.539   1.476
 8787SOL    HW127260   3.470   0.446   1.445
 8787SOL    HW227261   3.491   0.541   1.576
 8788SOL     OW27262   0.277   0.234   4.833
 8788SOL    HW127263   0.187   0.226   4.790
 8788SOL    HW227264   0.273   0.305   4.904
 8789SOL     OW27265   0.218   4.163   5.066
 8789SOL    HW127266   0.301   4.194   5.112
 8789SOL    HW227267   0.186   4.235   5.003
 8790SOL     OW27268   5.895   2.627   6.664
 8790SOL    HW127269   5.941   2.548   6.705
 8790SOL    HW227270   5.846   2.599   6.582
 8791SOL     OW27271   4.601   5.995   5.253
 8791SOL    HW127272   4.517   6.023   5.299
 8791SOL    HW227273   4.583   5.979   5.156
 8792SOL     OW27274   4.288   5.038   1.340
 8792SOL    HW127275   4.328   5.065   1.427
 8792SOL    HW227276   4.358   4.993   1.284
 8793SOL     OW27277   0.928   5.679   3.947
 8793SOL    HW127278   0.939   5.580   3.959
 8793SOL    HW227279   1.016   5.718   3.920
 8794SOL     OW27280   0.159   0.686   2.200
 8794SOL    HW127281   0.061   0.692   2.180
 8794SOL    HW227282   0.194   0.597   2.171
 8795SOL     OW27283   1.421   5.166   5.164
 8795SOL    HW127284   1.412   5.108   5.245
 8795SOL    HW227285   1.409   5.111   5.081
 8796SOL     OW27286   6.598   3.313   3.347
 8796SOL    HW127287   6.667   3.333   3.277
 8796SOL    HW227288   6.605   3.379   3.421
 8797SOL     OW27289   6.411   7.004   3.313
 8797SOL    HW127290   6.467   6.938   3.262
 8797SOL    HW227291   6.468   0.033   3.377
 8798SOL     OW27292   4.530   6.792   4.885
 8798SOL    HW127293   4.541   6.788   4.984
 8798SOL    HW227294   4.620   6.798   4.842
 8799SOL     OW27295   2.494   5.218   2.028
 8799SOL    HW127296   2.452   5.167   2.103
 8799SOL    HW227297   2.559   5.158   1.981
 8800SOL     OW27298   6.906   5.865   5.423
 8800SOL    HW127299   6.966   5.909   5.357
 8800SOL    HW227300   6.914   5.766   5.414
 8801SOL     OW27301   6.262   2.006   4.943
 8801SOL    HW127302   6.316   1.923   4.957
 8801SOL    HW227303   6.165   1.985   4.956
 8802SOL     OW27304   1.065   5.698   5.988
 8802SOL    HW127305   0.999   5.724   6.058
 8802SOL    HW227306   1.027   5.714   5.897
 8803SOL     OW27307   6.208   0.554   6.788
 8803SOL    HW127308   6.255   0.625   6.735
 8803SOL    HW227309   6.144   0.597   6.852
 8804SOL     OW27310   1.983   5.870   1.421
 8804SOL    HW127311   2.015   5.824   1.503
 8804SOL    HW227312   2.048   5.941   1.394
 8805SOL     OW27313   4.450   5.791   2.404
 8805SOL    HW127314   4.439   5.858   2.330
 8805SOL    HW227315   4.427   5.833   2.491
 8806SOL     OW27316   2.435   5.817   0.513
 8806SOL    HW127317   2.404   5.905   0.478
 8806SOL    HW227318   2.520   5.830   0.565
 8807SOL     OW27319   5.025   2.250   0.933
 8807SOL    HW127320   5.116   2.258   0.973
 8807SOL    HW227321   5.021   2.304   0.849
 8808SOL     OW27322   2.066   2.394   0.315
 8808SOL    HW127323   2.003   2.417   0.389
 8808SOL    HW227324   2.107   2.477   0.278
 8809SOL     OW27325   2.115   4.110   3.868
 8809SOL    HW127326   2.115   4.055   3.785
 8809SOL    HW227327   2.146   4.054   3.945
 8810SOL     OW27328   0.040   1.561   6.004
 8810SOL    HW127329   6.965   1.582   5.985
 8810SOL    HW227330   0.076   1.502   5.931
 8811SOL     OW27331   4.172   6.790   2.479
 8811SOL    HW127332   4.146   6.879   2.517
 8811SOL    HW227333   4.098   6.755   2.422
 8812SOL     OW27334   3.177   1.327   6.500
 8812SOL    HW127335   3.148   1.257   6.566
 8812SOL    HW227336   3.191   1.284   6.411
 8813SOL     OW27337   2.069   4.405   3.107
 8813SOL    HW127338   2.034   4.339   3.175
 8813SOL    HW227339   2.160   4.377   3.077
 8814SOL     OW27340   6.013   6.856   0.060
 8814SOL    HW127341   6.029   6.868   6.984
 8814SOL    HW227342   5.959   6.933   0.094
 8815SOL     OW27343   5.377   1.090   0.601
 8815SOL    HW127344   5.322   1.046   0.672
 8815SOL    HW227345   5.330   1.084   0.513
 8816SOL     OW27346   0.394   6.536   5.491
 8816SOL    HW127347   0.361   6.464   5.430
 8816SOL    HW227348   0.318   6.594   5.518
 8817SOL     OW27349   1.099   3.713   4.759
 8817SOL    HW127350   1.165   3.659   4.812
 8817SOL    HW227351   1.134   3.807   4.750
 8818SOL     OW27352   2.324   6.655   4.337
 8818SOL    HW127353   2.269   6.653   4.254
 8818SOL    HW227354   2.406   6.711   4.323
 8819SOL     OW27355   5.279   4.010   5.953
 8819SOL    HW127356   5.224   4.017   6.037
 8819SOL    HW227357   5.317   4.100   5.931
 8820SOL     OW27358   3.428   1.050   4.722
 8820SOL    HW127359   3.505   1.100   4.762
 8820SOL    HW227360   3.462   0.984   4.655
 8821SOL     OW27361   1.619   5.144   0.949
 8821SOL    HW127362   1.588   5.126   0.855
 8821SOL    HW227363   1.548   5.195   0.998
 8822SOL     OW27364   6.368   6.684   4.218
 8822SOL    HW127365   6.363   6.603   4.159
 8822SOL    HW227366   6.458   6.689   4.261
 8823SOL     OW27367   3.234   1.518   3.394
 8823SOL    HW127368   3.323   1.474   3.405
 8823SOL    HW227369   3.245   1.617   3.399
 8824SOL     OW27370   1.575   0.430   0.749
 8824SOL    HW127371   1.500   0.492   0.773
 8824SOL    HW227372   1.538   0.339   0.731
 8825SOL     OW27373   0.226   0.255   0.478
 8825SOL    HW127374   0.208   0.321   0.405
 8825SOL    HW227375   0.160   0.270   0.553
 8826SOL     OW27376   1.153   3.389   1.015
 8826SOL    HW127377   1.144   3.473   0.961
 8826SOL    HW227378   1.232   3.397   1.076
 8827SOL     OW27379   3.966   0.255   2.706
 8827SOL    HW127380   4.007   0.262   2.615
 8827SOL    HW227381   3.985   0.338   2.758
 8828SOL     OW27382   4.309   3.636   6.100
 8828SOL    HW127383   4.373   3.561   6.083
 8828SOL    HW227384   4.229   3.601   6.149
 8829SOL     OW27385   0.343   1.853   2.132
 8829SOL    HW127386   0.287   1.850   2.215
 8829SOL    HW227387   0.316   1.931   2.076
 8830SOL     OW27388   2.613   2.112   2.986
 8830SOL    HW127389   2.663   2.177   2.928
 8830SOL    HW227390   2.664   2.099   3.071
 8831SOL     OW27391   0.687   1.809   2.496
 8831SOL    HW127392   0.679   1.731   2.433
 8831SOL    HW227393   0.784   1.832   2.507
 8832SOL     OW27394   6.544   6.878   4.063
 8832SOL    HW127395   6.491   6.844   3.986
 8832SOL    HW227396   6.483   6.897   4.140
 8833SOL     OW27397   3.791   2.356   1.299
 8833SOL    HW127398   3.702   2.325   1.333
 8833SOL    HW227399   3.858   2.284   1.314
 8834SOL     OW27400   5.651   3.947   5.668
 8834SOL    HW127401   5.577   3.880   5.675
 8834SOL    HW227402   5.739   3.901   5.680
 8835SOL     OW27403   6.027   0.516   5.653
 8835SOL    HW127404   6.080   0.468   5.583
 8835SOL    HW227405   6.018   0.612   5.628
 8836SOL     OW27406   5.220   2.698   6.779
 8836SOL    HW127407   5.151   2.763   6.811
 8836SOL    HW227408   5.303   2.707   6.834
 8837SOL     OW27409   6.350   6.598   2.101
 8837SOL    HW127410   6.346   6.697   2.089
 8837SOL    HW227411   6.348   6.554   2.011
 8838SOL     OW27412   0.407   4.139   2.673
 8838SOL    HW127413   0.498   4.150   2.713
 8838SOL    HW227414   0.415   4.097   2.583
 8839SOL     OW27415   5.457   5.697   2.488
 8839SOL    HW127416   5.482   5.694   2.584
 8839SOL    HW227417   5.474   5.608   2.446
 8840SOL     OW27418   0.286   0.832   1.324
 8840SOL    HW127419   0.252   0.925   1.314
 8840SOL    HW227420   0.225   0.769   1.277
 8841SOL     OW27421   3.837   1.042   2.061
 8841SOL    HW127422   3.887   0.959   2.037
 8841SOL    HW227423   3.799   1.083   1.978
 8842SOL     OW27424   3.304   3.712   3.704
 8842SOL    HW127425   3.251   3.758   3.633
 8842SOL    HW227426   3.322   3.776   3.779
 8843SOL     OW27427   1.962   3.647   5.462
 8843SOL    HW127428   1.985   3.743   5.481
 8843SOL    HW227429   2.025   3.588   5.513
 8844SOL     OW27430   5.639   2.141   5.364
 8844SOL    HW127431   5.590   2.090   5.294
 8844SOL    HW227432   5.615   2.238   5.358
 8845SOL     OW27433   1.878   5.301   1.374
 8845SOL    HW127434   1.922   5.359   1.305
 8845SOL    HW227435   1.780   5.295   1.356
 8846SOL     OW27436   5.167   4.165   3.855
 8846SOL    HW127437   5.136   4.077   3.891
 8846SOL    HW227438   5.133   4.239   3.914
 8847SOL     OW27439   2.336   2.320   3.173
 8847SOL    HW127440   2.417   2.373   3.201
 8847SOL    HW227441   2.364   2.247   3.111
 8848SOL     OW27442   3.052   1.710   1.232
 8848SOL    HW127443   3.084   1.622   1.199
 8848SOL    HW227444   2.953   1.708   1.245
 8849SOL     OW27445   3.718   5.805   4.547
 8849SOL    HW127446   3.704   5.777   4.452
 8849SOL    HW227447   3.674   5.739   4.608
 8850SOL     OW27448   2.645   1.752   0.831
 8850SOL    HW127449   2.600   1.820   0.774
 8850SOL    HW227450   2.732   1.725   0.789
 8851SOL     OW27451   1.558   4.349   3.230
 8851SOL    HW127452   1.634   4.290   3.256
 8851SOL    HW227453   1.555   4.357   3.130
 8852SOL     OW27454   5.529   3.008   6.180
 8852SOL    HW127455   5.463   3.037   6.111
 8852SOL    HW227456   5.621   3.036   6.153
 8853SOL     OW27457   4.046   1.808   5.241
 8853SOL    HW127458   4.105   1.840   5.167
 8853SOL    HW227459   4.103   1.771   5.315
 8854SOL     OW27460   0.898   1.252   6.002
 8854SOL    HW127461   0.942   1.340   5.983
 8854SOL    HW227462   0.962   1.178   5.980
 8855SOL     OW27463   6.199   5.895   6.723
 8855SOL    HW127464   6.296   5.878   6.705
 8855SOL    HW227465   6.143   5.834   6.667
 8856SOL     OW27466   6.348   0.583   5.007
 8856SOL    HW127467   6.259   0.620   5.034
 8856SOL    HW227468   6.365   0.498   5.057
 8857SOL     OW27469   6.731   1.976   3.193
 8857SOL    HW127470   6.808   2.030   3.159
 8857SOL    HW227471   6.704   1.909   3.124
 8858SOL     OW27472   0.658   4.016   5.571
 8858SOL    HW127473   0.587   4.035   5.503
 8858SOL    HW227474   0.703   3.929   5.549
 8859SOL     OW27475   1.189   6.637   5.063
 8859SOL    HW127476   1.130   6.670   5.136
 8859SOL    HW227477   1.231   6.716   5.016
 8860SOL     OW27478   1.391   2.804   3.075
 8860SOL    HW127479   1.389   2.706   3.056
 8860SOL    HW227480   1.466   2.823   3.139
 8861SOL     OW27481   3.812   2.805   0.150
 8861SOL    HW127482   3.787   2.848   0.237
 8861SOL    HW227483   3.827   2.876   0.081
 8862SOL     OW27484   6.186   1.661   4.996
 8862SOL    HW127485   6.274   1.695   5.029
 8862SOL    HW227486   6.141   1.608   5.069
 8863SOL     OW27487   1.934   5.933   4.821
 8863SOL    HW127488   1.957   5.839   4.844
 8863SOL    HW227489   2.010   5.975   4.771
 8864SOL     OW27490   2.121   3.529   6.825
 8864SOL    HW127491   2.049   3.571   6.769
 8864SOL    HW227492   2.192   3.493   6.766
 8865SOL     OW27493   2.789   1.603   5.144
 8865SOL    HW127494   2.824   1.642   5.058
 8865SOL    HW227495   2.866   1.572   5.200
 8866SOL     OW27496   3.796   6.514   3.268
 8866SOL    HW127497   3.793   6.606   3.229
 8866SOL    HW227498   3.803   6.521   3.368
 8867SOL     OW27499   5.678   2.153   2.856
 8867SOL    HW127500   5.639   2.223   2.796
 8867SOL    HW227501   5.762   2.117   2.815
 8868SOL     OW27502   4.825   3.628   0.791
 8868SOL    HW127503   4.806   3.727   0.795
 8868SOL    HW227504   4.837   3.593   0.884
 8869SOL     OW27505   5.051   3.937   3.568
 8869SOL    HW127506   5.146   3.911   3.581
 8869SOL    HW227507   5.044   4.036   3.556
 8870SOL     OW27508   3.664   1.192   0.690
 8870SOL    HW127509   3.607   1.130   0.743
 8870SOL    HW227510   3.658   1.284   0.727
 8871SOL     OW27511   1.630   0.977   3.779
 8871SOL    HW127512   1.550   0.964   3.722
 8871SOL    HW227513   1.663   1.071   3.769
 8872SOL     OW27514   2.063   4.414   3.570
 8872SOL    HW127515   2.104   4.495   3.528
 8872SOL    HW227516   2.017   4.440   3.655
 8873SOL     OW27517   0.419   5.955   3.427
 8873SOL    HW127518   0.500   5.983   3.478
 8873SOL    HW227519   0.397   5.860   3.450
 8874SOL     OW27520   2.229   0.065   1.327
 8874SOL    HW127521   2.130   0.052   1.338
 8874SOL    HW227522   2.271   7.000   1.299
 8875SOL     OW27523   1.473   2.659   4.479
 8875SOL    HW127524   1.463   2.676   4.381
 8875SOL    HW227525   1.506   2.742   4.525
 8876SOL     OW27526   0.082   1.364   4.920
 8876SOL    HW127527   0.077   1.310   5.004
 8876SOL    HW227528   0.059   1.459   4.940
 8877SOL     OW27529   2.907   0.691   4.190
 8877SOL    HW127530   2.860   0.611   4.227
 8877SOL    HW227531   2.844   0.768   4.188
 8878SOL     OW27532   0.280   4.440   0.811
 8878SOL    HW127533   0.231   4.354   0.827
 8878SOL    HW227534   0.255   4.505   0.883
 8879SOL     OW27535   5.347   5.720   0.325
 8879SOL    HW127536   5.409   5.751   0.397
 8879SOL    HW227537   5.377   5.631   0.290
 8880SOL     OW27538   6.944   5.313   4.625
 8880SOL    HW127539   6.947   5.285   4.721
 8880SOL    HW227540   6.849   5.306   4.592
 8881SOL     OW27541   6.542   1.085   2.756
 8881SOL    HW127542   6.588   1.150   2.816
 8881SOL    HW227543   6.448   1.114   2.740
 8882SOL     OW27544   5.390   1.572   0.034
 8882SOL    HW127545   5.369   1.504   6.986
 8882SOL    HW227546   5.407   1.527   0.121
 8883SOL     OW27547   6.910   0.896   6.166
 8883SOL    HW127548   6.859   0.970   6.122
 8883SOL    HW227549   6.878   0.808   6.131
 8884SOL     OW27550   5.689   6.704   6.470
 8884SOL    HW127551   5.613   6.656   6.514
 8884SOL    HW227552   5.660   6.737   6.380
 8885SOL     OW27553   5.992   4.089   1.618
 8885SOL    HW127554   5.998   4.026   1.540
 8885SOL    HW227555   6.061   4.064   1.686
 8886SOL     OW27556   2.883   6.320   5.801
 8886SOL    HW127557   2.851   6.345   5.709
 8886SOL    HW227558   2.811   6.273   5.850
 8887SOL     OW27559   2.683   1.121   1.381
 8887SOL    HW127560   2.604   1.090   1.328
 8887SOL    HW227561   2.759   1.057   1.368
 8888SOL     OW27562   0.960   1.523   1.089
 8888SOL    HW127563   0.928   1.595   1.150
 8888SOL    HW227564   1.010   1.564   1.012
 8889SOL     OW27565   5.101   0.193   4.716
 8889SOL    HW127566   5.173   0.124   4.707
 8889SOL    HW227567   5.050   0.177   4.801
 8890SOL     OW27568   6.753   5.750   4.216
 8890SOL    HW127569   6.824   5.682   4.234
 8890SOL    HW227570   6.726   5.794   4.302
 8891SOL     OW27571   5.714   3.235   6.327
 8891SOL    HW127572   5.748   3.206   6.237
 8891SOL    HW227573   5.628   3.188   6.346
 8892SOL     OW27574   2.439   6.868   3.412
 8892SOL    HW127575   2.342   6.866   3.437
 8892SOL    HW227576   2.452   6.930   3.335
 8893SOL     OW27577   0.052   1.343   1.556
 8893SOL    HW127578   0.115   1.267   1.577
 8893SOL    HW227579   0.019   1.384   1.641
 8894SOL     OW27580   4.155   2.515   5.976
 8894SOL    HW127581   4.144   2.493   6.073
 8894SOL    HW227582   4.067   2.505   5.930
 8895SOL     OW27583   0.160   6.704   1.611
 8895SOL    HW127584   0.249   6.667   1.637
 8895SOL    HW227585   0.090   6.635   1.626
 8896SOL     OW27586   1.606   3.810   5.139
 8896SOL    HW127587   1.615   3.720   5.095
 8896SOL    HW227588   1.652   3.879   5.082
 8897SOL     OW27589   1.484   1.568   1.870
 8897SOL    HW127590   1.411   1.573   1.801
 8897SOL    HW227591   1.519   1.474   1.873
 8898SOL     OW27592   6.207   3.284   4.840
 8898SOL    HW127593   6.234   3.308   4.934
 8898SOL    HW227594   6.133   3.345   4.811
 8899SOL     OW27595   1.963   4.161   6.822
 8899SOL    HW127596   1.891   4.200   6.880
 8899SOL    HW227597   1.989   4.228   6.752
 8900SOL     OW27598   5.219   3.115   3.185
 8900SOL    HW127599   5.156   3.096   3.260
 8900SOL    HW227600   5.225   3.035   3.125
 8901SOL     OW27601   1.489   0.854   2.652
 8901SOL    HW127602   1.558   0.781   2.649
 8901SOL    HW227603   1.398   0.814   2.647
 8902SOL     OW27604   2.159   5.730   6.481
 8902SOL    HW127605   2.203   5.805   6.431
 8902SOL    HW227606   2.065   5.720   6.449
 8903SOL     OW27607   2.172   1.921   3.682
 8903SOL    HW127608   2.202   1.862   3.607
 8903SOL    HW227609   2.248   1.937   3.745
 8904SOL     OW27610   0.005   5.661   3.406
 8904SOL    HW127611   7.008   5.750   3.447
 8904SOL    HW227612   0.007   5.590   3.477
 8905SOL     OW27613   2.253   3.002   5.330
 8905SOL    HW127614   2.199   3.081   5.304
 8905SOL    HW227615   2.346   3.012   5.295
 8906SOL     OW27616   6.490   6.339   6.361
 8906SOL    HW127617   6.394   6.319   6.380
 8906SOL    HW227618   6.503   6.348   6.262
 8907SOL     OW27619   3.201   2.587   5.339
 8907SOL    HW127620   3.204   2.507   5.279
 8907SOL    HW227621   3.108   2.622   5.344
 8908SOL     OW27622   1.533   2.007   0.964
 8908SOL    HW127623   1.513   2.025   0.867
 8908SOL    HW227624   1.567   1.914   0.975
 8909SOL     OW27625   3.037   0.219   5.733
 8909SOL    HW127626   3.110   0.276   5.697
 8909SOL    HW227627   2.989   0.267   5.806
 8910SOL     OW27628   3.068   3.187   6.242
 8910SOL    HW127629   3.067   3.213   6.145
 8910SOL    HW227630   3.091   3.090   6.250
 8911SOL     OW27631   2.987   2.113   4.496
 8911SOL    HW127632   2.984   2.140   4.592
 8911SOL    HW227633   3.061   2.163   4.450
 8912SOL     OW27634   4.568   1.747   6.312
 8912SOL    HW127635   4.642   1.686   6.286
 8912SOL    HW227636   4.503   1.698   6.370
 8913SOL     OW27637   5.036   4.248   1.803
 8913SOL    HW127638   5.048   4.327   1.863
 8913SOL    HW227639   5.125   4.222   1.765
 8914SOL     OW27640   4.059   1.416   5.033
 8914SOL    HW127641   4.002   1.419   4.951
 8914SOL    HW227642   4.004   1.386   5.111
 8915SOL     OW27643   2.141   3.269   3.780
 8915SOL    HW127644   2.149   3.234   3.874
 8915SOL    HW227645   2.141   3.369   3.781
 8916SOL     OW27646   0.186   4.330   2.512
 8916SOL    HW127647   0.282   4.324   2.541
 8916SOL    HW227648   0.158   4.426   2.508
 8917SOL     OW27649   5.913   5.568   6.809
 8917SOL    HW127650   5.957   5.626   6.740
 8917SOL    HW227651   5.967   5.569   6.893
 8918SOL     OW27652   5.755   6.339   6.572
 8918SOL    HW127653   5.666   6.383   6.561
 8918SOL    HW227654   5.828   6.408   6.564
 8919SOL     OW27655   3.656   4.211   0.878
 8919SOL    HW127656   3.627   4.289   0.933
 8919SOL    HW227657   3.597   4.203   0.798
 8920SOL     OW27658   6.288   5.783   6.259
 8920SOL    HW127659   6.313   5.755   6.352
 8920SOL    HW227660   6.371   5.788   6.203
 8921SOL     OW27661   1.330   0.801   3.690
 8921SOL    HW127662   1.366   0.802   3.783
 8921SOL    HW227663   1.343   0.891   3.648
 8922SOL     OW27664   2.456   5.191   0.710
 8922SOL    HW127665   2.538   5.138   0.728
 8922SOL    HW227666   2.386   5.169   0.778
 8923SOL     OW27667   1.750   3.725   6.907
 8923SOL    HW127668   1.689   3.656   6.944
 8923SOL    HW227669   1.839   3.720   6.952
 8924SOL     OW27670   2.670   5.197   5.757
 8924SOL    HW127671   2.574   5.195   5.730
 8924SOL    HW227672   2.699   5.106   5.783
 8925SOL     OW27673   7.011   6.600   2.367
 8925SOL    HW127674   6.935   6.566   2.313
 8925SOL    HW227675   0.070   6.543   2.350
 8926SOL     OW27676   5.746   2.312   2.457
 8926SOL    HW127677   5.826   2.322   2.515
 8926SOL    HW227678   5.724   2.400   2.415
 8927SOL     OW27679   2.415   2.658   4.948
 8927SOL    HW127680   2.372   2.697   4.867
 8927SOL    HW227681   2.361   2.681   5.029
 8928SOL     OW27682   0.256   0.767   5.620
 8928SOL    HW127683   0.178   0.743   5.676
 8928SOL    HW227684   0.329   0.700   5.634
 8929SOL     OW27685   0.020   3.681   3.891
 8929SOL    HW127686   6.946   3.654   3.888
 8929SOL    HW227687   0.033   3.748   3.965
 8930SOL     OW27688   1.037   5.157   5.036
 8930SOL    HW127689   1.124   5.111   5.018
 8930SOL    HW227690   1.055   5.249   5.072
 8931SOL     OW27691   5.184   1.887   1.134
 8931SOL    HW127692   5.110   1.953   1.147
 8931SOL    HW227693   5.236   1.911   1.052
 8932SOL     OW27694   5.717   0.132   6.364
 8932SOL    HW127695   5.784   0.058   6.366
 8932SOL    HW227696   5.638   0.108   6.420
 8933SOL     OW27697   1.208   1.016   5.003
 8933SOL    HW127698   1.113   1.039   4.980
 8933SOL    HW227699   1.227   0.922   4.975
 8934SOL     OW27700   3.604   5.323   3.239
 8934SOL    HW127701   3.614   5.329   3.140
 8934SOL    HW227702   3.517   5.278   3.260
 8935SOL     OW27703   4.788   2.843   2.629
 8935SOL    HW127704   4.794   2.938   2.597
 8935SOL    HW227705   4.819   2.838   2.724
 8936SOL     OW27706   0.279   4.306   1.165
 8936SOL    HW127707   0.266   4.308   1.264
 8936SOL    HW227708   0.297   4.399   1.131
 8937SOL     OW27709   0.418   0.054   3.703
 8937SOL    HW127710   0.352   0.117   3.744
 8937SOL    HW227711   0.371   6.992   3.677
 8938SOL     OW27712   6.104   0.725   0.559
 8938SOL    HW127713   6.085   0.698   0.465
 8938SOL    HW227714   6.071   0.818   0.574
 8939SOL     OW27715   0.091   2.628   4.534
 8939SOL    HW127716   0.011   2.568   4.524
 8939SOL    HW227717   0.071   2.698   4.603
 8940SOL     OW27718   6.885   3.454   0.909
 8940SOL    HW127719   6.934   3.410   0.834
 8940SOL    HW227720   6.944   3.521   0.954
 8941SOL     OW27721   4.862   2.411   1.990
 8941SOL    HW127722   4.844   2.347   1.915
 8941SOL    HW227723   4.775   2.441   2.029
 8942SOL     OW27724   6.947   5.194   3.799
 8942SOL    HW127725   6.966   5.158   3.890
 8942SOL    HW227726   6.853   5.171   3.773
 8943SOL     OW27727   4.389   3.430   0.151
 8943SOL    HW127728   4.355   3.343   0.117
 8943SOL    HW227729   4.456   3.414   0.223
 8944SOL     OW27730   4.758   5.445   4.484
 8944SOL    HW127731   4.761   5.417   4.388
 8944SOL    HW227732   4.838   5.502   4.505
 8945SOL     OW27733   6.063   3.650   5.218
 8945SOL    HW127734   6.041   3.552   5.222
 8945SOL    HW227735   6.156   3.662   5.182
 8946SOL     OW27736   4.859   1.209   4.249
 8946SOL    HW127737   4.799   1.174   4.177
 8946SOL    HW227738   4.839   1.162   4.335
 8947SOL     OW27739   1.408   4.830   6.734
 8947SOL    HW127740   1.499   4.802   6.766
 8947SOL    HW227741   1.411   4.845   6.635
 8948SOL     OW27742   6.024   6.937   3.905
 8948SOL    HW127743   5.968   6.860   3.936
 8948SOL    HW227744   6.109   6.902   3.866
 8949SOL     OW27745   3.251   6.267   0.251
 8949SOL    HW127746   3.271   6.170   0.239
 8949SOL    HW227747   3.307   6.303   0.326
 8950SOL     OW27748   4.562   4.512   1.385
 8950SOL    HW127749   4.557   4.564   1.470
 8950SOL    HW227750   4.658   4.495   1.362
 8951SOL     OW27751   2.254   1.215   4.063
 8951SOL    HW127752   2.157   1.237   4.055
 8951SOL    HW227753   2.270   1.169   4.150
 8952SOL     OW27754   2.377   4.864   3.243
 8952SOL    HW127755   2.310   4.858   3.316
 8952SOL    HW227756   2.459   4.910   3.277
 8953SOL     OW27757   2.644   5.261   2.483
 8953SOL    HW127758   2.741   5.273   2.504
 8953SOL    HW227759   2.598   5.222   2.563
 8954SOL     OW27760   1.137   6.123   4.491
 8954SOL    HW127761   1.132   6.173   4.577
 8954SOL    HW227762   1.065   6.054   4.489
 8955SOL     OW27763   5.808   3.008   3.542
 8955SOL    HW127764   5.789   3.090   3.595
 8955SOL    HW227765   5.841   3.034   3.451
 8956SOL     OW27766   0.844   6.348   5.625
 8956SOL    HW127767   0.805   6.305   5.706
 8956SOL    HW227768   0.834   6.448   5.631
 8957SOL     OW27769   1.461   5.341   2.459
 8957SOL    HW127770   1.514   5.361   2.541
 8957SOL    HW227771   1.516   5.358   2.378
 8958SOL     OW27772   1.878   3.264   5.595
 8958SOL    HW127773   1.859   3.308   5.508
 8958SOL    HW227774   1.814   3.188   5.609
 8959SOL     OW27775   0.729   3.401   2.118
 8959SOL    HW127776   0.732   3.309   2.081
 8959SOL    HW227777   0.747   3.467   2.045
 8960SOL     OW27778   5.972   4.119   4.044
 8960SOL    HW127779   6.012   4.033   4.078
 8960SOL    HW227780   6.042   4.191   4.047
 8961SOL     OW27781   3.238   6.491   4.976
 8961SOL    HW127782   3.271   6.467   5.067
 8961SOL    HW227783   3.142   6.464   4.967
 8962SOL     OW27784   1.070   5.839   1.242
 8962SOL    HW127785   1.108   5.776   1.175
 8962SOL    HW227786   0.978   5.867   1.213
 8963SOL     OW27787   3.727   6.134   4.637
 8963SOL    HW127788   3.810   6.128   4.692
 8963SOL    HW227789   3.716   6.051   4.582
 8964SOL     OW27790   6.377   3.692   3.638
 8964SOL    HW127791   6.345   3.786   3.646
 8964SOL    HW227792   6.412   3.661   3.727
 8965SOL     OW27793   4.412   4.803   0.408
 8965SOL    HW127794   4.430   4.707   0.386
 8965SOL    HW227795   4.335   4.836   0.354
 8966SOL     OW27796   4.973   5.697   6.368
 8966SOL    HW127797   4.942   5.616   6.319
 8966SOL    HW227798   4.944   5.779   6.318
 8967SOL     OW27799   3.387   0.748   3.041
 8967SOL    HW127800   3.485   0.754   3.023
 8967SOL    HW227801   3.361   0.652   3.053
 8968SOL     OW27802   3.348   4.954   1.736
 8968SOL    HW127803   3.297   5.018   1.678
 8968SOL    HW227804   3.363   4.994   1.826
 8969SOL     OW27805   6.672   0.665   2.946
 8969SOL    HW127806   6.728   0.666   3.029
 8969SOL    HW227807   6.599   0.733   2.954
 8970SOL     OW27808   1.166   1.602   6.149
 8970SOL    HW127809   1.160   1.700   6.168
 8970SOL    HW227810   1.147   1.585   6.053
 8971SOL     OW27811   4.447   5.821   0.589
 8971SOL    HW127812   4.358   5.823   0.544
 8971SOL    HW227813   4.439   5.779   0.679
 8972SOL     OW27814   5.867   5.053   0.397
 8972SOL    HW127815   5.838   4.971   0.448
 8972SOL    HW227816   5.958   5.081   0.429
 8973SOL     OW27817   0.739   2.544   2.123
 8973SOL    HW127818   0.711   2.586   2.036
 8973SOL    HW227819   0.778   2.454   2.105
 8974SOL     OW27820   2.249   4.384   4.501
 8974SOL    HW127821   2.251   4.305   4.561
 8974SOL    HW227822   2.158   4.394   4.461
 8975SOL     OW27823   0.483   0.351   6.495
 8975SOL    HW127824   0.437   0.409   6.562
 8975SOL    HW227825   0.552   0.405   6.447
 8976SOL     OW27826   6.736   0.301   1.740
 8976SOL    HW127827   6.658   0.354   1.706
 8976SOL    HW227828   6.797   0.278   1.664
 8977SOL     OW27829   6.898   5.070   6.323
 8977SOL    HW127830   6.934   4.977   6.317
 8977SOL    HW227831   6.871   5.101   6.232
 8978SOL     OW27832   5.927   5.664   5.819
 8978SOL    HW127833   6.009   5.686   5.767
 8978SOL    HW227834   5.938   5.694   5.914
 8979SOL     OW27835   0.562   5.674   6.189
 8979SOL    HW127836   0.660   5.659   6.205
 8979SOL    HW227837   0.510   5.601   6.233
 8980SOL     OW27838   3.721   1.380   4.960
 8980SOL    HW127839   3.776   1.377   5.043
 8980SOL    HW227840   3.651   1.450   4.968
 8981SOL     OW27841   4.624   2.492   6.721
 8981SOL    HW127842   4.553   2.431   6.683
 8981SOL    HW227843   4.580   2.562   6.777
 8982SOL     OW27844   6.800   1.082   1.694
 8982SOL    HW127845   6.817   1.009   1.760
 8982SOL    HW227846   6.702   1.089   1.678
 8983SOL     OW27847   0.862   5.641   3.124
 8983SOL    HW127848   0.921   5.653   3.045
 8983SOL    HW227849   0.826   5.730   3.153
 8984SOL     OW27850   5.975   0.449   4.304
 8984SOL    HW127851   6.001   0.496   4.219
 8984SOL    HW227852   6.002   0.353   4.299
 8985SOL     OW27853   5.198   1.935   0.739
 8985SOL    HW127854   5.128   1.868   0.763
 8985SOL    HW227855   5.265   1.942   0.813
 8986SOL     OW27856   6.096   4.431   1.628
 8986SOL    HW127857   6.079   4.500   1.699
 8986SOL    HW227858   6.125   4.346   1.670
 8987SOL     OW27859   2.445   6.902   1.463
 8987SOL    HW127860   2.473   6.893   1.367
 8987SOL    HW227861   2.506   6.847   1.520
 8988SOL     OW27862   2.232   5.083   1.030
 8988SOL    HW127863   2.312   5.037   1.067
 8988SOL    HW227864   2.244   5.182   1.036
 8989SOL     OW27865   5.203   2.190   2.375
 8989SOL    HW127866   5.225   2.101   2.337
 8989SOL    HW227867   5.112   2.218   2.344
 8990SOL     OW27868   3.353   6.714   1.564
 8990SOL    HW127869   3.307   6.722   1.475
 8990SOL    HW227870   3.451   6.729   1.552
 8991SOL     OW27871   1.918   2.052   0.554
 8991SOL    HW127872   1.950   1.964   0.517
 8991SOL    HW227873   1.994   2.097   0.601
 8992SOL     OW27874   0.937   3.326   0.094
 8992SOL    HW127875   0.943   3.251   0.028
 8992SOL    HW227876   0.961   3.412   0.048
 8993SOL     OW27877   5.674   2.439   3.376
 8993SOL    HW127878   5.627   2.450   3.288
 8993SOL    HW227879   5.773   2.441   3.362
 8994SOL     OW27880   1.577   5.312   4.010
 8994SOL    HW127881   1.621   5.338   3.924
 8994SOL    HW227882   1.557   5.394   4.064
 8995SOL     OW27883   1.900   3.404   5.354
 8995SOL    HW127884   1.920   3.495   5.392
 8995SOL    HW227885   1.956   3.390   5.272
 8996SOL     OW27886   0.369   3.887   2.177
 8996SOL    HW127887   0.302   3.880   2.251
 8996SOL    HW227888   0.381   3.983   2.152
 8997SOL     OW27889   4.488   1.341   5.214
 8997SOL    HW127890   4.426   1.389   5.275
 8997SOL    HW227891   4.492   1.244   5.239
 8998SOL     OW27892   1.483   2.749   5.446
 8998SOL    HW127893   1.522   2.679   5.387
 8998SOL    HW227894   1.511   2.733   5.541
 8999SOL     OW27895   5.041   1.575   5.618
 8999SOL    HW127896   4.979   1.522   5.560
 8999SOL    HW227897   5.011   1.670   5.620
 9000SOL     OW27898   3.788   3.963   0.728
 9000SOL    HW127899   3.719   3.976   0.799
 9000SOL    HW227900   3.759   4.010   0.644
 9001SOL     OW27901   2.566   4.859   3.630
 9001SOL    HW127902   2.607   4.894   3.713
 9001SOL    HW227903   2.469   4.841   3.645
 9002SOL     OW27904   5.996   4.747   5.828
 9002SOL    HW127905   5.990   4.788   5.919
 9002SOL    HW227906   5.973   4.650   5.834
 9003SOL     OW27907   6.381   3.136   7.018
 9003SOL    HW127908   6.422   3.047   0.016
 9003SOL    HW227909   6.321   3.163   0.072
 9004SOL     OW27910   5.113   6.390   1.313
 9004SOL    HW127911   5.050   6.467   1.303
 9004SOL    HW227912   5.102   6.350   1.404
 9005SOL     OW27913   4.658   1.804   3.345
 9005SOL    HW127914   4.681   1.783   3.250
 9005SOL    HW227915   4.615   1.894   3.349
 9006SOL     OW27916   2.043   4.921   0.956
 9006SOL    HW127917   1.952   4.942   0.993
 9006SOL    HW227918   2.110   4.986   0.993
 9007SOL     OW27919   3.439   5.464   4.386
 9007SOL    HW127920   3.538   5.475   4.380
 9007SOL    HW227921   3.396   5.554   4.393
 9008SOL     OW27922   0.320   4.262   1.460
 9008SOL    HW127923   0.374   4.319   1.522
 9008SOL    HW227924   0.239   4.228   1.508
 9009SOL     OW27925   2.841   6.348   0.573
 9009SOL    HW127926   2.928   6.340   0.622
 9009SOL    HW227927   2.856   6.339   0.475
 9010SOL     OW27928   0.585   6.796   5.074
 9010SOL    HW127929   0.499   6.794   5.126
 9010SOL    HW227930   0.568   6.834   4.983
 9011SOL     OW27931   3.940   1.769   1.188
 9011SOL    HW127932   3.982   1.679   1.201
 9011SOL    HW227933   3.919   1.782   1.091
 9012SOL     OW27934   0.862   5.091   1.239
 9012SOL    HW127935   0.961   5.089   1.232
 9012SOL    HW227936   0.833   5.033   1.315
 9013SOL     OW27937   6.452   5.996   3.597
 9013SOL    HW127938   6.409   6.082   3.567
 9013SOL    HW227939   6.542   6.016   3.635
 9014SOL     OW27940   1.316   0.947   0.588
 9014SOL    HW127941   1.232   0.954   0.534
 9014SOL    HW227942   1.383   0.890   0.540
 9015SOL     OW27943   0.307   1.299   5.872
 9015SOL    HW127944   0.210   1.309   5.852
 9015SOL    HW227945   0.331   1.202   5.874
 9016SOL     OW27946   6.563   6.057   5.915
 9016SOL    HW127947   6.660   6.083   5.915
 9016SOL    HW227948   6.555   5.957   5.912
 9017SOL     OW27949   5.749   2.198   3.490
 9017SOL    HW127950   5.809   2.150   3.425
 9017SOL    HW227951   5.682   2.253   3.439
 9018SOL     OW27952   3.095   1.740   5.344
 9018SOL    HW127953   3.066   1.648   5.317
 9018SOL    HW227954   3.168   1.772   5.283
 9019SOL     OW27955   2.698   5.752   0.550
 9019SOL    HW127956   2.693   5.815   0.473
 9019SOL    HW227957   2.788   5.708   0.552
 9020SOL     OW27958   1.854   4.443   2.664
 9020SOL    HW127959   1.864   4.540   2.682
 9020SOL    HW227960   1.757   4.419   2.661
 9021SOL     OW27961   0.303   5.429   4.396
 9021SOL    HW127962   0.204   5.414   4.392
 9021SOL    HW227963   0.339   5.445   4.304
 9022SOL     OW27964   2.879   0.371   0.169
 9022SOL    HW127965   2.845   0.364   0.076
 9022SOL    HW227966   2.822   0.316   0.230
 9023SOL     OW27967   3.424   3.531   3.534
 9023SOL    HW127968   3.443   3.600   3.464
 9023SOL    HW227969   3.364   3.571   3.604
 9024SOL     OW27970   1.550   6.356   5.972
 9024SOL    HW127971   1.595   6.267   5.968
 9024SOL    HW227972   1.482   6.356   6.045
 9025SOL     OW27973   6.116   4.893   2.030
 9025SOL    HW127974   6.185   4.820   2.027
 9025SOL    HW227975   6.025   4.853   2.023
 9026SOL     OW27976   3.688   2.953   4.418
 9026SOL    HW127977   3.751   2.906   4.356
 9026SOL    HW227978   3.739   3.018   4.474
 9027SOL     OW27979   2.687   2.424   3.254
 9027SOL    HW127980   2.721   2.383   3.339
 9027SOL    HW227981   2.618   2.493   3.276
 9028SOL     OW27982   2.170   4.701   4.953
 9028SOL    HW127983   2.216   4.612   4.951
 9028SOL    HW227984   2.204   4.757   4.878
 9029SOL     OW27985   4.907   5.551   3.502
 9029SOL    HW127986   4.816   5.571   3.538
 9029SOL    HW227987   4.960   5.635   3.496
 9030SOL     OW27988   2.323   0.763   2.602
 9030SOL    HW127989   2.279   0.840   2.648
 9030SOL    HW227990   2.414   0.749   2.641
 9031SOL     OW27991   2.512   6.368   6.030
 9031SOL    HW127992   2.511   6.431   6.108
 9031SOL    HW227993   2.606   6.334   6.016
 9032SOL     OW27994   2.652   2.467   1.867
 9032SOL    HW127995   2.747   2.473   1.840
 9032SOL    HW227996   2.599   2.537   1.820
 9033SOL     OW27997   1.909   3.241   3.993
 9033SOL    HW127998   1.825   3.291   3.970
 9033SOL    HW227999   1.984   3.306   4.004
 9034SOL     OW28000   2.722   6.617   5.504
 9034SOL    HW128001   2.800   6.646   5.559
 9034SOL    HW228002   2.684   6.533   5.543
 9035SOL     OW28003   0.082   0.724   4.410
 9035SOL    HW128004   0.130   0.722   4.498
 9035SOL    HW228005   0.015   0.651   4.406
 9036SOL     OW28006   1.456   2.282   5.538
 9036SOL    HW128007   1.507   2.229   5.471
 9036SOL    HW228008   1.519   2.332   5.598
 9037SOL     OW28009   2.462   4.187   6.694
 9037SOL    HW128010   2.540   4.149   6.745
 9037SOL    HW228011   2.379   4.176   6.748
 9038SOL     OW28012   5.074   0.176   5.022
 9038SOL    HW128013   4.999   0.240   5.039
 9038SOL    HW228014   5.083   0.114   5.100
 9039SOL     OW28015   1.991   5.020   5.161
 9039SOL    HW128016   1.897   5.028   5.194
 9039SOL    HW228017   2.000   5.064   5.072
 9040SOL     OW28018   2.344   1.697   2.628
 9040SOL    HW128019   2.424   1.693   2.570
 9040SOL    HW228020   2.278   1.762   2.590
 9041SOL     OW28021   1.104   2.195   1.156
 9041SOL    HW128022   1.041   2.229   1.085
 9041SOL    HW228023   1.153   2.116   1.122
 9042SOL     OW28024   3.272   5.214   3.099
 9042SOL    HW128025   3.319   5.178   3.179
 9042SOL    HW228026   3.255   5.140   3.033
 9043SOL     OW28027   1.282   2.659   6.186
 9043SOL    HW128028   1.242   2.613   6.265
 9043SOL    HW228029   1.241   2.623   6.102
 9044SOL     OW28030   5.820   0.154   0.761
 9044SOL    HW128031   5.773   0.108   0.685
 9044SOL    HW228032   5.790   0.249   0.765
 9045SOL     OW28033   3.191   0.275   3.087
 9045SOL    HW128034   3.195   0.219   3.005
 9045SOL    HW228035   3.141   0.226   3.159
 9046SOL     OW28036   3.287   4.264   5.379
 9046SOL    HW128037   3.292   4.248   5.477
 9046SOL    HW228038   3.371   4.308   5.348
 9047SOL     OW28039   1.442   4.370   4.016
 9047SOL    HW128040   1.484   4.285   4.047
 9047SOL    HW228041   1.436   4.370   3.916
 9048SOL     OW28042   1.681   3.945   4.898
 9048SOL    HW128043   1.701   3.940   4.800
 9048SOL    HW228044   1.582   3.944   4.912
 9049SOL     OW28045   5.238   6.221   5.931
 9049SOL    HW128046   5.162   6.286   5.929
 9049SOL    HW228047   5.320   6.265   5.967
 9050SOL     OW28048   0.508   5.250   6.860
 9050SOL    HW128049   0.469   5.160   6.839
 9050SOL    HW228050   0.521   5.259   6.959
 9051SOL     OW28051   4.641   6.277   0.084
 9051SOL    HW128052   4.553   6.292   0.040
 9051SOL    HW228053   4.693   6.208   0.033
 9052SOL     OW28054   2.781   4.798   4.590
 9052SOL    HW128055   2.734   4.886   4.590
 9052SOL    HW228056   2.779   4.759   4.497
 9053SOL     OW28057   2.393   2.751   4.156
 9053SOL    HW128058   2.429   2.685   4.222
 9053SOL    HW228059   2.342   2.822   4.204
 9054SOL     OW28060   1.644   0.697   2.047
 9054SOL    HW128061   1.682   0.629   1.984
 9054SOL    HW228062   1.717   0.735   2.104
 9055SOL     OW28063   1.072   2.598   4.423
 9055SOL    HW128064   1.021   2.536   4.363
 9055SOL    HW228065   1.009   2.665   4.463
 9056SOL     OW28066   5.145   0.202   2.462
 9056SOL    HW128067   5.086   0.250   2.526
 9056SOL    HW228068   5.212   0.148   2.512
 9057SOL     OW28069   6.294   5.527   0.099
 9057SOL    HW128070   6.362   5.496   0.165
 9057SOL    HW228071   6.286   5.460   0.025
 9058SOL     OW28072   2.032   2.816   4.998
 9058SOL    HW128073   2.107   2.783   5.056
 9058SOL    HW228074   2.048   2.912   4.975
 9059SOL     OW28075   6.431   1.420   3.461
 9059SOL    HW128076   6.514   1.409   3.407
 9059SOL    HW228077   6.389   1.508   3.441
 9060SOL     OW28078   6.848   3.694   2.295
 9060SOL    HW128079   6.846   3.597   2.269
 9060SOL    HW228080   6.786   3.746   2.235
 9061SOL     OW28081   4.654   5.888   2.904
 9061SOL    HW128082   4.635   5.974   2.857
 9061SOL    HW228083   4.624   5.894   2.999
 9062SOL     OW28084   1.456   4.106   2.962
 9062SOL    HW128085   1.438   4.201   2.989
 9062SOL    HW228086   1.496   4.057   3.039
 9063SOL     OW28087   3.014   1.368   2.520
 9063SOL    HW128088   3.040   1.457   2.557
 9063SOL    HW228089   3.042   1.362   2.424
 9064SOL     OW28090   0.314   3.808   3.640
 9064SOL    HW128091   0.404   3.852   3.644
 9064SOL    HW228092   0.271   3.829   3.552
 9065SOL     OW28093   3.039   6.176   4.861
 9065SOL    HW128094   3.071   6.219   4.777
 9065SOL    HW228095   3.100   6.200   4.936
 9066SOL     OW28096   5.907   6.039   6.079
 9066SOL    HW128097   5.941   6.022   5.987
 9066SOL    HW228098   5.984   6.049   6.142
 9067SOL     OW28099   6.693   6.947   4.454
 9067SOL    HW128100   6.726   6.983   4.542
 9067SOL    HW228101   6.605   6.987   4.432
 9068SOL     OW28102   5.093   0.317   5.473
 9068SOL    HW128103   5.088   0.350   5.567
 9068SOL    HW228104   5.085   0.395   5.411
 9069SOL     OW28105   4.491   2.332   2.296
 9069SOL    HW128106   4.475   2.364   2.389
 9069SOL    HW228107   4.491   2.232   2.295
 9070SOL     OW28108   1.325   2.218   6.123
 9070SOL    HW128109   1.420   2.241   6.146
 9070SOL    HW228110   1.309   2.121   6.143
 9071SOL     OW28111   4.275   1.368   6.367
 9071SOL    HW128112   4.306   1.399   6.277
 9071SOL    HW228113   4.297   1.437   6.436
 9072SOL     OW28114   5.413   0.186   1.318
 9072SOL    HW128115   5.423   0.270   1.371
 9072SOL    HW228116   5.316   0.164   1.308
 9073SOL     OW28117   4.193   0.131   0.271
 9073SOL    HW128118   4.285   0.136   0.235
 9073SOL    HW228119   4.161   0.036   0.269
 9074SOL     OW28120   1.514   0.642   1.431
 9074SOL    HW128121   1.542   0.621   1.337
 9074SOL    HW228122   1.590   0.685   1.479
 9075SOL     OW28123   6.507   1.039   2.501
 9075SOL    HW128124   6.548   1.048   2.592
 9075SOL    HW228125   6.556   0.968   2.450
 9076SOL     OW28126   4.862   0.552   3.066
 9076SOL    HW128127   4.953   0.512   3.056
 9076SOL    HW228128   4.870   0.650   3.079
 9077SOL     OW28129   5.080   1.349   5.763
 9077SOL    HW128130   5.017   1.285   5.719
 9077SOL    HW228131   5.073   1.439   5.721
 9078SOL     OW28132   4.815   5.225   6.699
 9078SOL    HW128133   4.845   5.264   6.612
 9078SOL    HW228134   4.885   5.239   6.768
 9079SOL     OW28135   1.680   0.464   5.282
 9079SOL    HW128136   1.703   0.531   5.212
 9079SOL    HW228137   1.666   0.510   5.370
 9080SOL     OW28138   6.585   3.933   0.714
 9080SOL    HW128139   6.567   3.861   0.648
 9080SOL    HW228140   6.551   4.020   0.678
 9081SOL     OW28141   3.720   1.786   1.548
 9081SOL    HW128142   3.762   1.844   1.478
 9081SOL    HW228143   3.791   1.734   1.596
 9082SOL     OW28144   2.831   6.740   6.259
 9082SOL    HW128145   2.827   6.666   6.327
 9082SOL    HW228146   2.765   6.810   6.283
 9083SOL     OW28147   5.327   4.275   5.847
 9083SOL    HW128148   5.386   4.328   5.907
 9083SOL    HW228149   5.232   4.296   5.865
 9084SOL     OW28150   0.460   3.107   5.695
 9084SOL    HW128151   0.469   3.194   5.647
 9084SOL    HW228152   0.466   3.122   5.794
 9085SOL     OW28153   3.281   4.938   0.030
 9085SOL    HW128154   3.362   4.977   0.072
 9085SOL    HW228155   3.272   4.972   6.958
 9086SOL     OW28156   6.629   4.316   0.869
 9086SOL    HW128157   6.605   4.265   0.787
 9086SOL    HW228158   6.669   4.254   0.937
 9087SOL     OW28159   5.950   2.878   2.561
 9087SOL    HW128160   5.966   2.940   2.638
 9087SOL    HW228161   5.988   2.919   2.478
 9088SOL     OW28162   6.049   0.557   1.787
 9088SOL    HW128163   6.063   0.653   1.760
 9088SOL    HW228164   6.138   0.511   1.795
 9089SOL     OW28165   4.292   5.289   4.002
 9089SOL    HW128166   4.249   5.380   4.005
 9089SOL    HW228167   4.225   5.219   4.025
 9090SOL     OW28168   5.413   6.298   4.073
 9090SOL    HW128169   5.408   6.252   3.984
 9090SOL    HW228170   5.495   6.354   4.078
 9091SOL     OW28171   3.111   2.501   0.428
 9091SOL    HW128172   3.057   2.581   0.454
 9091SOL    HW228173   3.208   2.519   0.447
 9092SOL     OW28174   1.181   0.192   5.607
 9092SOL    HW128175   1.103   0.212   5.666
 9092SOL    HW228176   1.262   0.174   5.663
 9093SOL     OW28177   1.617   6.044   6.954
 9093SOL    HW128178   1.649   5.952   6.930
 9093SOL    HW228179   1.648   6.067   0.024
 9094SOL     OW28180   0.201   6.439   2.095
 9094SOL    HW128181   0.227   6.490   2.177
 9094SOL    HW228182   0.284   6.407   2.048
 9095SOL     OW28183   5.314   3.276   6.857
 9095SOL    HW128184   5.364   3.193   6.833
 9095SOL    HW228185   5.228   3.251   6.902
 9096SOL     OW28186   5.451   3.153   3.342
 9096SOL    HW128187   5.369   3.140   3.287
 9096SOL    HW228188   5.512   3.217   3.295
 9097SOL     OW28189   1.000   3.603   0.026
 9097SOL    HW128190   0.969   3.696   0.008
 9097SOL    HW228191   1.098   3.604   0.046
 9098SOL     OW28192   3.920   3.699   1.543
 9098SOL    HW128193   3.864   3.759   1.486
 9098SOL    HW228194   3.929   3.609   1.499
 9099SOL     OW28195   3.210   3.680   0.915
 9099SOL    HW128196   3.276   3.748   0.946
 9099SOL    HW228197   3.118   3.707   0.944
 9100SOL     OW28198   0.925   3.036   1.804
 9100SOL    HW128199   0.924   3.001   1.710
 9100SOL    HW228200   0.922   3.136   1.802
 9101SOL     OW28201   2.191   3.133   2.814
 9101SOL    HW128202   2.179   3.155   2.911
 9101SOL    HW228203   2.251   3.053   2.805
 9102SOL     OW28204   3.685   5.823   2.423
 9102SOL    HW128205   3.617   5.799   2.493
 9102SOL    HW228206   3.681   5.922   2.406
 9103SOL     OW28207   0.212   3.568   0.507
 9103SOL    HW128208   0.136   3.592   0.567
 9103SOL    HW228209   0.213   3.469   0.493
 9104SOL     OW28210   3.924   6.229   1.597
 9104SOL    HW128211   3.855   6.235   1.669
 9104SOL    HW228212   3.919   6.311   1.539
 9105SOL     OW28213   1.758   0.676   6.925
 9105SOL    HW128214   1.693   0.650   6.997
 9105SOL    HW228215   1.714   0.738   6.861
 9106SOL     OW28216   6.482   3.961   0.298
 9106SOL    HW128217   6.453   3.866   0.309
 9106SOL    HW228218   6.436   4.018   0.367
 9107SOL     OW28219   4.588   6.942   6.535
 9107SOL    HW128220   4.499   6.928   6.492
 9107SOL    HW228221   4.656   6.961   6.464
 9108SOL     OW28222   4.918   4.565   5.206
 9108SOL    HW128223   4.901   4.629   5.130
 9108SOL    HW228224   4.996   4.507   5.185
 9109SOL     OW28225   1.958   2.355   2.972
 9109SOL    HW128226   2.050   2.394   2.968
 9109SOL    HW228227   1.909   2.377   2.887
 9110SOL     OW28228   2.467   4.567   3.995
 9110SOL    HW128229   2.433   4.504   3.926
 9110SOL    HW228230   2.498   4.516   4.075
 9111SOL     OW28231   4.164   3.465   0.588
 9111SOL    HW128232   4.206   3.547   0.549
 9111SOL    HW228233   4.098   3.427   0.523
 9112SOL     OW28234   0.641   3.966   3.738
 9112SOL    HW128235   0.599   3.893   3.792
 9112SOL    HW228236   0.690   4.029   3.799
 9113SOL     OW28237   4.394   0.690   0.322
 9113SOL    HW128238   4.468   0.751   0.348
 9113SOL    HW228239   4.431   0.601   0.294
 9114SOL     OW28240   1.823   5.048   2.474
 9114SOL    HW128241   1.753   5.065   2.543
 9114SOL    HW228242   1.874   4.965   2.498
 9115SOL     OW28243   0.818   5.709   5.185
 9115SOL    HW128244   0.740   5.652   5.160
 9115SOL    HW228245   0.903   5.658   5.169
 9116SOL     OW28246   6.865   1.646   0.116
 9116SOL    HW128247   6.844   1.701   0.035
 9116SOL    HW228248   6.787   1.648   0.178
 9117SOL     OW28249   6.220   2.985   6.504
 9117SOL    HW128250   6.198   2.889   6.489
 9117SOL    HW228251   6.260   2.996   6.595
 9118SOL     OW28252   5.803   6.236   0.558
 9118SOL    HW128253   5.730   6.303   0.547
 9118SOL    HW228254   5.887   6.282   0.587
 9119SOL     OW28255   5.540   1.312   2.657
 9119SOL    HW128256   5.628   1.269   2.678
 9119SOL    HW228257   5.553   1.411   2.648
 9120SOL     OW28258   5.940   2.804   5.508
 9120SOL    HW128259   5.886   2.758   5.438
 9120SOL    HW228260   5.941   2.903   5.490
 9121SOL     OW28261   0.687   3.310   6.008
 9121SOL    HW128262   0.602   3.348   5.973
 9121SOL    HW228263   0.709   3.226   5.958
 9122SOL     OW28264   1.901   2.596   1.636
 9122SOL    HW128265   1.824   2.534   1.650
 9122SOL    HW228266   1.913   2.653   1.717
 9123SOL     OW28267   3.647   0.182   4.628
 9123SOL    HW128268   3.550   0.166   4.609
 9123SOL    HW228269   3.681   0.257   4.571
 9124SOL     OW28270   5.697   6.610   5.478
 9124SOL    HW128271   5.739   6.537   5.424
 9124SOL    HW228272   5.767   6.676   5.506
 9125SOL     OW28273   4.473   4.536   3.948
 9125SOL    HW128274   4.521   4.529   3.861
 9125SOL    HW228275   4.522   4.483   4.017
 9126SOL     OW28276   5.848   1.104   2.350
 9126SOL    HW128277   5.821   1.123   2.444
 9126SOL    HW228278   5.772   1.124   2.289
 9127SOL     OW28279   6.425   0.241   6.090
 9127SOL    HW128280   6.345   0.276   6.138
 9127SOL    HW228281   6.418   0.142   6.081
 9128SOL     OW28282   3.714   2.246   5.319
 9128SOL    HW128283   3.647   2.214   5.252
 9128SOL    HW228284   3.668   2.266   5.406
 9129SOL     OW28285   2.152   2.821   1.170
 9129SOL    HW128286   2.133   2.919   1.166
 9129SOL    HW228287   2.145   2.781   1.079
 9130SOL     OW28288   0.021   3.474   0.094
 9130SOL    HW128289   0.102   3.517   0.134
 9130SOL    HW228290   0.033   3.374   0.094
 9131SOL     OW28291   6.763   4.371   5.196
 9131SOL    HW128292   6.754   4.427   5.279
 9131SOL    HW228293   6.723   4.281   5.213
 9132SOL     OW28294   0.547   4.480   4.301
 9132SOL    HW128295   0.459   4.512   4.266
 9132SOL    HW228296   0.594   4.556   4.346
 9133SOL     OW28297   3.092   5.474   0.828
 9133SOL    HW128298   3.110   5.431   0.916
 9133SOL    HW228299   3.162   5.447   0.762
 9134SOL     OW28300   3.478   6.708   0.963
 9134SOL    HW128301   3.508   6.750   0.877
 9134SOL    HW228302   3.441   6.779   1.023
 9135SOL     OW28303   6.797   6.416   1.945
 9135SOL    HW128304   6.877   6.356   1.942
 9135SOL    HW228305   6.786   6.462   1.857
 9136SOL     OW28306   4.713   5.560   5.297
 9136SOL    HW128307   4.709   5.515   5.208
 9136SOL    HW228308   4.757   5.650   5.288
 9137SOL     OW28309   5.298   1.594   1.101
 9137SOL    HW128310   5.284   1.612   1.199
 9137SOL    HW228311   5.389   1.626   1.075
 9138SOL     OW28312   6.335   4.724   6.150
 9138SOL    HW128313   6.352   4.768   6.062
 9138SOL    HW228314   6.298   4.791   6.214
 9139SOL     OW28315   2.280   1.351   4.354
 9139SOL    HW128316   2.249   1.263   4.389
 9139SOL    HW228317   2.380   1.355   4.357
 9140SOL     OW28318   6.451   3.410   2.631
 9140SOL    HW128319   6.502   3.483   2.586
 9140SOL    HW228320   6.384   3.373   2.567
 9141SOL     OW28321   5.524   0.498   6.723
 9141SOL    HW128322   5.501   0.563   6.651
 9141SOL    HW228323   5.465   0.418   6.716
 9142SOL     OW28324   0.585   2.560   7.007
 9142SOL    HW128325   0.533   2.507   6.941
 9142SOL    HW228326   0.564   2.657   6.997
 9143SOL     OW28327   5.118   3.725   0.644
 9143SOL    HW128328   5.075   3.669   0.714
 9143SOL    HW228329   5.095   3.690   0.554
 9144SOL     OW28330   2.307   5.216   5.862
 9144SOL    HW128331   2.234   5.154   5.835
 9144SOL    HW228332   2.355   5.249   5.781
 9145SOL     OW28333   6.658   5.630   0.511
 9145SOL    HW128334   6.645   5.692   0.589
 9145SOL    HW228335   6.644   5.681   0.426
 9146SOL     OW28336   4.869   2.109   2.060
 9146SOL    HW128337   4.879   2.062   2.148
 9146SOL    HW228338   4.959   2.117   2.017
 9147SOL     OW28339   5.730   0.138   4.351
 9147SOL    HW128340   5.820   0.161   4.387
 9147SOL    HW228341   5.720   0.177   4.260
 9148SOL     OW28342   5.039   6.843   0.727
 9148SOL    HW128343   5.129   6.887   0.731
 9148SOL    HW228344   5.036   6.782   0.649
 9149SOL     OW28345   5.354   3.201   3.939
 9149SOL    HW128346   5.275   3.259   3.962
 9149SOL    HW228347   5.429   3.259   3.906
 9150SOL     OW28348   3.515   5.308   3.697
 9150SOL    HW128349   3.562   5.373   3.757
 9150SOL    HW228350   3.438   5.354   3.654
 9151SOL     OW28351   1.596   4.576   3.360
 9151SOL    HW128352   1.610   4.518   3.280
 9151SOL    HW228353   1.545   4.525   3.429
 9152SOL     OW28354   2.813   5.145   4.914
 9152SOL    HW128355   2.868   5.074   4.870
 9152SOL    HW228356   2.748   5.182   4.849
 9153SOL     OW28357   1.409   3.171   1.182
 9153SOL    HW128358   1.448   3.139   1.096
 9153SOL    HW228359   1.448   3.260   1.205
 9154SOL     OW28360   3.714   5.543   0.007
 9154SOL    HW128361   3.782   5.503   6.967
 9154SOL    HW228362   3.722   5.501   0.097
 9155SOL     OW28363   1.476   3.078   0.924
 9155SOL    HW128364   1.533   3.131   0.861
 9155SOL    HW228365   1.492   2.980   0.909
 9156SOL     OW28366   2.228   2.659   0.256
 9156SOL    HW128367   2.163   2.690   0.187
 9156SOL    HW228368   2.274   2.738   0.296
 9157SOL     OW28369   5.904   4.700   6.383
 9157SOL    HW128370   5.823   4.665   6.430
 9157SOL    HW228371   5.912   4.657   6.293
 9158SOL     OW28372   5.841   3.446   5.061
 9158SOL    HW128373   5.800   3.411   5.145
 9158SOL    HW228374   5.786   3.417   4.982
 9159SOL     OW28375   1.065   0.013   2.963
 9159SOL    HW128376   1.052   0.072   3.042
 9159SOL    HW228377   0.980   0.011   2.909
 9160SOL     OW28378   6.380   0.135   5.287
 9160SOL    HW128379   6.437   0.084   5.222
 9160SOL    HW228380   6.325   0.071   5.340
 9161SOL     OW28381   4.826   3.983   4.519
 9161SOL    HW128382   4.773   4.057   4.560
 9161SOL    HW228383   4.835   3.999   4.421
 9162SOL     OW28384   4.677   1.381   3.849
 9162SOL    HW128385   4.727   1.462   3.881
 9162SOL    HW228386   4.733   1.299   3.863
 9163SOL     OW28387   2.159   3.600   4.491
 9163SOL    HW128388   2.247   3.616   4.536
 9163SOL    HW228389   2.152   3.504   4.465
 9164SOL     OW28390   2.429   0.397   6.877
 9164SOL    HW128391   2.511   0.398   6.820
 9164SOL    HW228392   2.440   0.462   6.952
 9165SOL     OW28393   5.742   1.772   5.429
 9165SOL    HW128394   5.757   1.859   5.477
 9165SOL    HW228395   5.673   1.719   5.478
 9166SOL     OW28396   4.365   6.286   0.826
 9166SOL    HW128397   4.441   6.223   0.841
 9166SOL    HW228398   4.391   6.378   0.858
 9167SOL     OW28399   1.817   2.583   6.197
 9167SOL    HW128400   1.726   2.582   6.239
 9167SOL    HW228401   1.883   2.541   6.259
 9168SOL     OW28402   0.669   0.530   6.389
 9168SOL    HW128403   0.714   0.538   6.300
 9168SOL    HW228404   0.679   0.616   6.439
 9169SOL     OW28405   6.142   1.089   5.419
 9169SOL    HW128406   6.070   1.105   5.486
 9169SOL    HW228407   6.180   1.177   5.391
 9170SOL     OW28408   1.289   4.805   0.597
 9170SOL    HW128409   1.356   4.824   0.526
 9170SOL    HW228410   1.299   4.711   0.628
 9171SOL     OW28411   3.478   4.908   1.007
 9171SOL    HW128412   3.572   4.941   1.014
 9171SOL    HW228413   3.442   4.930   0.916
 9172SOL     OW28414   3.186   0.319   4.939
 9172SOL    HW128415   3.178   0.413   4.904
 9172SOL    HW228416   3.101   0.270   4.922
 9173SOL     OW28417   6.195   3.971   4.824
 9173SOL    HW128418   6.266   4.002   4.762
 9173SOL    HW228419   6.120   4.037   4.826
 9174SOL     OW28420   5.793   4.666   1.091
 9174SOL    HW128421   5.710   4.719   1.106
 9174SOL    HW228422   5.871   4.728   1.081
 9175SOL     OW28423   0.871   0.044   3.787
 9175SOL    HW128424   0.779   0.018   3.817
 9175SOL    HW228425   0.923   0.079   3.865
 9176SOL     OW28426   3.261   1.290   4.855
 9176SOL    HW128427   3.204   1.225   4.806
 9176SOL    HW228428   3.329   1.242   4.910
 9177SOL     OW28429   1.175   4.596   5.102
 9177SOL    HW128430   1.238   4.525   5.135
 9177SOL    HW228431   1.226   4.662   5.046
 9178SOL     OW28432   2.165   5.677   0.096
 9178SOL    HW128433   2.162   5.585   0.134
 9178SOL    HW228434   2.202   5.674   0.003
 9179SOL     OW28435   3.240   5.350   4.254
 9179SOL    HW128436   3.234   5.401   4.168
 9179SOL    HW228437   3.316   5.385   4.308
 9180SOL     OW28438   5.386   1.931   3.164
 9180SOL    HW128439   5.478   1.969   3.168
 9180SOL    HW228440   5.339   1.967   3.083
 9181SOL     OW28441   3.934   2.205   3.946
 9181SOL    HW128442   4.026   2.229   3.975
 9181SOL    HW228443   3.898   2.132   4.005
 9182SOL     OW28444   2.017   6.452   2.135
 9182SOL    HW128445   1.978   6.380   2.193
 9182SOL    HW228446   2.085   6.503   2.188
 9183SOL     OW28447   5.383   6.429   0.324
 9183SOL    HW128448   5.324   6.510   0.323
 9183SOL    HW228449   5.331   6.350   0.355
 9184SOL     OW28450   5.462   1.802   0.677
 9184SOL    HW128451   5.425   1.841   0.761
 9184SOL    HW228452   5.393   1.804   0.605
 9185SOL     OW28453   3.861   6.863   4.750
 9185SOL    HW128454   3.778   6.847   4.805
 9185SOL    HW228455   3.912   6.777   4.742
 9186SOL     OW28456   5.447   0.051   4.041
 9186SOL    HW128457   5.516   0.041   4.112
 9186SOL    HW228458   5.406   0.142   4.046
 9187SOL     OW28459   2.752   1.593   1.199
 9187SOL    HW128460   2.682   1.631   1.139
 9187SOL    HW228461   2.718   1.508   1.240
 9188SOL     OW28462   1.725   6.926   1.766
 9188SOL    HW128463   1.721   7.007   1.824
 9188SOL    HW228464   1.638   6.877   1.774
 9189SOL     OW28465   4.592   6.220   1.403
 9189SOL    HW128466   4.650   6.139   1.402
 9189SOL    HW228467   4.627   6.288   1.339
 9190SOL     OW28468   2.008   3.967   0.049
 9190SOL    HW128469   2.032   3.872   0.032
 9190SOL    HW228470   1.997   4.015   6.984
 9191SOL     OW28471   6.050   1.397   5.798
 9191SOL    HW128472   5.966   1.376   5.848
 9191SOL    HW228473   6.029   1.455   5.720
 9192SOL     OW28474   0.727   3.814   6.052
 9192SOL    HW128475   0.703   3.831   5.957
 9192SOL    HW228476   0.813   3.860   6.074
 9193SOL     OW28477   4.739   3.888   0.680
 9193SOL    HW128478   4.650   3.888   0.634
 9193SOL    HW228479   4.793   3.966   0.649
 9194SOL     OW28480   3.042   0.156   3.305
 9194SOL    HW128481   3.020   0.062   3.329
 9194SOL    HW228482   2.988   0.219   3.361
 9195SOL     OW28483   2.070   1.877   3.973
 9195SOL    HW128484   2.076   1.778   3.987
 9195SOL    HW228485   2.134   1.923   4.035
 9196SOL     OW28486   4.192   0.056   3.924
 9196SOL    HW128487   4.141   0.104   3.996
 9196SOL    HW228488   4.290   0.074   3.935
 9197SOL     OW28489   1.786   4.699   1.957
 9197SOL    HW128490   1.843   4.725   1.878
 9197SOL    HW228491   1.703   4.755   1.957
 9198SOL     OW28492   6.722   4.979   6.508
 9198SOL    HW128493   6.650   4.975   6.439
 9198SOL    HW228494   6.802   5.025   6.471
 9199SOL     OW28495   1.364   3.729   6.189
 9199SOL    HW128496   1.358   3.797   6.115
 9199SOL    HW228497   1.385   3.775   6.275
 9200SOL     OW28498   2.612   6.682   0.936
 9200SOL    HW128499   2.650   6.649   0.850
 9200SOL    HW228500   2.576   6.605   0.989
 9201SOL     OW28501   0.405   2.874   0.521
 9201SOL    HW128502   0.474   2.804   0.537
 9201SOL    HW228503   0.377   2.915   0.608
 9202SOL     OW28504   1.435   6.540   2.703
 9202SOL    HW128505   1.501   6.611   2.677
 9202SOL    HW228506   1.364   6.580   2.761
 9203SOL     OW28507   0.835   4.850   0.081
 9203SOL    HW128508   0.848   4.776   0.148
 9203SOL    HW228509   0.923   4.878   0.044
 9204SOL     OW28510   4.564   2.992   6.527
 9204SOL    HW128511   4.482   3.034   6.566
 9204SOL    HW228512   4.636   3.061   6.520
 9205SOL     OW28513   6.925   4.591   2.869
 9205SOL    HW128514   6.834   4.587   2.912
 9205SOL    HW228515   6.946   4.502   2.829
 9206SOL     OW28516   4.449   5.450   1.923
 9206SOL    HW128517   4.387   5.374   1.905
 9206SOL    HW228518   4.406   5.513   1.988
 9207SOL     OW28519   4.803   5.028   6.208
 9207SOL    HW128520   4.833   5.034   6.303
 9207SOL    HW228521   4.712   5.070   6.199
 9208SOL     OW28522   5.727   4.440   3.896
 9208SOL    HW128523   5.799   4.430   3.827
 9208SOL    HW228524   5.731   4.363   3.960
 9209SOL     OW28525   3.174   0.502   6.532
 9209SOL    HW128526   3.184   0.545   6.442
 9209SOL    HW228527   3.131   0.567   6.595
 9210SOL     OW28528   0.365   1.131   3.132
 9210SOL    HW128529   0.348   1.202   3.064
 9210SOL    HW228530   0.348   1.041   3.092
 9211SOL     OW28531   0.290   2.596   4.915
 9211SOL    HW128532   0.353   2.535   4.962
 9211SOL    HW228533   0.337   2.642   4.840
 9212SOL     OW28534   5.065   5.229   4.389
 9212SOL    HW128535   5.027   5.199   4.301
 9212SOL    HW228536   5.022   5.178   4.463
 9213SOL     OW28537   5.077   3.603   5.781
 9213SOL    HW128538   5.150   3.536   5.767
 9213SOL    HW228539   5.118   3.694   5.793
 9214SOL     OW28540   0.156   4.134   6.575
 9214SOL    HW128541   0.215   4.071   6.526
 9214SOL    HW228542   0.191   4.227   6.566
 9215SOL     OW28543   0.990   2.347   0.933
 9215SOL    HW128544   0.961   2.343   0.837
 9215SOL    HW228545   1.090   2.353   0.938
 9216SOL     OW28546   2.641   0.139   2.485
 9216SOL    HW128547   2.650   0.218   2.424
 9216SOL    HW228548   2.548   0.101   2.477
 9217SOL     OW28549   0.593   1.648   0.030
 9217SOL    HW128550   0.561   1.554   0.035
 9217SOL    HW228551   0.519   1.710   0.057
 9218SOL     OW28552   2.644   6.819   0.414
 9218SOL    HW128553   2.618   6.742   0.355
 9218SOL    HW228554   2.578   6.893   0.404
 9219SOL     OW28555   6.976   2.521   1.339
 9219SOL    HW128556   6.939   2.467   1.415
 9219SOL    HW228557   6.948   2.616   1.349
 9220SOL     OW28558   1.722   6.666   0.781
 9220SOL    HW128559   1.799   6.694   0.838
 9220SOL    HW228560   1.659   6.743   0.770
 9221SOL     OW28561   3.009   0.968   3.771
 9221SOL    HW128562   2.936   0.901   3.777
 9221SOL    HW228563   3.097   0.921   3.782
 9222SOL     OW28564   2.024   0.419   5.997
 9222SOL    HW128565   2.123   0.420   6.015
 9222SOL    HW228566   1.992   0.512   5.981
 9223SOL     OW28567   1.418   1.112   4.088
 9223SOL    HW128568   1.416   1.015   4.111
 9223SOL    HW228569   1.502   1.153   4.124
 9224SOL     OW28570   2.140   5.192   4.949
 9224SOL    HW128571   2.157   5.252   5.027
 9224SOL    HW228572   2.074   5.234   4.888
 9225SOL     OW28573   3.447   6.272   6.199
 9225SOL    HW128574   3.386   6.242   6.126
 9225SOL    HW228575   3.417   6.233   6.286
 9226SOL     OW28576   5.741   0.230   1.471
 9226SOL    HW128577   5.649   0.225   1.432
 9226SOL    HW228578   5.753   0.318   1.517
 9227SOL     OW28579   0.928   4.800   1.146
 9227SOL    HW128580   1.011   4.849   1.173
 9227SOL    HW228581   0.852   4.829   1.205
 9228SOL     OW28582   1.539   1.116   5.937
 9228SOL    HW128583   1.568   1.025   5.968
 9228SOL    HW228584   1.453   1.108   5.885
 9229SOL     OW28585   1.085   5.130   4.524
 9229SOL    HW128586   1.156   5.168   4.584
 9229SOL    HW228587   1.092   5.174   4.434
 9230SOL     OW28588   5.083   1.490   3.226
 9230SOL    HW128589   5.028   1.554   3.172
 9230SOL    HW228590   5.172   1.476   3.181
 9231SOL     OW28591   0.820   4.598   4.605
 9231SOL    HW128592   0.889   4.622   4.537
 9231SOL    HW228593   0.855   4.526   4.665
 9232SOL     OW28594   3.566   5.294   6.736
 9232SOL    HW128595   3.655   5.248   6.736
 9232SOL    HW228596   3.580   5.393   6.734
 9233SOL     OW28597   5.386   5.239   1.716
 9233SOL    HW128598   5.475   5.237   1.670
 9233SOL    HW228599   5.391   5.185   1.800
 9234SOL     OW28600   3.508   5.219   5.530
 9234SOL    HW128601   3.506   5.226   5.430
 9234SOL    HW228602   3.462   5.135   5.558
 9235SOL     OW28603   1.301   2.923   3.595
 9235SOL    HW128604   1.273   2.922   3.691
 9235SOL    HW228605   1.324   3.016   3.567
 9236SOL     OW28606   2.900   4.106   5.433
 9236SOL    HW128607   2.973   4.059   5.483
 9236SOL    HW228608   2.914   4.205   5.439
 9237SOL     OW28609   2.005   5.657   4.903
 9237SOL    HW128610   1.997   5.639   5.001
 9237SOL    HW228611   2.095   5.627   4.871
 9238SOL     OW28612   3.904   1.488   6.532
 9238SOL    HW128613   3.969   1.467   6.605
 9238SOL    HW228614   3.915   1.422   6.458
 9239SOL     OW28615   0.020   4.081   0.530
 9239SOL    HW128616   0.109   4.043   0.558
 9239SOL    HW228617   0.035   4.162   0.474
 9240SOL     OW28618   4.967   1.805   0.877
 9240SOL    HW128619   4.874   1.770   0.864
 9240SOL    HW228620   5.022   1.737   0.925
 9241SOL     OW28621   0.315   5.103   5.849
 9241SOL    HW128622   0.245   5.064   5.910
 9241SOL    HW228623   0.360   5.179   5.895
 9242SOL     OW28624   0.065   5.565   0.328
 9242SOL    HW128625   0.138   5.517   0.377
 9242SOL    HW228626   0.005   5.609   0.395
 9243SOL     OW28627   5.941   0.006   2.489
 9243SOL    HW128628   5.889   0.064   2.427
 9243SOL    HW228629   6.039   0.017   2.470
 9244SOL     OW28630   4.902   4.594   6.484
 9244SOL    HW128631   4.886   4.675   6.539
 9244SOL    HW228632   4.982   4.609   6.425
 9245SOL     OW28633   2.360   5.106   3.471
 9245SOL    HW128634   2.437   5.069   3.419
 9245SOL    HW228635   2.338   5.044   3.547
 9246SOL     OW28636   0.265   4.423   3.012
 9246SOL    HW128637   0.299   4.426   3.106
 9246SOL    HW228638   0.219   4.509   2.990
 9247SOL     OW28639   0.713   0.088   3.089
 9247SOL    HW128640   0.728   0.157   3.019
 9247SOL    HW228641   0.736   7.019   3.052
 9248SOL     OW28642   1.581   2.711   5.695
 9248SOL    HW128643   1.508   2.751   5.751
 9248SOL    HW228644   1.658   2.688   5.754
 9249SOL     OW28645   4.993   3.561   6.816
 9249SOL    HW128646   4.942   3.477   6.795
 9249SOL    HW228647   4.940   3.640   6.785
 9250SOL     OW28648   5.524   3.513   4.930
 9250SOL    HW128649   5.479   3.508   4.841
 9250SOL    HW228650   5.504   3.601   4.973
 9251SOL     OW28651   3.815   2.117   3.068
 9251SOL    HW128652   3.873   2.094   2.990
 9251SOL    HW228653   3.719   2.110   3.041
 9252SOL     OW28654   5.673   0.253   4.100
 9252SOL    HW128655   5.729   0.206   4.031
 9252SOL    HW228656   5.625   0.329   4.057
 9253SOL     OW28657   5.862   6.432   5.771
 9253SOL    HW128658   5.832   6.456   5.863
 9253SOL    HW228659   5.796   6.371   5.728
 9254SOL     OW28660   6.634   4.597   2.746
 9254SOL    HW128661   6.676   4.528   2.688
 9254SOL    HW228662   6.587   4.665   2.690
 9255SOL     OW28663   4.949   3.946   0.477
 9255SOL    HW128664   4.921   3.850   0.469
 9255SOL    HW228665   5.036   3.951   0.527
 9256SOL     OW28666   3.502   5.596   2.920
 9256SOL    HW128667   3.439   5.631   2.989
 9256SOL    HW228668   3.450   5.549   2.849
 9257SOL     OW28669   0.513   3.528   3.108
 9257SOL    HW128670   0.506   3.461   3.183
 9257SOL    HW228671   0.425   3.572   3.095
 9258SOL     OW28672   3.503   2.865   3.255
 9258SOL    HW128673   3.436   2.797   3.226
 9258SOL    HW228674   3.471   2.909   3.339
 9259SOL     OW28675   1.025   1.712   0.540
 9259SOL    HW128676   1.019   1.623   0.585
 9259SOL    HW228677   1.117   1.749   0.551
 9260SOL     OW28678   4.877   1.714   5.346
 9260SOL    HW128679   4.880   1.616   5.364
 9260SOL    HW228680   4.906   1.764   5.428
 9261SOL     OW28681   4.983   0.710   6.486
 9261SOL    HW128682   4.986   0.773   6.408
 9261SOL    HW228683   4.961   0.761   6.569
 9262SOL     OW28684   6.536   3.036   5.297
 9262SOL    HW128685   6.601   3.092   5.346
 9262SOL    HW228686   6.447   3.038   5.344
 9263SOL     OW28687   5.639   4.796   1.564
 9263SOL    HW128688   5.709   4.867   1.573
 9263SOL    HW228689   5.681   4.713   1.528
 9264SOL     OW28690   5.458   3.970   0.496
 9264SOL    HW128691   5.360   3.972   0.516
 9264SOL    HW228692   5.505   4.040   0.550
 9265SOL     OW28693   2.487   1.677   6.735
 9265SOL    HW128694   2.543   1.638   6.809
 9265SOL    HW228695   2.542   1.680   6.651
 9266SOL     OW28696   2.218   6.661   2.216
 9266SOL    HW128697   2.305   6.692   2.176
 9266SOL    HW228698   2.182   6.733   2.275
 9267SOL     OW28699   0.000   4.277   5.849
 9267SOL    HW128700   0.094   4.282   5.883
 9267SOL    HW228701   7.019   4.217   5.769
 9268SOL     OW28702   1.968   5.138   1.118
 9268SOL    HW128703   2.067   5.128   1.109
 9268SOL    HW228704   1.940   5.223   1.074
 9269SOL     OW28705   3.263   2.197   6.101
 9269SOL    HW128706   3.275   2.148   6.015
 9269SOL    HW228707   3.166   2.201   6.125
 9270SOL     OW28708   5.118   0.009   5.985
 9270SOL    HW128709   5.144   0.104   5.996
 9270SOL    HW228710   5.162   6.974   6.055
 9271SOL     OW28711   1.561   5.406   6.932
 9271SOL    HW128712   1.624   5.372   7.002
 9271SOL    HW228713   1.600   5.486   6.888
 9272SOL     OW28714   2.100   5.448   5.803
 9272SOL    HW128715   2.134   5.358   5.829
 9272SOL    HW228716   2.018   5.471   5.856
 9273SOL     OW28717   5.465   5.962   3.989
 9273SOL    HW128718   5.410   5.965   4.072
 9273SOL    HW228719   5.511   5.873   3.982
 9274SOL     OW28720   6.429   2.863   0.028
 9274SOL    HW128721   6.379   2.822   0.105
 9274SOL    HW228722   6.426   2.802   6.971
 9275SOL     OW28723   0.008   2.258   6.835
 9275SOL    HW128724   0.103   2.285   6.828
 9275SOL    HW228725   0.000   2.174   6.889
 9276SOL     OW28726   3.107   4.907   3.705
 9276SOL    HW128727   3.066   4.897   3.796
 9276SOL    HW228728   3.206   4.892   3.711
 9277SOL     OW28729   4.976   3.400   0.664
 9277SOL    HW128730   4.919   3.480   0.679
 9277SOL    HW228731   5.026   3.410   0.578
 9278SOL     OW28732   1.145   0.902   4.690
 9278SOL    HW128733   1.067   0.914   4.751
 9278SOL    HW228734   1.184   0.991   4.669
 9279SOL     OW28735   4.073   0.689   1.458
 9279SOL    HW128736   4.091   0.728   1.548
 9279SOL    HW228737   4.076   0.762   1.389
 9280SOL     OW28738   1.494   0.735   3.123
 9280SOL    HW128739   1.516   0.638   3.136
 9280SOL    HW228740   1.425   0.744   3.052
 9281SOL     OW28741   3.321   4.262   1.309
 9281SOL    HW128742   3.288   4.222   1.395
 9281SOL    HW228743   3.351   4.189   1.249
 9282SOL     OW28744   4.708   2.084   5.066
 9282SOL    HW128745   4.639   2.012   5.061
 9282SOL    HW228746   4.709   2.136   4.980
 9283SOL     OW28747   5.263   0.482   3.652
 9283SOL    HW128748   5.231   0.406   3.708
 9283SOL    HW228749   5.360   0.468   3.629
 9284SOL     OW28750   3.300   4.734   5.959
 9284SOL    HW128751   3.356   4.694   5.887
 9284SOL    HW228752   3.297   4.671   6.037
 9285SOL     OW28753   4.872   3.070   0.915
 9285SOL    HW128754   4.832   3.004   0.980
 9285SOL    HW228755   4.970   3.052   0.906
 9286SOL     OW28756   5.499   0.454   6.016
 9286SOL    HW128757   5.439   0.463   5.937
 9286SOL    HW228758   5.510   0.357   6.038
 9287SOL     OW28759   3.022   5.012   0.184
 9287SOL    HW128760   3.064   5.082   0.242
 9287SOL    HW228761   3.089   4.977   0.119
 9288SOL     OW28762   3.427   1.173   5.052
 9288SOL    HW128763   3.503   1.157   4.989
 9288SOL    HW228764   3.459   1.159   5.146
 9289SOL     OW28765   3.377   1.962   2.707
 9289SOL    HW128766   3.343   2.002   2.792
 9289SOL    HW228767   3.368   1.862   2.710
 9290SOL     OW28768   4.942   2.011   3.688
 9290SOL    HW128769   4.876   2.005   3.763
 9290SOL    HW228770   4.937   1.928   3.632
 9291SOL     OW28771   2.535   0.062   5.230
 9291SOL    HW128772   2.609   0.117   5.190
 9291SOL    HW228773   2.549   6.987   5.205
 9292SOL     OW28774   0.604   3.030   6.637
 9292SOL    HW128775   0.654   3.082   6.568
 9292SOL    HW228776   0.522   2.990   6.596
 9293SOL     OW28777   6.275   4.090   0.526
 9293SOL    HW128778   6.192   4.104   0.471
 9293SOL    HW228779   6.295   3.992   0.531
 9294SOL     OW28780   3.841   6.675   5.391
 9294SOL    HW128781   3.750   6.706   5.417
 9294SOL    HW228782   3.875   6.729   5.314
 9295SOL     OW28783   5.375   2.453   4.285
 9295SOL    HW128784   5.284   2.413   4.297
 9295SOL    HW228785   5.436   2.416   4.354
 9296SOL     OW28786   0.492   6.628   6.476
 9296SOL    HW128787   0.582   6.670   6.461
 9296SOL    HW228788   0.420   6.695   6.458
 9297SOL     OW28789   6.643   0.830   0.399
 9297SOL    HW128790   6.554   0.787   0.414
 9297SOL    HW228791   6.645   0.871   0.308
 9298SOL     OW28792   1.417   0.385   5.221
 9298SOL    HW128793   1.372   0.377   5.310
 9298SOL    HW228794   1.507   0.428   5.233
 9299SOL     OW28795   0.961   2.779   4.929
 9299SOL    HW128796   0.931   2.684   4.937
 9299SOL    HW228797   0.901   2.838   4.983
 9300SOL     OW28798   6.905   4.698   5.074
 9300SOL    HW128799   7.003   4.679   5.080
 9300SOL    HW228800   6.872   4.676   4.983
 9301SOL     OW28801   4.777   4.245   3.718
 9301SOL    HW128802   4.792   4.188   3.799
 9301SOL    HW228803   4.754   4.186   3.640
 9302SOL     OW28804   2.131   3.350   4.361
 9302SOL    HW128805   2.169   3.261   4.387
 9302SOL    HW228806   2.032   3.350   4.378
 9303SOL     OW28807   3.938   6.239   0.765
 9303SOL    HW128808   3.886   6.181   0.703
 9303SOL    HW228809   3.915   6.335   0.746
 9304SOL     OW28810   4.832   4.246   0.852
 9304SOL    HW128811   4.918   4.223   0.898
 9304SOL    HW228812   4.770   4.289   0.918
 9305SOL     OW28813   3.676   1.577   2.087
 9305SOL    HW128814   3.638   1.666   2.112
 9305SOL    HW228815   3.756   1.558   2.143
 9306SOL     OW28816   0.414   4.359   5.154
 9306SOL    HW128817   0.474   4.401   5.223
 9306SOL    HW228818   0.425   4.408   5.067
 9307SOL     OW28819   1.106   3.406   1.621
 9307SOL    HW128820   1.121   3.449   1.532
 9307SOL    HW228821   1.194   3.388   1.665
 9308SOL     OW28822   1.328   4.238   1.079
 9308SOL    HW128823   1.394   4.199   1.143
 9308SOL    HW228824   1.335   4.192   0.991
 9309SOL     OW28825   3.287   5.013   5.441
 9309SOL    HW128826   3.294   5.078   5.365
 9309SOL    HW228827   3.269   4.921   5.404
 9310SOL     OW28828   4.879   4.924   6.452
 9310SOL    HW128829   4.966   4.877   6.439
 9310SOL    HW228830   4.877   4.963   6.544
 9311SOL     OW28831   5.073   5.142   1.741
 9311SOL    HW128832   5.035   5.234   1.735
 9311SOL    HW228833   5.089   5.107   1.648
 9312SOL     OW28834   1.257   3.751   1.592
 9312SOL    HW128835   1.304   3.665   1.572
 9312SOL    HW228836   1.197   3.738   1.671
 9313SOL     OW28837   6.944   0.774   0.842
 9313SOL    HW128838   6.960   0.866   0.877
 9313SOL    HW228839   6.913   0.779   0.747
 9314SOL     OW28840   4.435   5.862   6.130
 9314SOL    HW128841   4.461   5.955   6.103
 9314SOL    HW228842   4.370   5.826   6.064
 9315SOL     OW28843   6.496   0.771   5.262
 9315SOL    HW128844   6.545   0.830   5.325
 9315SOL    HW228845   6.409   0.813   5.237
 9316SOL     OW28846   4.213   5.361   5.592
 9316SOL    HW128847   4.308   5.340   5.613
 9316SOL    HW228848   4.203   5.372   5.493
 9317SOL     OW28849   6.678   5.252   3.447
 9317SOL    HW128850   6.618   5.173   3.429
 9317SOL    HW228851   6.622   5.334   3.457
 9318SOL     OW28852   6.346   0.568   5.366
 9318SOL    HW128853   6.412   0.632   5.326
 9318SOL    HW228854   6.321   0.600   5.457
 9319SOL     OW28855   0.818   2.626   6.495
 9319SOL    HW128856   0.886   2.669   6.555
 9319SOL    HW228857   0.858   2.546   6.451
 9320SOL     OW28858   4.031   1.028   6.337
 9320SOL    HW128859   3.990   1.031   6.246
 9320SOL    HW228860   4.090   0.948   6.345
 9321SOL     OW28861   6.601   0.400   2.996
 9321SOL    HW128862   6.569   0.354   2.913
 9321SOL    HW228863   6.632   0.492   2.974
 9322SOL     OW28864   0.644   5.179   6.495
 9322SOL    HW128865   0.589   5.246   6.545
 9322SOL    HW228866   0.713   5.141   6.556
 9323SOL     OW28867   1.524   6.985   5.261
 9323SOL    HW128868   1.434   0.006   5.269
 9323SOL    HW228869   1.528   6.905   5.321
 9324SOL     OW28870   1.973   4.977   0.417
 9324SOL    HW128871   2.069   4.956   0.396
 9324SOL    HW228872   1.949   4.937   0.505
 9325SOL     OW28873   5.034   1.042   6.945
 9325SOL    HW128874   5.048   1.011   6.851
 9325SOL    HW228875   5.094   0.991   7.006
 9326SOL     OW28876   1.847   6.926   0.969
 9326SOL    HW128877   1.790   6.909   1.049
 9326SOL    HW228878   1.932   6.969   0.997
 9327SOL     OW28879   5.104   6.989   2.807
 9327SOL    HW128880   5.108   0.030   2.884
 9327SOL    HW228881   5.162   0.002   2.733
 9328SOL     OW28882   3.340   1.268   5.780
 9328SOL    HW128883   3.402   1.343   5.755
 9328SOL    HW228884   3.359   1.189   5.721
 9329SOL     OW28885   6.640   4.079   2.278
 9329SOL    HW128886   6.564   4.139   2.251
 9329SOL    HW228887   6.687   4.119   2.357
 9330SOL     OW28888   0.302   6.454   6.989
 9330SOL    HW128889   0.334   6.360   6.976
 9330SOL    HW228890   0.290   6.498   6.900
 9331SOL     OW28891   1.300   1.962   6.172
 9331SOL    HW128892   1.382   1.907   6.154
 9331SOL    HW228893   1.281   1.962   6.270
 9332SOL     OW28894   3.904   3.879   2.660
 9332SOL    HW128895   3.910   3.922   2.750
 9332SOL    HW228896   3.821   3.823   2.655
 9333SOL     OW28897   4.262   3.829   1.392
 9333SOL    HW128898   4.196   3.891   1.435
 9333SOL    HW228899   4.322   3.882   1.332
 9334SOL     OW28900   4.594   6.050   3.789
 9334SOL    HW128901   4.647   6.062   3.706
 9334SOL    HW228902   4.652   6.063   3.869
 9335SOL     OW28903   0.803   1.545   6.088
 9335SOL    HW128904   0.740   1.622   6.095
 9335SOL    HW228905   0.783   1.479   6.161
 9336SOL     OW28906   3.093   5.452   5.693
 9336SOL    HW128907   3.099   5.414   5.785
 9336SOL    HW228908   3.016   5.515   5.688
 9337SOL     OW28909   4.769   0.956   3.359
 9337SOL    HW128910   4.741   0.950   3.455
 9337SOL    HW228911   4.770   1.052   3.330
 9338SOL     OW28912   3.861   0.525   1.847
 9338SOL    HW128913   3.861   0.618   1.811
 9338SOL    HW228914   3.862   0.528   1.947
 9339SOL     OW28915   5.561   6.804   1.170
 9339SOL    HW128916   5.636   6.794   1.105
 9339SOL    HW228917   5.481   6.752   1.137
 9340SOL     OW28918   6.012   3.466   4.721
 9340SOL    HW128919   5.913   3.461   4.734
 9340SOL    HW228920   6.043   3.560   4.735
 9341SOL     OW28921   0.034   5.760   6.665
 9341SOL    HW128922   6.961   5.795   6.668
 9341SOL    HW228923   0.034   5.663   6.690
 9342SOL     OW28924   2.248   0.532   3.803
 9342SOL    HW128925   2.235   0.469   3.727
 9342SOL    HW228926   2.161   0.550   3.848
 9343SOL     OW28927   6.026   4.458   3.135
 9343SOL    HW128928   5.954   4.396   3.103
 9343SOL    HW228929   5.989   4.519   3.205
 9344SOL     OW28930   4.817   6.392   1.751
 9344SOL    HW128931   4.876   6.346   1.684
 9344SOL    HW228932   4.869   6.410   1.835
 9345SOL     OW28933   6.494   4.319   2.302
 9345SOL    HW128934   6.512   4.324   2.204
 9345SOL    HW228935   6.569   4.361   2.353
 9346SOL     OW28936   6.082   0.724   0.901
 9346SOL    HW128937   6.081   0.823   0.882
 9346SOL    HW228938   6.156   0.681   0.850
 9347SOL     OW28939   1.204   4.884   1.243
 9347SOL    HW128940   1.265   4.860   1.167
 9347SOL    HW228941   1.252   4.945   1.306
 9348SOL     OW28942   3.886   5.687   1.783
 9348SOL    HW128943   3.821   5.728   1.719
 9348SOL    HW228944   3.908   5.594   1.754
 9349SOL     OW28945   1.215   6.375   2.612
 9349SOL    HW128946   1.242   6.282   2.589
 9349SOL    HW228947   1.295   6.427   2.642
 9350SOL     OW28948   0.713   3.631   5.424
 9350SOL    HW128949   0.806   3.597   5.432
 9350SOL    HW228950   0.714   3.726   5.392
 9351SOL     OW28951   3.005   0.926   6.350
 9351SOL    HW128952   3.081   0.886   6.299
 9351SOL    HW228953   3.022   0.918   6.448
 9352SOL     OW28954   2.813   2.466   0.129
 9352SOL    HW128955   2.818   2.366   0.126
 9352SOL    HW228956   2.801   2.496   0.223
 9353SOL     OW28957   0.411   5.219   1.009
 9353SOL    HW128958   0.346   5.149   0.980
 9353SOL    HW228959   0.483   5.177   1.064
 9354SOL     OW28960   6.407   2.107   6.633
 9354SOL    HW128961   6.416   2.201   6.600
 9354SOL    HW228962   6.335   2.061   6.581
 9355SOL     OW28963   0.468   2.377   5.028
 9355SOL    HW128964   0.536   2.306   5.009
 9355SOL    HW228965   0.403   2.344   5.097
 9356SOL     OW28966   3.822   0.268   0.841
 9356SOL    HW128967   3.921   0.253   0.852
 9356SOL    HW228968   3.798   0.357   0.880
 9357SOL     OW28969   1.157   3.429   6.189
 9357SOL    HW128970   1.230   3.414   6.122
 9357SOL    HW228971   1.095   3.351   6.189
 9358SOL     OW28972   6.960   3.922   2.421
 9358SOL    HW128973   6.914   3.913   2.510
 9358SOL    HW228974   6.906   3.875   2.352
 9359SOL     OW28975   1.734   4.276   6.942
 9359SOL    HW128976   1.691   4.362   6.917
 9359SOL    HW228977   1.685   4.236   7.020
 9360SOL     OW28978   1.571   5.977   6.118
 9360SOL    HW128979   1.587   5.878   6.116
 9360SOL    HW228980   1.487   5.996   6.169
 9361SOL     OW28981   2.060   5.347   3.430
 9361SOL    HW128982   2.044   5.296   3.346
 9361SOL    HW228983   2.080   5.442   3.408
 9362SOL     OW28984   1.324   1.661   2.775
 9362SOL    HW128985   1.305   1.716   2.856
 9362SOL    HW228986   1.421   1.664   2.755
 9363SOL     OW28987   3.743   5.352   1.375
 9363SOL    HW128988   3.817   5.286   1.383
 9363SOL    HW228989   3.682   5.325   1.300
 9364SOL     OW28990   2.058   1.506   0.961
 9364SOL    HW128991   1.998   1.468   0.890
 9364SOL    HW228992   2.099   1.432   1.014
 9365SOL     OW28993   3.099   1.937   3.725
 9365SOL    HW128994   3.131   2.011   3.784
 9365SOL    HW228995   3.169   1.915   3.657
 9366SOL     OW28996   3.014   5.902   0.153
 9366SOL    HW128997   3.041   5.807   0.168
 9366SOL    HW228998   3.095   5.961   0.156
 9367SOL     OW28999   6.120   0.273   1.587
 9367SOL    HW129000   6.133   0.316   1.498
 9367SOL    HW229001   6.185   0.311   1.652
 9368SOL     OW29002   3.846   6.909   2.149
 9368SOL    HW129003   3.880   6.962   2.071
 9368SOL    HW229004   3.875   6.814   2.141
 9369SOL     OW29005   0.691   5.959   5.135
 9369SOL    HW129006   0.643   5.950   5.047
 9369SOL    HW229007   0.748   5.879   5.150
 9370SOL     OW29008   4.852   1.167   3.810
 9370SOL    HW129009   4.934   1.131   3.765
 9370SOL    HW229010   4.836   1.117   3.896
 9371SOL     OW29011   2.635   5.654   1.089
 9371SOL    HW129012   2.555   5.711   1.104
 9371SOL    HW229013   2.699   5.703   1.029
 9372SOL     OW29014   4.264   7.003   2.199
 9372SOL    HW129015   4.282   6.934   2.129
 9372SOL    HW229016   4.266   6.959   2.289
 9373SOL     OW29017   5.985   2.308   0.613
 9373SOL    HW129018   5.892   2.318   0.650
 9373SOL    HW229019   6.046   2.371   0.661
 9374SOL     OW29020   6.826   3.474   5.818
 9374SOL    HW129021   6.894   3.453   5.887
 9374SOL    HW229022   6.816   3.573   5.808
 9375SOL     OW29023   6.909   1.827   0.872
 9375SOL    HW129024   6.972   1.753   0.895
 9375SOL    HW229025   6.880   1.874   0.955
 9376SOL     OW29026   1.982   3.440   1.832
 9376SOL    HW129027   1.988   3.371   1.759
 9376SOL    HW229028   2.074   3.465   1.862
 9377SOL     OW29029   2.836   5.454   3.317
 9377SOL    HW129030   2.856   5.550   3.299
 9377SOL    HW229031   2.755   5.426   3.265
 9378SOL     OW29032   3.176   1.381   3.960
 9378SOL    HW129033   3.189   1.451   4.030
 9378SOL    HW229034   3.078   1.364   3.947
 9379SOL     OW29035   4.712   0.338   4.588
 9379SOL    HW129036   4.808   0.324   4.561
 9379SOL    HW229037   4.703   0.426   4.634
 9380SOL     OW29038   3.330   5.878   6.156
 9380SOL    HW129039   3.429   5.867   6.152
 9380SOL    HW229040   3.292   5.873   6.063
 9381SOL     OW29041   5.094   2.455   4.705
 9381SOL    HW129042   5.039   2.426   4.627
 9381SOL    HW229043   5.129   2.374   4.752
 9382SOL     OW29044   4.052   0.910   4.236
 9382SOL    HW129045   4.113   0.936   4.311
 9382SOL    HW229046   4.102   0.912   4.150
 9383SOL     OW29047   4.737   4.441   4.053
 9383SOL    HW129048   4.828   4.454   4.093
 9383SOL    HW229049   4.739   4.467   3.957
 9384SOL     OW29050   2.639   0.004   2.245
 9384SOL    HW129051   2.671   0.040   2.333
 9384SOL    HW229052   2.555   6.973   2.259
 9385SOL     OW29053   3.994   1.746   4.104
 9385SOL    HW129054   4.040   1.823   4.148
 9385SOL    HW229055   4.008   1.751   4.005
 9386SOL     OW29056   3.416   5.671   5.375
 9386SOL    HW129057   3.375   5.583   5.400
 9386SOL    HW229058   3.352   5.723   5.319
 9387SOL     OW29059   3.760   2.149   0.238
 9387SOL    HW129060   3.787   2.076   0.300
 9387SOL    HW229061   3.662   2.141   0.218
 9388SOL     OW29062   1.619   6.633   3.706
 9388SOL    HW129063   1.546   6.607   3.643
 9388SOL    HW229064   1.707   6.600   3.671
 9389SOL     OW29065   3.411   5.556   2.033
 9389SOL    HW129066   3.329   5.555   2.089
 9389SOL    HW229067   3.418   5.643   1.984
 9390SOL     OW29068   5.475   4.449   6.034
 9390SOL    HW129069   5.512   4.538   6.008
 9390SOL    HW229070   5.547   4.380   6.032
 9391SOL     OW29071   0.726   0.290   4.818
 9391SOL    HW129072   0.785   0.220   4.777
 9391SOL    HW229073   0.634   0.254   4.827
 9392SOL     OW29074   4.963   4.495   3.733
 9392SOL    HW129075   4.869   4.460   3.728
 9392SOL    HW229076   4.987   4.538   3.645
 9393SOL     OW29077   2.882   6.324   6.284
 9393SOL    HW129078   2.913   6.364   6.197
 9393SOL    HW229079   2.792   6.282   6.270
 9394SOL     OW29080   5.618   0.625   1.202
 9394SOL    HW129081   5.633   0.723   1.213
 9394SOL    HW229082   5.653   0.596   1.113
 9395SOL     OW29083   2.420   1.301   0.811
 9395SOL    HW129084   2.496   1.283   0.872
 9395SOL    HW229085   2.369   1.380   0.844
 9396SOL     OW29086   2.105   5.782   5.552
 9396SOL    HW129087   2.036   5.768   5.623
 9396SOL    HW229088   2.178   5.840   5.587
 9397SOL     OW29089   3.326   6.547   6.110
 9397SOL    HW129090   3.302   6.590   6.197
 9397SOL    HW229091   3.309   6.449   6.115
 9398SOL     OW29092   6.303   1.230   6.041
 9398SOL    HW129093   6.295   1.329   6.054
 9398SOL    HW229094   6.379   1.211   5.979
 9399SOL     OW29095   1.125   2.328   4.082
 9399SOL    HW129096   1.222   2.306   4.075
 9399SOL    HW229097   1.085   2.274   4.156
 9400SOL     OW29098   4.931   0.823   0.261
 9400SOL    HW129099   4.922   0.808   0.359
 9400SOL    HW229100   4.847   0.862   0.224
 9401SOL     OW29101   0.267   2.858   1.840
 9401SOL    HW129102   0.285   2.762   1.816
 9401SOL    HW229103   0.189   2.892   1.788
 9402SOL     OW29104   1.954   5.305   3.753
 9402SOL    HW129105   1.953   5.398   3.790
 9402SOL    HW229106   2.047   5.280   3.728
 9403SOL     OW29107   0.060   1.215   2.508
 9403SOL    HW129108   0.121   1.213   2.429
 9403SOL    HW229109   0.014   1.126   2.516
 9404SOL     OW29110   0.637   2.946   1.418
 9404SOL    HW129111   0.615   2.866   1.364
 9404SOL    HW229112   0.632   3.028   1.360
 9405SOL     OW29113   0.528   4.504   4.940
 9405SOL    HW129114   0.615   4.490   4.893
 9405SOL    HW229115   0.467   4.558   4.882
 9406SOL     OW29116   0.974   2.971   6.622
 9406SOL    HW129117   1.039   3.047   6.611
 9406SOL    HW229118   0.971   2.918   6.538
 9407SOL     OW29119   2.641   5.197   5.184
 9407SOL    HW129120   2.629   5.136   5.262
 9407SOL    HW229121   2.677   5.145   5.106
 9408SOL     OW29122   6.736   3.196   5.391
 9408SOL    HW129123   6.747   3.232   5.298
 9408SOL    HW229124   6.732   3.273   5.455
 9409SOL     OW29125   6.744   5.666   2.030
 9409SOL    HW129126   6.693   5.625   2.105
 9409SOL    HW229127   6.746   5.765   2.042
 9410SOL     OW29128   4.693   1.112   1.896
 9410SOL    HW129129   4.718   1.146   1.986
 9410SOL    HW229130   4.714   1.014   1.889
 9411SOL     OW29131   2.985   3.147   3.324
 9411SOL    HW129132   3.033   3.074   3.276
 9411SOL    HW229133   3.033   3.169   3.409
 9412SOL     OW29134   0.910   0.471   1.052
 9412SOL    HW129135   0.895   0.551   1.109
 9412SOL    HW229136   0.848   0.397   1.081
 9413SOL     OW29137   4.622   4.771   4.681
 9413SOL    HW129138   4.651   4.827   4.758
 9413SOL    HW229139   4.522   4.763   4.681
 9414SOL     OW29140   2.367   2.258   4.683
 9414SOL    HW129141   2.310   2.219   4.756
 9414SOL    HW229142   2.429   2.326   4.722
 9415SOL     OW29143   3.123   0.595   1.939
 9415SOL    HW129144   3.134   0.650   1.856
 9415SOL    HW229145   3.064   0.517   1.920
 9416SOL     OW29146   0.225   0.061   5.501
 9416SOL    HW129147   0.150   0.114   5.461
 9416SOL    HW229148   0.307   0.071   5.445
 9417SOL     OW29149   3.210   6.458   1.371
 9417SOL    HW129150   3.294   6.408   1.352
 9417SOL    HW229151   3.203   6.475   1.470
 9418SOL     OW29152   2.988   1.320   3.637
 9418SOL    HW129153   2.925   1.355   3.706
 9418SOL    HW229154   3.063   1.386   3.624
 9419SOL     OW29155   2.334   2.424   6.220
 9419SOL    HW129156   2.384   2.468   6.294
 9419SOL    HW229157   2.372   2.333   6.203
 9420SOL     OW29158   5.711   4.385   0.603
 9420SOL    HW129159   5.744   4.402   0.696
 9420SOL    HW229160   5.782   4.411   0.538
 9421SOL     OW29161   3.754   5.942   4.928
 9421SOL    HW129162   3.686   6.000   4.974
 9421SOL    HW229163   3.716   5.910   4.841
 9422SOL     OW29164   2.611   5.999   4.231
 9422SOL    HW129165   2.549   6.010   4.308
 9422SOL    HW229166   2.632   5.902   4.218
 9423SOL     OW29167   4.019   5.668   3.141
 9423SOL    HW129168   4.038   5.711   3.229
 9423SOL    HW229169   3.932   5.618   3.147
 9424SOL     OW29170   5.118   1.789   4.483
 9424SOL    HW129171   5.187   1.722   4.509
 9424SOL    HW229172   5.077   1.829   4.565
 9425SOL     OW29173   5.974   4.878   1.318
 9425SOL    HW129174   5.974   4.896   1.220
 9425SOL    HW229175   5.953   4.782   1.334
 9426SOL     OW29176   0.888   2.080   6.224
 9426SOL    HW129177   0.843   2.096   6.136
 9426SOL    HW229178   0.972   2.133   6.228
 9427SOL     OW29179   2.817   5.679   2.842
 9427SOL    HW129180   2.777   5.767   2.869
 9427SOL    HW229181   2.897   5.660   2.899
 9428SOL     OW29182   6.267   6.228   0.433
 9428SOL    HW129183   6.343   6.288   0.455
 9428SOL    HW229184   6.291   6.134   0.456
 9429SOL     OW29185   1.411   2.580   4.032
 9429SOL    HW129186   1.350   2.616   3.962
 9429SOL    HW229187   1.415   2.480   4.026
 9430SOL     OW29188   0.565   2.146   4.642
 9430SOL    HW129189   0.576   2.050   4.669
 9430SOL    HW229190   0.597   2.157   4.548
 9431SOL     OW29191   0.078   4.257   0.872
 9431SOL    HW129192   0.004   4.299   0.818
 9431SOL    HW229193   0.048   4.245   0.966
 9432SOL     OW29194   6.639   1.156   3.760
 9432SOL    HW129195   6.656   1.190   3.668
 9432SOL    HW229196   6.541   1.154   3.777
 9433SOL     OW29197   4.000   5.797   2.819
 9433SOL    HW129198   4.007   5.733   2.895
 9433SOL    HW229199   3.925   5.770   2.759
 9434SOL     OW29200   5.661   5.308   4.112
 9434SOL    HW129201   5.572   5.278   4.145
 9434SOL    HW229202   5.668   5.292   4.013
 9435SOL     OW29203   0.654   2.703   2.556
 9435SOL    HW129204   0.724   2.692   2.627
 9435SOL    HW229205   0.573   2.746   2.595
 9436SOL     OW29206   0.744   1.175   2.300
 9436SOL    HW129207   0.823   1.223   2.337
 9436SOL    HW229208   0.663   1.232   2.311
 9437SOL     OW29209   0.579   5.112   3.341
 9437SOL    HW129210   0.552   5.173   3.416
 9437SOL    HW229211   0.675   5.127   3.318
 9438SOL     OW29212   2.273   6.639   1.511
 9438SOL    HW129213   2.246   6.676   1.601
 9438SOL    HW229214   2.206   6.569   1.483
 9439SOL     OW29215   0.980   2.867   0.622
 9439SOL    HW129216   0.923   2.933   0.574
 9439SOL    HW229217   1.003   2.902   0.713
 9440SOL     OW29218   3.180   5.112   3.535
 9440SOL    HW129219   3.144   5.205   3.536
 9440SOL    HW229220   3.152   5.065   3.619
 9441SOL     OW29221   6.525   5.796   4.740
 9441SOL    HW129222   6.446   5.766   4.686
 9441SOL    HW229223   6.603   5.736   4.721
 9442SOL     OW29224   4.840   3.516   1.020
 9442SOL    HW129225   4.751   3.522   1.065
 9442SOL    HW229226   4.885   3.430   1.044
 9443SOL     OW29227   3.237   5.444   1.663
 9443SOL    HW129228   3.331   5.412   1.656
 9443SOL    HW229229   3.236   5.544   1.666
 9444SOL     OW29230   2.234   3.785   0.605
 9444SOL    HW129231   2.141   3.789   0.568
 9444SOL    HW229232   2.231   3.749   0.698
 9445SOL     OW29233   0.625   1.895   4.056
 9445SOL    HW129234   0.659   1.878   4.149
 9445SOL    HW229235   0.690   1.953   4.007
 9446SOL     OW29236   6.350   5.106   3.799
 9446SOL    HW129237   6.406   5.188   3.810
 9446SOL    HW229238   6.395   5.043   3.736
 9447SOL     OW29239   5.100   5.637   2.912
 9447SOL    HW129240   5.175   5.588   2.957
 9447SOL    HW229241   5.039   5.571   2.868
 9448SOL     OW29242   5.905   6.979   5.850
 9448SOL    HW129243   5.812   7.015   5.846
 9448SOL    HW229244   5.967   0.018   5.801
 9449SOL     OW29245   5.330   6.802   0.067
 9449SOL    HW129246   5.264   6.817   7.015
 9449SOL    HW229247   5.314   6.870   0.139
 9450SOL     OW29248   1.461   5.778   4.337
 9450SOL    HW129249   1.476   5.696   4.391
 9450SOL    HW229250   1.383   5.829   4.375
 9451SOL     OW29251   3.387   5.505   6.145
 9451SOL    HW129252   3.438   5.557   6.213
 9451SOL    HW229253   3.421   5.528   6.053
 9452SOL     OW29254   0.674   4.157   1.174
 9452SOL    HW129255   0.625   4.242   1.152
 9452SOL    HW229256   0.613   4.079   1.161
 9453SOL     OW29257   3.421   4.891   3.177
 9453SOL    HW129258   3.407   4.792   3.178
 9453SOL    HW229259   3.392   4.928   3.089
 9454SOL     OW29260   4.654   4.318   1.059
 9454SOL    HW129261   4.575   4.264   1.088
 9454SOL    HW229262   4.701   4.356   1.139
 9455SOL     OW29263   3.011   2.169   2.375
 9455SOL    HW129264   3.009   2.151   2.276
 9455SOL    HW229265   3.103   2.197   2.401
 9456SOL     OW29266   6.233   3.687   2.259
 9456SOL    HW129267   6.237   3.608   2.198
 9456SOL    HW229268   6.162   3.672   2.328
 9457SOL     OW29269   1.381   4.922   4.508
 9457SOL    HW129270   1.307   4.986   4.529
 9457SOL    HW229271   1.453   4.971   4.458
 9458SOL     OW29272   6.811   4.269   0.458
 9458SOL    HW129273   6.889   4.206   0.465
 9458SOL    HW229274   6.827   4.331   0.381
 9459SOL     OW29275   5.130   4.318   4.587
 9459SOL    HW129276   5.190   4.391   4.554
 9459SOL    HW229277   5.038   4.332   4.549
 9460SOL     OW29278   1.650   3.394   4.056
 9460SOL    HW129279   1.623   3.359   4.145
 9460SOL    HW229280   1.593   3.352   3.985
 9461SOL     OW29281   1.187   1.886   1.311
 9461SOL    HW129282   1.257   1.923   1.372
 9461SOL    HW229283   1.185   1.786   1.320
 9462SOL     OW29284   1.693   2.174   3.790
 9462SOL    HW129285   1.780   2.173   3.741
 9462SOL    HW229286   1.673   2.267   3.821
 9463SOL     OW29287   5.544   6.611   1.395
 9463SOL    HW129288   5.474   6.552   1.355
 9463SOL    HW229289   5.564   6.686   1.332
 9464SOL     OW29290   6.527   0.475   1.624
 9464SOL    HW129291   6.559   0.466   1.530
 9464SOL    HW229292   6.513   0.572   1.646
 9465SOL     OW29293   0.157   4.040   1.273
 9465SOL    HW129294   0.088   4.068   1.206
 9465SOL    HW229295   0.191   4.121   1.321
 9466SOL     OW29296   3.891   5.640   6.389
 9466SOL    HW129297   3.970   5.578   6.386
 9466SOL    HW229298   3.841   5.635   6.302
 9467SOL     OW29299   2.101   2.907   0.744
 9467SOL    HW129300   2.129   2.998   0.713
 9467SOL    HW229301   2.069   2.854   0.666
 9468SOL     OW29302   0.105   3.646   6.914
 9468SOL    HW129303   0.074   3.582   6.985
 9468SOL    HW229304   0.164   3.598   6.849
 9469SOL     OW29305   0.330   6.001   0.074
 9469SOL    HW129306   0.252   6.058   0.101
 9469SOL    HW229307   0.318   5.970   7.002
 9470SOL     OW29308   4.698   3.882   0.326
 9470SOL    HW129309   4.762   3.906   0.253
 9470SOL    HW229310   4.697   3.955   0.395
 9471SOL     OW29311   6.323   2.302   4.894
 9471SOL    HW129312   6.321   2.202   4.896
 9471SOL    HW229313   6.229   2.337   4.891
 9472SOL     OW29314   1.381   4.890   6.232
 9472SOL    HW129315   1.371   4.796   6.197
 9472SOL    HW229316   1.305   4.945   6.199
 9473SOL     OW29317   2.803   4.028   0.111
 9473SOL    HW129318   2.820   4.054   0.206
 9473SOL    HW229319   2.712   3.989   0.102
 9474SOL     OW29320   5.778   3.842   1.786
 9474SOL    HW129321   5.686   3.882   1.782
 9474SOL    HW229322   5.832   3.891   1.854
 9475SOL     OW29323   4.660   3.572   6.019
 9475SOL    HW129324   4.651   3.508   5.943
 9475SOL    HW229325   4.756   3.594   6.034
 9476SOL     OW29326   3.877   4.363   5.552
 9476SOL    HW129327   3.784   4.331   5.568
 9476SOL    HW229328   3.886   4.457   5.583
 9477SOL     OW29329   1.834   3.469   1.487
 9477SOL    HW129330   1.815   3.539   1.556
 9477SOL    HW229331   1.911   3.413   1.517
 9478SOL     OW29332   4.613   2.434   0.992
 9478SOL    HW129333   4.581   2.502   1.059
 9478SOL    HW229334   4.605   2.342   1.031
 9479SOL     OW29335   4.321   0.914   1.312
 9479SOL    HW129336   4.344   0.841   1.376
 9479SOL    HW229337   4.307   0.875   1.220
 9480SOL     OW29338   5.655   5.778   0.160
 9480SOL    HW129339   5.693   5.695   0.119
 9480SOL    HW229340   5.555   5.777   0.151
 9481SOL     OW29341   4.215   1.692   3.297
 9481SOL    HW129342   4.142   1.637   3.337
 9481SOL    HW229343   4.298   1.683   3.352
 9482SOL     OW29344   5.600   0.723   0.859
 9482SOL    HW129345   5.608   0.757   0.766
 9482SOL    HW229346   5.692   0.703   0.895
 9483SOL     OW29347   0.719   0.723   6.811
 9483SOL    HW129348   0.818   0.729   6.805
 9483SOL    HW229349   0.691   0.627   6.808
 9484SOL     OW29350   2.691   6.486   4.521
 9484SOL    HW129351   2.698   6.407   4.460
 9484SOL    HW229352   2.783   6.517   4.546
 9485SOL     OW29353   6.244   1.194   0.977
 9485SOL    HW129354   6.265   1.265   0.911
 9485SOL    HW229355   6.224   1.236   1.066
 9486SOL     OW29356   4.840   5.833   0.561
 9486SOL    HW129357   4.897   5.856   0.640
 9486SOL    HW229358   4.813   5.737   0.565
 9487SOL     OW29359   3.144   3.850   4.392
 9487SOL    HW129360   3.209   3.792   4.441
 9487SOL    HW229361   3.149   3.944   4.426
 9488SOL     OW29362   1.515   1.208   1.168
 9488SOL    HW129363   1.604   1.250   1.156
 9488SOL    HW229364   1.505   1.177   1.263
 9489SOL     OW29365   5.299   4.285   1.257
 9489SOL    HW129366   5.269   4.365   1.205
 9489SOL    HW229367   5.368   4.235   1.204
 9490SOL     OW29368   6.134   5.438   3.774
 9490SOL    HW129369   6.202   5.412   3.843
 9490SOL    HW229370   6.174   5.429   3.683
 9491SOL     OW29371   5.532   6.101   3.655
 9491SOL    HW129372   5.559   6.008   3.680
 9491SOL    HW229373   5.608   6.146   3.608
 9492SOL     OW29374   4.843   2.908   5.312
 9492SOL    HW129375   4.833   2.980   5.243
 9492SOL    HW229376   4.776   2.922   5.385
 9493SOL     OW29377   3.488   6.250   4.405
 9493SOL    HW129378   3.450   6.315   4.471
 9493SOL    HW229379   3.587   6.264   4.398
 9494SOL     OW29380   5.715   2.969   2.198
 9494SOL    HW129381   5.720   3.043   2.265
 9494SOL    HW229382   5.619   2.944   2.184
 9495SOL     OW29383   0.004   1.152   2.218
 9495SOL    HW129384   0.084   1.108   2.177
 9495SOL    HW229385   6.952   1.157   2.151
 9496SOL     OW29386   4.508   2.044   2.258
 9496SOL    HW129387   4.494   2.026   2.161
 9496SOL    HW229388   4.453   1.980   2.312
 9497SOL     OW29389   5.434   5.966   5.151
 9497SOL    HW129390   5.441   6.042   5.087
 9497SOL    HW229391   5.525   5.943   5.186
 9498SOL     OW29392   6.870   4.873   4.307
 9498SOL    HW129393   6.888   4.775   4.303
 9498SOL    HW229394   6.773   4.890   4.288
 9499SOL     OW29395   6.944   5.587   5.051
 9499SOL    HW129396   0.009   5.618   5.010
 9499SOL    HW229397   6.949   5.488   5.068
 9500SOL     OW29398   4.189   6.710   1.160
 9500SOL    HW129399   4.236   6.786   1.204
 9500SOL    HW229400   4.111   6.681   1.216
 9501SOL     OW29401   1.596   1.942   4.244
 9501SOL    HW129402   1.656   1.976   4.171
 9501SOL    HW229403   1.550   1.858   4.214
 9502SOL     OW29404   5.550   4.609   4.893
 9502SOL    HW129405   5.649   4.616   4.886
 9502SOL    HW229406   5.508   4.635   4.806
 9503SOL     OW29407   0.619   2.376   0.485
 9503SOL    HW129408   0.663   2.287   0.500
 9503SOL    HW229409   0.642   2.409   0.394
 9504SOL     OW29410   0.113   3.910   1.800
 9504SOL    HW129411   0.118   3.994   1.746
 9504SOL    HW229412   0.065   3.928   1.886
 9505SOL     OW29413   4.842   5.143   5.787
 9505SOL    HW129414   4.839   5.233   5.745
 9505SOL    HW229415   4.897   5.146   5.871
 9506SOL     OW29416   2.113   2.193   0.679
 9506SOL    HW129417   2.155   2.133   0.747
 9506SOL    HW229418   2.074   2.274   0.725
 9507SOL     OW29419   6.121   0.434   1.367
 9507SOL    HW129420   6.073   0.361   1.319
 9507SOL    HW229421   6.135   0.511   1.305
 9508SOL     OW29422   4.707   1.242   2.170
 9508SOL    HW129423   4.773   1.316   2.179
 9508SOL    HW229424   4.621   1.278   2.134
 9509SOL     OW29425   6.479   0.862   2.975
 9509SOL    HW129426   6.437   0.881   2.886
 9509SOL    HW229427   6.408   0.857   3.045
 9510SOL     OW29428   0.729   3.453   3.869
 9510SOL    HW129429   0.827   3.452   3.887
 9510SOL    HW229430   0.687   3.371   3.909
 9511SOL     OW29431   0.873   0.998   1.115
 9511SOL    HW129432   0.894   1.090   1.148
 9511SOL    HW229433   0.796   1.003   1.051
 9512SOL     OW29434   6.659   3.090   1.215
 9512SOL    HW129435   6.673   3.186   1.191
 9512SOL    HW229436   6.573   3.058   1.175
 9513SOL     OW29437   3.513   4.689   5.746
 9513SOL    HW129438   3.561   4.777   5.751
 9513SOL    HW229439   3.577   4.618   5.715
 9514SOL     OW29440   3.203   3.136   6.714
 9514SOL    HW129441   3.205   3.155   6.812
 9514SOL    HW229442   3.131   3.191   6.671
 9515SOL     OW29443   2.862   5.056   3.402
 9515SOL    HW129444   2.911   5.115   3.338
 9515SOL    HW229445   2.905   4.966   3.403
 9516SOL     OW29446   6.403   4.456   0.483
 9516SOL    HW129447   6.354   4.519   0.543
 9516SOL    HW229448   6.342   4.426   0.409
 9517SOL     OW29449   1.397   4.699   1.505
 9517SOL    HW129450   1.302   4.676   1.528
 9517SOL    HW229451   1.398   4.765   1.431
 9518SOL     OW29452   2.758   1.068   0.741
 9518SOL    HW129453   2.712   1.068   0.652
 9518SOL    HW229454   2.820   1.147   0.747
 9519SOL     OW29455   1.204   2.418   5.504
 9519SOL    HW129456   1.226   2.509   5.467
 9519SOL    HW229457   1.288   2.364   5.512
 9520SOL     OW29458   2.266   0.359   2.561
 9520SOL    HW129459   2.265   0.316   2.471
 9520SOL    HW229460   2.222   0.449   2.555
 9521SOL     OW29461   5.952   6.207   4.400
 9521SOL    HW129462   6.040   6.160   4.412
 9521SOL    HW229463   5.968   6.306   4.394
 9522SOL     OW29464   3.276   5.672   0.919
 9522SOL    HW129465   3.212   5.610   0.875
 9522SOL    HW229466   3.281   5.758   0.867
 9523SOL     OW29467   3.524   5.177   4.244
 9523SOL    HW129468   3.578   5.179   4.160
 9523SOL    HW229469   3.480   5.266   4.258
 9524SOL     OW29470   3.417   2.858   1.100
 9524SOL    HW129471   3.440   2.952   1.127
 9524SOL    HW229472   3.458   2.794   1.164
 9525SOL     OW29473   1.906   1.383   6.175
 9525SOL    HW129474   1.968   1.392   6.096
 9525SOL    HW229475   1.813   1.365   6.142
 9526SOL     OW29476   5.606   6.169   3.194
 9526SOL    HW129477   5.563   6.106   3.258
 9526SOL    HW229478   5.585   6.141   3.100
 9527SOL     OW29479   0.877   0.628   2.077
 9527SOL    HW129480   0.832   0.699   2.023
 9527SOL    HW229481   0.829   0.618   2.164
 9528SOL     OW29482   6.395   0.138   0.931
 9528SOL    HW129483   6.301   0.174   0.936
 9528SOL    HW229484   6.459   0.213   0.949
 9529SOL     OW29485   1.199   3.155   6.632
 9529SOL    HW129486   1.273   3.121   6.690
 9529SOL    HW229487   1.147   3.224   6.682
 9530SOL     OW29488   2.065   2.696   2.809
 9530SOL    HW129489   2.005   2.730   2.882
 9530SOL    HW229490   2.128   2.628   2.847
 9531SOL     OW29491   3.998   6.076   3.119
 9531SOL    HW129492   3.915   6.071   3.063
 9531SOL    HW229493   4.023   5.985   3.151
 9532SOL     OW29494   1.522   6.181   1.351
 9532SOL    HW129495   1.550   6.087   1.329
 9532SOL    HW229496   1.599   6.242   1.339
 9533SOL     OW29497   0.333   1.324   5.144
 9533SOL    HW129498   0.353   1.252   5.210
 9533SOL    HW229499   0.236   1.323   5.121
 9534SOL     OW29500   5.286   1.893   4.844
 9534SOL    HW129501   5.365   1.900   4.905
 9534SOL    HW229502   5.291   1.965   4.775
 9535SOL     OW29503   2.835   0.728   5.975
 9535SOL    HW129504   2.831   0.819   5.933
 9535SOL    HW229505   2.926   0.714   6.015
 9536SOL     OW29506   1.861   5.857   5.675
 9536SOL    HW129507   1.816   5.942   5.648
 9536SOL    HW229508   1.791   5.789   5.702
 9537SOL     OW29509   3.119   0.442   2.246
 9537SOL    HW129510   3.185   0.482   2.183
 9537SOL    HW229511   3.128   0.486   2.336
 9538SOL     OW29512   6.435   1.974   4.220
 9538SOL    HW129513   6.509   1.989   4.285
 9538SOL    HW229514   6.460   2.014   4.131
 9539SOL     OW29515   1.638   5.697   6.501
 9539SOL    HW129516   1.626   5.615   6.558
 9539SOL    HW229517   1.549   5.740   6.485
 9540SOL     OW29518   4.586   4.996   5.753
 9540SOL    HW129519   4.675   5.036   5.773
 9540SOL    HW229520   4.559   4.935   5.827
 9541SOL     OW29521   1.624   2.637   5.038
 9541SOL    HW129522   1.709   2.640   5.089
 9541SOL    HW229523   1.586   2.730   5.031
 9542SOL     OW29524   4.835   3.243   4.819
 9542SOL    HW129525   4.850   3.319   4.882
 9542SOL    HW229526   4.780   3.276   4.741
 9543SOL     OW29527   4.636   1.127   4.079
 9543SOL    HW129528   4.691   1.044   4.090
 9543SOL    HW229529   4.555   1.105   4.024
 9544SOL     OW29530   5.782   0.070   2.219
 9544SOL    HW129531   5.839   7.014   2.190
 9544SOL    HW229532   5.742   0.114   2.138
 9545SOL     OW29533   6.392   6.727   3.451
 9545SOL    HW129534   6.435   6.797   3.394
 9545SOL    HW229535   6.368   6.648   3.394
 9546SOL     OW29536   2.676   4.325   0.058
 9546SOL    HW129537   2.723   4.352   0.142
 9546SOL    HW229538   2.733   4.347   7.000
 9547SOL     OW29539   1.281   6.413   4.154
 9547SOL    HW129540   1.253   6.408   4.057
 9547SOL    HW229541   1.218   6.358   4.209
 9548SOL     OW29542   5.978   5.779   4.973
 9548SOL    HW129543   5.884   5.774   4.939
 9548SOL    HW229544   6.020   5.865   4.942
 9549SOL     OW29545   3.317   5.311   0.189
 9549SOL    HW129546   3.218   5.309   0.171
 9549SOL    HW229547   3.366   5.316   0.102
 9550SOL     OW29548   0.340   1.458   0.346
 9550SOL    HW129549   0.270   1.512   0.299
 9550SOL    HW229550   0.363   1.502   0.433
 9551SOL     OW29551   0.513   0.105   4.755
 9551SOL    HW129552   0.529   0.115   4.657
 9551SOL    HW229553   0.428   0.153   4.780
 9552SOL     OW29554   1.381   6.896   3.386
 9552SOL    HW129555   1.307   6.857   3.441
 9552SOL    HW229556   1.370   6.869   3.291
 9553SOL     OW29557   5.651   4.631   6.515
 9553SOL    HW129558   5.624   4.658   6.608
 9553SOL    HW229559   5.570   4.630   6.456
 9554SOL     OW29560   2.650   0.940   2.377
 9554SOL    HW129561   2.627   0.850   2.414
 9554SOL    HW229562   2.582   1.007   2.407
 9555SOL     OW29563   6.258   2.404   0.961
 9555SOL    HW129564   6.201   2.475   0.921
 9555SOL    HW229565   6.206   2.318   0.966
 9556SOL     OW29566   2.090   0.981   1.204
 9556SOL    HW129567   2.040   1.042   1.265
 9556SOL    HW229568   2.151   1.033   1.145
 9557SOL     OW29569   6.340   0.443   2.052
 9557SOL    HW129570   6.325   0.346   2.074
 9557SOL    HW229571   6.355   0.452   1.954
 9558SOL     OW29572   0.062   5.080   3.249
 9558SOL    HW129573   0.138   5.092   3.313
 9558SOL    HW229574   0.048   5.165   3.198
 9559SOL     OW29575   0.128   3.121   2.573
 9559SOL    HW129576   0.221   3.156   2.584
 9559SOL    HW229577   0.063   3.197   2.578
 9560SOL     OW29578   2.687   1.440   3.356
 9560SOL    HW129579   2.772   1.487   3.333
 9560SOL    HW229580   2.708   1.346   3.384
 9561SOL     OW29581   3.268   6.708   0.754
 9561SOL    HW129582   3.177   6.709   0.794
 9561SOL    HW229583   3.336   6.686   0.824
 9562SOL     OW29584   4.718   5.754   2.441
 9562SOL    HW129585   4.759   5.757   2.532
 9562SOL    HW229586   4.619   5.751   2.449
 9563SOL     OW29587   0.067   6.057   6.043
 9563SOL    HW129588   0.070   5.967   6.087
 9563SOL    HW229589   0.124   6.121   6.094
 9564SOL     OW29590   2.832   6.926   6.728
 9564SOL    HW129591   2.737   6.905   6.707
 9564SOL    HW229592   2.884   6.936   6.643
 9565SOL     OW29593   3.771   6.300   4.422
 9565SOL    HW129594   3.791   6.232   4.493
 9565SOL    HW229595   3.819   6.274   4.338
 9566SOL     OW29596   2.761   4.375   5.709
 9566SOL    HW129597   2.670   4.400   5.677
 9566SOL    HW229598   2.760   4.361   5.808
 9567SOL     OW29599   6.480   5.761   6.621
 9567SOL    HW129600   6.539   5.751   6.540
 9567SOL    HW229601   6.531   5.733   6.702
 9568SOL     OW29602   5.618   3.790   6.803
 9568SOL    HW129603   5.613   3.704   6.753
 9568SOL    HW229604   5.526   3.820   6.827
 9569SOL     OW29605   6.470   1.155   7.015
 9569SOL    HW129606   6.498   1.218   6.942
 9569SOL    HW229607   6.500   1.062   6.993
 9570SOL     OW29608   0.040   1.494   0.639
 9570SOL    HW129609   7.005   1.495   0.556
 9570SOL    HW229610   0.109   1.422   0.632
 9571SOL     OW29611   1.997   3.134   0.265
 9571SOL    HW129612   2.089   3.096   0.257
 9571SOL    HW229613   1.999   3.219   0.317
 9572SOL     OW29614   1.355   4.299   1.790
 9572SOL    HW129615   1.404   4.374   1.833
 9572SOL    HW229616   1.271   4.281   1.840
 9573SOL     OW29617   1.866   1.286   0.211
 9573SOL    HW129618   1.785   1.345   0.205
 9573SOL    HW229619   1.867   1.241   0.300
 9574SOL     OW29620   3.538   3.522   5.588
 9574SOL    HW129621   3.519   3.424   5.578
 9574SOL    HW229622   3.637   3.536   5.593
 9575SOL     OW29623   5.363   0.824   2.154
 9575SOL    HW129624   5.406   0.851   2.240
 9575SOL    HW229625   5.276   0.779   2.173
 9576SOL     OW29626   3.050   1.565   4.522
 9576SOL    HW129627   3.031   1.592   4.617
 9576SOL    HW229628   3.059   1.647   4.466
 9577SOL     OW29629   0.651   6.137   2.566
 9577SOL    HW129630   0.711   6.173   2.637
 9577SOL    HW229631   0.676   6.042   2.545
 9578SOL     OW29632   6.372   2.600   2.078
 9578SOL    HW129633   6.364   2.591   2.177
 9578SOL    HW229634   6.362   2.696   2.052
 9579SOL     OW29635   1.571   0.399   2.108
 9579SOL    HW129636   1.588   0.310   2.151
 9579SOL    HW229637   1.657   0.437   2.075
 9580SOL     OW29638   4.132   3.692   6.796
 9580SOL    HW129639   4.102   3.756   6.866
 9580SOL    HW229640   4.166   3.608   6.839
 9581SOL     OW29641   0.937   4.830   6.313
 9581SOL    HW129642   1.008   4.836   6.243
 9581SOL    HW229643   0.874   4.907   6.303
 9582SOL     OW29644   4.196   4.780   4.405
 9582SOL    HW129645   4.272   4.719   4.384
 9582SOL    HW229646   4.126   4.771   4.334
 9583SOL     OW29647   2.055   3.699   2.018
 9583SOL    HW129648   2.049   3.766   1.944
 9583SOL    HW229649   2.113   3.623   1.990
 9584SOL     OW29650   6.273   5.300   6.950
 9584SOL    HW129651   6.268   5.319   6.852
 9584SOL    HW229652   6.317   5.212   6.964
 9585SOL     OW29653   6.136   6.930   3.334
 9585SOL    HW129654   6.233   6.946   3.317
 9585SOL    HW229655   6.124   6.839   3.374
 9586SOL     OW29656   4.956   3.452   3.177
 9586SOL    HW129657   5.054   3.429   3.174
 9586SOL    HW229658   4.917   3.442   3.086
 9587SOL     OW29659   5.637   0.240   2.022
 9587SOL    HW129660   5.564   0.270   2.083
 9587SOL    HW229661   5.671   0.317   1.969
 9588SOL     OW29662   0.500   0.492   1.614
 9588SOL    HW129663   0.591   0.490   1.573
 9588SOL    HW229664   0.454   0.404   1.599
 9589SOL     OW29665   2.678   0.471   6.253
 9589SOL    HW129666   2.662   0.568   6.232
 9589SOL    HW229667   2.765   0.461   6.301
 9590SOL     OW29668   6.766   4.207   2.921
 9590SOL    HW129669   6.718   4.271   2.981
 9590SOL    HW229670   6.821   4.144   2.976
 9591SOL     OW29671   2.046   5.432   0.903
 9591SOL    HW129672   2.050   5.380   0.818
 9591SOL    HW229673   2.076   5.526   0.886
 9592SOL     OW29674   4.341   5.587   2.115
 9592SOL    HW129675   4.264   5.562   2.173
 9592SOL    HW229676   4.360   5.685   2.124
 9593SOL     OW29677   6.825   2.511   4.409
 9593SOL    HW129678   6.782   2.568   4.340
 9593SOL    HW229679   6.788   2.533   4.499
 9594SOL     OW29680   6.588   6.739   2.562
 9594SOL    HW129681   6.657   6.805   2.533
 9594SOL    HW229682   6.554   6.690   2.482
 9595SOL     OW29683   1.799   5.753   4.617
 9595SOL    HW129684   1.775   5.829   4.558
 9595SOL    HW229685   1.843   5.787   4.700
 9596SOL     OW29686   5.544   5.898   5.558
 9596SOL    HW129687   5.468   5.935   5.612
 9596SOL    HW229688   5.597   5.974   5.519
 9597SOL     OW29689   1.481   4.012   1.900
 9597SOL    HW129690   1.444   4.073   1.830
 9597SOL    HW229691   1.581   4.017   1.899
 9598SOL     OW29692   0.474   4.877   5.747
 9598SOL    HW129693   0.541   4.947   5.720
 9598SOL    HW229694   0.394   4.922   5.787
 9599SOL     OW29695   4.305   1.341   5.726
 9599SOL    HW129696   4.388   1.290   5.702
 9599SOL    HW229697   4.271   1.308   5.814
 9600SOL     OW29698   1.362   0.001   6.091
 9600SOL    HW129699   1.451   0.009   6.135
 9600SOL    HW229700   1.364   6.951   6.022
 9601SOL     OW29701   0.424   4.694   5.545
 9601SOL    HW129702   0.338   4.721   5.502
 9601SOL    HW229703   0.446   4.756   5.620
 9602SOL     OW29704   1.050   5.769   6.742
 9602SOL    HW129705   0.983   5.694   6.744
 9602SOL    HW229706   1.005   5.852   6.708
 9603SOL     OW29707   1.939   6.232   4.785
 9603SOL    HW129708   1.902   6.314   4.826
 9603SOL    HW229709   1.870   6.190   4.726
 9604SOL     OW29710   5.560   1.800   6.696
 9604SOL    HW129711   5.656   1.781   6.677
 9604SOL    HW229712   5.509   1.808   6.610
 9605SOL     OW29713   2.076   5.997   6.619
 9605SOL    HW129714   2.154   6.055   6.594
 9605SOL    HW229715   2.039   5.954   6.537
 9606SOL     OW29716   0.249   6.860   3.691
 9606SOL    HW129717   0.242   6.784   3.627
 9606SOL    HW229718   0.160   6.905   3.698
 9607SOL     OW29719   1.252   1.716   2.387
 9607SOL    HW129720   1.157   1.688   2.406
 9607SOL    HW229721   1.281   1.781   2.457
 9608SOL     OW29722   0.248   0.056   2.876
 9608SOL    HW129723   0.289   0.111   2.804
 9608SOL    HW229724   0.202   0.115   2.942
 9609SOL     OW29725   2.270   4.620   4.341
 9609SOL    HW129726   2.265   4.560   4.420
 9609SOL    HW229727   2.178   4.638   4.306
 9610SOL     OW29728   2.013   1.620   6.271
 9610SOL    HW129729   1.975   1.532   6.242
 9610SOL    HW229730   1.972   1.647   6.358
 9611SOL     OW29731   6.057   0.273   1.171
 9611SOL    HW129732   6.056   0.310   1.078
 9611SOL    HW229733   6.033   0.176   1.169
 9612SOL     OW29734   5.716   3.360   1.845
 9612SOL    HW129735   5.638   3.317   1.890
 9612SOL    HW229736   5.691   3.453   1.817
 9613SOL     OW29737   6.525   6.914   5.147
 9613SOL    HW129738   6.607   6.865   5.117
 9613SOL    HW229739   6.505   6.890   5.242
 9614SOL     OW29740   3.396   3.836   2.238
 9614SOL    HW129741   3.298   3.833   2.216
 9614SOL    HW229742   3.410   3.803   2.332
 9615SOL     OW29743   1.363   6.118   2.559
 9615SOL    HW129744   1.402   6.142   2.470
 9615SOL    HW229745   1.406   6.172   2.631
 9616SOL     OW29746   3.743   2.530   1.086
 9616SOL    HW129747   3.815   2.594   1.058
 9616SOL    HW229748   3.784   2.456   1.139
 9617SOL     OW29749   1.185   2.991   3.858
 9617SOL    HW129750   1.130   2.926   3.911
 9617SOL    HW229751   1.241   3.046   3.920
 9618SOL     OW29752   3.393   6.044   6.396
 9618SOL    HW129753   3.486   6.019   6.372
 9618SOL    HW229754   3.332   5.966   6.383
 9619SOL     OW29755   2.940   6.217   0.860
 9619SOL    HW129756   2.890   6.267   0.931
 9619SOL    HW229757   2.935   6.119   0.879
 9620SOL     OW29758   3.401   1.506   6.544
 9620SOL    HW129759   3.328   1.442   6.521
 9620SOL    HW229760   3.487   1.476   6.501
 9621SOL     OW29761   0.465   0.820   1.852
 9621SOL    HW129762   0.558   0.784   1.849
 9621SOL    HW229763   0.413   0.785   1.774
 9622SOL     OW29764   5.925   0.429   6.266
 9622SOL    HW129765   5.924   0.529   6.266
 9622SOL    HW229766   5.909   0.396   6.358
 9623SOL     OW29767   4.635   6.384   6.185
 9623SOL    HW129768   4.734   6.397   6.190
 9623SOL    HW229769   4.599   6.360   6.275
 9624SOL     OW29770   4.337   5.173   5.190
 9624SOL    HW129771   4.247   5.206   5.217
 9624SOL    HW229772   4.328   5.104   5.118
 9625SOL     OW29773   5.354   4.142   6.345
 9625SOL    HW129774   5.379   4.071   6.280
 9625SOL    HW229775   5.265   4.122   6.385
 9626SOL     OW29776   2.024   4.119   6.316
 9626SOL    HW129777   1.962   4.049   6.353
 9626SOL    HW229778   2.090   4.144   6.387
 9627SOL     OW29779   0.852   5.126   6.682
 9627SOL    HW129780   0.945   5.132   6.647
 9627SOL    HW229781   0.830   5.031   6.702
 9628SOL     OW29782   5.790   3.511   6.970
 9628SOL    HW129783   5.827   3.492   6.880
 9628SOL    HW229784   5.859   3.491   0.018
 9629SOL     OW29785   0.153   5.760   2.883
 9629SOL    HW129786   0.197   5.793   2.966
 9629SOL    HW229787   0.220   5.713   2.826
 9630SOL     OW29788   6.427   5.962   5.601
 9630SOL    HW129789   6.527   5.960   5.601
 9630SOL    HW229790   6.396   6.057   5.593
 9631SOL     OW29791   4.345   1.215   0.697
 9631SOL    HW129792   4.419   1.172   0.749
 9631SOL    HW229793   4.374   1.305   0.665
 9632SOL     OW29794   3.418   6.293   1.258
 9632SOL    HW129795   3.443   6.214   1.201
 9632SOL    HW229796   3.447   6.377   1.212
 9633SOL     OW29797   3.994   3.094   2.506
 9633SOL    HW129798   4.016   3.047   2.591
 9633SOL    HW229799   3.978   3.191   2.524
 9634SOL     OW29800   5.245   4.829   2.473
 9634SOL    HW129801   5.217   4.813   2.379
 9634SOL    HW229802   5.236   4.927   2.494
 9635SOL     OW29803   1.303   3.966   3.676
 9635SOL    HW129804   1.327   3.901   3.748
 9635SOL    HW229805   1.221   4.017   3.703
 9636SOL     OW29806   4.313   2.135   4.640
 9636SOL    HW129807   4.319   2.125   4.540
 9636SOL    HW229808   4.328   2.046   4.683
 9637SOL     OW29809   2.310   2.745   0.824
 9637SOL    HW129810   2.226   2.793   0.801
 9637SOL    HW229811   2.381   2.811   0.850
 9638SOL     OW29812   6.840   4.502   5.581
 9638SOL    HW129813   6.895   4.545   5.509
 9638SOL    HW229814   6.761   4.457   5.540
 9639SOL     OW29815   4.538   1.793   1.628
 9639SOL    HW129816   4.623   1.795   1.577
 9639SOL    HW229817   4.477   1.866   1.595
 9640SOL     OW29818   3.551   0.755   2.120
 9640SOL    HW129819   3.479   0.737   2.187
 9640SOL    HW229820   3.618   0.819   2.159
 9641SOL     OW29821   5.983   4.474   2.683
 9641SOL    HW129822   5.917   4.427   2.742
 9641SOL    HW229823   6.008   4.414   2.607
 9642SOL     OW29824   1.834   0.424   3.640
 9642SOL    HW129825   1.866   0.515   3.614
 9642SOL    HW229826   1.868   0.357   3.574
 9643SOL     OW29827   5.406   4.164   3.997
 9643SOL    HW129828   5.331   4.176   3.931
 9643SOL    HW229829   5.475   4.103   3.957
 9644SOL     OW29830   1.467   5.580   5.038
 9644SOL    HW129831   1.525   5.508   5.078
 9644SOL    HW229832   1.508   5.610   4.952
 9645SOL     OW29833   1.586   5.664   6.139
 9645SOL    HW129834   1.594   5.565   6.131
 9645SOL    HW229835   1.489   5.690   6.139
 9646SOL     OW29836   3.457   6.870   5.779
 9646SOL    HW129837   3.370   6.821   5.787
 9646SOL    HW229838   3.486   6.872   5.683
 9647SOL     OW29839   6.274   5.900   3.256
 9647SOL    HW129840   6.205   5.948   3.311
 9647SOL    HW229841   6.278   5.941   3.165
 9648SOL     OW29842   4.564   2.147   0.957
 9648SOL    HW129843   4.504   2.182   1.029
 9648SOL    HW229844   4.659   2.147   0.991
 9649SOL     OW29845   2.664   3.238   0.863
 9649SOL    HW129846   2.621   3.255   0.774
 9649SOL    HW229847   2.763   3.243   0.854
 9650SOL     OW29848   6.962   5.000   4.046
 9650SOL    HW129849   0.035   4.968   4.041
 9650SOL    HW229850   6.956   5.077   4.110
 9651SOL     OW29851   2.617   1.585   6.993
 9651SOL    HW129852   2.707   1.558   0.006
 9651SOL    HW229853   2.585   1.665   0.022
 9652SOL     OW29854   6.982   3.704   0.967
 9652SOL    HW129855   0.057   3.693   0.989
 9652SOL    HW229856   6.940   3.771   1.030
 9653SOL     OW29857   4.839   3.910   6.361
 9653SOL    HW129858   4.814   3.953   6.448
 9653SOL    HW229859   4.939   3.912   6.351
 9654SOL     OW29860   3.682   3.301   3.839
 9654SOL    HW129861   3.620   3.352   3.899
 9654SOL    HW229862   3.761   3.269   3.892
 9655SOL     OW29863   5.490   0.316   2.250
 9655SOL    HW129864   5.512   0.412   2.229
 9655SOL    HW229865   5.554   0.283   2.320
 9656SOL     OW29866   5.751   4.023   1.202
 9656SOL    HW129867   5.798   3.939   1.230
 9656SOL    HW229868   5.800   4.063   1.124
 9657SOL     OW29869   6.028   3.660   3.510
 9657SOL    HW129870   5.938   3.634   3.476
 9657SOL    HW229871   6.044   3.757   3.492
 9658SOL     OW29872   4.810   1.446   2.595
 9658SOL    HW129873   4.794   1.354   2.630
 9658SOL    HW229874   4.795   1.513   2.669
 9659SOL     OW29875   2.933   2.643   1.155
 9659SOL    HW129876   2.909   2.550   1.183
 9659SOL    HW229877   3.032   2.651   1.146
 9660SOL     OW29878   1.127   5.920   0.929
 9660SOL    HW129879   1.136   5.865   0.846
 9660SOL    HW229880   1.217   5.947   0.961
 9661SOL     OW29881   5.186   5.059   1.098
 9661SOL    HW129882   5.174   5.094   1.004
 9661SOL    HW229883   5.118   4.989   1.116
 9662SOL     OW29884   5.326   4.207   6.993
 9662SOL    HW129885   5.344   4.299   0.007
 9662SOL    HW229886   5.404   4.148   7.013
 9663SOL     OW29887   0.829   4.180   3.572
 9663SOL    HW129888   0.879   4.131   3.643
 9663SOL    HW229889   0.887   4.251   3.533
 9664SOL     OW29890   5.172   4.104   3.334
 9664SOL    HW129891   5.268   4.119   3.311
 9664SOL    HW229892   5.147   4.160   3.413
 9665SOL     OW29893   6.246   6.414   6.537
 9665SOL    HW129894   6.173   6.400   6.604
 9665SOL    HW229895   6.210   6.462   6.458
 9666SOL     OW29896   6.087   4.435   1.039
 9666SOL    HW129897   5.998   4.406   1.072
 9666SOL    HW229898   6.154   4.361   1.052
 9667SOL     OW29899   4.910   5.720   1.018
 9667SOL    HW129900   4.925   5.813   1.051
 9667SOL    HW229901   4.947   5.655   1.085
 9668SOL     OW29902   1.179   6.078   6.056
 9668SOL    HW129903   1.152   6.002   5.997
 9668SOL    HW229904   1.240   6.044   6.128
 9669SOL     OW29905   2.889   6.777   0.530
 9669SOL    HW129906   2.951   6.821   0.465
 9669SOL    HW229907   2.796   6.780   0.495
 9670SOL     OW29908   6.897   0.236   6.123
 9670SOL    HW129909   6.873   0.159   6.064
 9670SOL    HW229910   6.815   0.273   6.166
 9671SOL     OW29911   0.885   4.705   6.586
 9671SOL    HW129912   0.968   4.655   6.611
 9671SOL    HW229913   0.894   4.737   6.491
 9672SOL     OW29914   0.857   4.479   4.045
 9672SOL    HW129915   0.916   4.529   3.981
 9672SOL    HW229916   0.913   4.427   4.108
 9673SOL     OW29917   2.775   4.103   1.430
 9673SOL    HW129918   2.827   4.023   1.402
 9673SOL    HW229919   2.683   4.098   1.392
 9674SOL     OW29920   3.199   6.452   3.005
 9674SOL    HW129921   3.213   6.545   2.971
 9674SOL    HW229922   3.194   6.388   2.928
 9675SOL     OW29923   4.768   3.981   1.260
 9675SOL    HW129924   4.717   3.896   1.246
 9675SOL    HW229925   4.716   4.042   1.320
 9676SOL     OW29926   1.487   2.994   6.054
 9676SOL    HW129927   1.533   2.962   6.137
 9676SOL    HW229928   1.462   2.915   5.997
 9677SOL     OW29929   6.242   4.802   0.405
 9677SOL    HW129930   6.336   4.807   0.374
 9677SOL    HW229931   6.187   4.752   0.339
 9678SOL     OW29932   3.137   3.967   4.975
 9678SOL    HW129933   3.058   3.906   4.983
 9678SOL    HW229934   3.169   3.992   5.067
 9679SOL     OW29935   2.257   1.629   4.428
 9679SOL    HW129936   2.287   1.540   4.394
 9679SOL    HW229937   2.221   1.619   4.521
 9680SOL     OW29938   4.836   6.412   3.557
 9680SOL    HW129939   4.923   6.362   3.553
 9680SOL    HW229940   4.852   6.509   3.543
 9681SOL     OW29941   1.966   0.773   1.348
 9681SOL    HW129942   1.907   0.819   1.414
 9681SOL    HW229943   2.018   0.841   1.297
 9682SOL     OW29944   5.717   5.833   4.633
 9682SOL    HW129945   5.663   5.806   4.553
 9682SOL    HW229946   5.756   5.924   4.617
 9683SOL     OW29947   1.674   6.931   0.722
 9683SOL    HW129948   1.736   6.925   0.644
 9683SOL    HW229949   1.725   6.915   0.806
 9684SOL     OW29950   1.618   4.290   5.513
 9684SOL    HW129951   1.582   4.199   5.530
 9684SOL    HW229952   1.707   4.283   5.467
 9685SOL     OW29953   4.403   3.622   0.489
 9685SOL    HW129954   4.483   3.565   0.472
 9685SOL    HW229955   4.341   3.617   0.411
 9686SOL     OW29956   6.252   2.489   6.043
 9686SOL    HW129957   6.226   2.485   5.947
 9686SOL    HW229958   6.340   2.536   6.052
 9687SOL     OW29959   6.317   0.188   2.135
 9687SOL    HW129960   6.228   0.220   2.101
 9687SOL    HW229961   6.314   0.181   2.235
 9688SOL     OW29962   2.024   4.937   1.332
 9688SOL    HW129963   1.993   4.999   1.260
 9688SOL    HW229964   1.987   4.968   1.420
 9689SOL     OW29965   1.193   6.336   6.833
 9689SOL    HW129966   1.138   6.253   6.838
 9689SOL    HW229967   1.290   6.312   6.844
 9690SOL     OW29968   5.400   5.671   4.683
 9690SOL    HW129969   5.425   5.575   4.669
 9690SOL    HW229970   5.383   5.686   4.781
 9691SOL     OW29971   3.112   3.836   1.864
 9691SOL    HW129972   3.047   3.817   1.938
 9691SOL    HW229973   3.079   3.795   1.779
 9692SOL     OW29974   4.156   5.158   0.113
 9692SOL    HW129975   4.135   5.075   0.163
 9692SOL    HW229976   4.223   5.138   0.041
 9693SOL     OW29977   6.054   4.105   3.775
 9693SOL    HW129978   6.134   4.052   3.746
 9693SOL    HW229979   5.976   4.044   3.786
 9694SOL     OW29980   2.653   6.818   1.949
 9694SOL    HW129981   2.683   6.893   1.890
 9694SOL    HW229982   2.597   6.754   1.897
 9695SOL     OW29983   6.982   3.846   3.662
 9695SOL    HW129984   7.013   3.780   3.730
 9695SOL    HW229985   7.021   3.936   3.682
 9696SOL     OW29986   5.862   1.786   2.961
 9696SOL    HW129987   5.863   1.772   2.862
 9696SOL    HW229988   5.785   1.846   2.985
 9697SOL     OW29989   0.364   5.823   0.281
 9697SOL    HW129990   0.398   5.893   0.344
 9697SOL    HW229991   0.322   5.867   0.201
 9698SOL     OW29992   5.422   3.645   0.639
 9698SOL    HW129993   5.346   3.708   0.626
 9698SOL    HW229994   5.395   3.554   0.608
 9699SOL     OW29995   1.168   5.129   0.248
 9699SOL    HW129996   1.203   5.127   0.154
 9699SOL    HW229997   1.121   5.215   0.264
 9700SOL     OW29998   5.897   6.704   3.961
 9700SOL    HW129999   5.950   6.624   3.989
 9700SOL    HW230000   5.808   6.674   3.927
 9701SOL     OW30001   5.013   2.843   6.864
 9701SOL    HW130002   4.964   2.767   6.908
 9701SOL    HW230003   4.981   2.852   6.769
 9702SOL     OW30004   3.473   2.888   0.566
 9702SOL    HW130005   3.476   2.886   0.666
 9702SOL    HW230006   3.391   2.839   0.534
 9703SOL     OW30007   6.201   4.081   5.117
 9703SOL    HW130008   6.247   4.158   5.073
 9703SOL    HW230009   6.166   4.019   5.047
 9704SOL     OW30010   3.211   4.850   2.445
 9704SOL    HW130011   3.301   4.892   2.431
 9704SOL    HW230012   3.160   4.851   2.359
 9705SOL     OW30013   5.897   4.031   5.492
 9705SOL    HW130014   5.974   4.073   5.444
 9705SOL    HW230015   5.811   4.072   5.459
 9706SOL     OW30016   1.212   1.597   1.729
 9706SOL    HW130017   1.147   1.611   1.804
 9706SOL    HW230018   1.213   1.500   1.704
 9707SOL     OW30019   6.200   4.828   2.353
 9707SOL    HW130020   6.225   4.764   2.280
 9707SOL    HW230021   6.162   4.776   2.430
 9708SOL     OW30022   1.609   0.957   2.874
 9708SOL    HW130023   1.643   0.873   2.917
 9708SOL    HW230024   1.558   0.933   2.792
 9709SOL     OW30025   5.947   3.207   2.630
 9709SOL    HW130026   5.953   3.147   2.709
 9709SOL    HW230027   6.011   3.175   2.559
 9710SOL     OW30028   6.062   6.387   6.028
 9710SOL    HW130029   6.059   6.335   5.943
 9710SOL    HW230030   6.157   6.408   6.051
 9711SOL     OW30031   4.015   6.263   6.877
 9711SOL    HW130032   3.945   6.309   6.822
 9711SOL    HW230033   4.094   6.241   6.820
 9712SOL     OW30034   5.992   3.158   0.822
 9712SOL    HW130035   5.902   3.159   0.779
 9712SOL    HW230036   5.980   3.154   0.922
 9713SOL     OW30037   1.728   6.177   3.528
 9713SOL    HW130038   1.664   6.100   3.520
 9713SOL    HW230039   1.700   6.250   3.465
 9714SOL     OW30040   3.826   5.434   4.545
 9714SOL    HW130041   3.913   5.419   4.592
 9714SOL    HW230042   3.772   5.503   4.594
 9715SOL     OW30043   6.086   4.700   1.047
 9715SOL    HW130044   6.165   4.727   1.102
 9715SOL    HW230045   6.072   4.601   1.055
 9716SOL     OW30046   4.194   4.216   6.566
 9716SOL    HW130047   4.153   4.278   6.633
 9716SOL    HW230048   4.180   4.121   6.595
 9717SOL     OW30049   4.416   0.667   6.004
 9717SOL    HW130050   4.334   0.719   6.027
 9717SOL    HW230051   4.396   0.570   6.008
 9718SOL     OW30052   3.200   1.953   0.501
 9718SOL    HW130053   3.250   2.028   0.457
 9718SOL    HW230054   3.102   1.974   0.501
 9719SOL     OW30055   4.920   6.349   4.716
 9719SOL    HW130056   5.004   6.365   4.767
 9719SOL    HW230057   4.925   6.396   4.628
 9720SOL     OW30058   1.734   4.051   2.644
 9720SOL    HW130059   1.771   3.973   2.593
 9720SOL    HW230060   1.778   4.057   2.733
 9721SOL     OW30061   0.589   1.741   0.441
 9721SOL    HW130062   0.536   1.690   0.509
 9721SOL    HW230063   0.542   1.827   0.419
 9722SOL     OW30064   3.474   2.568   5.527
 9722SOL    HW130065   3.538   2.634   5.487
 9722SOL    HW230066   3.380   2.597   5.508
 9723SOL     OW30067   6.064   4.445   4.786
 9723SOL    HW130068   6.035   4.399   4.702
 9723SOL    HW230069   6.104   4.533   4.764
 9724SOL     OW30070   1.669   5.652   6.825
 9724SOL    HW130071   1.652   5.670   6.922
 9724SOL    HW230072   1.596   5.691   6.770
 9725SOL     OW30073   3.717   5.415   5.581
 9725SOL    HW130074   3.625   5.375   5.576
 9725SOL    HW230075   3.724   5.490   5.515
 9726SOL     OW30076   5.789   0.797   4.615
 9726SOL    HW130077   5.711   0.812   4.554
 9726SOL    HW230078   5.874   0.799   4.561
 9727SOL     OW30079   0.253   2.451   6.906
 9727SOL    HW130080   0.240   2.398   6.990
 9727SOL    HW230081   0.244   2.548   6.926
 9728SOL     OW30082   5.743   0.727   6.045
 9728SOL    HW130083   5.680   0.729   5.968
 9728SOL    HW230084   5.708   0.663   6.114
 9729SOL     OW30085   0.960   3.864   3.538
 9729SOL    HW130086   0.924   3.774   3.564
 9729SOL    HW230087   0.897   3.908   3.474
 9730SOL     OW30088   0.575   4.323   3.682
 9730SOL    HW130089   0.657   4.267   3.688
 9730SOL    HW230090   0.581   4.398   3.747
 9731SOL     OW30091   5.132   3.837   2.611
 9731SOL    HW130092   5.054   3.833   2.548
 9731SOL    HW230093   5.163   3.931   2.621
 9732SOL     OW30094   1.514   2.915   2.341
 9732SOL    HW130095   1.474   2.971   2.413
 9732SOL    HW230096   1.614   2.916   2.349
 9733SOL     OW30097   6.223   5.598   2.983
 9733SOL    HW130098   6.170   5.610   2.898
 9733SOL    HW230099   6.161   5.601   3.061
 9734SOL     OW30100   6.493   6.505   6.716
 9734SOL    HW130101   6.412   6.461   6.677
 9734SOL    HW230102   6.563   6.514   6.646
 9735SOL     OW30103   1.494   1.987   3.268
 9735SOL    HW130104   1.575   2.043   3.279
 9735SOL    HW230105   1.464   1.953   3.357
 9736SOL     OW30106   4.775   2.192   5.335
 9736SOL    HW130107   4.873   2.212   5.335
 9736SOL    HW230108   4.751   2.140   5.253
 9737SOL     OW30109   5.841   1.843   2.498
 9737SOL    HW130110   5.769   1.847   2.429
 9737SOL    HW230111   5.879   1.750   2.501
 9738SOL     OW30112   2.305   6.084   0.502
 9738SOL    HW130113   2.320   6.181   0.483
 9738SOL    HW230114   2.321   6.065   0.599
 9739SOL     OW30115   4.579   6.747   6.929
 9739SOL    HW130116   4.672   6.762   6.897
 9739SOL    HW230117   4.515   6.801   6.874
 9740SOL     OW30118   5.377   1.066   2.629
 9740SOL    HW130119   5.425   1.154   2.634
 9740SOL    HW230120   5.280   1.081   2.609
 9741SOL     OW30121   2.963   1.084   4.048
 9741SOL    HW130122   2.933   1.175   4.022
 9741SOL    HW230123   3.010   1.041   3.971
 9742SOL     OW30124   4.405   1.343   6.726
 9742SOL    HW130125   4.336   1.287   6.679
 9742SOL    HW230126   4.443   1.291   6.802
 9743SOL     OW30127   0.384   2.958   3.502
 9743SOL    HW130128   0.359   2.966   3.406
 9743SOL    HW230129   0.392   3.049   3.543
 9744SOL     OW30130   2.010   6.831   2.920
 9744SOL    HW130131   2.051   6.837   2.829
 9744SOL    HW230132   2.021   6.738   2.955
 9745SOL     OW30133   5.815   1.405   5.947
 9745SOL    HW130134   5.733   1.357   5.978
 9745SOL    HW230135   5.789   1.479   5.885
 9746SOL     OW30136   4.680   6.626   6.680
 9746SOL    HW130137   4.583   6.613   6.703
 9746SOL    HW230138   4.688   6.646   6.582
 9747SOL     OW30139   2.509   1.866   1.849
 9747SOL    HW130140   2.541   1.942   1.792
 9747SOL    HW230141   2.555   1.869   1.938
 9748SOL     OW30142   0.004   0.486   3.165
 9748SOL    HW130143   0.096   0.521   3.182
 9748SOL    HW230144   7.019   0.453   3.071
 9749SOL     OW30145   0.534   2.029   1.865
 9749SOL    HW130146   0.581   2.117   1.857
 9749SOL    HW230147   0.470   2.032   1.943
 9750SOL     OW30148   6.389   5.009   4.118
 9750SOL    HW130149   6.450   5.077   4.078
 9750SOL    HW230150   6.307   5.053   4.152
 9751SOL     OW30151   2.370   0.304   1.260
 9751SOL    HW130152   2.311   0.224   1.260
 9751SOL    HW230153   2.340   0.368   1.190
 9752SOL     OW30154   4.200   2.234   0.081
 9752SOL    HW130155   4.141   2.180   0.022
 9752SOL    HW230156   4.155   2.250   0.168
 9753SOL     OW30157   0.554   5.805   6.564
 9753SOL    HW130158   0.564   5.852   6.477
 9753SOL    HW230159   0.464   5.826   6.603
 9754SOL     OW30160   3.761   0.600   0.673
 9754SOL    HW130161   3.780   0.508   0.639
 9754SOL    HW230162   3.842   0.658   0.660
 9755SOL     OW30163   3.317   4.049   5.197
 9755SOL    HW130164   3.401   4.067   5.147
 9755SOL    HW230165   3.297   4.126   5.258
 9756SOL     OW30166   5.554   1.475   6.155
 9756SOL    HW130167   5.486   1.490   6.227
 9756SOL    HW230168   5.620   1.550   6.156
 9757SOL     OW30169   5.745   4.247   4.064
 9757SOL    HW130170   5.682   4.224   4.138
 9757SOL    HW230171   5.831   4.199   4.078
 9758SOL     OW30172   1.091   0.977   0.430
 9758SOL    HW130173   1.019   0.911   0.407
 9758SOL    HW230174   1.070   1.065   0.388
 9759SOL     OW30175   0.701   1.446   0.450
 9759SOL    HW130176   0.689   1.545   0.463
 9759SOL    HW230177   0.613   1.405   0.428
 9760SOL     OW30178   4.903   2.246   0.107
 9760SOL    HW130179   4.847   2.243   0.190
 9760SOL    HW230180   4.861   2.309   0.042
 9761SOL     OW30181   1.371   1.259   1.940
 9761SOL    HW130182   1.439   1.299   1.878
 9761SOL    HW230183   1.297   1.218   1.887
 9762SOL     OW30184   2.879   1.735   4.908
 9762SOL    HW130185   2.918   1.652   4.866
 9762SOL    HW230186   2.802   1.767   4.853
 9763SOL     OW30187   6.638   1.485   2.182
 9763SOL    HW130188   6.679   1.410   2.233
 9763SOL    HW230189   6.662   1.572   2.225
 9764SOL     OW30190   5.734   2.715   2.542
 9764SOL    HW130191   5.821   2.764   2.538
 9764SOL    HW230192   5.725   2.655   2.463
 9765SOL     OW30193   6.243   1.619   2.190
 9765SOL    HW130194   6.327   1.591   2.144
 9765SOL    HW230195   6.264   1.643   2.285
 9766SOL     OW30196   2.804   0.676   3.588
 9766SOL    HW130197   2.740   0.602   3.570
 9766SOL    HW230198   2.816   0.687   3.687
 9767SOL     OW30199   2.558   3.362   5.990
 9767SOL    HW130200   2.493   3.333   5.920
 9767SOL    HW230201   2.592   3.454   5.968
 9768SOL     OW30202   5.680   2.580   0.621
 9768SOL    HW130203   5.711   2.493   0.660
 9768SOL    HW230204   5.605   2.615   0.677
 9769SOL     OW30205   3.124   1.341   5.514
 9769SOL    HW130206   3.167   1.344   5.604
 9769SOL    HW230207   3.127   1.247   5.478
 9770SOL     OW30208   3.453   2.115   6.291
 9770SOL    HW130209   3.388   2.147   6.221
 9770SOL    HW230210   3.536   2.083   6.247
 9771SOL     OW30211   2.186   6.696   1.807
 9771SOL    HW130212   2.098   6.733   1.779
 9771SOL    HW230213   2.172   6.619   1.870
 9772SOL     OW30214   1.723   6.237   1.911
 9772SOL    HW130215   1.670   6.316   1.942
 9772SOL    HW230216   1.719   6.230   1.811
 9773SOL     OW30217   5.515   5.288   2.905
 9773SOL    HW130218   5.508   5.199   2.859
 9773SOL    HW230219   5.512   5.274   3.004
 9774SOL     OW30220   1.059   5.428   3.992
 9774SOL    HW130221   1.124   5.361   4.028
 9774SOL    HW230222   1.094   5.520   4.006
 9775SOL     OW30223   3.241   0.637   3.370
 9775SOL    HW130224   3.187   0.626   3.453
 9775SOL    HW230225   3.196   0.590   3.294
 9776SOL     OW30226   1.897   5.029   6.123
 9776SOL    HW130227   1.941   5.118   6.120
 9776SOL    HW230228   1.934   4.976   6.200
 9777SOL     OW30229   5.168   6.723   6.624
 9777SOL    HW130230   5.232   6.695   6.552
 9777SOL    HW230231   5.097   6.653   6.635
 9778SOL     OW30232   0.258   1.804   4.711
 9778SOL    HW130233   0.281   1.897   4.680
 9778SOL    HW230234   0.218   1.753   4.635
 9779SOL     OW30235   0.605   2.201   3.178
 9779SOL    HW130236   0.605   2.106   3.208
 9779SOL    HW230237   0.674   2.252   3.230
 9780SOL     OW30238   1.367   1.364   1.416
 9780SOL    HW130239   1.435   1.425   1.376
 9780SOL    HW230240   1.404   1.271   1.419
 9781SOL     OW30241   1.368   3.886   4.079
 9781SOL    HW130242   1.327   3.864   3.991
 9781SOL    HW230243   1.408   3.804   4.119
 9782SOL     OW30244   0.257   2.615   0.526
 9782SOL    HW130245   0.305   2.654   0.447
 9782SOL    HW230246   0.188   2.680   0.558
 9783SOL     OW30247   3.910   1.879   3.214
 9783SOL    HW130248   3.858   1.952   3.169
 9783SOL    HW230249   3.847   1.805   3.241
 9784SOL     OW30250   3.280   0.795   6.473
 9784SOL    HW130251   3.375   0.766   6.460
 9784SOL    HW230252   3.270   0.836   6.564
 9785SOL     OW30253   6.759   2.237   4.469
 9785SOL    HW130254   6.788   2.329   4.445
 9785SOL    HW230255   6.828   2.171   4.437
 9786SOL     OW30256   3.054   4.377   0.691
 9786SOL    HW130257   3.031   4.280   0.698
 9786SOL    HW230258   3.151   4.389   0.710
 9787SOL     OW30259   3.556   3.452   4.103
 9787SOL    HW130260   3.479   3.457   4.039
 9787SOL    HW230261   3.556   3.533   4.161
 9788SOL     OW30262   0.796   5.360   1.902
 9788SOL    HW130263   0.810   5.440   1.961
 9788SOL    HW230264   0.792   5.277   1.959
 9789SOL     OW30265   3.024   6.794   6.943
 9789SOL    HW130266   2.975   6.815   0.006
 9789SOL    HW230267   2.962   6.807   6.865
 9790SOL     OW30268   6.391   4.292   5.342
 9790SOL    HW130269   6.364   4.206   5.386
 9790SOL    HW230270   6.310   4.344   5.318
 9791SOL     OW30271   0.644   6.950   0.107
 9791SOL    HW130272   0.620   7.003   0.188
 9791SOL    HW230273   0.569   6.888   0.084
 9792SOL     OW30274   3.632   5.329   0.540
 9792SOL    HW130275   3.679   5.271   0.608
 9792SOL    HW230276   3.543   5.288   0.518
 9793SOL     OW30277   4.050   0.717   1.095
 9793SOL    HW130278   4.134   0.772   1.096
 9793SOL    HW230279   4.001   0.733   1.009
 9794SOL     OW30280   4.867   4.376   4.481
 9794SOL    HW130281   4.853   4.475   4.492
 9794SOL    HW230282   4.853   4.351   4.385
 9795SOL     OW30283   0.904   3.053   4.262
 9795SOL    HW130284   0.846   3.134   4.268
 9795SOL    HW230285   0.868   2.991   4.192
 9796SOL     OW30286   4.057   3.847   3.873
 9796SOL    HW130287   4.098   3.767   3.829
 9796SOL    HW230288   4.004   3.899   3.805
 9797SOL     OW30289   2.880   6.310   6.757
 9797SOL    HW130290   2.798   6.285   6.707
 9797SOL    HW230291   2.883   6.260   6.844
 9798SOL     OW30292   2.339   1.793   1.184
 9798SOL    HW130293   2.247   1.779   1.149
 9798SOL    HW230294   2.337   1.865   1.254
 9799SOL     OW30295   3.042   4.659   6.312
 9799SOL    HW130296   3.000   4.744   6.343
 9799SOL    HW230297   3.006   4.635   6.222
 9800SOL     OW30298   5.811   3.101   4.294
 9800SOL    HW130299   5.904   3.129   4.270
 9800SOL    HW230300   5.780   3.031   4.230
 9801SOL     OW30301   5.131   4.837   0.081
 9801SOL    HW130302   5.157   4.804   0.172
 9801SOL    HW230303   5.129   4.760   0.017
 9802SOL     OW30304   4.095   4.584   0.491
 9802SOL    HW130305   4.115   4.649   0.565
 9802SOL    HW230306   4.026   4.518   0.522
 9803SOL     OW30307   1.635   2.826   6.804
 9803SOL    HW130308   1.657   2.803   6.709
 9803SOL    HW230309   1.710   2.799   6.863
 9804SOL     OW30310   6.607   5.652   3.236
 9804SOL    HW130311   6.643   5.660   3.144
 9804SOL    HW230312   6.621   5.738   3.285
 9805SOL     OW30313   1.051   6.776   3.023
 9805SOL    HW130314   0.978   6.772   3.091
 9805SOL    HW230315   1.073   6.871   3.003
 9806SOL     OW30316   3.156   2.239   6.379
 9806SOL    HW130317   3.076   2.217   6.324
 9806SOL    HW230318   3.223   2.288   6.324
 9807SOL     OW30319   3.352   2.960   2.525
 9807SOL    HW130320   3.435   2.939   2.576
 9807SOL    HW230321   3.368   2.945   2.428
 9808SOL     OW30322   4.452   5.617   3.802
 9808SOL    HW130323   4.473   5.629   3.900
 9808SOL    HW230324   4.400   5.532   3.790
 9809SOL     OW30325   0.791   3.010   0.428
 9809SOL    HW130326   0.715   2.984   0.369
 9809SOL    HW230327   0.803   3.109   0.423
 9810SOL     OW30328   2.728   2.047   4.960
 9810SOL    HW130329   2.707   1.971   4.899
 9810SOL    HW230330   2.819   2.035   4.999
 9811SOL     OW30331   6.326   2.988   3.747
 9811SOL    HW130332   6.393   2.972   3.819
 9811SOL    HW230333   6.253   3.047   3.782
 9812SOL     OW30334   2.884   6.723   4.428
 9812SOL    HW130335   2.971   6.686   4.395
 9812SOL    HW230336   2.874   6.818   4.397
 9813SOL     OW30337   5.826   2.832   0.607
 9813SOL    HW130338   5.786   2.742   0.623
 9813SOL    HW230339   5.838   2.847   0.509
 9814SOL     OW30340   5.664   1.961   0.059
 9814SOL    HW130341   5.588   1.938   7.020
 9814SOL    HW230342   5.665   1.899   0.137
 9815SOL     OW30343   4.495   2.408   3.969
 9815SOL    HW130344   4.450   2.329   4.011
 9815SOL    HW230345   4.439   2.444   3.895
 9816SOL     OW30346   1.060   6.837   6.007
 9816SOL    HW130347   1.043   6.742   6.030
 9816SOL    HW230348   1.062   6.848   5.907
 9817SOL     OW30349   0.783   6.846   3.075
 9817SOL    HW130350   0.754   6.766   3.128
 9817SOL    HW230351   0.766   6.829   2.978
 9818SOL     OW30352   6.084   1.773   4.783
 9818SOL    HW130353   6.114   1.739   4.872
 9818SOL    HW230354   6.054   1.697   4.727
 9819SOL     OW30355   4.571   2.546   3.116
 9819SOL    HW130356   4.483   2.499   3.118
 9819SOL    HW230357   4.586   2.586   3.026
 9820SOL     OW30358   3.520   3.560   6.829
 9820SOL    HW130359   3.499   3.578   6.733
 9820SOL    HW230360   3.619   3.553   6.841
 9821SOL     OW30361   6.223   6.720   6.739
 9821SOL    HW130362   6.154   6.775   6.786
 9821SOL    HW230363   6.292   6.689   6.805
 9822SOL     OW30364   0.675   0.188   2.819
 9822SOL    HW130365   0.657   0.285   2.839
 9822SOL    HW230366   0.588   0.140   2.806
 9823SOL     OW30367   3.251   0.460   1.073
 9823SOL    HW130368   3.237   0.517   1.155
 9823SOL    HW230369   3.198   0.376   1.082
 9824SOL     OW30370   1.336   3.902   5.968
 9824SOL    HW130371   1.263   3.867   5.909
 9824SOL    HW230372   1.313   3.994   5.998
 9825SOL     OW30373   3.332   5.434   5.537
 9825SOL    HW130374   3.248   5.419   5.588
 9825SOL    HW230375   3.390   5.353   5.543
 9826SOL     OW30376   4.057   5.981   6.326
 9826SOL    HW130377   4.085   6.029   6.242
 9826SOL    HW230378   4.101   5.891   6.329
 9827SOL     OW30379   1.996   4.371   4.353
 9827SOL    HW130380   2.015   4.396   4.258
 9827SOL    HW230381   1.954   4.448   4.400
 9828SOL     OW30382   3.496   2.688   6.545
 9828SOL    HW130383   3.574   2.667   6.487
 9828SOL    HW230384   3.440   2.606   6.559
 9829SOL     OW30385   3.123   6.419   0.798
 9829SOL    HW130386   3.124   6.502   0.853
 9829SOL    HW230387   3.047   6.361   0.828
 9830SOL     OW30388   5.879   2.234   1.610
 9830SOL    HW130389   5.973   2.269   1.614
 9830SOL    HW230390   5.863   2.196   1.519
 9831SOL     OW30391   1.528   6.008   0.416
 9831SOL    HW130392   1.622   6.034   0.438
 9831SOL    HW230393   1.486   6.080   0.361
 9832SOL     OW30394   4.718   5.221   2.535
 9832SOL    HW130395   4.632   5.186   2.496
 9832SOL    HW230396   4.742   5.307   2.489
 9833SOL     OW30397   3.427   2.899   5.024
 9833SOL    HW130398   3.382   2.845   5.096
 9833SOL    HW230399   3.392   2.992   5.025
 9834SOL     OW30400   2.515   4.077   5.791
 9834SOL    HW130401   2.468   4.165   5.792
 9834SOL    HW230402   2.566   4.067   5.705
 9835SOL     OW30403   4.584   2.420   5.247
 9835SOL    HW130404   4.658   2.353   5.260
 9835SOL    HW230405   4.612   2.507   5.288
 9836SOL     OW30406   6.104   3.864   3.197
 9836SOL    HW130407   6.132   3.776   3.158
 9836SOL    HW230408   6.093   3.931   3.124
 9837SOL     OW30409   1.691   0.204   2.995
 9837SOL    HW130410   1.606   0.202   3.049
 9837SOL    HW230411   1.763   0.157   3.046
 9838SOL     OW30412   0.387   6.808   5.282
 9838SOL    HW130413   0.356   6.717   5.255
 9838SOL    HW230414   0.348   6.832   5.371
 9839SOL     OW30415   6.538   1.441   2.750
 9839SOL    HW130416   6.590   1.366   2.790
 9839SOL    HW230417   6.550   1.441   2.651
 9840SOL     OW30418   0.040   0.524   0.564
 9840SOL    HW130419   7.001   0.603   0.573
 9840SOL    HW230420   0.007   0.450   0.623
 9841SOL     OW30421   1.316   4.646   4.807
 9841SOL    HW130422   1.321   4.618   4.711
 9841SOL    HW230423   1.408   4.658   4.843
 9842SOL     OW30424   3.446   4.128   3.174
 9842SOL    HW130425   3.353   4.142   3.210
 9842SOL    HW230426   3.441   4.103   3.078
 9843SOL     OW30427   6.966   1.775   1.808
 9843SOL    HW130428   7.000   1.730   1.890
 9843SOL    HW230429   0.015   1.773   1.737
 9844SOL     OW30430   4.562   0.275   3.068
 9844SOL    HW130431   4.527   0.202   3.010
 9844SOL    HW230432   4.642   0.317   3.024
 9845SOL     OW30433   2.245   1.270   4.769
 9845SOL    HW130434   2.333   1.225   4.753
 9845SOL    HW230435   2.171   1.208   4.743
 9846SOL     OW30436   4.085   3.706   2.840
 9846SOL    HW130437   4.052   3.770   2.772
 9846SOL    HW230438   4.020   3.631   2.851
 9847SOL     OW30439   2.751   2.503   6.038
 9847SOL    HW130440   2.702   2.495   5.951
 9847SOL    HW230441   2.791   2.594   6.045
 9848SOL     OW30442   3.626   2.235   6.478
 9848SOL    HW130443   3.556   2.202   6.415
 9848SOL    HW230444   3.583   2.266   6.563
 9849SOL     OW30445   6.173   0.544   0.147
 9849SOL    HW130446   6.270   0.549   0.121
 9849SOL    HW230447   6.147   0.448   0.159
 9850SOL     OW30448   5.183   5.723   2.515
 9850SOL    HW130449   5.144   5.779   2.588
 9850SOL    HW230450   5.282   5.720   2.524
 9851SOL     OW30451   4.249   1.979   5.591
 9851SOL    HW130452   4.323   2.004   5.654
 9851SOL    HW230453   4.273   2.008   5.498
 9852SOL     OW30454   4.024   2.179   3.203
 9852SOL    HW130455   3.943   2.140   3.162
 9852SOL    HW230456   4.093   2.108   3.216
 9853SOL     OW30457   4.706   4.152   3.466
 9853SOL    HW130458   4.777   4.152   3.396
 9853SOL    HW230459   4.634   4.216   3.441
 9854SOL     OW30460   5.782   4.961   5.258
 9854SOL    HW130461   5.871   5.006   5.242
 9854SOL    HW230462   5.735   5.007   5.333
 9855SOL     OW30463   1.877   4.358   1.492
 9855SOL    HW130464   1.896   4.428   1.560
 9855SOL    HW230465   1.781   4.330   1.498
 9856SOL     OW30466   4.893   4.188   0.415
 9856SOL    HW130467   4.946   4.225   0.338
 9856SOL    HW230468   4.916   4.092   0.428
 9857SOL     OW30469   5.118   2.132   3.476
 9857SOL    HW130470   5.055   2.131   3.554
 9857SOL    HW230471   5.127   2.225   3.441
 9858SOL     OW30472   6.290   0.857   1.299
 9858SOL    HW130473   6.356   0.905   1.357
 9858SOL    HW230474   6.204   0.908   1.297
 9859SOL     OW30475   6.375   0.440   1.186
 9859SOL    HW130476   6.308   0.514   1.190
 9859SOL    HW230477   6.327   0.352   1.181
 9860SOL     OW30478   0.224   1.053   1.977
 9860SOL    HW130479   0.194   0.976   1.921
 9860SOL    HW230480   0.184   1.138   1.942
 9861SOL     OW30481   2.925   6.994   3.518
 9861SOL    HW130482   2.839   6.958   3.554
 9861SOL    HW230483   2.967   6.926   3.458
 9862SOL     OW30484   2.803   3.763   0.705
 9862SOL    HW130485   2.717   3.811   0.689
 9862SOL    HW230486   2.810   3.739   0.802
 9863SOL     OW30487   3.347   6.911   3.292
 9863SOL    HW130488   3.254   6.880   3.312
 9863SOL    HW230489   3.386   6.953   3.373
 9864SOL     OW30490   4.041   5.636   3.522
 9864SOL    HW130491   4.130   5.670   3.490
 9864SOL    HW230492   4.020   5.677   3.610
 9865SOL     OW30493   1.254   1.404   4.815
 9865SOL    HW130494   1.212   1.408   4.725
 9865SOL    HW230495   1.184   1.424   4.885
 9866SOL     OW30496   5.116   4.071   4.485
 9866SOL    HW130497   5.113   4.156   4.538
 9866SOL    HW230498   5.060   4.002   4.529
 9867SOL     OW30499   5.434   0.455   1.410
 9867SOL    HW130500   5.341   0.471   1.376
 9867SOL    HW230501   5.498   0.510   1.358
 9868SOL     OW30502   1.498   4.558   5.800
 9868SOL    HW130503   1.456   4.466   5.800
 9868SOL    HW230504   1.577   4.558   5.861
 9869SOL     OW30505   2.020   3.232   2.584
 9869SOL    HW130506   2.024   3.331   2.582
 9869SOL    HW230507   2.063   3.198   2.667
 9870SOL     OW30508   4.122   6.098   2.481
 9870SOL    HW130509   4.038   6.047   2.499
 9870SOL    HW230510   4.118   6.137   2.389
 9871SOL     OW30511   0.725   6.629   5.664
 9871SOL    HW130512   0.794   6.688   5.706
 9871SOL    HW230513   0.642   6.682   5.645
 9872SOL     OW30514   3.341   5.426   3.884
 9872SOL    HW130515   3.349   5.486   3.963
 9872SOL    HW230516   3.276   5.464   3.818
 9873SOL     OW30517   2.288   2.237   1.292
 9873SOL    HW130518   2.275   2.270   1.198
 9873SOL    HW230519   2.293   2.315   1.354
 9874SOL     OW30520   0.527   2.713   4.434
 9874SOL    HW130521   0.484   2.795   4.397
 9874SOL    HW230522   0.614   2.737   4.478
 9875SOL     OW30523   0.121   6.841   2.242
 9875SOL    HW130524   0.122   6.810   2.147
 9875SOL    HW230525   0.056   6.786   2.295
 9876SOL     OW30526   6.625   1.232   2.297
 9876SOL    HW130527   6.555   1.166   2.322
 9876SOL    HW230528   6.649   1.222   2.201
 9877SOL     OW30529   0.756   5.936   3.195
 9877SOL    HW130530   0.749   6.030   3.229
 9877SOL    HW230531   0.664   5.897   3.188
 9878SOL     OW30532   2.671   5.282   4.711
 9878SOL    HW130533   2.604   5.356   4.723
 9878SOL    HW230534   2.682   5.263   4.613
 9879SOL     OW30535   5.835   5.300   4.972
 9879SOL    HW130536   5.831   5.367   5.047
 9879SOL    HW230537   5.904   5.231   4.993
 9880SOL     OW30538   1.828   2.052   5.426
 9880SOL    HW130539   1.762   2.125   5.408
 9880SOL    HW230540   1.885   2.076   5.504
 9881SOL     OW30541   2.026   1.131   4.657
 9881SOL    HW130542   1.969   1.154   4.578
 9881SOL    HW230543   1.969   1.096   4.731
 9882SOL     OW30544   0.711   2.286   3.589
 9882SOL    HW130545   0.754   2.369   3.552
 9882SOL    HW230546   0.732   2.209   3.529
 9883SOL     OW30547   1.743   5.332   0.100
 9883SOL    HW130548   1.817   5.267   0.116
 9883SOL    HW230549   1.772   5.424   0.127
 9884SOL     OW30550   4.045   1.655   3.054
 9884SOL    HW130551   3.975   1.727   3.059
 9884SOL    HW230552   4.121   1.678   3.115
 9885SOL     OW30553   0.041   3.219   5.249
 9885SOL    HW130554   0.074   3.136   5.203
 9885SOL    HW230555   0.113   3.288   5.247
 9886SOL     OW30556   0.790   4.477   1.677
 9886SOL    HW130557   0.801   4.381   1.702
 9886SOL    HW230558   0.817   4.535   1.754
 9887SOL     OW30559   3.239   1.300   6.236
 9887SOL    HW130560   3.149   1.290   6.193
 9887SOL    HW230561   3.286   1.379   6.196
 9888SOL     OW30562   6.700   4.148   1.833
 9888SOL    HW130563   6.637   4.157   1.755
 9888SOL    HW230564   6.793   4.172   1.803
 9889SOL     OW30565   6.360   5.003   1.603
 9889SOL    HW130566   6.286   5.035   1.662
 9889SOL    HW230567   6.447   5.013   1.650
 9890SOL     OW30568   1.468   2.187   0.240
 9890SOL    HW130569   1.523   2.192   0.157
 9890SOL    HW230570   1.406   2.109   0.235
 9891SOL     OW30571   5.796   3.299   1.198
 9891SOL    HW130572   5.812   3.228   1.267
 9891SOL    HW230573   5.739   3.262   1.125
 9892SOL     OW30574   6.940   5.188   0.679
 9892SOL    HW130575   6.931   5.119   0.751
 9892SOL    HW230576   6.937   5.143   0.589
 9893SOL     OW30577   0.887   0.042   1.240
 9893SOL    HW130578   0.890   6.978   1.189
 9893SOL    HW230579   0.980   0.076   1.253
 9894SOL     OW30580   1.908   2.475   2.083
 9894SOL    HW130581   2.004   2.451   2.065
 9894SOL    HW230582   1.904   2.567   2.123
 9895SOL     OW30583   6.311   3.417   5.665
 9895SOL    HW130584   6.354   3.457   5.746
 9895SOL    HW230585   6.225   3.464   5.646
 9896SOL     OW30586   6.160   0.370   6.598
 9896SOL    HW130587   6.178   0.438   6.669
 9896SOL    HW230588   6.201   0.400   6.511
 9897SOL     OW30589   6.336   5.628   3.351
 9897SOL    HW130590   6.420   5.646   3.300
 9897SOL    HW230591   6.278   5.710   3.349
 9898SOL     OW30592   1.930   6.524   5.160
 9898SOL    HW130593   1.960   6.480   5.244
 9898SOL    HW230594   1.977   6.612   5.150
 9899SOL     OW30595   0.916   5.545   6.702
 9899SOL    HW130596   0.982   5.471   6.687
 9899SOL    HW230597   0.843   5.513   6.761
 9900SOL     OW30598   1.813   3.751   3.178
 9900SOL    HW130599   1.738   3.735   3.114
 9900SOL    HW230600   1.777   3.765   3.269
 9901SOL     OW30601   2.993   1.194   6.138
 9901SOL    HW130602   2.998   1.193   6.038
 9901SOL    HW230603   2.900   1.168   6.166
 9902SOL     OW30604   3.442   4.610   0.391
 9902SOL    HW130605   3.434   4.690   0.451
 9902SOL    HW230606   3.414   4.636   0.298
 9903SOL     OW30607   4.977   1.256   1.510
 9903SOL    HW130608   4.995   1.341   1.459
 9903SOL    HW230609   5.038   1.184   1.477
 9904SOL     OW30610   1.118   4.129   0.237
 9904SOL    HW130611   1.029   4.083   0.238
 9904SOL    HW230612   1.139   4.162   0.329
 9905SOL     OW30613   2.462   0.378   6.415
 9905SOL    HW130614   2.534   0.423   6.362
 9905SOL    HW230615   2.375   0.425   6.401
 9906SOL     OW30616   2.685   3.100   1.736
 9906SOL    HW130617   2.722   3.193   1.734
 9906SOL    HW230618   2.756   3.036   1.707
 9907SOL     OW30619   6.765   0.133   0.876
 9907SOL    HW130620   6.692   0.102   0.815
 9907SOL    HW230621   6.730   0.202   0.939
 9908SOL     OW30622   4.827   1.747   4.444
 9908SOL    HW130623   4.922   1.768   4.468
 9908SOL    HW230624   4.766   1.803   4.500
 9909SOL     OW30625   4.168   0.371   3.869
 9909SOL    HW130626   4.210   0.283   3.892
 9909SOL    HW230627   4.095   0.391   3.934
 9910SOL     OW30628   1.818   3.824   2.827
 9910SOL    HW130629   1.903   3.786   2.792
 9910SOL    HW230630   1.744   3.757   2.815
 9911SOL     OW30631   2.549   6.380   1.823
 9911SOL    HW130632   2.606   6.378   1.905
 9911SOL    HW230633   2.464   6.330   1.840
 9912SOL     OW30634   3.846   0.923   1.506
 9912SOL    HW130635   3.822   0.829   1.528
 9912SOL    HW230636   3.889   0.927   1.416
 9913SOL     OW30637   6.266   4.373   1.258
 9913SOL    HW130638   6.320   4.386   1.175
 9913SOL    HW230639   6.295   4.439   1.328
 9914SOL     OW30640   5.651   2.008   4.616
 9914SOL    HW130641   5.632   1.942   4.543
 9914SOL    HW230642   5.749   2.010   4.634
 9915SOL     OW30643   5.278   0.924   4.357
 9915SOL    HW130644   5.269   0.827   4.337
 9915SOL    HW230645   5.199   0.973   4.320
 9916SOL     OW30646   1.821   2.681   3.252
 9916SOL    HW130647   1.807   2.582   3.257
 9916SOL    HW230648   1.918   2.702   3.250
 9917SOL     OW30649   5.653   4.099   0.308
 9917SOL    HW130650   5.588   4.136   0.374
 9917SOL    HW230651   5.691   4.014   0.344
 9918SOL     OW30652   3.321   1.145   3.564
 9918SOL    HW130653   3.347   1.132   3.660
 9918SOL    HW230654   3.235   1.097   3.546
 9919SOL     OW30655   6.487   4.922   1.387
 9919SOL    HW130656   6.434   4.931   1.472
 9919SOL    HW230657   6.526   5.010   1.362
 9920SOL     OW30658   4.895   1.008   2.438
 9920SOL    HW130659   4.884   1.058   2.524
 9920SOL    HW230660   4.805   0.982   2.403
 9921SOL     OW30661   4.238   0.015   5.661
 9921SOL    HW130662   4.196   6.975   5.594
 9921SOL    HW230663   4.181   0.021   5.742
 9922SOL     OW30664   2.781   4.461   0.268
 9922SOL    HW130665   2.726   4.544   0.277
 9922SOL    HW230666   2.836   4.448   0.351
 9923SOL     OW30667   4.968   4.431   7.006
 9923SOL    HW130668   4.886   4.388   6.968
 9923SOL    HW230669   4.992   4.386   0.071
 9924SOL     OW30670   6.306   1.704   5.291
 9924SOL    HW130671   6.249   1.623   5.303
 9924SOL    HW230672   6.254   1.786   5.312
 9925SOL     OW30673   6.545   3.410   4.140
 9925SOL    HW130674   6.640   3.406   4.171
 9925SOL    HW230675   6.532   3.488   4.079
 9926SOL     OW30676   3.962   2.699   0.979
 9926SOL    HW130677   3.899   2.776   0.972
 9926SOL    HW230678   4.040   2.714   0.919
 9927SOL     OW30679   6.909   6.643   0.335
 9927SOL    HW130680   6.972   6.714   0.302
 9927SOL    HW230681   6.819   6.657   0.293
 9928SOL     OW30682   5.316   5.143   2.009
 9928SOL    HW130683   5.324   5.140   2.109
 9928SOL    HW230684   5.277   5.230   1.981
 9929SOL     OW30685   2.836   4.889   5.602
 9929SOL    HW130686   2.818   4.845   5.514
 9929SOL    HW230687   2.838   4.988   5.590
 9930SOL     OW30688   6.946   6.794   4.477
 9930SOL    HW130689   6.864   6.839   4.443
 9930SOL    HW230690   7.000   6.760   4.399
 9931SOL     OW30691   0.866   5.232   3.958
 9931SOL    HW130692   0.926   5.312   3.961
 9931SOL    HW230693   0.916   5.151   3.987
 9932SOL     OW30694   2.684   5.075   6.709
 9932SOL    HW130695   2.731   4.990   6.684
 9932SOL    HW230696   2.747   5.152   6.701
 9933SOL     OW30697   0.321   5.720   3.628
 9933SOL    HW130698   0.277   5.633   3.651
 9933SOL    HW230699   0.419   5.706   3.619
 9934SOL     OW30700   4.904   1.856   5.607
 9934SOL    HW130701   4.886   1.835   5.703
 9934SOL    HW230702   4.887   1.953   5.589
 9935SOL     OW30703   2.549   6.642   0.225
 9935SOL    HW130704   2.487   6.567   0.249
 9935SOL    HW230705   2.608   6.613   0.150
 9936SOL     OW30706   6.712   5.251   6.732
 9936SOL    HW130707   6.653   5.273   6.653
 9936SOL    HW230708   6.767   5.331   6.756
 9937SOL     OW30709   6.871   1.578   0.462
 9937SOL    HW130710   6.827   1.583   0.552
 9937SOL    HW230711   6.801   1.562   0.392
 9938SOL     OW30712   6.920   5.155   2.363
 9938SOL    HW130713   6.821   5.165   2.371
 9938SOL    HW230714   6.943   5.058   2.363
 9939SOL     OW30715   4.385   2.489   0.859
 9939SOL    HW130716   4.352   2.523   0.948
 9939SOL    HW230717   4.481   2.461   0.868
 9940SOL     OW30718   1.164   0.435   0.963
 9940SOL    HW130719   1.191   0.341   0.944
 9940SOL    HW230720   1.067   0.438   0.986
 9941SOL     OW30721   3.075   3.862   5.608
 9941SOL    HW130722   3.075   3.809   5.524
 9941SOL    HW230723   2.986   3.851   5.654
 9942SOL     OW30724   2.455   5.467   1.954
 9942SOL    HW130725   2.468   5.368   1.949
 9942SOL    HW230726   2.505   5.503   2.032
 9943SOL     OW30727   6.806   5.115   5.341
 9943SOL    HW130728   6.851   5.067   5.266
 9943SOL    HW230729   6.873   5.140   5.410
 9944SOL     OW30730   1.537   4.556   6.544
 9944SOL    HW130731   1.485   4.639   6.527
 9944SOL    HW230732   1.518   4.489   6.473
 9945SOL     OW30733   5.848   5.563   6.499
 9945SOL    HW130734   5.770   5.542   6.557
 9945SOL    HW230735   5.836   5.519   6.410
 9946SOL     OW30736   4.652   0.991   3.623
 9946SOL    HW130737   4.569   0.952   3.663
 9946SOL    HW230738   4.712   1.025   3.696
 9947SOL     OW30739   1.747   2.989   5.061
 9947SOL    HW130740   1.770   3.025   5.152
 9947SOL    HW230741   1.831   2.968   5.011
 9948SOL     OW30742   5.216   4.201   4.831
 9948SOL    HW130743   5.307   4.214   4.872
 9948SOL    HW230744   5.212   4.246   4.742
 9949SOL     OW30745   6.470   5.017   4.445
 9949SOL    HW130746   6.479   4.937   4.386
 9949SOL    HW230747   6.496   5.099   4.394
 9950SOL     OW30748   5.791   6.021   4.925
 9950SOL    HW130749   5.732   6.048   4.849
 9950SOL    HW230750   5.867   6.085   4.933
 9951SOL     OW30751   6.628   0.637   4.918
 9951SOL    HW130752   6.705   0.575   4.928
 9951SOL    HW230753   6.545   0.595   4.956
 9952SOL     OW30754   0.688   3.467   1.634
 9952SOL    HW130755   0.763   3.454   1.568
 9952SOL    HW230756   0.620   3.529   1.595
 9953SOL     OW30757   5.895   2.778   4.366
 9953SOL    HW130758   5.884   2.699   4.306
 9953SOL    HW230759   5.932   2.855   4.312
 9954SOL     OW30760   6.554   0.335   5.860
 9954SOL    HW130761   6.506   0.301   5.940
 9954SOL    HW230762   6.611   0.263   5.821
 9955SOL     OW30763   6.325   3.561   5.233
 9955SOL    HW130764   6.368   3.540   5.321
 9955SOL    HW230765   6.360   3.648   5.198
 9956SOL     OW30766   0.884   0.245   2.243
 9956SOL    HW130767   0.935   0.159   2.238
 9956SOL    HW230768   0.938   0.317   2.200
 9957SOL     OW30769   5.146   5.599   2.251
 9957SOL    HW130770   5.156   5.506   2.287
 9957SOL    HW230771   5.143   5.663   2.327
 9958SOL     OW30772   3.511   5.806   1.007
 9958SOL    HW130773   3.421   5.805   0.964
 9958SOL    HW230774   3.576   5.754   0.951
 9959SOL     OW30775   4.103   3.632   5.209
 9959SOL    HW130776   4.070   3.657   5.119
 9959SOL    HW230777   4.192   3.674   5.225
 9960SOL     OW30778   6.903   6.594   2.626
 9960SOL    HW130779   6.953   6.653   2.690
 9960SOL    HW230780   6.931   6.615   2.533
 9961SOL     OW30781   1.821   5.255   4.188
 9961SOL    HW130782   1.877   5.176   4.165
 9961SOL    HW230783   1.758   5.275   4.113
 9962SOL     OW30784   6.614   6.989   2.883
 9962SOL    HW130785   6.518   7.013   2.894
 9962SOL    HW230786   6.625   6.890   2.897
 9963SOL     OW30787   3.047   2.644   6.594
 9963SOL    HW130788   3.036   2.743   6.606
 9963SOL    HW230789   2.970   2.597   6.637
 9964SOL     OW30790   5.148   4.927   5.525
 9964SOL    HW130791   5.108   4.913   5.615
 9964SOL    HW230792   5.122   4.852   5.464
 9965SOL     OW30793   3.741   6.558   6.327
 9965SOL    HW130794   3.831   6.514   6.333
 9965SOL    HW230795   3.734   6.630   6.396
 9966SOL     OW30796   1.487   5.690   1.767
 9966SOL    HW130797   1.581   5.723   1.780
 9966SOL    HW230798   1.487   5.615   1.701
 9967SOL     OW30799   0.460   6.662   2.235
 9967SOL    HW130800   0.384   6.626   2.289
 9967SOL    HW230801   0.477   6.601   2.158
 9968SOL     OW30802   3.569   3.839   1.270
 9968SOL    HW130803   3.552   3.919   1.212
 9968SOL    HW230804   3.489   3.781   1.271
 9969SOL     OW30805   1.888   2.735   2.247
 9969SOL    HW130806   1.986   2.748   2.258
 9969SOL    HW230807   1.839   2.818   2.275
 9970SOL     OW30808   5.125   3.705   2.859
 9970SOL    HW130809   5.157   3.769   2.929
 9970SOL    HW230810   5.129   3.749   2.770
 9971SOL     OW30811   1.968   5.097   1.573
 9971SOL    HW130812   2.056   5.131   1.541
 9971SOL    HW230813   1.895   5.155   1.535
 9972SOL     OW30814   5.241   5.094   1.373
 9972SOL    HW130815   5.207   5.102   1.279
 9972SOL    HW230816   5.334   5.056   1.371
 9973SOL     OW30817   5.799   1.947   3.993
 9973SOL    HW130818   5.770   1.981   3.904
 9973SOL    HW230819   5.872   1.879   3.981
 9974SOL     OW30820   0.842   2.704   2.739
 9974SOL    HW130821   0.895   2.787   2.755
 9974SOL    HW230822   0.904   2.626   2.729
 9975SOL     OW30823   6.317   4.144   0.165
 9975SOL    HW130824   6.388   4.204   0.127
 9975SOL    HW230825   6.355   4.054   0.183
 9976SOL     OW30826   1.180   6.321   5.764
 9976SOL    HW130827   1.137   6.264   5.694
 9976SOL    HW230828   1.280   6.316   5.755
 9977SOL     OW30829   6.846   5.428   5.293
 9977SOL    HW130830   6.911   5.359   5.323
 9977SOL    HW230831   6.766   5.383   5.253
 9978SOL     OW30832   0.484   2.439   4.258
 9978SOL    HW130833   0.410   2.398   4.204
 9978SOL    HW230834   0.461   2.534   4.279
 9979SOL     OW30835   6.059   5.036   5.442
 9979SOL    HW130836   6.007   5.111   5.400
 9979SOL    HW230837   6.025   5.020   5.535
 9980SOL     OW30838   1.816   0.881   6.365
 9980SOL    HW130839   1.802   0.830   6.280
 9980SOL    HW230840   1.782   0.974   6.353
 9981SOL     OW30841   2.422   1.389   2.985
 9981SOL    HW130842   2.382   1.400   3.076
 9981SOL    HW230843   2.350   1.385   2.916
 9982SOL     OW30844   6.507   6.259   4.462
 9982SOL    HW130845   6.533   6.240   4.368
 9982SOL    HW230846   6.466   6.350   4.468
 9983SOL     OW30847   6.440   2.046   2.772
 9983SOL    HW130848   6.418   2.141   2.753
 9983SOL    HW230849   6.533   2.026   2.742
 9984SOL     OW30850   2.487   0.920   0.191
 9984SOL    HW130851   2.562   0.897   0.129
 9984SOL    HW230852   2.404   0.936   0.138
 9985SOL     OW30853   1.175   0.704   0.679
 9985SOL    HW130854   1.201   0.798   0.653
 9985SOL    HW230855   1.079   0.703   0.705
 9986SOL     OW30856   5.649   4.791   6.180
 9986SOL    HW130857   5.665   4.858   6.253
 9986SOL    HW230858   5.607   4.709   6.218
 9987SOL     OW30859   0.158   2.875   4.048
 9987SOL    HW130860   0.174   2.791   4.100
 9987SOL    HW230861   0.193   2.865   3.956
 9988SOL     OW30862   0.205   5.878   3.851
 9988SOL    HW130863   0.262   5.909   3.927
 9988SOL    HW230864   0.262   5.833   3.782
 9989SOL     OW30865   6.755   3.595   3.817
 9989SOL    HW130866   6.761   3.526   3.745
 9989SOL    HW230867   6.661   3.599   3.852
 9990SOL     OW30868   2.277   5.233   2.599
 9990SOL    HW130869   2.374   5.225   2.621
 9990SOL    HW230870   2.257   5.177   2.519
 9991SOL     OW30871   2.114   2.228   3.696
 9991SOL    HW130872   2.100   2.132   3.718
 9991SOL    HW230873   2.100   2.284   3.777
 9992SOL     OW30874   5.661   5.308   6.790
 9992SOL    HW130875   5.681   5.210   6.791
 9992SOL    HW230876   5.620   5.333   6.878
 9993SOL     OW30877   3.061   1.122   0.542
 9993SOL    HW130878   2.978   1.167   0.576
 9993SOL    HW230879   3.078   1.040   0.597
 9994SOL     OW30880   6.267   4.450   3.262
 9994SOL    HW130881   6.177   4.481   3.230
 9994SOL    HW230882   6.317   4.410   3.185
 9995SOL     OW30883   4.541   1.272   2.760
 9995SOL    HW130884   4.571   1.318   2.844
 9995SOL    HW230885   4.504   1.339   2.696
 9996SOL     OW30886   3.135   3.878   0.396
 9996SOL    HW130887   3.084   3.809   0.344
 9996SOL    HW230888   3.178   3.942   0.332
 9997SOL     OW30889   2.906   1.449   5.856
 9997SOL    HW130890   2.920   1.507   5.776
 9997SOL    HW230891   2.901   1.507   5.938
 9998SOL     OW30892   5.874   4.881   6.054
 9998SOL    HW130893   5.934   4.920   6.124
 9998SOL    HW230894   5.792   4.845   6.097
 9999SOL     OW30895   6.308   2.768   5.781
 9999SOL    HW130896   6.395   2.783   5.734
 9999SOL    HW230897   6.244   2.723   5.718
10000SOL     OW30898   0.239   4.852   0.072
10000SOL    HW130899   0.254   4.754   0.071
10000SOL    HW230900   0.314   4.899   0.026
10001SOL     OW30901   4.847   6.898   2.126
10001SOL    HW130902   4.946   6.906   2.129
10001SOL    HW230903   4.819   6.808   2.159
10002SOL     OW30904   1.213   6.615   2.290
10002SOL    HW130905   1.265   6.535   2.260
10002SOL    HW230906   1.240   6.694   2.235
10003SOL     OW30907   3.833   2.009   3.536
10003SOL    HW130908   3.901   1.936   3.544
10003SOL    HW230909   3.802   2.036   3.628
10004SOL     OW30910   6.888   2.540   3.901
10004SOL    HW130911   6.941   2.457   3.918
10004SOL    HW230912   6.823   2.554   3.975
10005SOL     OW30913   5.724   0.555   4.408
10005SOL    HW130914   5.735   0.530   4.504
10005SOL    HW230915   5.812   0.544   4.361
10006SOL     OW30916   5.130   5.598   4.711
10006SOL    HW130917   5.220   5.621   4.674
10006SOL    HW230918   5.122   5.636   4.803
10007SOL     OW30919   6.880   4.388   4.944
10007SOL    HW130920   6.853   4.391   5.040
10007SOL    HW230921   6.830   4.459   4.893
10008SOL     OW30922   3.954   1.679   4.845
10008SOL    HW130923   3.967   1.756   4.783
10008SOL    HW230924   3.955   1.711   4.939
10009SOL     OW30925   1.843   3.880   2.141
10009SOL    HW130926   1.869   3.977   2.136
10009SOL    HW230927   1.905   3.832   2.203
10010SOL     OW30928   2.300   1.048   5.920
10010SOL    HW130929   2.249   1.073   5.838
10010SOL    HW230930   2.265   1.098   5.999
10011SOL     OW30931   6.339   0.845   5.916
10011SOL    HW130932   6.277   0.769   5.896
10011SOL    HW230933   6.318   0.922   5.855
10012SOL     OW30934   5.505   1.299   2.949
10012SOL    HW130935   5.509   1.199   2.949
10012SOL    HW230936   5.543   1.334   2.864
10013SOL     OW30937   0.394   1.141   3.399
10013SOL    HW130938   0.346   1.224   3.428
10013SOL    HW230939   0.373   1.123   3.303
10014SOL     OW30940   0.403   4.097   0.104
10014SOL    HW130941   0.426   4.050   0.189
10014SOL    HW230942   0.468   4.071   0.033
10015SOL     OW30943   2.772   5.117   0.630
10015SOL    HW130944   2.741   5.103   0.536
10015SOL    HW230945   2.810   5.209   0.639
10016SOL     OW30946   0.769   1.583   6.519
10016SOL    HW130947   0.795   1.677   6.539
10016SOL    HW230948   0.675   1.581   6.484
10017SOL     OW30949   3.193   2.062   3.193
10017SOL    HW130950   3.137   2.033   3.115
10017SOL    HW230951   3.134   2.094   3.266
10018SOL     OW30952   4.978   0.458   6.802
10018SOL    HW130953   4.909   0.482   6.870
10018SOL    HW230954   5.069   0.460   6.844
10019SOL     OW30955   0.412   1.502   2.703
10019SOL    HW130956   0.481   1.468   2.767
10019SOL    HW230957   0.328   1.523   2.753
10020SOL     OW30958   1.559   2.082   1.383
10020SOL    HW130959   1.577   2.133   1.299
10020SOL    HW230960   1.610   2.124   1.459
10021SOL     OW30961   6.770   2.839   1.147
10021SOL    HW130962   6.861   2.832   1.104
10021SOL    HW230963   6.755   2.933   1.177
10022SOL     OW30964   2.058   1.450   5.951
10022SOL    HW130965   2.099   1.538   5.977
10022SOL    HW230966   1.997   1.464   5.873
10023SOL     OW30967   0.103   4.745   0.694
10023SOL    HW130968   0.161   4.712   0.619
10023SOL    HW230969   0.039   4.673   0.721
10024SOL     OW30970   1.761   6.145   3.009
10024SOL    HW130971   1.736   6.086   2.932
10024SOL    HW230972   1.815   6.222   2.977
10025SOL     OW30973   1.682   0.709   0.801
10025SOL    HW130974   1.592   0.675   0.774
10025SOL    HW230975   1.732   0.739   0.719
10026SOL     OW30976   4.924   7.001   3.751
10026SOL    HW130977   4.998   6.986   3.685
10026SOL    HW230978   4.839   6.960   3.715
10027SOL     OW30979   5.719   3.376   4.682
10027SOL    HW130980   5.683   3.331   4.764
10027SOL    HW230981   5.738   3.308   4.612
10028SOL     OW30982   0.772   6.963   1.473
10028SOL    HW130983   0.838   7.011   1.416
10028SOL    HW230984   0.717   0.008   1.523
10029SOL     OW30985   5.197   2.287   3.904
10029SOL    HW130986   5.277   2.234   3.875
10029SOL    HW230987   5.117   2.227   3.908
10030SOL     OW30988   1.864   0.603   2.967
10030SOL    HW130989   1.853   0.698   2.998
10030SOL    HW230990   1.779   0.572   2.924
10031SOL     OW30991   5.656   4.832   4.145
10031SOL    HW130992   5.672   4.823   4.046
10031SOL    HW230993   5.558   4.831   4.162
10032SOL     OW30994   2.890   1.206   5.362
10032SOL    HW130995   2.923   1.297   5.386
10032SOL    HW230996   2.945   1.169   5.288
10033SOL     OW30997   6.832   3.627   4.252
10033SOL    HW130998   6.886   3.617   4.335
10033SOL    HW230999   6.838   3.542   4.198
10034SOL     OW31000   3.881   0.531   4.396
10034SOL    HW131001   3.961   0.589   4.378
10034SOL    HW231002   3.899   0.439   4.360
10035SOL     OW31003   6.424   5.371   2.153
10035SOL    HW131004   6.396   5.279   2.127
10035SOL    HW231005   6.361   5.438   2.114
10036SOL     OW31006   6.663   1.932   0.846
10036SOL    HW131007   6.762   1.919   0.837
10036SOL    HW231008   6.615   1.872   0.782
10037SOL     OW31009   7.011   1.507   6.356
10037SOL    HW131010   0.053   1.445   6.310
10037SOL    HW231011   6.951   1.549   6.288
10038SOL     OW31012   6.323   0.231   7.014
10038SOL    HW131013   6.369   0.290   6.948
10038SOL    HW231014   6.344   0.135   6.995
10039SOL     OW31015   3.260   0.202   3.452
10039SOL    HW131016   3.213   0.234   3.535
10039SOL    HW231017   3.192   0.184   3.380
10040SOL     OW31018   5.783   4.635   6.850
10040SOL    HW131019   5.779   4.641   6.950
10040SOL    HW231020   5.793   4.540   6.822
10041SOL     OW31021   3.453   6.211   0.561
10041SOL    HW131022   3.403   6.158   0.629
10041SOL    HW231023   3.523   6.153   0.518
10042SOL     OW31024   6.892   2.123   3.024
10042SOL    HW131025   6.882   2.117   2.925
10042SOL    HW231026   6.912   2.218   3.049
10043SOL     OW31027   6.472   2.083   5.839
10043SOL    HW131028   6.443   2.064   5.933
10043SOL    HW231029   6.569   2.062   5.829
10044SOL     OW31030   2.697   3.309   5.719
10044SOL    HW131031   2.630   3.235   5.723
10044SOL    HW231032   2.744   3.316   5.806
10045SOL     OW31033   4.295   1.043   0.482
10045SOL    HW131034   4.311   1.116   0.549
10045SOL    HW231035   4.235   1.077   0.410
10046SOL     OW31036   1.560   4.114   1.238
10046SOL    HW131037   1.618   4.097   1.159
10046SOL    HW231038   1.611   4.164   1.308
10047SOL     OW31039   1.096   3.475   6.483
10047SOL    HW131040   1.130   3.500   6.392
10047SOL    HW231041   1.140   3.391   6.514
10048SOL     OW31042   6.876   6.659   3.041
10048SOL    HW131043   6.927   6.717   3.104
10048SOL    HW231044   6.881   6.564   3.072
10049SOL     OW31045   0.609   2.950   6.210
10049SOL    HW131046   0.589   2.854   6.231
10049SOL    HW231047   0.679   2.984   6.272
10050SOL     OW31048   5.131   3.541   5.207
10050SOL    HW131049   5.200   3.503   5.144
10050SOL    HW231050   5.056   3.475   5.218
10051SOL     OW31051   0.829   4.328   4.744
10051SOL    HW131052   0.857   4.235   4.769
10051SOL    HW231053   0.847   4.390   4.820
10052SOL     OW31054   1.172   0.692   3.443
10052SOL    HW131055   1.197   0.595   3.438
10052SOL    HW231056   1.218   0.734   3.521
10053SOL     OW31057   5.112   5.465   4.302
10053SOL    HW131058   5.093   5.372   4.334
10053SOL    HW231059   5.107   5.467   4.202
10054SOL     OW31060   5.800   3.792   4.823
10054SOL    HW131061   5.751   3.724   4.769
10054SOL    HW231062   5.875   3.831   4.768
10055SOL     OW31063   6.554   2.409   6.714
10055SOL    HW131064   6.620   2.480   6.741
10055SOL    HW231065   6.564   2.330   6.774
10056SOL     OW31066   5.225   3.376   3.171
10056SOL    HW131067   5.324   3.392   3.179
10056SOL    HW231068   5.208   3.278   3.163
10057SOL     OW31069   5.700   4.097   6.218
10057SOL    HW131070   5.611   4.056   6.197
10057SOL    HW231071   5.687   4.192   6.245
10058SOL     OW31072   6.484   3.301   4.985
10058SOL    HW131073   6.467   3.297   4.887
10058SOL    HW231074   6.396   3.295   5.034
10059SOL     OW31075   6.587   1.320   0.232
10059SOL    HW131076   6.529   1.290   0.155
10059SOL    HW231077   6.552   1.282   0.317
10060SOL     OW31078   2.826   1.780   2.339
10060SOL    HW131079   2.837   1.859   2.279
10060SOL    HW231080   2.822   1.697   2.283
10061SOL     OW31081   4.031   1.101   3.882
10061SOL    HW131082   3.970   1.170   3.844
10061SOL    HW231083   4.084   1.141   3.957
10062SOL     OW31084   0.611   7.004   3.880
10062SOL    HW131085   0.623   0.042   3.959
10062SOL    HW231086   0.545   0.023   3.818
10063SOL     OW31087   1.698   2.209   4.677
10063SOL    HW131088   1.724   2.144   4.748
10063SOL    HW231089   1.742   2.297   4.696
10064SOL     OW31090   3.298   6.327   6.995
10064SOL    HW131091   3.275   6.422   6.976
10064SOL    HW231092   3.264   6.302   0.064
10065SOL     OW31093   0.948   0.460   1.803
10065SOL    HW131094   0.941   0.521   1.882
10065SOL    HW231095   0.866   0.402   1.799
10066SOL     OW31096   6.911   3.657   4.836
10066SOL    HW131097   7.006   3.641   4.809
10066SOL    HW231098   6.908   3.730   4.904
10067SOL     OW31099   0.918   2.877   6.375
10067SOL    HW131100   0.866   2.792   6.370
10067SOL    HW231101   0.982   2.882   6.299
10068SOL     OW31102   2.327   2.812   2.455
10068SOL    HW131103   2.368   2.901   2.442
10068SOL    HW231104   2.234   2.823   2.490
10069SOL     OW31105   3.688   5.005   1.791
10069SOL    HW131106   3.783   5.004   1.822
10069SOL    HW231107   3.626   5.013   1.869
10070SOL     OW31108   3.072   5.610   5.075
10070SOL    HW131109   2.998   5.674   5.096
10070SOL    HW231110   3.111   5.632   4.986
10071SOL     OW31111   0.694   6.603   3.196
10071SOL    HW131112   0.776   6.549   3.176
10071SOL    HW231113   0.645   6.562   3.273
10072SOL     OW31114   6.685   1.429   2.525
10072SOL    HW131115   6.781   1.456   2.527
10072SOL    HW231116   6.675   1.346   2.470
10073SOL     OW31117   6.074   3.086   4.283
10073SOL    HW131118   6.139   3.104   4.209
10073SOL    HW231119   6.108   3.129   4.367
10074SOL     OW31120   2.498   5.043   0.395
10074SOL    HW131121   2.596   5.032   0.377
10074SOL    HW231122   2.484   5.068   0.491
10075SOL     OW31123   2.047   1.797   2.274
10075SOL    HW131124   2.001   1.872   2.227
10075SOL    HW231125   1.996   1.712   2.259
10076SOL     OW31126   5.026   5.314   3.424
10076SOL    HW131127   4.991   5.406   3.440
10076SOL    HW231128   4.971   5.268   3.354
10077SOL     OW31129   6.275   3.374   6.753
10077SOL    HW131130   6.196   3.314   6.762
10077SOL    HW231131   6.358   3.319   6.743
10078SOL     OW31132   0.105   6.273   4.470
10078SOL    HW131133   0.026   6.281   4.530
10078SOL    HW231134   0.139   6.365   4.447
10079SOL     OW31135   5.241   2.890   3.025
10079SOL    HW131136   5.324   2.835   3.030
10079SOL    HW231137   5.185   2.859   2.948
10080SOL     OW31138   5.481   0.832   5.903
10080SOL    HW131139   5.537   0.785   5.835
10080SOL    HW231140   5.388   0.843   5.869
10081SOL     OW31141   1.625   2.084   0.454
10081SOL    HW131142   1.725   2.094   0.448
10081SOL    HW231143   1.584   2.106   0.365
10082SOL     OW31144   1.663   4.755   2.456
10082SOL    HW131145   1.660   4.714   2.364
10082SOL    HW231146   1.577   4.734   2.504
10083SOL     OW31147   3.998   5.207   3.887
10083SOL    HW131148   4.024   5.292   3.841
10083SOL    HW231149   3.950   5.148   3.823
10084SOL     OW31150   0.969   0.261   5.250
10084SOL    HW131151   1.022   0.275   5.167
10084SOL    HW231152   0.997   0.328   5.319
10085SOL     OW31153   3.970   6.473   0.602
10085SOL    HW131154   3.885   6.520   0.625
10085SOL    HW231155   4.044   6.540   0.596
10086SOL     OW31156   6.242   6.008   2.115
10086SOL    HW131157   6.307   6.069   2.071
10086SOL    HW231158   6.202   5.947   2.046
10087SOL     OW31159   1.667   6.334   4.340
10087SOL    HW131160   1.604   6.400   4.380
10087SOL    HW231161   1.615   6.255   4.306
10088SOL     OW31162   6.717   3.028   6.627
10088SOL    HW131163   6.740   2.989   6.716
10088SOL    HW231164   6.619   3.019   6.612
10089SOL     OW31165   4.400   1.805   1.970
10089SOL    HW131166   4.362   1.869   1.902
10089SOL    HW231167   4.355   1.717   1.961
10090SOL     OW31168   1.414   5.335   1.045
10090SOL    HW131169   1.486   5.395   1.013
10090SOL    HW231170   1.393   5.355   1.141
10091SOL     OW31171   6.263   4.767   5.828
10091SOL    HW131172   6.312   4.849   5.858
10091SOL    HW231173   6.171   4.792   5.798
10092SOL     OW31174   0.149   2.862   5.273
10092SOL    HW131175   0.052   2.880   5.285
10092SOL    HW231176   0.200   2.902   5.349
10093SOL     OW31177   5.587   4.066   5.913
10093SOL    HW131178   5.528   4.005   5.966
10093SOL    HW231179   5.613   4.022   5.827
10094SOL     OW31180   3.166   0.789   0.931
10094SOL    HW131181   3.113   0.850   0.872
10094SOL    HW231182   3.194   0.708   0.878
10095SOL     OW31183   5.151   2.892   5.391
10095SOL    HW131184   5.160   2.796   5.416
10095SOL    HW231185   5.066   2.905   5.340
10096SOL     OW31186   4.971   0.891   2.713
10096SOL    HW131187   4.929   0.874   2.623
10096SOL    HW231188   4.976   0.805   2.764
10097SOL     OW31189   1.340   1.826   6.804
10097SOL    HW131190   1.349   1.825   6.705
10097SOL    HW231191   1.366   1.736   6.841
10098SOL     OW31192   3.590   5.584   4.673
10098SOL    HW131193   3.562   5.491   4.695
10098SOL    HW231194   3.512   5.646   4.684
10099SOL     OW31195   6.960   4.510   2.272
10099SOL    HW131196   6.995   4.597   2.238
10099SOL    HW231197   6.985   4.498   2.368
10100SOL     OW31198   5.324   5.243   4.578
10100SOL    HW131199   5.242   5.281   4.537
10100SOL    HW231200   5.319   5.143   4.575
10101SOL     OW31201   0.992   1.825   1.112
10101SOL    HW131202   0.893   1.841   1.117
10101SOL    HW231203   1.037   1.868   1.190
10102SOL     OW31204   6.586   6.618   1.375
10102SOL    HW131205   6.644   6.678   1.431
10102SOL    HW231206   6.566   6.664   1.288
10103SOL     OW31207   0.102   6.446   5.840
10103SOL    HW131208   0.163   6.378   5.799
10103SOL    HW231209   0.008   6.428   5.811
10104SOL     OW31210   1.961   0.721   5.616
10104SOL    HW131211   2.010   0.659   5.676
10104SOL    HW231212   2.024   0.791   5.581
10105SOL     OW31213   2.302   0.771   5.843
10105SOL    HW131214   2.283   0.860   5.885
10105SOL    HW231215   2.392   0.773   5.800
10106SOL     OW31216   5.019   6.000   1.502
10106SOL    HW131217   4.960   5.935   1.454
10106SOL    HW231218   5.084   6.040   1.438
10107SOL     OW31219   5.494   4.124   6.654
10107SOL    HW131220   5.536   4.115   6.564
10107SOL    HW231221   5.550   4.185   6.711
10108SOL     OW31222   1.279   1.836   0.597
10108SOL    HW131223   1.335   1.754   0.610
10108SOL    HW231224   1.335   1.917   0.612
10109SOL     OW31225   0.766   1.097   0.464
10109SOL    HW131226   0.840   1.157   0.432
10109SOL    HW231227   0.796   1.002   0.460
10110SOL     OW31228   4.982   6.320   2.971
10110SOL    HW131229   4.971   6.417   2.951
10110SOL    HW231230   4.992   6.269   2.886
10111SOL     OW31231   1.330   1.745   2.049
10111SOL    HW131232   1.343   1.761   2.146
10111SOL    HW231233   1.380   1.663   2.021
10112SOL     OW31234   6.235   2.073   3.688
10112SOL    HW131235   6.290   2.156   3.697
10112SOL    HW231236   6.175   2.065   3.767
10113SOL     OW31237   5.742   1.193   6.669
10113SOL    HW131238   5.690   1.268   6.709
10113SOL    HW231239   5.828   1.228   6.632
10114SOL     OW31240   3.924   1.617   2.524
10114SOL    HW131241   3.949   1.706   2.487
10114SOL    HW231242   4.006   1.570   2.558
10115SOL     OW31243   3.399   2.235   5.325
10115SOL    HW131244   3.407   2.164   5.256
10115SOL    HW231245   3.327   2.300   5.298
10116SOL     OW31246   6.259   0.547   4.738
10116SOL    HW131247   6.306   0.571   4.823
10116SOL    HW231248   6.219   0.456   4.746
10117SOL     OW31249   6.752   5.406   3.924
10117SOL    HW131250   6.692   5.437   3.998
10117SOL    HW231251   6.847   5.429   3.946
10118SOL     OW31252   3.474   4.909   4.694
10118SOL    HW131253   3.554   4.890   4.750
10118SOL    HW231254   3.502   4.913   4.598
10119SOL     OW31255   0.267   5.091   4.796
10119SOL    HW131256   0.304   5.138   4.716
10119SOL    HW231257   0.338   5.084   4.866
10120SOL     OW31258   2.296   2.875   1.938
10120SOL    HW131259   2.332   2.928   2.015
10120SOL    HW231260   2.350   2.895   1.856
10121SOL     OW31261   6.302   3.999   0.925
10121SOL    HW131262   6.247   3.924   0.962
10121SOL    HW231263   6.313   3.986   0.826
10122SOL     OW31264   1.069   1.134   3.952
10122SOL    HW131265   0.991   1.073   3.967
10122SOL    HW231266   1.050   1.223   3.994
10123SOL     OW31267   5.919   5.936   0.748
10123SOL    HW131268   5.910   6.033   0.773
10123SOL    HW231269   5.988   5.893   0.806
10124SOL     OW31270   1.457   3.975   2.717
10124SOL    HW131271   1.542   3.991   2.666
10124SOL    HW231272   1.462   4.023   2.805
10125SOL     OW31273   0.964   1.824   6.191
10125SOL    HW131274   0.884   1.768   6.169
10125SOL    HW231275   0.936   1.919   6.202
10126SOL     OW31276   6.900   6.520   6.523
10126SOL    HW131277   6.952   6.605   6.524
10126SOL    HW231278   6.811   6.536   6.479
10127SOL     OW31279   1.960   5.320   6.170
10127SOL    HW131280   2.053   5.354   6.159
10127SOL    HW231281   1.898   5.370   6.110
10128SOL     OW31282   3.364   0.322   6.917
10128SOL    HW131283   3.423   0.395   6.884
10128SOL    HW231284   3.360   0.248   6.850
10129SOL     OW31285   6.003   1.353   4.063
10129SOL    HW131286   5.974   1.430   4.119
10129SOL    HW231287   6.045   1.387   3.978
10130SOL     OW31288   1.640   2.223   2.944
10130SOL    HW131289   1.595   2.251   3.029
10130SOL    HW231290   1.738   2.216   2.959
10131SOL     OW31291   2.265   0.668   4.620
10131SOL    HW131292   2.195   0.737   4.601
10131SOL    HW231293   2.222   0.590   4.665
10132SOL     OW31294   6.878   1.020   2.408
10132SOL    HW131295   6.926   1.043   2.323
10132SOL    HW231296   6.797   0.964   2.386
10133SOL     OW31297   4.869   6.686   0.241
10133SOL    HW131298   4.892   6.620   0.170
10133SOL    HW231299   4.930   6.674   0.320
10134SOL     OW31300   6.165   1.067   2.092
10134SOL    HW131301   6.115   1.085   2.007
10134SOL    HW231302   6.106   1.016   2.155
10135SOL     OW31303   5.918   7.013   2.766
10135SOL    HW131304   6.003   6.966   2.794
10135SOL    HW231305   5.916   0.000   2.667
10136SOL     OW31306   4.939   1.310   2.880
10136SOL    HW131307   4.901   1.401   2.896
10136SOL    HW231308   4.894   1.244   2.941
10137SOL     OW31309   6.518   5.501   5.756
10137SOL    HW131310   6.480   5.457   5.675
10137SOL    HW231311   6.444   5.536   5.813
10138SOL     OW31312   6.345   1.448   0.548
10138SOL    HW131313   6.413   1.382   0.516
10138SOL    HW231314   6.281   1.469   0.474
10139SOL     OW31315   3.281   3.622   5.508
10139SOL    HW131316   3.266   3.685   5.431
10139SOL    HW231317   3.377   3.594   5.510
10140SOL     OW31318   6.894   5.871   5.797
10140SOL    HW131319   6.812   5.832   5.756
10140SOL    HW231320   6.871   5.956   5.844
10141SOL     OW31321   2.402   1.689   4.014
10141SOL    HW131322   2.338   1.718   4.085
10141SOL    HW231323   2.356   1.626   3.951
10142SOL     OW31324   5.897   6.793   4.231
10142SOL    HW131325   5.894   6.772   4.133
10142SOL    HW231326   5.992   6.812   4.258
10143SOL     OW31327   5.505   3.318   0.039
10143SOL    HW131328   5.542   3.408   0.019
10143SOL    HW231329   5.433   3.296   6.995
10144SOL     OW31330   4.014   6.609   5.737
10144SOL    HW131331   3.917   6.635   5.732
10144SOL    HW231332   4.026   6.538   5.806
10145SOL     OW31333   5.088   6.282   6.820
10145SOL    HW131334   5.143   6.214   6.771
10145SOL    HW231335   5.069   6.360   6.759
10146SOL     OW31336   0.221   2.257   4.423
10146SOL    HW131337   0.196   2.308   4.341
10146SOL    HW231338   0.235   2.320   4.499
10147SOL     OW31339   4.841   5.901   6.234
10147SOL    HW131340   4.813   5.958   6.312
10147SOL    HW231341   4.874   5.959   6.160
10148SOL     OW31342   0.657   4.515   6.622
10148SOL    HW131343   0.737   4.569   6.597
10148SOL    HW231344   0.685   4.440   6.682
10149SOL     OW31345   4.464   4.426   0.546
10149SOL    HW131346   4.530   4.451   0.476
10149SOL    HW231347   4.498   4.347   0.597
10150SOL     OW31348   4.147   4.458   6.723
10150SOL    HW131349   4.137   4.436   6.820
10150SOL    HW231350   4.209   4.537   6.713
10151SOL     OW31351   6.298   6.638   5.412
10151SOL    HW131352   6.286   6.605   5.318
10151SOL    HW231353   6.379   6.698   5.415
10152SOL     OW31354   5.388   6.434   2.893
10152SOL    HW131355   5.314   6.464   2.833
10152SOL    HW231356   5.350   6.388   2.973
10153SOL     OW31357   5.095   4.214   3.581
10153SOL    HW131358   5.119   4.191   3.676
10153SOL    HW231359   5.048   4.302   3.579
10154SOL     OW31360   5.252   5.272   4.971
10154SOL    HW131361   5.345   5.272   5.006
10154SOL    HW231362   5.188   5.282   5.047
10155SOL     OW31363   4.385   2.113   4.950
10155SOL    HW131364   4.305   2.078   4.999
10155SOL    HW231365   4.422   2.193   4.998
10156SOL     OW31366   5.422   1.984   0.255
10156SOL    HW131367   5.380   1.894   0.245
10156SOL    HW231368   5.391   2.043   0.180
10157SOL     OW31369   0.026   2.822   1.067
10157SOL    HW131370   0.079   2.756   1.014
10157SOL    HW231371   0.084   2.862   1.138
10158SOL     OW31372   5.919   5.768   1.266
10158SOL    HW131373   5.832   5.744   1.223
10158SOL    HW231374   5.932   5.867   1.260
10159SOL     OW31375   3.549   3.258   2.469
10159SOL    HW131376   3.459   3.291   2.499
10159SOL    HW231377   3.575   3.306   2.385
10160SOL     OW31378   1.773   5.069   3.402
10160SOL    HW131379   1.834   5.088   3.479
10160SOL    HW231380   1.808   4.991   3.351
10161SOL     OW31381   4.799   3.435   5.774
10161SOL    HW131382   4.895   3.450   5.798
10161SOL    HW231383   4.759   3.369   5.837
10162SOL     OW31384   1.139   3.561   2.585
10162SOL    HW131385   1.198   3.613   2.646
10162SOL    HW231386   1.179   3.560   2.493
10163SOL     OW31387   1.189   6.111   4.922
10163SOL    HW131388   1.135   6.170   4.982
10163SOL    HW231389   1.194   6.152   4.831
10164SOL     OW31390   0.310   3.198   2.946
10164SOL    HW131391   0.277   3.250   3.025
10164SOL    HW231392   0.271   3.106   2.949
10165SOL     OW31393   6.392   3.201   4.004
10165SOL    HW131394   6.452   3.269   4.046
10165SOL    HW231395   6.385   3.121   4.063
10166SOL     OW31396   1.048   0.916   0.899
10166SOL    HW131397   1.143   0.945   0.909
10166SOL    HW231398   0.996   0.940   0.981
10167SOL     OW31399   1.468   0.051   6.778
10167SOL    HW131400   1.375   0.086   6.785
10167SOL    HW231401   1.466   6.982   6.735
10168SOL     OW31402   6.389   1.010   0.624
10168SOL    HW131403   6.399   0.936   0.557
10168SOL    HW231404   6.447   0.991   0.703
10169SOL     OW31405   6.409   2.288   3.697
10169SOL    HW131406   6.398   2.330   3.788
10169SOL    HW231407   6.417   2.361   3.629
10170SOL     OW31408   6.104   5.681   6.071
10170SOL    HW131409   6.149   5.694   6.159
10170SOL    HW231410   6.005   5.689   6.084
10171SOL     OW31411   2.139   3.643   6.151
10171SOL    HW131412   2.231   3.625   6.116
10171SOL    HW231413   2.080   3.670   6.075
10172SOL     OW31414   6.354   0.811   2.722
10172SOL    HW131415   6.327   0.722   2.684
10172SOL    HW231416   6.408   0.861   2.654
10173SOL     OW31417   3.098   4.491   5.892
10173SOL    HW131418   3.079   4.534   5.804
10173SOL    HW231419   3.042   4.533   5.963
10174SOL     OW31420   5.058   5.973   2.329
10174SOL    HW131421   4.970   5.980   2.376
10174SOL    HW231422   5.121   5.917   2.383
10175SOL     OW31423   0.396   1.414   4.222
10175SOL    HW131424   0.435   1.436   4.312
10175SOL    HW231425   0.424   1.483   4.156
10176SOL     OW31426   6.029   2.551   5.847
10176SOL    HW131427   5.942   2.538   5.895
10176SOL    HW231428   6.048   2.471   5.790
10177SOL     OW31429   2.516   0.725   2.796
10177SOL    HW131430   2.478   0.751   2.885
10177SOL    HW231431   2.590   0.660   2.809
10178SOL     OW31432   1.970   1.139   0.001
10178SOL    HW131433   1.909   1.186   0.063
10178SOL    HW231434   2.045   1.200   6.996
10179SOL     OW31435   0.765   4.075   1.428
10179SOL    HW131436   0.733   3.983   1.452
10179SOL    HW231437   0.701   4.117   1.363
10180SOL     OW31438   4.262   6.877   6.042
10180SOL    HW131439   4.203   6.797   6.044
10180SOL    HW231440   4.337   6.865   6.108
10181SOL     OW31441   6.941   3.493   2.107
10181SOL    HW131442   6.994   3.411   2.132
10181SOL    HW231443   6.994   3.575   2.129
10182SOL     OW31444   5.859   2.053   6.906
10182SOL    HW131445   5.823   2.069   6.814
10182SOL    HW231446   5.801   1.987   6.953
10183SOL     OW31447   6.513   2.826   6.467
10183SOL    HW131448   6.458   2.801   6.388
10183SOL    HW231449   6.459   2.816   6.550
10184SOL     OW31450   5.655   3.268   5.862
10184SOL    HW131451   5.741   3.298   5.820
10184SOL    HW231452   5.611   3.346   5.908
10185SOL     OW31453   4.119   5.594   2.302
10185SOL    HW131454   4.177   5.557   2.374
10185SOL    HW231455   4.065   5.671   2.338
10186SOL     OW31456   4.375   3.238   5.997
10186SOL    HW131457   4.332   3.257   5.909
10186SOL    HW231458   4.417   3.147   5.995
10187SOL     OW31459   1.597   5.383   6.117
10187SOL    HW131460   1.525   5.342   6.060
10187SOL    HW231461   1.678   5.324   6.116
10188SOL     OW31462   2.970   0.128   6.963
10188SOL    HW131463   3.016   0.204   7.009
10188SOL    HW231464   3.014   0.042   6.990
10189SOL     OW31465   0.732   2.033   5.997
10189SOL    HW131466   0.772   1.961   5.939
10189SOL    HW231467   0.633   2.024   5.996
10190SOL     OW31468   3.390   5.086   1.954
10190SOL    HW131469   3.439   5.173   1.946
10190SOL    HW231470   3.341   5.083   2.040
10191SOL     OW31471   5.807   5.372   0.105
10191SOL    HW131472   5.740   5.316   0.155
10191SOL    HW231473   5.874   5.312   0.061
10192SOL     OW31474   2.319   1.835   4.687
10192SOL    HW131475   2.359   1.799   4.771
10192SOL    HW231476   2.260   1.766   4.646
10193SOL     OW31477   3.774   3.949   3.162
10193SOL    HW131478   3.708   3.970   3.235
10193SOL    HW231479   3.867   3.952   3.200
10194SOL     OW31480   3.502   6.978   3.852
10194SOL    HW131481   3.587   6.931   3.878
10194SOL    HW231482   3.520   0.021   3.779
10195SOL     OW31483   4.200   6.464   1.926
10195SOL    HW131484   4.245   6.554   1.921
10195SOL    HW231485   4.270   6.392   1.925
10196SOL     OW31486   5.754   1.630   3.161
10196SOL    HW131487   5.766   1.538   3.123
10196SOL    HW231488   5.786   1.698   3.095
10197SOL     OW31489   5.798   0.590   2.362
10197SOL    HW131490   5.729   0.574   2.433
10197SOL    HW231491   5.777   0.676   2.315
10198SOL     OW31492   2.680   0.152   1.586
10198SOL    HW131493   2.702   0.249   1.579
10198SOL    HW231494   2.581   0.140   1.582
10199SOL     OW31495   0.409   1.436   6.815
10199SOL    HW131496   0.376   1.363   6.754
10199SOL    HW231497   0.409   1.403   6.909
10200SOL     OW31498   5.146   4.381   5.228
10200SOL    HW131499   5.109   4.300   5.275
10200SOL    HW231500   5.233   4.406   5.271
10201SOL     OW31501   1.057   4.949   2.339
10201SOL    HW131502   1.016   4.874   2.392
10201SOL    HW231503   1.056   4.925   2.242
10202SOL     OW31504   1.267   3.037   2.040
10202SOL    HW131505   1.204   3.008   2.112
10202SOL    HW231506   1.267   3.136   2.033
10203SOL     OW31507   2.141   3.046   2.447
10203SOL    HW131508   2.111   3.123   2.503
10203SOL    HW231509   2.082   2.967   2.463
10204SOL     OW31510   2.812   4.772   5.345
10204SOL    HW131511   2.715   4.781   5.322
10204SOL    HW231512   2.850   4.694   5.296
10205SOL     OW31513   5.124   2.391   3.358
10205SOL    HW131514   5.173   2.383   3.272
10205SOL    HW231515   5.027   2.407   3.340
10206SOL     OW31516   5.273   6.858   6.133
10206SOL    HW131517   5.365   6.895   6.118
10206SOL    HW231518   5.270   6.763   6.101
10207SOL     OW31519   3.748   1.119   3.216
10207SOL    HW131520   3.712   1.157   3.131
10207SOL    HW231521   3.672   1.092   3.275
10208SOL     OW31522   6.244   3.991   5.769
10208SOL    HW131523   6.197   4.001   5.856
10208SOL    HW231524   6.216   4.064   5.707
10209SOL     OW31525   6.637   6.541   6.479
10209SOL    HW131526   6.642   6.621   6.419
10209SOL    HW231527   6.573   6.474   6.441
10210SOL     OW31528   5.444   5.944   2.373
10210SOL    HW131529   5.484   5.931   2.283
10210SOL    HW231530   5.454   5.860   2.427
10211SOL     OW31531   3.656   6.003   5.291
10211SOL    HW131532   3.610   6.040   5.211
10211SOL    HW231533   3.588   5.965   5.354
10212SOL     OW31534   0.323   0.667   4.262
10212SOL    HW131535   0.244   0.724   4.282
10212SOL    HW231536   0.406   0.712   4.296
10213SOL     OW31537   5.944   1.485   3.584
10213SOL    HW131538   5.848   1.505   3.562
10213SOL    HW231539   6.000   1.567   3.569
10214SOL     OW31540   6.634   1.117   2.047
10214SOL    HW131541   6.561   1.134   1.980
10214SOL    HW231542   6.642   1.018   2.062
10215SOL     OW31543   3.666   4.075   6.845
10215SOL    HW131544   3.633   4.087   6.938
10215SOL    HW231545   3.602   4.017   6.794
10216SOL     OW31546   5.166   0.549   1.343
10216SOL    HW131547   5.095   0.580   1.407
10216SOL    HW231548   5.123   0.524   1.256
10217SOL     OW31549   2.403   1.869   4.360
10217SOL    HW131550   2.358   1.792   4.406
10217SOL    HW231551   2.416   1.943   4.426
10218SOL     OW31552   1.782   0.755   0.556
10218SOL    HW131553   1.873   0.723   0.582
10218SOL    HW231554   1.784   0.786   0.461
10219SOL     OW31555   0.767   2.359   1.389
10219SOL    HW131556   0.796   2.264   1.388
10219SOL    HW231557   0.687   2.371   1.329
10220SOL     OW31558   4.439   1.692   1.121
10220SOL    HW131559   4.405   1.725   1.209
10220SOL    HW231560   4.479   1.601   1.133
10221SOL     OW31561   2.995   0.518   5.050
10221SOL    HW131562   3.047   0.440   5.085
10221SOL    HW231563   2.903   0.518   5.090
10222SOL     OW31564   1.235   4.437   5.524
10222SOL    HW131565   1.181   4.518   5.549
10222SOL    HW231566   1.328   4.466   5.501
10223SOL     OW31567   1.831   4.133   0.265
10223SOL    HW131568   1.854   4.085   0.350
10223SOL    HW231569   1.870   4.084   0.187
10224SOL     OW31570   1.246   0.227   4.244
10224SOL    HW131571   1.325   0.244   4.185
10224SOL    HW231572   1.171   0.287   4.216
10225SOL     OW31573   6.813   6.348   4.854
10225SOL    HW131574   6.810   6.325   4.757
10225SOL    HW231575   6.849   6.441   4.866
10226SOL     OW31576   2.025   0.868   6.563
10226SOL    HW131577   1.954   0.883   6.632
10226SOL    HW231578   1.984   0.866   6.472
10227SOL     OW31579   4.791   4.836   6.884
10227SOL    HW131580   4.869   4.835   6.822
10227SOL    HW231581   4.737   4.752   6.870
10228SOL     OW31582   1.414   5.363   3.746
10228SOL    HW131583   1.490   5.403   3.695
10228SOL    HW231584   1.328   5.380   3.697
10229SOL     OW31585   1.218   0.450   3.213
10229SOL    HW131586   1.317   0.435   3.207
10229SOL    HW231587   1.188   0.436   3.307
10230SOL     OW31588   5.813   0.377   3.693
10230SOL    HW131589   5.799   0.461   3.641
10230SOL    HW231590   5.910   0.354   3.695
10231SOL     OW31591   5.456   6.486   4.874
10231SOL    HW131592   5.438   6.395   4.838
10231SOL    HW231593   5.419   6.493   4.967
10232SOL     OW31594   3.542   2.013   4.856
10232SOL    HW131595   3.473   2.035   4.788
10232SOL    HW231596   3.605   1.944   4.820
10233SOL     OW31597   4.586   2.723   5.923
10233SOL    HW131598   4.619   2.643   5.972
10233SOL    HW231599   4.486   2.723   5.920
10234SOL     OW31600   5.894   6.783   1.099
10234SOL    HW131601   5.948   6.859   1.062
10234SOL    HW231602   5.941   6.743   1.177
10235SOL     OW31603   4.744   1.827   0.076
10235SOL    HW131604   4.764   1.881   7.016
10235SOL    HW231605   4.647   1.801   0.076
10236SOL     OW31606   2.086   5.971   2.058
10236SOL    HW131607   2.173   5.993   2.015
10236SOL    HW231608   2.024   6.050   2.052
10237SOL     OW31609   6.144   4.017   2.456
10237SOL    HW131610   6.230   4.028   2.408
10237SOL    HW231611   6.147   3.934   2.512
10238SOL     OW31612   4.507   4.727   5.564
10238SOL    HW131613   4.440   4.736   5.490
10238SOL    HW231614   4.510   4.632   5.595
10239SOL     OW31615   0.420   4.237   4.820
10239SOL    HW131616   0.389   4.307   4.756
10239SOL    HW231617   0.371   4.152   4.804
10240SOL     OW31618   1.200   3.990   3.304
10240SOL    HW131619   1.233   4.081   3.277
10240SOL    HW231620   1.268   3.944   3.360
10241SOL     OW31621   0.966   1.853   2.497
10241SOL    HW131622   1.054   1.870   2.543
10241SOL    HW231623   0.970   1.890   2.404
10242SOL     OW31624   0.086   1.184   6.078
10242SOL    HW131625   0.147   1.235   6.018
10242SOL    HW231626   0.092   1.086   6.057
10243SOL     OW31627   0.729   5.781   1.594
10243SOL    HW131628   0.776   5.866   1.575
10243SOL    HW231629   0.767   5.707   1.538
10244SOL     OW31630   2.415   5.396   6.947
10244SOL    HW131631   2.326   5.406   6.904
10244SOL    HW231632   2.409   5.331   0.001
10245SOL     OW31633   1.271   2.858   6.545
10245SOL    HW131634   1.193   2.863   6.608
10245SOL    HW231635   1.260   2.926   6.472
10246SOL     OW31636   3.049   3.726   4.740
10246SOL    HW131637   2.999   3.748   4.823
10246SOL    HW231638   3.110   3.802   4.716
10247SOL     OW31639   0.057   5.178   5.970
10247SOL    HW131640   0.047   5.079   5.971
10247SOL    HW231641   0.079   5.210   6.062
10248SOL     OW31642   2.301   0.288   2.117
10248SOL    HW131643   2.266   0.311   2.026
10248SOL    HW231644   2.395   0.256   2.110
10249SOL     OW31645   4.433   1.233   6.124
10249SOL    HW131646   4.530   1.257   6.118
10249SOL    HW231647   4.377   1.309   6.090
10250SOL     OW31648   6.076   1.025   1.313
10250SOL    HW131649   6.112   1.114   1.284
10250SOL    HW231650   5.985   1.011   1.274
10251SOL     OW31651   2.961   2.701   0.124
10251SOL    HW131652   2.977   2.741   0.033
10251SOL    HW231653   2.907   2.618   0.114
10252SOL     OW31654   6.059   6.763   0.737
10252SOL    HW131655   6.065   6.820   0.819
10252SOL    HW231656   6.151   6.732   0.711
10253SOL     OW31657   5.049   4.273   0.182
10253SOL    HW131658   5.143   4.294   0.207
10253SOL    HW231659   5.048   4.208   0.106
10254SOL     OW31660   2.645   1.249   5.262
10254SOL    HW131661   2.735   1.223   5.297
10254SOL    HW231662   2.616   1.335   5.304
10255SOL     OW31663   2.307   5.293   2.267
10255SOL    HW131664   2.288   5.309   2.364
10255SOL    HW231665   2.273   5.370   2.213
10256SOL     OW31666   4.546   0.474   0.241
10256SOL    HW131667   4.566   0.516   0.329
10256SOL    HW231668   4.540   0.375   0.251
10257SOL     OW31669   1.400   5.301   5.940
10257SOL    HW131670   1.323   5.365   5.951
10257SOL    HW231671   1.367   5.216   5.899
10258SOL     OW31672   4.278   6.791   3.424
10258SOL    HW131673   4.373   6.761   3.408
10258SOL    HW231674   4.216   6.732   3.373
10259SOL     OW31675   0.387   4.019   4.220
10259SOL    HW131676   0.446   4.090   4.182
10259SOL    HW231677   0.393   3.937   4.164
10260SOL     OW31678   0.920   6.804   2.321
10260SOL    HW131679   0.994   6.745   2.355
10260SOL    HW231680   0.849   6.747   2.280
10261SOL     OW31681   0.532   5.026   1.966
10261SOL    HW131682   0.509   5.041   1.870
10261SOL    HW231683   0.451   5.044   2.023
10262SOL     OW31684   3.234   4.855   4.227
10262SOL    HW131685   3.155   4.838   4.286
10262SOL    HW231686   3.213   4.824   4.134
10263SOL     OW31687   5.262   1.738   6.062
10263SOL    HW131688   5.359   1.719   6.046
10263SOL    HW231689   5.247   1.757   6.159
10264SOL     OW31690   6.252   0.796   6.187
10264SOL    HW131691   6.337   0.796   6.240
10264SOL    HW231692   6.272   0.814   6.091
10265SOL     OW31693   3.382   1.281   3.218
10265SOL    HW131694   3.414   1.242   3.132
10265SOL    HW231695   3.304   1.228   3.252
10266SOL     OW31696   3.375   3.698   6.314
10266SOL    HW131697   3.365   3.795   6.290
10266SOL    HW231698   3.443   3.656   6.253
10267SOL     OW31699   6.827   1.583   6.704
10267SOL    HW131700   6.742   1.559   6.657
10267SOL    HW231701   6.862   1.504   6.754
10268SOL     OW31702   5.275   5.599   1.449
10268SOL    HW131703   5.331   5.661   1.504
10268SOL    HW231704   5.261   5.514   1.498
10269SOL     OW31705   2.009   2.358   6.012
10269SOL    HW131706   2.010   2.432   6.079
10269SOL    HW231707   2.022   2.397   5.920
10270SOL     OW31708   2.021   6.026   0.661
10270SOL    HW131709   2.073   5.943   0.679
10270SOL    HW231710   2.021   6.046   0.563
10271SOL     OW31711   4.004   3.474   1.409
10271SOL    HW131712   3.979   3.405   1.476
10271SOL    HW231713   4.103   3.483   1.405
10272SOL     OW31714   0.538   0.809   4.377
10272SOL    HW131715   0.595   0.879   4.420
10272SOL    HW231716   0.510   0.742   4.447
10273SOL     OW31717   4.010   5.871   4.546
10273SOL    HW131718   4.035   5.858   4.642
10273SOL    HW231719   3.913   5.850   4.534
10274SOL     OW31720   0.921   4.865   6.019
10274SOL    HW131721   0.867   4.945   6.044
10274SOL    HW231722   0.867   4.804   5.962
10275SOL     OW31723   0.986   6.283   2.972
10275SOL    HW131724   1.013   6.191   3.001
10275SOL    HW231725   0.977   6.285   2.872
10276SOL     OW31726   0.012   5.601   5.386
10276SOL    HW131727   6.952   5.550   5.355
10276SOL    HW231728   0.074   5.612   5.308
10277SOL     OW31729   3.163   6.393   4.210
10277SOL    HW131730   3.144   6.295   4.221
10277SOL    HW231731   3.163   6.416   4.113
10278SOL     OW31732   6.249   0.135   6.723
10278SOL    HW131733   6.231   0.219   6.673
10278SOL    HW231734   6.337   0.096   6.694
10279SOL     OW31735   2.966   0.068   4.552
10279SOL    HW131736   2.983   0.166   4.563
10279SOL    HW231737   2.963   0.045   4.455
10280SOL     OW31738   1.697   4.037   1.017
10280SOL    HW131739   1.682   4.078   0.928
10280SOL    HW231740   1.708   3.938   1.007
10281SOL     OW31741   4.415   1.431   2.574
10281SOL    HW131742   4.434   1.461   2.481
10281SOL    HW231743   4.349   1.356   2.573
10282SOL     OW31744   0.795   1.807   3.723
10282SOL    HW131745   0.832   1.741   3.657
10282SOL    HW231746   0.699   1.826   3.700
10283SOL     OW31747   1.215   3.159   0.911
10283SOL    HW131748   1.200   3.249   0.952
10283SOL    HW231749   1.312   3.148   0.890
10284SOL     OW31750   5.384   3.741   5.009
10284SOL    HW131751   5.422   3.817   4.956
10284SOL    HW231752   5.449   3.716   5.081
10285SOL     OW31753   4.621   0.750   0.685
10285SOL    HW131754   4.671   0.817   0.739
10285SOL    HW231755   4.526   0.746   0.717
10286SOL     OW31756   4.129   0.715   2.936
10286SOL    HW131757   4.150   0.721   3.033
10286SOL    HW231758   4.056   0.780   2.914
10287SOL     OW31759   1.725   7.007   1.502
10287SOL    HW131760   1.651   0.049   1.479
10287SOL    HW231761   1.711   6.970   1.594
10288SOL     OW31762   5.854   5.827   2.967
10288SOL    HW131763   5.839   5.806   2.871
10288SOL    HW231764   5.885   5.922   2.976
10289SOL     OW31765   3.002   1.475   1.570
10289SOL    HW131766   2.942   1.552   1.552
10289SOL    HW231767   2.949   1.390   1.570
10290SOL     OW31768   4.036   3.709   2.480
10290SOL    HW131769   3.998   3.766   2.553
10290SOL    HW231770   4.047   3.765   2.397
10291SOL     OW31771   3.404   0.497   3.998
10291SOL    HW131772   3.415   0.404   4.033
10291SOL    HW231773   3.307   0.522   3.999
10292SOL     OW31774   0.294   2.058   4.625
10292SOL    HW131775   0.380   2.107   4.635
10292SOL    HW231776   0.237   2.104   4.557
10293SOL     OW31777   2.188   5.982   3.241
10293SOL    HW131778   2.255   6.032   3.186
10293SOL    HW231779   2.107   6.039   3.256
10294SOL     OW31780   4.425   1.695   2.672
10294SOL    HW131781   4.404   1.706   2.770
10294SOL    HW231782   4.425   1.598   2.648
10295SOL     OW31783   0.118   4.820   5.743
10295SOL    HW131784   0.138   4.824   5.645
10295SOL    HW231785   0.125   4.726   5.775
10296SOL     OW31786   6.228   4.084   6.447
10296SOL    HW131787   6.199   4.023   6.521
10296SOL    HW231788   6.245   4.029   6.364
10297SOL     OW31789   1.472   6.005   3.816
10297SOL    HW131790   1.487   5.954   3.900
10297SOL    HW231791   1.430   6.093   3.837
10298SOL     OW31792   5.078   3.896   3.886
10298SOL    HW131793   5.060   3.832   3.812
10298SOL    HW231794   5.139   3.852   3.953
10299SOL     OW31795   4.264   4.634   3.587
10299SOL    HW131796   4.300   4.702   3.651
10299SOL    HW231797   4.323   4.553   3.588
10300SOL     OW31798   1.053   3.455   1.962
10300SOL    HW131799   0.984   3.397   1.919
10300SOL    HW231800   1.011   3.511   2.032
10301SOL     OW31801   5.788   1.337   3.195
10301SOL    HW131802   5.697   1.300   3.215
10301SOL    HW231803   5.842   1.342   3.279
10302SOL     OW31804   1.503   5.877   2.639
10302SOL    HW131805   1.430   5.945   2.645
10302SOL    HW231806   1.463   5.786   2.628
10303SOL     OW31807   3.856   3.546   1.154
10303SOL    HW131808   3.910   3.500   1.224
10303SOL    HW231809   3.760   3.544   1.180
10304SOL     OW31810   6.967   6.749   3.327
10304SOL    HW131811   0.021   6.688   3.303
10304SOL    HW231812   6.998   6.817   3.393
10305SOL     OW31813   1.897   6.166   6.925
10305SOL    HW131814   1.843   6.173   7.009
10305SOL    HW231815   1.882   6.077   6.883
10306SOL     OW31816   4.568   5.631   0.438
10306SOL    HW131817   4.534   5.699   0.502
10306SOL    HW231818   4.655   5.594   0.472
10307SOL     OW31819   1.115   1.239   6.413
10307SOL    HW131820   1.077   1.331   6.404
10307SOL    HW231821   1.156   1.211   6.326
10308SOL     OW31822   3.210   5.829   3.768
10308SOL    HW131823   3.165   5.746   3.737
10308SOL    HW231824   3.183   5.850   3.862
10309SOL     OW31825   6.245   6.145   3.003
10309SOL    HW131826   6.271   6.051   2.979
10309SOL    HW231827   6.324   6.192   3.044
10310SOL     OW31828   3.192   3.781   2.490
10310SOL    HW131829   3.124   3.775   2.563
10310SOL    HW231830   3.154   3.743   2.406
10311SOL     OW31831   0.278   5.436   0.429
10311SOL    HW131832   0.330   5.386   0.360
10311SOL    HW231833   0.340   5.470   0.500
10312SOL     OW31834   3.251   4.677   0.678
10312SOL    HW131835   3.310   4.609   0.722
10312SOL    HW231836   3.305   4.734   0.617
10313SOL     OW31837   4.847   0.101   2.450
10313SOL    HW131838   4.867   0.022   2.509
10313SOL    HW231839   4.899   0.180   2.482
10314SOL     OW31840   6.471   0.196   0.601
10314SOL    HW131841   6.410   0.252   0.545
10314SOL    HW231842   6.450   0.209   0.697
10315SOL     OW31843   6.483   5.900   4.977
10315SOL    HW131844   6.452   5.825   5.035
10315SOL    HW231845   6.486   5.870   4.881
10316SOL     OW31846   0.456   3.711   4.632
10316SOL    HW131847   0.429   3.618   4.608
10316SOL    HW231848   0.468   3.766   4.549
10317SOL     OW31849   4.535   5.099   6.239
10317SOL    HW131850   4.444   5.078   6.204
10317SOL    HW231851   4.539   5.195   6.268
10318SOL     OW31852   6.270   5.289   1.312
10318SOL    HW131853   6.272   5.217   1.242
10318SOL    HW231854   6.360   5.296   1.355
10319SOL     OW31855   6.966   5.494   3.683
10319SOL    HW131856   6.976   5.579   3.734
10319SOL    HW231857   6.901   5.434   3.730
10320SOL     OW31858   0.440   6.169   0.763
10320SOL    HW131859   0.529   6.185   0.721
10320SOL    HW231860   0.400   6.256   0.791
10321SOL     OW31861   4.544   5.384   4.654
10321SOL    HW131862   4.621   5.436   4.617
10321SOL    HW231863   4.467   5.389   4.591
10322SOL     OW31864   6.931   4.614   0.838
10322SOL    HW131865   6.933   4.519   0.806
10322SOL    HW231866   6.836   4.645   0.843
10323SOL     OW31867   5.368   3.050   5.977
10323SOL    HW131868   5.431   3.075   5.903
10323SOL    HW231869   5.279   3.027   5.938
10324SOL     OW31870   3.171   3.940   3.600
10324SOL    HW131871   3.206   4.033   3.584
10324SOL    HW231872   3.135   3.902   3.515
10325SOL     OW31873   0.155   2.976   3.104
10325SOL    HW131874   0.060   2.975   3.135
10325SOL    HW231875   0.158   2.954   3.007
10326SOL     OW31876   5.371   2.715   0.535
10326SOL    HW131877   5.272   2.727   0.546
10326SOL    HW231878   5.415   2.715   0.625
10327SOL     OW31879   0.543   0.732   3.194
10327SOL    HW131880   0.522   0.765   3.286
10327SOL    HW231881   0.482   0.776   3.128
10328SOL     OW31882   6.061   3.666   2.504
10328SOL    HW131883   6.083   3.738   2.570
10328SOL    HW231884   6.018   3.589   2.550
10329SOL     OW31885   2.788   0.203   2.994
10329SOL    HW131886   2.864   0.162   2.943
10329SOL    HW231887   2.798   0.182   3.091
10330SOL     OW31888   4.190   5.149   2.365
10330SOL    HW131889   4.176   5.170   2.461
10330SOL    HW231890   4.106   5.110   2.327
10331SOL     OW31891   5.066   1.081   3.704
10331SOL    HW131892   5.090   1.068   3.608
10331SOL    HW231893   5.114   1.013   3.760
10332SOL     OW31894   0.003   1.959   6.668
10332SOL    HW131895   6.993   1.954   6.763
10332SOL    HW231896   7.018   1.868   6.626
10333SOL     OW31897   6.086   5.499   4.405
10333SOL    HW131898   6.144   5.542   4.335
10333SOL    HW231899   6.055   5.568   4.469
10334SOL     OW31900   2.046   4.512   4.116
10334SOL    HW131901   1.984   4.518   4.038
10334SOL    HW231902   2.130   4.562   4.095
10335SOL     OW31903   2.266   5.326   1.111
10335SOL    HW131904   2.336   5.378   1.063
10335SOL    HW231905   2.177   5.369   1.098
10336SOL     OW31906   3.930   6.655   1.992
10336SOL    HW131907   3.989   6.580   2.021
10336SOL    HW231908   3.986   6.736   1.973
10337SOL     OW31909   0.430   5.360   5.023
10337SOL    HW131910   0.405   5.270   5.058
10337SOL    HW231911   0.347   5.406   4.990
10338SOL     OW31912   2.687   6.684   2.460
10338SOL    HW131913   2.720   6.769   2.501
10338SOL    HW231914   2.682   6.613   2.530
10339SOL     OW31915   2.632   6.508   1.573
10339SOL    HW131916   2.625   6.443   1.648
10339SOL    HW231917   2.548   6.505   1.517
10340SOL     OW31918   2.068   6.027   0.393
10340SOL    HW131919   2.166   6.022   0.413
10340SOL    HW231920   2.040   5.947   0.340
10341SOL     OW31921   2.449   1.370   2.306
10341SOL    HW131922   2.482   1.461   2.280
10341SOL    HW231923   2.485   1.302   2.242
10342SOL     OW31924   2.132   0.573   5.767
10342SOL    HW131925   2.175   0.484   5.779
10342SOL    HW231926   2.193   0.645   5.800
10343SOL     OW31927   2.875   3.865   5.893
10343SOL    HW131928   2.841   3.958   5.884
10343SOL    HW231929   2.927   3.857   5.979
10344SOL     OW31930   4.117   3.741   4.937
10344SOL    HW131931   4.140   3.644   4.925
10344SOL    HW231932   4.192   3.788   4.983
10345SOL     OW31933   2.131   1.244   6.653
10345SOL    HW131934   2.056   1.236   6.587
10345SOL    HW231935   2.115   1.323   6.712
10346SOL     OW31936   5.286   0.040   6.888
10346SOL    HW131937   5.237   6.974   6.893
10346SOL    HW231938   5.343   0.051   6.969
10347SOL     OW31939   5.487   1.672   1.490
10347SOL    HW131940   5.446   1.589   1.528
10347SOL    HW231941   5.473   1.748   1.554
10348SOL     OW31942   6.261   0.488   5.832
10348SOL    HW131943   6.184   0.478   5.894
10348SOL    HW231944   6.340   0.440   5.868
10349SOL     OW31945   6.675   1.307   1.431
10349SOL    HW131946   6.632   1.348   1.512
10349SOL    HW231947   6.728   1.377   1.383
10350SOL     OW31948   2.763   5.759   4.122
10350SOL    HW131949   2.763   5.680   4.060
10350SOL    HW231950   2.813   5.735   4.205
10351SOL     OW31951   5.405   4.999   5.497
10351SOL    HW131952   5.428   5.070   5.431
10351SOL    HW231953   5.306   4.995   5.510
10352SOL     OW31954   6.121   2.057   0.003
10352SOL    HW131955   6.200   2.016   6.981
10352SOL    HW231956   6.046   2.064   6.959
10353SOL     OW31957   0.178   2.454   3.270
10353SOL    HW131958   0.278   2.454   3.271
10353SOL    HW231959   0.145   2.412   3.355
10354SOL     OW31960   0.610   3.821   0.495
10354SOL    HW131961   0.551   3.781   0.566
10354SOL    HW231962   0.606   3.764   0.413
10355SOL     OW31963   1.461   0.214   0.647
10355SOL    HW131964   1.429   0.120   0.660
10355SOL    HW231965   1.413   0.255   0.570
10356SOL     OW31966   0.017   4.115   6.818
10356SOL    HW131967   0.074   4.096   6.738
10356SOL    HW231968   0.037   4.208   6.851
10357SOL     OW31969   0.977   3.258   5.983
10357SOL    HW131970   0.913   3.319   6.030
10357SOL    HW231971   0.949   3.249   5.887
10358SOL     OW31972   0.749   2.265   2.929
10358SOL    HW131973   0.678   2.240   2.994
10358SOL    HW231974   0.731   2.220   2.841
10359SOL     OW31975   5.435   1.966   2.340
10359SOL    HW131976   5.373   1.949   2.264
10359SOL    HW231977   5.529   1.970   2.306
10360SOL     OW31978   6.084   4.722   2.565
10360SOL    HW131979   6.042   4.636   2.596
10360SOL    HW231980   6.078   4.789   2.639
10361SOL     OW31981   0.332   1.724   1.233
10361SOL    HW131982   0.249   1.775   1.257
10361SOL    HW231983   0.369   1.681   1.315
10362SOL     OW31984   1.857   4.704   2.794
10362SOL    HW131985   1.798   4.689   2.873
10362SOL    HW231986   1.850   4.800   2.765
10363SOL     OW31987   5.090   4.149   0.960
10363SOL    HW131988   5.187   4.130   0.951
10363SOL    HW231989   5.046   4.075   1.011
10364SOL     OW31990   5.839   4.467   2.024
10364SOL    HW131991   5.807   4.506   2.110
10364SOL    HW231992   5.789   4.508   1.948
10365SOL     OW31993   6.089   5.538   0.388
10365SOL    HW131994   6.165   5.603   0.398
10365SOL    HW231995   6.003   5.588   0.383
10366SOL     OW31996   3.161   6.250   2.784
10366SOL    HW131997   3.077   6.288   2.745
10366SOL    HW231998   3.204   6.188   2.719
10367SOL     OW31999   6.380   2.194   0.515
10367SOL    HW132000   6.372   2.212   0.417
10367SOL    HW232001   6.358   2.277   0.566
10368SOL     OW32002   1.904   0.172   2.376
10368SOL    HW132003   1.911   0.241   2.448
10368SOL    HW232004   1.809   0.139   2.370
10369SOL     OW32005   3.383   6.425   5.526
10369SOL    HW132006   3.348   6.514   5.498
10369SOL    HW232007   3.483   6.424   5.518
10370SOL     OW32008   0.439   1.835   4.426
10370SOL    HW132009   0.348   1.793   4.424
10370SOL    HW232010   0.430   1.934   4.418
10371SOL     OW32011   3.123   6.225   3.248
10371SOL    HW132012   3.093   6.187   3.161
10371SOL    HW232013   3.223   6.238   3.246
10372SOL     OW32014   2.417   0.162   1.533
10372SOL    HW132015   2.409   0.065   1.511
10372SOL    HW232016   2.420   0.215   1.448
10373SOL     OW32017   0.005   1.996   5.494
10373SOL    HW132018   0.012   2.095   5.482
10373SOL    HW232019   0.055   1.969   5.577
10374SOL     OW32020   3.408   6.843   4.453
10374SOL    HW132021   3.498   6.878   4.481
10374SOL    HW232022   3.354   6.821   4.534
10375SOL     OW32023   4.000   2.737   0.406
10375SOL    HW132024   4.057   2.675   0.352
10375SOL    HW232025   3.907   2.700   0.414
10376SOL     OW32026   1.859   5.700   2.844
10376SOL    HW132027   1.894   5.668   2.756
10376SOL    HW232028   1.935   5.719   2.906
10377SOL     OW32029   0.511   1.658   2.000
10377SOL    HW132030   0.592   1.714   1.986
10377SOL    HW232031   0.444   1.708   2.055
10378SOL     OW32032   0.160   4.826   5.455
10378SOL    HW132033   0.076   4.772   5.443
10378SOL    HW232034   0.204   4.839   5.367
10379SOL     OW32035   2.517   6.879   4.340
10379SOL    HW132036   2.578   6.861   4.417
10379SOL    HW232037   2.479   6.972   4.348
10380SOL     OW32038   1.486   2.419   4.921
10380SOL    HW132039   1.575   2.394   4.884
10380SOL    HW232040   1.494   2.500   4.978
10381SOL     OW32041   4.396   4.357   1.609
10381SOL    HW132042   4.478   4.414   1.603
10381SOL    HW232043   4.408   4.290   1.682
10382SOL     OW32044   3.262   4.713   1.831
10382SOL    HW132045   3.344   4.657   1.818
10382SOL    HW232046   3.276   4.801   1.786
10383SOL     OW32047   2.162   4.183   0.529
10383SOL    HW132048   2.248   4.134   0.546
10383SOL    HW232049   2.155   4.203   0.431
10384SOL     OW32050   6.120   6.245   1.358
10384SOL    HW132051   6.034   6.256   1.308
10384SOL    HW232052   6.151   6.150   1.351
10385SOL     OW32053   3.545   4.519   6.027
10385SOL    HW132054   3.473   4.457   5.996
10385SOL    HW232055   3.522   4.555   6.117
10386SOL     OW32056   6.564   0.857   6.083
10386SOL    HW132057   6.482   0.842   6.026
10386SOL    HW232058   6.538   0.855   6.179
10387SOL     OW32059   4.989   3.295   2.831
10387SOL    HW132060   5.047   3.320   2.753
10387SOL    HW232061   4.959   3.378   2.878
10388SOL     OW32062   2.912   0.441   5.510
10388SOL    HW132063   2.948   0.513   5.569
10388SOL    HW232064   2.817   0.462   5.487
10389SOL     OW32065   0.236   3.626   0.221
10389SOL    HW132066   0.321   3.633   0.168
10389SOL    HW232067   0.258   3.617   0.318
10390SOL     OW32068   2.520   2.006   1.077
10390SOL    HW132069   2.604   2.021   1.130
10390SOL    HW232070   2.475   1.923   1.109
10391SOL     OW32071   0.468   6.585   2.807
10391SOL    HW132072   0.453   6.635   2.892
10391SOL    HW232073   0.565   6.563   2.798
10392SOL     OW32074   0.190   5.463   4.899
10392SOL    HW132075   0.224   5.470   4.805
10392SOL    HW232076   0.192   5.553   4.943
10393SOL     OW32077   2.178   3.991   4.113
10393SOL    HW132078   2.235   4.067   4.141
10393SOL    HW232079   2.180   3.920   4.183
10394SOL     OW32080   3.380   6.004   4.365
10394SOL    HW132081   3.428   6.083   4.402
10394SOL    HW232082   3.301   6.035   4.312
10395SOL     OW32083   6.715   6.184   0.887
10395SOL    HW132084   6.773   6.250   0.839
10395SOL    HW232085   6.749   6.172   0.981
10396SOL     OW32086   3.190   2.137   3.888
10396SOL    HW132087   3.277   2.114   3.930
10396SOL    HW232088   3.206   2.192   3.806
10397SOL     OW32089   3.295   2.091   2.240
10397SOL    HW132090   3.369   2.103   2.174
10397SOL    HW232091   3.208   2.114   2.196
10398SOL     OW32092   0.165   3.413   1.559
10398SOL    HW132093   0.081   3.360   1.569
10398SOL    HW232094   0.161   3.494   1.618
10399SOL     OW32095   5.975   2.616   2.925
10399SOL    HW132096   5.963   2.517   2.927
10399SOL    HW232097   5.911   2.659   2.988
10400SOL     OW32098   4.095   6.900   0.312
10400SOL    HW132099   4.005   6.858   0.296
10400SOL    HW232100   4.144   6.849   0.383
10401SOL     OW32101   6.372   0.408   3.517
10401SOL    HW132102   6.422   0.483   3.473
10401SOL    HW232103   6.339   0.439   3.606
10402SOL     OW32104   6.255   3.026   4.756
10402SOL    HW132105   6.244   3.117   4.795
10402SOL    HW232106   6.167   2.993   4.722
10403SOL     OW32107   3.528   0.745   3.987
10403SOL    HW132108   3.621   0.710   3.979
10403SOL    HW232109   3.463   0.678   3.951
10404SOL     OW32110   5.656   0.132   5.096
10404SOL    HW132111   5.567   0.145   5.051
10404SOL    HW232112   5.723   0.195   5.057
10405SOL     OW32113   0.683   1.693   5.721
10405SOL    HW132114   0.697   1.600   5.756
10405SOL    HW232115   0.772   1.734   5.701
10406SOL     OW32116   3.455   4.910   2.451
10406SOL    HW132117   3.483   4.910   2.547
10406SOL    HW232118   3.532   4.939   2.394
10407SOL     OW32119   3.299   5.825   5.841
10407SOL    HW132120   3.365   5.773   5.787
10407SOL    HW232121   3.241   5.762   5.893
10408SOL     OW32122   4.664   1.246   0.479
10408SOL    HW132123   4.645   1.263   0.383
10408SOL    HW232124   4.637   1.153   0.504
10409SOL     OW32125   0.227   4.696   0.937
10409SOL    HW132126   0.178   4.648   1.010
10409SOL    HW232127   0.162   4.728   0.869
10410SOL     OW32128   5.705   1.037   0.036
10410SOL    HW132129   5.764   1.118   0.030
10410SOL    HW232130   5.653   1.027   6.973
10411SOL     OW32131   3.379   6.955   2.819
10411SOL    HW132132   3.446   7.021   2.853
10411SOL    HW232133   3.401   6.932   2.724
10412SOL     OW32134   5.994   0.355   0.591
10412SOL    HW132135   5.938   0.274   0.573
10412SOL    HW232136   5.936   0.430   0.624
10413SOL     OW32137   6.238   2.236   1.288
10413SOL    HW132138   6.291   2.271   1.211
10413SOL    HW232139   6.299   2.222   1.367
10414SOL     OW32140   4.353   4.303   5.481
10414SOL    HW132141   4.313   4.365   5.548
10414SOL    HW232142   4.288   4.288   5.406
10415SOL     OW32143   0.167   4.404   5.309
10415SOL    HW132144   0.200   4.432   5.399
10415SOL    HW232145   0.245   4.392   5.248
10416SOL     OW32146   6.163   0.924   3.372
10416SOL    HW132147   6.147   0.851   3.438
10416SOL    HW232148   6.211   1.000   3.418
10417SOL     OW32149   3.877   5.434   4.234
10417SOL    HW132150   3.922   5.512   4.191
10417SOL    HW232151   3.851   5.457   4.327
10418SOL     OW32152   6.912   4.679   6.099
10418SOL    HW132153   6.920   4.749   6.028
10418SOL    HW232154   6.892   4.591   6.056
10419SOL     OW32155   1.379   0.432   6.516
10419SOL    HW132156   1.427   0.404   6.599
10419SOL    HW232157   1.441   0.486   6.458
10420SOL     OW32158   6.375   2.960   2.343
10420SOL    HW132159   6.383   2.860   2.343
10420SOL    HW232160   6.383   2.994   2.250
10421SOL     OW32161   0.246   1.843   3.485
10421SOL    HW132162   0.270   1.940   3.476
10421SOL    HW232163   0.319   1.795   3.532
10422SOL     OW32164   6.074   2.404   5.606
10422SOL    HW132165   6.162   2.362   5.628
10422SOL    HW232166   6.020   2.341   5.550
10423SOL     OW32167   5.281   4.924   4.509
10423SOL    HW132168   5.318   4.918   4.417
10423SOL    HW232169   5.216   4.850   4.524
10424SOL     OW32170   5.487   3.132   0.316
10424SOL    HW132171   5.531   3.183   0.242
10424SOL    HW232172   5.550   3.063   0.350
10425SOL     OW32173   2.015   6.872   2.144
10425SOL    HW132174   2.105   6.896   2.107
10425SOL    HW232175   1.949   6.942   2.118
10426SOL     OW32176   6.604   4.199   0.603
10426SOL    HW132177   6.687   4.225   0.555
10426SOL    HW232178   6.525   4.244   0.560
10427SOL     OW32179   3.892   1.335   6.949
10427SOL    HW132180   3.804   1.299   6.980
10427SOL    HW232181   3.884   1.434   6.935
10428SOL     OW32182   2.861   1.487   4.375
10428SOL    HW132183   2.944   1.497   4.430
10428SOL    HW232184   2.846   1.571   4.323
10429SOL     OW32185   0.588   5.375   1.238
10429SOL    HW132186   0.552   5.391   1.147
10429SOL    HW232187   0.683   5.345   1.232
10430SOL     OW32188   4.429   6.644   3.733
10430SOL    HW132189   4.430   6.740   3.761
10430SOL    HW232190   4.488   6.591   3.794
10431SOL     OW32191   3.577   6.700   5.110
10431SOL    HW132192   3.652   6.764   5.093
10431SOL    HW232193   3.603   6.608   5.081
10432SOL     OW32194   6.269   0.313   4.383
10432SOL    HW132195   6.286   0.303   4.285
10432SOL    HW232196   6.341   0.371   4.423
10433SOL     OW32197   1.953   6.816   1.732
10433SOL    HW132198   1.864   6.859   1.745
10433SOL    HW232199   2.012   6.876   1.678
10434SOL     OW32200   4.079   6.612   3.057
10434SOL    HW132201   4.003   6.556   3.026
10434SOL    HW232202   4.104   6.678   2.986
10435SOL     OW32203   6.754   0.330   4.842
10435SOL    HW132204   6.810   0.249   4.857
10435SOL    HW232205   6.777   0.400   4.910
10436SOL     OW32206   0.427   5.343   5.640
10436SOL    HW132207   0.346   5.357   5.583
10436SOL    HW232208   0.404   5.364   5.735
10437SOL     OW32209   5.834   4.681   5.403
10437SOL    HW132210   5.930   4.657   5.416
10437SOL    HW232211   5.828   4.773   5.364
10438SOL     OW32212   5.466   6.622   6.710
10438SOL    HW132213   5.390   6.669   6.756
10438SOL    HW232214   5.552   6.646   6.755
10439SOL     OW32215   3.801   1.646   6.103
10439SOL    HW132216   3.798   1.573   6.034
10439SOL    HW232217   3.707   1.672   6.127
10440SOL     OW32218   1.411   6.231   0.314
10440SOL    HW132219   1.461   6.297   0.258
10440SOL    HW232220   1.318   6.223   0.280
10441SOL     OW32221   5.049   1.564   0.053
10441SOL    HW132222   5.104   1.602   6.999
10441SOL    HW232223   5.034   1.635   0.121
10442SOL     OW32224   2.973   5.818   5.493
10442SOL    HW132225   3.020   5.739   5.452
10442SOL    HW232226   2.948   5.796   5.587
10443SOL     OW32227   5.113   3.312   4.820
10443SOL    HW132228   5.095   3.401   4.860
10443SOL    HW232229   5.035   3.252   4.834
10444SOL     OW32230   4.240   6.017   4.792
10444SOL    HW132231   4.323   6.073   4.789
10444SOL    HW232232   4.264   5.920   4.786
10445SOL     OW32233   0.713   5.156   3.715
10445SOL    HW132234   0.786   5.165   3.784
10445SOL    HW232235   0.624   5.151   3.761
10446SOL     OW32236   1.078   3.565   5.919
10446SOL    HW132237   1.172   3.576   5.951
10446SOL    HW232238   1.020   3.538   5.996
10447SOL     OW32239   6.921   1.450   1.802
10447SOL    HW132240   6.917   1.517   1.877
10447SOL    HW232241   6.912   1.358   1.839
10448SOL     OW32242   4.179   2.873   1.165
10448SOL    HW132243   4.106   2.860   1.098
10448SOL    HW232244   4.155   2.948   1.227
10449SOL     OW32245   2.717   5.465   4.312
10449SOL    HW132246   2.688   5.377   4.350
10449SOL    HW232247   2.809   5.457   4.274
10450SOL     OW32248   0.507   2.687   0.320
10450SOL    HW132249   0.584   2.630   0.292
10450SOL    HW232250   0.451   2.710   0.240
10451SOL     OW32251   2.922   5.030   2.772
10451SOL    HW132252   2.908   5.100   2.842
10451SOL    HW232253   2.856   4.956   2.785
10452SOL     OW32254   6.359   3.452   3.478
10452SOL    HW132255   6.324   3.461   3.385
10452SOL    HW232256   6.365   3.542   3.520
10453SOL     OW32257   5.141   6.544   1.730
10453SOL    HW132258   5.136   6.615   1.801
10453SOL    HW232259   5.231   6.500   1.734
10454SOL     OW32260   5.498   2.720   1.557
10454SOL    HW132261   5.494   2.763   1.467
10454SOL    HW232262   5.530   2.786   1.625
10455SOL     OW32263   0.684   4.574   3.305
10455SOL    HW132264   0.698   4.671   3.284
10455SOL    HW232265   0.764   4.522   3.277
10456SOL     OW32266   2.977   6.288   1.463
10456SOL    HW132267   2.937   6.274   1.554
10456SOL    HW232268   3.070   6.325   1.474
10457SOL     OW32269   3.444   3.201   3.157
10457SOL    HW132270   3.489   3.126   3.109
10457SOL    HW232271   3.346   3.199   3.137
10458SOL     OW32272   0.283   0.267   0.090
10458SOL    HW132273   0.187   0.279   0.114
10458SOL    HW232274   0.315   0.179   0.125
10459SOL     OW32275   5.333   5.512   2.981
10459SOL    HW132276   5.337   5.413   2.990
10459SOL    HW232277   5.340   5.555   3.071
10460SOL     OW32278   1.565   5.475   1.550
10460SOL    HW132279   1.553   5.416   1.630
10460SOL    HW232280   1.661   5.501   1.542
10461SOL     OW32281   0.960   6.031   5.451
10461SOL    HW132282   0.939   5.939   5.419
10461SOL    HW232283   0.927   6.042   5.545
10462SOL     OW32284   5.565   1.435   2.144
10462SOL    HW132285   5.504   1.393   2.077
10462SOL    HW232286   5.528   1.523   2.173
10463SOL     OW32287   3.623   4.014   5.778
10463SOL    HW132288   3.679   4.080   5.728
10463SOL    HW232289   3.603   3.935   5.720
10464SOL     OW32290   4.641   0.579   0.465
10464SOL    HW132291   4.639   0.639   0.545
10464SOL    HW232292   4.721   0.519   0.471
10465SOL     OW32293   6.666   0.347   6.723
10465SOL    HW132294   6.687   0.320   6.629
10465SOL    HW232295   6.646   0.267   6.778
10466SOL     OW32296   4.691   5.312   5.047
10466SOL    HW132297   4.744   5.383   5.001
10466SOL    HW232298   4.748   5.268   5.117
10467SOL     OW32299   1.713   1.536   5.455
10467SOL    HW132300   1.710   1.543   5.355
10467SOL    HW232301   1.730   1.627   5.494
10468SOL     OW32302   3.776   6.258   3.992
10468SOL    HW132303   3.772   6.337   3.930
10468SOL    HW232304   3.692   6.254   4.046
10469SOL     OW32305   3.390   3.941   0.913
10469SOL    HW132306   3.324   3.928   0.839
10469SOL    HW232307   3.469   3.880   0.898
10470SOL     OW32308   2.129   2.032   3.158
10470SOL    HW132309   2.116   2.118   3.207
10470SOL    HW232310   2.202   2.044   3.090
10471SOL     OW32311   1.901   3.557   1.231
10471SOL    HW132312   1.884   3.523   1.323
10471SOL    HW232313   1.834   3.518   1.167
10472SOL     OW32314   3.836   6.558   1.729
10472SOL    HW132315   3.907   6.596   1.789
10472SOL    HW232316   3.876   6.534   1.641
10473SOL     OW32317   5.439   0.068   0.936
10473SOL    HW132318   5.478   0.160   0.944
10473SOL    HW232319   5.468   0.013   1.015
10474SOL     OW32320   4.410   0.711   4.671
10474SOL    HW132321   4.487   0.648   4.670
10474SOL    HW232322   4.439   0.801   4.637
10475SOL     OW32323   4.648   6.001   1.150
10475SOL    HW132324   4.668   6.094   1.120
10475SOL    HW232325   4.733   5.954   1.175
10476SOL     OW32326   6.829   5.530   6.718
10476SOL    HW132327   6.784   5.517   6.630
10476SOL    HW232328   6.923   5.495   6.713
10477SOL     OW32329   6.234   3.348   5.088
10477SOL    HW132330   6.260   3.437   5.123
10477SOL    HW232331   6.166   3.307   5.150
10478SOL     OW32332   0.835   0.046   6.739
10478SOL    HW132333   0.799   6.992   6.685
10478SOL    HW232334   0.764   0.080   6.801
10479SOL     OW32335   1.191   2.107   1.843
10479SOL    HW132336   1.246   2.176   1.796
10479SOL    HW232337   1.184   2.025   1.787
10480SOL     OW32338   5.456   6.786   1.572
10480SOL    HW132339   5.474   6.702   1.521
10480SOL    HW232340   5.486   6.865   1.518
10481SOL     OW32341   2.436   1.149   4.525
10481SOL    HW132342   2.506   1.117   4.461
10481SOL    HW232343   2.467   1.135   4.619
10482SOL     OW32344   0.775   6.441   4.311
10482SOL    HW132345   0.723   6.414   4.230
10482SOL    HW232346   0.829   6.523   4.290
10483SOL     OW32347   6.488   5.104   0.600
10483SOL    HW132348   6.488   5.203   0.587
10483SOL    HW232349   6.397   5.069   0.579
10484SOL     OW32350   6.987   0.582   1.028
10484SOL    HW132351   6.980   0.655   0.960
10484SOL    HW232352   0.014   0.616   1.109
10485SOL     OW32353   3.842   3.988   2.904
10485SOL    HW132354   3.822   3.963   2.998
10485SOL    HW232355   3.813   4.083   2.888
10486SOL     OW32356   6.551   0.048   5.588
10486SOL    HW132357   6.617   0.063   5.660
10486SOL    HW232358   6.522   0.136   5.549
10487SOL     OW32359   5.145   1.819   1.851
10487SOL    HW132360   5.126   1.723   1.871
10487SOL    HW232361   5.061   1.864   1.823
10488SOL     OW32362   0.679   2.309   5.274
10488SOL    HW132363   0.687   2.408   5.275
10488SOL    HW232364   0.691   2.275   5.180
10489SOL     OW32365   6.172   5.831   3.890
10489SOL    HW132366   6.089   5.814   3.837
10489SOL    HW232367   6.160   5.794   3.982
10490SOL     OW32368   5.526   0.549   0.526
10490SOL    HW132369   5.488   0.501   0.605
10490SOL    HW232370   5.514   0.647   0.538
10491SOL     OW32371   1.914   2.835   6.335
10491SOL    HW132372   1.915   2.800   6.242
10491SOL    HW232373   1.998   2.808   6.382
10492SOL     OW32374   4.572   6.686   0.658
10492SOL    HW132375   4.603   6.671   0.564
10492SOL    HW232376   4.499   6.755   0.659
10493SOL     OW32377   4.254   5.678   0.988
10493SOL    HW132378   4.190   5.754   0.977
10493SOL    HW232379   4.222   5.617   1.059
10494SOL     OW32380   0.875   4.536   6.300
10494SOL    HW132381   0.915   4.498   6.216
10494SOL    HW232382   0.873   4.635   6.294
10495SOL     OW32383   6.982   6.267   6.420
10495SOL    HW132384   6.964   6.356   6.461
10495SOL    HW232385   0.053   6.238   6.442
10496SOL     OW32386   0.007   3.687   5.337
10496SOL    HW132387   6.984   3.776   5.350
10496SOL    HW232388   6.962   3.621   5.303
10497SOL     OW32389   2.260   6.897   1.978
10497SOL    HW132390   2.224   6.819   1.928
10497SOL    HW232391   2.323   6.948   1.918
10498SOL     OW32392   5.281   5.498   0.651
10498SOL    HW132393   5.325   5.465   0.567
10498SOL    HW232394   5.316   5.589   0.673
10499SOL     OW32395   6.039   5.722   1.531
10499SOL    HW132396   5.981   5.680   1.600
10499SOL    HW232397   5.990   5.728   1.444
10500SOL     OW32398   5.507   3.933   4.851
10500SOL    HW132399   5.596   3.900   4.819
10500SOL    HW232400   5.517   4.027   4.886
10501SOL     OW32401   2.555   5.523   2.445
10501SOL    HW132402   2.560   5.426   2.471
10501SOL    HW232403   2.635   5.571   2.481
10502SOL     OW32404   3.017   3.249   2.571
10502SOL    HW132405   2.979   3.248   2.479
10502SOL    HW232406   3.089   3.180   2.578
10503SOL     OW32407   6.957   3.810   6.229
10503SOL    HW132408   6.867   3.838   6.194
10503SOL    HW232409   6.992   3.881   6.290
10504SOL     OW32410   2.035   3.404   6.387
10504SOL    HW132411   1.963   3.414   6.318
10504SOL    HW232412   2.012   3.458   6.468
10505SOL     OW32413   5.497   6.156   2.108
10505SOL    HW132414   5.579   6.214   2.102
10505SOL    HW232415   5.430   6.200   2.168
10506SOL     OW32416   0.709   3.068   6.990
10506SOL    HW132417   0.653   3.141   6.951
10506SOL    HW232418   0.803   3.078   6.957
10507SOL     OW32419   2.235   4.472   0.326
10507SOL    HW132420   2.291   4.523   0.261
10507SOL    HW232421   2.218   4.380   0.290
10508SOL     OW32422   0.816   6.091   4.907
10508SOL    HW132423   0.867   6.006   4.891
10508SOL    HW232424   0.842   6.130   4.995
10509SOL     OW32425   4.916   3.431   4.131
10509SOL    HW132426   4.961   3.419   4.220
10509SOL    HW232427   4.921   3.528   4.105
10510SOL     OW32428   4.975   6.403   5.430
10510SOL    HW132429   5.011   6.432   5.519
10510SOL    HW232430   4.947   6.484   5.378
10511SOL     OW32431   2.731   1.029   2.003
10511SOL    HW132432   2.686   1.107   1.961
10511SOL    HW232433   2.811   1.060   2.054
10512SOL     OW32434   4.082   0.288   6.088
10512SOL    HW132435   4.163   0.294   6.148
10512SOL    HW232436   4.067   0.377   6.045
10513SOL     OW32437   5.696   3.187   2.344
10513SOL    HW132438   5.741   3.273   2.319
10513SOL    HW232439   5.701   3.174   2.443
10514SOL     OW32440   1.338   2.336   1.720
10514SOL    HW132441   1.420   2.327   1.664
10514SOL    HW232442   1.259   2.350   1.661
10515SOL     OW32443   2.134   2.266   4.361
10515SOL    HW132444   2.185   2.191   4.403
10515SOL    HW232445   2.197   2.332   4.321
10516SOL     OW32446   3.250   2.297   0.015
10516SOL    HW132447   3.185   2.338   6.972
10516SOL    HW232448   3.201   2.264   0.095
10517SOL     OW32449   1.625   3.351   3.240
10517SOL    HW132450   1.552   3.409   3.278
10517SOL    HW232451   1.584   3.278   3.186
10518SOL     OW32452   0.590   5.095   2.256
10518SOL    HW132453   0.556   5.185   2.229
10518SOL    HW232454   0.614   5.043   2.174
10519SOL     OW32455   2.684   5.698   1.803
10519SOL    HW132456   2.598   5.695   1.852
10519SOL    HW232457   2.747   5.762   1.848
10520SOL     OW32458   6.586   2.031   6.160
10520SOL    HW132459   6.575   1.993   6.252
10520SOL    HW232460   6.617   1.960   6.097
10521SOL     OW32461   5.848   3.499   1.504
10521SOL    HW132462   5.798   3.519   1.589
10521SOL    HW232463   5.832   3.403   1.478
10522SOL     OW32464   6.226   2.587   3.026
10522SOL    HW132465   6.268   2.669   3.065
10522SOL    HW232466   6.142   2.612   2.978
10523SOL     OW32467   0.543   4.254   4.105
10523SOL    HW132468   0.565   4.259   4.202
10523SOL    HW232469   0.483   4.330   4.081
10524SOL     OW32470   0.400   5.307   3.418
10524SOL    HW132471   0.300   5.310   3.414
10524SOL    HW232472   0.438   5.356   3.339
10525SOL     OW32473   4.332   1.039   5.036
10525SOL    HW132474   4.430   1.038   5.015
10525SOL    HW232475   4.318   0.999   5.127
10526SOL     OW32476   0.484   5.792   0.695
10526SOL    HW132477   0.549   5.836   0.633
10526SOL    HW232478   0.430   5.862   0.741
10527SOL     OW32479   0.474   1.540   5.477
10527SOL    HW132480   0.558   1.593   5.465
10527SOL    HW232481   0.450   1.538   5.574
10528SOL     OW32482   0.641   4.786   6.918
10528SOL    HW132483   0.706   4.804   6.991
10528SOL    HW232484   0.674   4.825   6.832
10529SOL     OW32485   1.704   6.134   5.951
10529SOL    HW132486   1.789   6.084   5.934
10529SOL    HW232487   1.648   6.083   6.016
10530SOL     OW32488   0.823   0.075   5.733
10530SOL    HW132489   0.799   0.139   5.660
10530SOL    HW232490   0.859   7.012   5.693
10531SOL     OW32491   3.363   2.445   5.957
10531SOL    HW132492   3.458   2.432   5.986
10531SOL    HW232493   3.321   2.356   5.942
10532SOL     OW32494   5.748   6.558   6.027
10532SOL    HW132495   5.768   6.485   6.093
10532SOL    HW232496   5.828   6.617   6.018
10533SOL     OW32497   3.635   5.706   4.293
10533SOL    HW132498   3.561   5.730   4.230
10533SOL    HW232499   3.716   5.681   4.240
10534SOL     OW32500   0.711   5.704   2.660
10534SOL    HW132501   0.627   5.706   2.714
10534SOL    HW232502   0.786   5.669   2.716
10535SOL     OW32503   2.782   1.454   2.335
10535SOL    HW132504   2.707   1.509   2.298
10535SOL    HW232505   2.757   1.423   2.427
10536SOL     OW32506   4.664   0.711   3.767
10536SOL    HW132507   4.695   0.635   3.709
10536SOL    HW232508   4.601   0.675   3.837
10537SOL     OW32509   5.006   6.936   3.189
10537SOL    HW132510   5.006   6.838   3.166
10537SOL    HW232511   4.917   6.975   3.166
10538SOL     OW32512   5.805   3.808   2.451
10538SOL    HW132513   5.799   3.783   2.355
10538SOL    HW232514   5.897   3.786   2.485
10539SOL     OW32515   5.806   5.765   2.652
10539SOL    HW132516   5.800   5.693   2.721
10539SOL    HW232517   5.902   5.782   2.629
10540SOL     OW32518   2.367   3.985   6.283
10540SOL    HW132519   2.461   3.973   6.315
10540SOL    HW232520   2.362   3.962   6.186
10541SOL     OW32521   3.016   3.163   4.957
10541SOL    HW132522   2.917   3.172   4.967
10541SOL    HW232523   3.053   3.246   4.916
10542SOL     OW32524   6.169   0.272   4.715
10542SOL    HW132525   6.092   0.263   4.778
10542SOL    HW232526   6.236   0.201   4.735
10543SOL     OW32527   6.782   2.522   5.843
10543SOL    HW132528   6.819   2.434   5.814
10543SOL    HW232529   6.722   2.557   5.771
10544SOL     OW32530   1.044   1.034   4.260
10544SOL    HW132531   1.103   0.981   4.321
10544SOL    HW232532   1.099   1.097   4.206
10545SOL     OW32533   1.734   2.644   2.678
10545SOL    HW132534   1.797   2.720   2.666
10545SOL    HW232535   1.641   2.673   2.655
10546SOL     OW32536   3.139   6.652   0.965
10546SOL    HW132537   3.052   6.652   1.015
10546SOL    HW232538   3.199   6.723   1.003
10547SOL     OW32539   4.782   0.169   4.833
10547SOL    HW132540   4.686   0.142   4.847
10547SOL    HW232541   4.788   0.231   4.755
10548SOL     OW32542   0.930   4.878   4.743
10548SOL    HW132543   0.986   4.857   4.662
10548SOL    HW232544   0.836   4.850   4.725
10549SOL     OW32545   0.305   1.167   0.602
10549SOL    HW132546   0.321   1.227   0.680
10549SOL    HW232547   0.210   1.177   0.572
10550SOL     OW32548   3.476   6.236   2.954
10550SOL    HW132549   3.465   6.137   2.958
10550SOL    HW232550   3.435   6.278   3.035
10551SOL     OW32551   2.567   1.929   5.876
10551SOL    HW132552   2.593   2.014   5.830
10551SOL    HW232553   2.575   1.853   5.812
10552SOL     OW32554   3.312   0.900   4.077
10552SOL    HW132555   3.398   0.863   4.043
10552SOL    HW232556   3.308   0.998   4.059
10553SOL     OW32557   0.160   5.295   0.709
10553SOL    HW132558   0.183   5.374   0.651
10553SOL    HW232559   0.082   5.247   0.669
10554SOL     OW32560   6.576   4.899   2.847
10554SOL    HW132561   6.553   4.882   2.944
10554SOL    HW232562   6.510   4.964   2.809
10555SOL     OW32563   2.889   1.967   0.569
10555SOL    HW132564   2.853   1.992   0.479
10555SOL    HW232565   2.852   2.029   0.638
10556SOL     OW32566   2.182   1.403   2.844
10556SOL    HW132567   2.129   1.319   2.851
10556SOL    HW232568   2.187   1.432   2.749
10557SOL     OW32569   1.649   3.711   4.477
10557SOL    HW132570   1.631   3.612   4.470
10557SOL    HW232571   1.576   3.755   4.528
10558SOL     OW32572   3.179   4.974   4.991
10558SOL    HW132573   3.172   4.960   4.892
10558SOL    HW232574   3.118   4.911   5.038
10559SOL     OW32575   3.476   0.181   0.521
10559SOL    HW132576   3.475   0.089   0.482
10559SOL    HW232577   3.514   0.177   0.614
10560SOL     OW32578   4.159   6.081   1.644
10560SOL    HW132579   4.235   6.144   1.626
10560SOL    HW232580   4.072   6.128   1.633
10561SOL     OW32581   5.228   4.484   2.066
10561SOL    HW132582   5.229   4.500   1.968
10561SOL    HW232583   5.134   4.475   2.098
10562SOL     OW32584   3.295   6.764   1.290
10562SOL    HW132585   3.257   6.673   1.272
10562SOL    HW232586   3.312   6.811   1.204
10563SOL     OW32587   0.259   0.023   0.986
10563SOL    HW132588   0.278   0.121   0.991
10563SOL    HW232589   0.276   7.002   1.075
10564SOL     OW32590   6.958   5.615   4.320
10564SOL    HW132591   6.965   5.655   4.411
10564SOL    HW232592   7.002   5.526   4.319
10565SOL     OW32593   6.780   6.854   5.449
10565SOL    HW132594   6.760   6.944   5.410
10565SOL    HW232595   6.706   6.791   5.426
10566SOL     OW32596   2.881   2.434   6.733
10566SOL    HW132597   2.787   2.463   6.755
10566SOL    HW232598   2.894   2.340   6.763
10567SOL     OW32599   1.797   2.208   5.973
10567SOL    HW132600   1.882   2.257   5.993
10567SOL    HW232601   1.814   2.110   5.975
10568SOL     OW32602   5.253   2.994   6.727
10568SOL    HW132603   5.213   2.983   6.818
10568SOL    HW232604   5.300   2.910   6.701
10569SOL     OW32605   5.381   0.245   1.701
10569SOL    HW132606   5.318   0.293   1.640
10569SOL    HW232607   5.432   0.311   1.756
10570SOL     OW32608   0.863   5.024   3.525
10570SOL    HW132609   0.807   5.060   3.599
10570SOL    HW232610   0.841   4.928   3.510
10571SOL     OW32611   6.803   4.674   6.521
10571SOL    HW132612   6.774   4.735   6.447
10571SOL    HW232613   6.752   4.588   6.515
10572SOL     OW32614   6.524   4.448   1.572
10572SOL    HW132615   6.551   4.355   1.546
10572SOL    HW232616   6.468   4.488   1.499
10573SOL     OW32617   5.512   0.471   4.005
10573SOL    HW132618   5.516   0.536   3.929
10573SOL    HW232619   5.515   0.521   4.092
10574SOL     OW32620   6.275   0.537   3.722
10574SOL    HW132621   6.207   0.476   3.762
10574SOL    HW232622   6.313   0.596   3.794
10575SOL     OW32623   5.426   0.868   2.787
10575SOL    HW132624   5.410   0.928   2.709
10575SOL    HW232625   5.505   0.900   2.839
10576SOL     OW32626   2.216   4.831   3.028
10576SOL    HW132627   2.259   4.810   2.940
10576SOL    HW232628   2.284   4.825   3.101
10577SOL     OW32629   3.317   5.893   0.790
10577SOL    HW132630   3.248   5.963   0.773
10577SOL    HW232631   3.373   5.880   0.707
10578SOL     OW32632   6.007   2.087   3.852
10578SOL    HW132633   5.934   2.047   3.796
10578SOL    HW232634   5.968   2.153   3.916
10579SOL     OW32635   2.992   3.822   0.992
10579SOL    HW132636   2.996   3.903   1.051
10579SOL    HW232637   2.915   3.764   1.019
10580SOL     OW32638   6.467   6.791   6.657
10580SOL    HW132639   6.377   6.781   6.701
10580SOL    HW232640   6.491   6.707   6.609
10581SOL     OW32641   5.581   6.694   3.187
10581SOL    HW132642   5.548   6.777   3.232
10581SOL    HW232643   5.679   6.703   3.169
10582SOL     OW32644   5.538   4.730   6.760
10582SOL    HW132645   5.477   4.778   6.824
10582SOL    HW232646   5.628   4.718   6.802
10583SOL     OW32647   2.698   6.599   3.655
10583SOL    HW132648   2.655   6.571   3.569
10583SOL    HW232649   2.710   6.698   3.656
10584SOL     OW32650   6.510   0.326   5.541
10584SOL    HW132651   6.567   0.380   5.604
10584SOL    HW232652   6.550   0.330   5.449
10585SOL     OW32653   0.443   1.885   6.406
10585SOL    HW132654   0.517   1.952   6.402
10585SOL    HW232655   0.377   1.914   6.477
10586SOL     OW32656   4.908   4.520   5.490
10586SOL    HW132657   4.989   4.478   5.531
10586SOL    HW232658   4.913   4.512   5.390
10587SOL     OW32659   0.726   6.161   5.336
10587SOL    HW132660   0.818   6.132   5.364
10587SOL    HW232661   0.691   6.097   5.268
10588SOL     OW32662   1.489   3.290   3.862
10588SOL    HW132663   1.459   3.215   3.920
10588SOL    HW232664   1.478   3.264   3.766
10589SOL     OW32665   5.589   6.154   4.687
10589SOL    HW132666   5.654   6.227   4.671
10589SOL    HW232667   5.499   6.181   4.653
10590SOL     OW32668   0.970   5.920   1.527
10590SOL    HW132669   1.014   5.885   1.444
10590SOL    HW232670   0.926   6.008   1.507
10591SOL     OW32671   0.850   1.369   1.459
10591SOL    HW132672   0.884   1.457   1.491
10591SOL    HW232673   0.920   1.299   1.476
10592SOL     OW32674   5.921   2.212   4.756
10592SOL    HW132675   5.848   2.261   4.709
10592SOL    HW232676   5.974   2.275   4.812
10593SOL     OW32677   2.713   6.018   0.886
10593SOL    HW132678   2.614   6.011   0.891
10593SOL    HW232679   2.744   5.986   0.796
10594SOL     OW32680   3.770   0.956   3.488
10594SOL    HW132681   3.676   0.978   3.461
10594SOL    HW232682   3.769   0.911   3.578
10595SOL     OW32683   5.828   0.652   0.987
10595SOL    HW132684   5.848   0.576   1.048
10595SOL    HW232685   5.912   0.680   0.940
10596SOL     OW32686   5.113   1.983   6.750
10596SOL    HW132687   5.033   1.986   6.810
10596SOL    HW232688   5.083   1.979   6.654
10597SOL     OW32689   2.606   0.650   5.769
10597SOL    HW132690   2.621   0.553   5.753
10597SOL    HW232691   2.632   0.673   5.863
10598SOL     OW32692   2.083   1.729   5.978
10598SOL    HW132693   2.163   1.754   6.033
10598SOL    HW232694   2.001   1.773   6.016
10599SOL     OW32695   6.208   4.298   5.975
10599SOL    HW132696   6.211   4.201   5.997
10599SOL    HW232697   6.216   4.352   6.059
10600SOL     OW32698   2.657   1.262   1.891
10600SOL    HW132699   2.717   1.286   1.814
10600SOL    HW232700   2.602   1.341   1.916
10601SOL     OW32701   0.245   6.521   6.104
10601SOL    HW132702   0.206   6.488   6.018
10601SOL    HW232703   0.176   6.571   6.155
10602SOL     OW32704   0.402   0.304   6.859
10602SOL    HW132705   0.352   0.308   6.946
10602SOL    HW232706   0.339   0.320   6.783
10603SOL     OW32707   4.373   0.100   1.616
10603SOL    HW132708   4.387   0.198   1.608
10603SOL    HW232709   4.449   0.051   1.573
10604SOL     OW32710   0.042   6.827   4.742
10604SOL    HW132711   0.004   6.787   4.658
10604SOL    HW232712   0.142   6.834   4.733
10605SOL     OW32713   2.322   0.159   0.603
10605SOL    HW132714   2.405   0.215   0.599
10605SOL    HW232715   2.242   0.219   0.604
10606SOL     OW32716   5.702   0.755   1.525
10606SOL    HW132717   5.626   0.697   1.556
10606SOL    HW232718   5.765   0.700   1.470
10607SOL     OW32719   4.398   4.026   6.738
10607SOL    HW132720   4.412   4.065   6.647
10607SOL    HW232721   4.312   3.977   6.740
10608SOL     OW32722   6.322   2.670   3.332
10608SOL    HW132723   6.400   2.728   3.312
10608SOL    HW232724   6.301   2.674   3.430
10609SOL     OW32725   4.181   6.691   0.504
10609SOL    HW132726   4.225   6.764   0.555
10609SOL    HW232727   4.249   6.623   0.476
10610SOL     OW32728   6.909   1.779   4.596
10610SOL    HW132729   6.886   1.867   4.636
10610SOL    HW232730   7.000   1.783   4.555
10611SOL     OW32731   2.813   5.547   5.010
10611SOL    HW132732   2.838   5.491   4.932
10611SOL    HW232733   2.896   5.578   5.057
10612SOL     OW32734   5.239   1.415   3.934
10612SOL    HW132735   5.231   1.381   3.841
10612SOL    HW232736   5.174   1.490   3.948
10613SOL     OW32737   6.160   5.996   4.393
10613SOL    HW132738   6.127   5.901   4.398
10613SOL    HW232739   6.241   6.000   4.335
10614SOL     OW32740   5.234   0.843   5.821
10614SOL    HW132741   5.213   0.859   5.725
10614SOL    HW232742   5.153   0.859   5.877
10615SOL     OW32743   2.738   1.975   6.107
10615SOL    HW132744   2.743   2.068   6.071
10615SOL    HW232745   2.681   1.919   6.047
10616SOL     OW32746   3.036   6.096   6.357
10616SOL    HW132747   2.969   6.169   6.341
10616SOL    HW232748   3.035   6.071   6.454
10617SOL     OW32749   2.525   3.620   1.657
10617SOL    HW132750   2.482   3.711   1.655
10617SOL    HW232751   2.479   3.563   1.725
10618SOL     OW32752   0.197   5.543   5.593
10618SOL    HW132753   0.261   5.613   5.628
10618SOL    HW232754   0.142   5.582   5.520
10619SOL     OW32755   0.425   2.108   2.900
10619SOL    HW132756   0.342   2.062   2.931
10619SOL    HW232757   0.485   2.042   2.856
10620SOL     OW32758   2.179   6.931   5.531
10620SOL    HW132759   2.157   6.845   5.485
10620SOL    HW232760   2.107   6.952   5.598
10621SOL     OW32761   1.029   4.047   2.603
10621SOL    HW132762   0.996   3.953   2.614
10621SOL    HW232763   1.128   4.046   2.585
10622SOL     OW32764   4.413   2.984   1.094
10622SOL    HW132765   4.328   2.935   1.113
10622SOL    HW232766   4.414   3.015   0.999
10623SOL     OW32767   5.869   6.270   5.482
10623SOL    HW132768   5.859   6.325   5.399
10623SOL    HW232769   5.947   6.304   5.535
10624SOL     OW32770   0.745   2.936   4.777
10624SOL    HW132771   0.817   2.893   4.722
10624SOL    HW232772   0.673   2.969   4.716
10625SOL     OW32773   0.222   3.450   6.739
10625SOL    HW132774   0.161   3.414   6.668
10625SOL    HW232775   0.298   3.498   6.697
10626SOL     OW32776   3.822   3.136   1.840
10626SOL    HW132777   3.908   3.165   1.799
10626SOL    HW232778   3.775   3.073   1.777
10627SOL     OW32779   6.156   0.279   6.238
10627SOL    HW132780   6.067   0.324   6.238
10627SOL    HW232781   6.155   0.202   6.301
10628SOL     OW32782   3.962   0.541   0.458
10628SOL    HW132783   3.889   0.473   0.468
10628SOL    HW232784   4.049   0.495   0.442
10629SOL     OW32785   3.364   5.214   4.997
10629SOL    HW132786   3.332   5.120   4.996
10629SOL    HW232787   3.442   5.224   4.936
10630SOL     OW32788   4.640   0.376   2.539
10630SOL    HW132789   4.593   0.452   2.494
10630SOL    HW232790   4.720   0.349   2.486
10631SOL     OW32791   4.402   5.092   6.573
10631SOL    HW132792   4.447   5.023   6.629
10631SOL    HW232793   4.424   5.183   6.608
10632SOL     OW32794   5.045   5.771   3.551
10632SOL    HW132795   4.996   5.839   3.496
10632SOL    HW232796   5.142   5.794   3.554
10633SOL     OW32797   2.113   2.822   1.645
10633SOL    HW132798   2.062   2.756   1.590
10633SOL    HW232799   2.053   2.859   1.716
10634SOL     OW32800   1.462   5.189   6.817
10634SOL    HW132801   1.501   5.267   6.866
10634SOL    HW232802   1.515   5.171   6.734
10635SOL     OW32803   2.142   3.523   0.211
10635SOL    HW132804   2.183   3.444   0.165
10635SOL    HW232805   2.205   3.558   0.280
10636SOL     OW32806   6.771   1.997   0.438
10636SOL    HW132807   6.784   2.084   0.392
10636SOL    HW232808   6.851   1.939   0.424
10637SOL     OW32809   2.814   5.986   6.589
10637SOL    HW132810   2.894   5.990   6.648
10637SOL    HW232811   2.742   6.045   6.627
10638SOL     OW32812   6.439   6.164   2.019
10638SOL    HW132813   6.446   6.255   1.980
10638SOL    HW232814   6.489   6.161   2.105
10639SOL     OW32815   2.228   3.680   1.752
10639SOL    HW132816   2.266   3.617   1.820
10639SOL    HW232817   2.281   3.765   1.753
10640SOL     OW32818   4.012   0.942   3.355
10640SOL    HW132819   3.931   0.960   3.411
10640SOL    HW232820   4.037   1.024   3.304
10641SOL     OW32821   1.379   1.049   3.572
10641SOL    HW132822   1.378   1.117   3.645
10641SOL    HW232823   1.370   1.095   3.484
10642SOL     OW32824   6.371   2.573   0.531
10642SOL    HW132825   6.412   2.529   0.611
10642SOL    HW232826   6.443   2.614   0.475
10643SOL     OW32827   2.470   5.832   5.084
10643SOL    HW132828   2.415   5.859   5.163
10643SOL    HW232829   2.557   5.881   5.086
10644SOL     OW32830   5.834   3.177   1.999
10644SOL    HW132831   5.807   3.233   1.920
10644SOL    HW232832   5.752   3.141   2.044
10645SOL     OW32833   2.227   3.041   3.646
10645SOL    HW132834   2.287   2.989   3.706
10645SOL    HW232835   2.202   3.127   3.691
10646SOL     OW32836   5.244   1.616   4.848
10646SOL    HW132837   5.255   1.715   4.861
10646SOL    HW232838   5.158   1.586   4.888
10647SOL     OW32839   4.484   5.245   5.621
10647SOL    HW132840   4.510   5.212   5.531
10647SOL    HW232841   4.498   5.172   5.688
10648SOL     OW32842   6.188   5.354   6.067
10648SOL    HW132843   6.238   5.335   5.983
10648SOL    HW232844   6.108   5.411   6.047
10649SOL     OW32845   0.893   2.748   3.564
10649SOL    HW132846   0.909   2.652   3.586
10649SOL    HW232847   0.795   2.766   3.558
10650SOL     OW32848   6.928   0.261   3.925
10650SOL    HW132849   6.892   0.236   4.015
10650SOL    HW232850   6.922   0.360   3.913
10651SOL     OW32851   5.289   6.575   6.079
10651SOL    HW132852   5.342   6.555   5.997
10651SOL    HW232853   5.293   6.496   6.140
10652SOL     OW32854   1.613   6.978   6.211
10652SOL    HW132855   1.603   6.992   6.310
10652SOL    HW232856   1.605   6.880   6.191
10653SOL     OW32857   3.971   6.150   4.752
10653SOL    HW132858   3.964   6.125   4.848
10653SOL    HW232859   4.050   6.105   4.711
10654SOL     OW32860   4.749   2.008   3.877
10654SOL    HW132861   4.676   1.946   3.905
10654SOL    HW232862   4.763   2.077   3.949
10655SOL     OW32863   2.214   4.582   1.252
10655SOL    HW132864   2.119   4.589   1.285
10655SOL    HW232865   2.223   4.635   1.168
10656SOL     OW32866   6.019   1.348   2.319
10656SOL    HW132867   5.960   1.268   2.313
10656SOL    HW232868   6.047   1.377   2.228
10657SOL     OW32869   5.906   1.094   4.573
10657SOL    HW132870   5.878   1.114   4.667
10657SOL    HW232871   5.828   1.056   4.522
10658SOL     OW32872   5.820   3.791   5.388
10658SOL    HW132873   5.839   3.882   5.425
10658SOL    HW232874   5.802   3.798   5.290
10659SOL     OW32875   1.337   4.837   1.035
10659SOL    HW132876   1.283   4.811   0.955
10659SOL    HW232877   1.434   4.831   1.013
10660SOL     OW32878   6.128   3.603   5.488
10660SOL    HW132879   6.031   3.610   5.511
10660SOL    HW232880   6.138   3.579   5.392
10661SOL     OW32881   1.462   5.072   0.713
10661SOL    HW132882   1.438   5.122   0.630
10661SOL    HW232883   1.383   5.017   0.743
10662SOL     OW32884   3.732   1.046   2.331
10662SOL    HW132885   3.736   0.946   2.337
10662SOL    HW232886   3.723   1.073   2.235
10663SOL     OW32887   0.880   1.628   3.556
10663SOL    HW132888   0.938   1.628   3.474
10663SOL    HW232889   0.905   1.550   3.614
10664SOL     OW32890   0.616   5.422   4.760
10664SOL    HW132891   0.641   5.383   4.849
10664SOL    HW232892   0.647   5.517   4.756
10665SOL     OW32893   2.387   2.577   6.652
10665SOL    HW132894   2.405   2.653   6.589
10665SOL    HW232895   2.325   2.512   6.608
10666SOL     OW32896   3.582   3.463   1.573
10666SOL    HW132897   3.564   3.558   1.601
10666SOL    HW232898   3.663   3.429   1.619
10667SOL     OW32899   4.653   1.239   3.503
10667SOL    HW132900   4.722   1.296   3.546
10667SOL    HW232901   4.642   1.155   3.556
10668SOL     OW32902   3.440   2.055   5.557
10668SOL    HW132903   3.413   2.106   5.475
10668SOL    HW232904   3.397   1.964   5.555
10669SOL     OW32905   5.719   0.405   0.787
10669SOL    HW132906   5.737   0.447   0.875
10669SOL    HW232907   5.620   0.406   0.768
10670SOL     OW32908   5.634   4.221   4.660
10670SOL    HW132909   5.546   4.184   4.630
10670SOL    HW232910   5.681   4.262   4.582
10671SOL     OW32911   1.189   1.386   4.544
10671SOL    HW132912   1.121   1.324   4.505
10671SOL    HW232913   1.159   1.480   4.532
10672SOL     OW32914   6.278   4.228   1.769
10672SOL    HW132915   6.305   4.216   1.674
10672SOL    HW232916   6.317   4.154   1.824
10673SOL     OW32917   1.915   6.845   0.589
10673SOL    HW132918   1.889   6.773   0.525
10673SOL    HW232919   1.985   6.811   0.651
10674SOL     OW32920   4.145   3.587   4.347
10674SOL    HW132921   4.164   3.499   4.303
10674SOL    HW232922   4.157   3.661   4.280
10675SOL     OW32923   3.199   0.625   6.291
10675SOL    HW132924   3.218   0.705   6.347
10675SOL    HW232925   3.280   0.603   6.235
10676SOL     OW32926   7.002   5.800   4.805
10676SOL    HW132927   0.068   5.765   4.840
10676SOL    HW232928   6.978   5.884   4.854
10677SOL     OW32929   1.215   0.949   1.370
10677SOL    HW132930   1.244   0.872   1.428
10677SOL    HW232931   1.228   0.925   1.274
10678SOL     OW32932   4.243   4.673   3.983
10678SOL    HW132933   4.258   4.725   3.899
10678SOL    HW232934   4.321   4.612   3.999
10679SOL     OW32935   3.755   5.516   6.619
10679SOL    HW132936   3.773   5.558   6.530
10679SOL    HW232937   3.841   5.505   6.668
10680SOL     OW32938   3.675   1.800   4.034
10680SOL    HW132939   3.588   1.802   3.986
10680SOL    HW232940   3.748   1.775   3.970
10681SOL     OW32941   0.079   3.223   6.929
10681SOL    HW132942   0.145   3.295   6.909
10681SOL    HW232943   0.108   3.137   6.886
10682SOL     OW32944   0.203   3.086   5.066
10682SOL    HW132945   0.258   3.128   4.993
10682SOL    HW232946   0.234   2.992   5.081
10683SOL     OW32947   4.387   0.553   3.555
10683SOL    HW132948   4.378   0.572   3.457
10683SOL    HW232949   4.452   0.479   3.569
10684SOL     OW32950   4.092   5.440   1.783
10684SOL    HW132951   4.090   5.477   1.875
10684SOL    HW232952   4.165   5.371   1.777
10685SOL     OW32953   0.210   5.796   0.626
10685SOL    HW132954   0.151   5.758   0.555
10685SOL    HW232955   0.304   5.764   0.611
10686SOL     OW32956   2.309   4.384   6.403
10686SOL    HW132957   2.236   4.428   6.455
10686SOL    HW232958   2.285   4.382   6.306
10687SOL     OW32959   6.579   4.429   3.897
10687SOL    HW132960   6.488   4.388   3.896
10687SOL    HW232961   6.611   4.442   3.804
10688SOL     OW32962   5.111   2.241   2.683
10688SOL    HW132963   5.018   2.244   2.647
10688SOL    HW232964   5.161   2.322   2.653
10689SOL     OW32965   6.922   6.969   1.916
10689SOL    HW132966   6.854   7.006   1.980
10689SOL    HW232967   6.875   6.925   1.839
10690SOL     OW32968   0.459   4.938   3.161
10690SOL    HW132969   0.498   5.001   3.229
10690SOL    HW232970   0.359   4.950   3.160
10691SOL     OW32971   1.922   1.599   1.721
10691SOL    HW132972   1.850   1.652   1.676
10691SOL    HW232973   2.005   1.603   1.667
10692SOL     OW32974   2.835   0.445   4.284
10692SOL    HW132975   2.790   0.416   4.368
10692SOL    HW232976   2.818   0.378   4.212
10693SOL     OW32977   1.133   6.137   1.289
10693SOL    HW132978   1.055   6.199   1.283
10693SOL    HW232979   1.101   6.042   1.287
10694SOL     OW32980   5.350   6.731   6.395
10694SOL    HW132981   5.276   6.700   6.335
10694SOL    HW232982   5.349   6.831   6.398
10695SOL     OW32983   1.273   2.383   1.223
10695SOL    HW132984   1.202   2.314   1.208
10695SOL    HW232985   1.252   2.466   1.171
10696SOL     OW32986   6.644   3.780   4.579
10696SOL    HW132987   6.717   3.712   4.574
10696SOL    HW232988   6.672   3.854   4.639
10697SOL     OW32989   7.015   6.886   5.885
10697SOL    HW132990   6.943   6.832   5.929
10697SOL    HW232991   6.976   6.937   5.809
10698SOL     OW32992   4.926   3.977   0.172
10698SOL    HW132993   4.935   4.027   0.086
10698SOL    HW232994   5.015   3.939   0.197
10699SOL     OW32995   3.735   4.990   1.054
10699SOL    HW132996   3.776   5.063   1.108
10699SOL    HW232997   3.796   4.910   1.053
10700SOL     OW32998   5.386   6.497   0.773
10700SOL    HW132999   5.333   6.472   0.692
10700SOL    HW233000   5.441   6.578   0.752
10701SOL     OW33001   3.318   6.931   6.086
10701SOL    HW133002   3.246   6.958   6.022
10701SOL    HW233003   3.402   6.911   6.035
10702SOL     OW33004   5.167   3.522   2.361
10702SOL    HW133005   5.181   3.466   2.443
10702SOL    HW233006   5.255   3.560   2.333
10703SOL     OW33007   2.514   2.777   5.598
10703SOL    HW133008   2.527   2.781   5.499
10703SOL    HW233009   2.439   2.837   5.625
10704SOL     OW33010   0.184   4.767   2.418
10704SOL    HW133011   0.141   4.767   2.328
10704SOL    HW233012   0.274   4.723   2.412
10705SOL     OW33013   6.040   5.363   1.441
10705SOL    HW133014   6.018   5.447   1.390
10705SOL    HW233015   6.130   5.330   1.413
10706SOL     OW33016   3.588   0.312   2.024
10706SOL    HW133017   3.650   0.255   1.968
10706SOL    HW233018   3.499   0.268   2.030
10707SOL     OW33019   0.918   6.897   3.531
10707SOL    HW133020   0.915   6.898   3.431
10707SOL    HW233021   0.867   6.975   3.567
10708SOL     OW33022   4.035   1.475   1.395
10708SOL    HW133023   4.003   1.561   1.434
10708SOL    HW233024   3.976   1.449   1.318
10709SOL     OW33025   5.158   5.049   4.813
10709SOL    HW133026   5.210   5.122   4.859
10709SOL    HW233027   5.181   4.961   4.854
10710SOL     OW33028   5.971   0.959   3.692
10710SOL    HW133029   5.913   0.925   3.619
10710SOL    HW233030   5.938   1.049   3.722
10711SOL     OW33031   1.868   6.769   3.943
10711SOL    HW133032   1.795   6.765   4.011
10711SOL    HW233033   1.848   6.841   3.877
10712SOL     OW33034   2.941   0.485   2.925
10712SOL    HW133035   2.985   0.461   3.011
10712SOL    HW233036   2.864   0.547   2.943
10713SOL     OW33037   0.970   3.148   0.744
10713SOL    HW133038   1.007   3.205   0.670
10713SOL    HW233039   1.034   3.149   0.821
10714SOL     OW33040   4.292   3.213   5.747
10714SOL    HW133041   4.355   3.226   5.670
10714SOL    HW233042   4.212   3.272   5.735
10715SOL     OW33043   4.662   0.388   2.205
10715SOL    HW133044   4.712   0.346   2.129
10715SOL    HW233045   4.565   0.365   2.197
10716SOL     OW33046   5.949   2.782   3.555
10716SOL    HW133047   5.884   2.706   3.562
10716SOL    HW233048   5.899   2.869   3.554
10717SOL     OW33049   1.809   2.846   1.498
10717SOL    HW133050   1.720   2.804   1.481
10717SOL    HW233051   1.882   2.780   1.479
10718SOL     OW33052   0.999   3.671   0.307
10718SOL    HW133053   1.005   3.661   0.208
10718SOL    HW233054   0.909   3.640   0.338
10719SOL     OW33055   0.220   5.693   2.465
10719SOL    HW133056   0.271   5.651   2.540
10719SOL    HW233057   0.278   5.760   2.419
10720SOL     OW33058   6.843   4.964   4.833
10720SOL    HW133059   6.797   4.941   4.747
10720SOL    HW233060   6.942   4.958   4.820
10721SOL     OW33061   5.027   3.713   5.531
10721SOL    HW133062   4.954   3.668   5.481
10721SOL    HW233063   5.026   3.683   5.626
10722SOL     OW33064   1.158   5.001   0.739
10722SOL    HW133065   1.195   4.913   0.710
10722SOL    HW233066   1.096   5.036   0.668
10723SOL     OW33067   0.340   2.703   6.540
10723SOL    HW133068   0.416   2.640   6.560
10723SOL    HW233069   0.370   2.797   6.555
10724SOL     OW33070   6.138   0.050   6.427
10724SOL    HW133071   6.104   0.082   6.516
10724SOL    HW233072   6.083   6.993   6.398
10725SOL     OW33073   1.582   6.079   5.274
10725SOL    HW133074   1.493   6.112   5.242
10725SOL    HW233075   1.575   5.982   5.296
10726SOL     OW33076   5.602   0.686   4.150
10726SOL    HW133077   5.687   0.736   4.138
10726SOL    HW233078   5.525   0.750   4.153
10727SOL     OW33079   0.398   5.700   5.683
10727SOL    HW133080   0.375   5.767   5.754
10727SOL    HW233081   0.481   5.650   5.710
10728SOL     OW33082   1.728   4.930   6.469
10728SOL    HW133083   1.824   4.910   6.454
10728SOL    HW233084   1.719   5.013   6.524
10729SOL     OW33085   4.803   1.135   3.062
10729SOL    HW133086   4.880   1.077   3.036
10729SOL    HW233087   4.730   1.080   3.102
10730SOL     OW33088   1.306   0.941   1.008
10730SOL    HW133089   1.289   0.844   1.029
10730SOL    HW233090   1.404   0.955   0.996
10731SOL     OW33091   3.576   1.060   0.918
10731SOL    HW133092   3.584   1.066   1.017
10731SOL    HW233093   3.547   0.968   0.893
10732SOL     OW33094   6.405   4.764   4.802
10732SOL    HW133095   6.487   4.800   4.757
10732SOL    HW233096   6.432   4.706   4.879
10733SOL     OW33097   6.885   1.287   6.441
10733SOL    HW133098   6.923   1.369   6.398
10733SOL    HW233099   6.816   1.313   6.508
10734SOL     OW33100   0.818   0.967   0.161
10734SOL    HW133101   0.833   0.921   0.248
10734SOL    HW233102   0.884   0.932   0.094
10735SOL     OW33103   0.464   2.925   2.573
10735SOL    HW133104   0.458   3.019   2.539
10735SOL    HW233105   0.432   2.922   2.668
10736SOL     OW33106   1.110   0.420   3.485
10736SOL    HW133107   1.088   0.323   3.476
10736SOL    HW233108   1.154   0.437   3.573
10737SOL     OW33109   1.073   1.774   0.202
10737SOL    HW133110   1.080   1.676   0.220
10737SOL    HW233111   0.983   1.807   0.231
10738SOL     OW33112   2.321   0.251   2.800
10738SOL    HW133113   2.415   0.283   2.814
10738SOL    HW233114   2.285   0.291   2.716
10739SOL     OW33115   1.581   1.020   1.010
10739SOL    HW133116   1.553   1.099   1.065
10739SOL    HW233117   1.674   1.035   0.976
10740SOL     OW33118   6.996   5.294   4.883
10740SOL    HW133119   0.058   5.350   4.884
10740SOL    HW233120   7.018   5.202   4.914
10741SOL     OW33121   4.327   0.791   1.076
10741SOL    HW133122   4.364   0.699   1.058
10741SOL    HW233123   4.309   0.837   0.989
10742SOL     OW33124   5.504   6.966   1.387
10742SOL    HW133125   5.527   6.902   1.314
10742SOL    HW233126   5.462   0.026   1.347
10743SOL     OW33127   1.406   1.725   5.528
10743SOL    HW133128   1.369   1.694   5.615
10743SOL    HW233129   1.431   1.645   5.472
10744SOL     OW33130   3.180   1.629   0.603
10744SOL    HW133131   3.221   1.538   0.614
10744SOL    HW233132   3.213   1.688   0.677
10745SOL     OW33133   0.321   5.782   6.298
10745SOL    HW133134   0.417   5.755   6.290
10745SOL    HW233135   0.300   5.805   6.393
10746SOL     OW33136   2.631   4.649   1.213
10746SOL    HW133137   2.644   4.610   1.304
10746SOL    HW233138   2.637   4.749   1.218
10747SOL     OW33139   4.327   1.399   4.595
10747SOL    HW133140   4.269   1.331   4.640
10747SOL    HW233141   4.354   1.470   4.661
10748SOL     OW33142   5.904   1.170   0.669
10748SOL    HW133143   5.841   1.131   0.602
10748SOL    HW233144   5.904   1.270   0.661
10749SOL     OW33145   0.209   5.467   3.630
10749SOL    HW133146   0.217   5.420   3.543
10749SOL    HW233147   0.112   5.483   3.650
10750SOL     OW33148   4.838   5.955   4.154
10750SOL    HW133149   4.859   5.996   4.066
10750SOL    HW233150   4.906   5.983   4.222
10751SOL     OW33151   1.807   4.813   4.852
10751SOL    HW133152   1.766   4.746   4.790
10751SOL    HW233153   1.735   4.854   4.908
10752SOL     OW33154   6.196   4.208   5.620
10752SOL    HW133155   6.152   4.298   5.625
10752SOL    HW233156   6.185   4.171   5.527
10753SOL     OW33157   5.291   4.517   4.459
10753SOL    HW133158   5.224   4.583   4.424
10753SOL    HW233159   5.383   4.557   4.451
10754SOL     OW33160   0.537   0.500   3.371
10754SOL    HW133161   0.597   0.421   3.369
10754SOL    HW233162   0.565   0.566   3.301
10755SOL     OW33163   6.919   0.731   0.528
10755SOL    HW133164   6.827   0.746   0.492
10755SOL    HW233165   6.983   0.792   0.482
10756SOL     OW33166   6.476   4.983   6.760
10756SOL    HW133167   6.429   5.036   6.831
10756SOL    HW233168   6.466   4.886   6.779
10757SOL     OW33169   1.659   2.608   0.448
10757SOL    HW133170   1.597   2.686   0.443
10757SOL    HW233171   1.607   2.524   0.461
10758SOL     OW33172   1.078   6.313   4.298
10758SOL    HW133173   1.118   6.244   4.358
10758SOL    HW233174   0.978   6.305   4.300
10759SOL     OW33175   2.025   3.287   1.598
10759SOL    HW133176   2.106   3.337   1.568
10759SOL    HW233177   2.053   3.208   1.652
10760SOL     OW33178   5.546   6.846   2.218
10760SOL    HW133179   5.619   6.812   2.157
10760SOL    HW233180   5.584   6.864   2.309
10761SOL     OW33181   0.945   6.231   6.115
10761SOL    HW133182   1.042   6.210   6.125
10761SOL    HW233183   0.891   6.150   6.137
10762SOL     OW33184   3.221   2.142   4.349
10762SOL    HW133185   3.262   2.231   4.367
10762SOL    HW233186   3.287   2.070   4.372
10763SOL     OW33187   4.784   0.069   3.090
10763SOL    HW133188   4.695   0.028   3.109
10763SOL    HW233189   4.801   0.144   3.153
10764SOL     OW33190   4.809   2.513   6.125
10764SOL    HW133191   4.858   2.591   6.087
10764SOL    HW233192   4.776   2.454   6.051
10765SOL     OW33193   4.942   2.578   1.083
10765SOL    HW133194   4.900   2.651   1.139
10765SOL    HW233195   4.970   2.503   1.142
10766SOL     OW33196   4.569   5.017   0.782
10766SOL    HW133197   4.546   4.948   0.850
10766SOL    HW233198   4.556   4.979   0.690
10767SOL     OW33199   1.837   0.408   0.775
10767SOL    HW133200   1.738   0.419   0.765
10767SOL    HW233201   1.862   0.312   0.760
10768SOL     OW33202   4.882   5.305   1.498
10768SOL    HW133203   4.922   5.220   1.464
10768SOL    HW233204   4.953   5.375   1.504
10769SOL     OW33205   2.190   4.056   5.341
10769SOL    HW133206   2.271   4.019   5.296
10769SOL    HW233207   2.217   4.124   5.409
10770SOL     OW33208   5.621   6.253   4.339
10770SOL    HW133209   5.640   6.161   4.372
10770SOL    HW233210   5.525   6.275   4.354
10771SOL     OW33211   5.136   0.352   3.403
10771SOL    HW133212   5.170   0.401   3.483
10771SOL    HW233213   5.209   0.295   3.365
10772SOL     OW33214   5.794   0.091   3.915
10772SOL    HW133215   5.879   0.039   3.927
10772SOL    HW233216   5.794   0.133   3.824
10773SOL     OW33217   5.823   5.253   6.348
10773SOL    HW133218   5.789   5.174   6.296
10773SOL    HW233219   5.810   5.336   6.295
10774SOL     OW33220   2.392   1.911   6.083
10774SOL    HW133221   2.427   1.906   6.177
10774SOL    HW233222   2.468   1.903   6.019
10775SOL     OW33223   0.341   4.147   2.305
10775SOL    HW133224   0.297   4.062   2.276
10775SOL    HW233225   0.282   4.196   2.368
10776SOL     OW33226   0.366   0.982   6.296
10776SOL    HW133227   0.348   0.909   6.362
10776SOL    HW233228   0.406   1.061   6.343
10777SOL     OW33229   3.993   5.583   2.055
10777SOL    HW133230   4.035   5.583   2.146
10777SOL    HW233231   3.944   5.497   2.040
10778SOL     OW33232   5.027   6.717   4.077
10778SOL    HW133233   5.021   6.632   4.130
10778SOL    HW233234   5.123   6.744   4.070
10779SOL     OW33235   6.279   2.715   3.623
10779SOL    HW133236   6.314   2.804   3.653
10779SOL    HW233237   6.181   2.709   3.644
10780SOL     OW33238   1.647   0.791   4.237
10780SOL    HW133239   1.694   0.855   4.176
10780SOL    HW233240   1.658   0.698   4.202
10781SOL     OW33241   4.445   1.352   4.024
10781SOL    HW133242   4.524   1.375   3.967
10781SOL    HW233243   4.388   1.433   4.036
10782SOL     OW33244   0.141   1.166   2.789
10782SOL    HW133245   0.122   1.189   2.694
10782SOL    HW233246   0.064   1.116   2.827
10783SOL     OW33247   0.514   1.865   2.807
10783SOL    HW133248   0.582   1.802   2.843
10783SOL    HW233249   0.503   1.851   2.708
10784SOL     OW33250   4.142   6.808   3.900
10784SOL    HW133251   4.187   6.747   3.965
10784SOL    HW233252   4.176   6.901   3.913
10785SOL     OW33253   0.404   4.262   0.435
10785SOL    HW133254   0.475   4.266   0.506
10785SOL    HW233255   0.417   4.338   0.371
10786SOL     OW33256   6.245   4.696   3.409
10786SOL    HW133257   6.266   4.622   3.346
10786SOL    HW233258   6.177   4.665   3.476
10787SOL     OW33259   1.315   1.428   5.946
10787SOL    HW133260   1.218   1.437   5.927
10787SOL    HW233261   1.329   1.416   6.044
10788SOL     OW33262   1.736   4.371   0.456
10788SOL    HW133263   1.747   4.276   0.430
10788SOL    HW233264   1.822   4.420   0.441
10789SOL     OW33265   6.487   3.398   6.480
10789SOL    HW133266   6.531   3.388   6.569
10789SOL    HW233267   6.403   3.453   6.491
10790SOL     OW33268   0.564   0.520   1.927
10790SOL    HW133269   0.521   0.436   1.895
10790SOL    HW233270   0.615   0.562   1.851
10791SOL     OW33271   0.346   6.364   1.722
10791SOL    HW133272   0.360   6.277   1.769
10791SOL    HW233273   0.267   6.358   1.661
10792SOL     OW33274   3.298   3.131   4.994
10792SOL    HW133275   3.198   3.129   4.997
10792SOL    HW233276   3.328   3.194   4.922
10793SOL     OW33277   6.063   3.047   5.800
10793SOL    HW133278   6.137   3.041   5.867
10793SOL    HW233279   6.017   2.958   5.793
10794SOL     OW33280   4.045   3.402   4.524
10794SOL    HW133281   4.075   3.468   4.456
10794SOL    HW233282   4.106   3.323   4.523
10795SOL     OW33283   0.345   5.610   2.729
10795SOL    HW133284   0.343   5.520   2.771
10795SOL    HW233285   0.407   5.670   2.780
10796SOL     OW33286   6.728   6.254   5.641
10796SOL    HW133287   6.730   6.171   5.585
10796SOL    HW233288   6.643   6.257   5.694
10797SOL     OW33289   2.894   2.397   1.220
10797SOL    HW133290   2.820   2.395   1.288
10797SOL    HW233291   2.893   2.312   1.167
10798SOL     OW33292   3.042   0.900   0.295
10798SOL    HW133293   2.950   0.920   0.261
10798SOL    HW233294   3.085   0.985   0.327
10799SOL     OW33295   4.347   1.305   2.107
10799SOL    HW133296   4.372   1.250   2.027
10799SOL    HW233297   4.248   1.319   2.108
10800SOL     OW33298   0.811   6.633   5.148
10800SOL    HW133299   0.791   6.536   5.137
10800SOL    HW233300   0.733   6.687   5.118
10801SOL     OW33301   1.217   0.343   6.984
10801SOL    HW133302   1.216   0.427   0.018
10801SOL    HW233303   1.200   0.264   0.021
10802SOL     OW33304   0.307   0.325   2.493
10802SOL    HW133305   0.338   0.281   2.409
10802SOL    HW233306   0.208   0.340   2.488
10803SOL     OW33307   1.720   5.639   5.633
10803SOL    HW133308   1.640   5.580   5.647
10803SOL    HW233309   1.738   5.649   5.535
10804SOL     OW33310   5.893   3.550   2.862
10804SOL    HW133311   5.967   3.562   2.929
10804SOL    HW233312   5.835   3.473   2.890
10805SOL     OW33313   4.660   0.244   5.214
10805SOL    HW133314   4.577   0.291   5.185
10805SOL    HW233315   4.739   0.285   5.168
10806SOL     OW33316   3.847   3.986   6.014
10806SOL    HW133317   3.933   4.030   5.988
10806SOL    HW233318   3.773   4.022   5.957
10807SOL     OW33319   1.810   6.567   3.418
10807SOL    HW133320   1.786   6.481   3.373
10807SOL    HW233321   1.755   6.641   3.380
10808SOL     OW33322   0.565   3.289   6.277
10808SOL    HW133323   0.631   3.218   6.304
10808SOL    HW233324   0.599   3.336   6.196
10809SOL     OW33325   2.330   4.380   3.843
10809SOL    HW133326   2.236   4.399   3.871
10809SOL    HW233327   2.329   4.317   3.765
10810SOL     OW33328   0.323   0.195   4.230
10810SOL    HW133329   0.351   0.277   4.182
10810SOL    HW233330   0.373   0.116   4.195
10811SOL     OW33331   4.799   4.737   5.599
10811SOL    HW133332   4.834   4.659   5.548
10811SOL    HW233333   4.699   4.732   5.606
10812SOL     OW33334   7.002   3.669   0.679
10812SOL    HW133335   6.952   3.732   0.619
10812SOL    HW233336   7.001   3.704   0.772
10813SOL     OW33337   0.930   3.942   5.814
10813SOL    HW133338   1.020   3.906   5.790
10813SOL    HW233339   0.862   3.908   5.750
10814SOL     OW33340   1.820   0.180   6.792
10814SOL    HW133341   1.805   0.151   6.886
10814SOL    HW233342   1.847   0.276   6.790
10815SOL     OW33343   4.904   3.076   2.980
10815SOL    HW133344   4.937   3.145   2.917
10815SOL    HW233345   4.929   3.100   3.074
10816SOL     OW33346   3.025   3.225   2.872
10816SOL    HW133347   3.016   3.163   2.794
10816SOL    HW233348   2.967   3.306   2.857
10817SOL     OW33349   3.724   0.215   3.442
10817SOL    HW133350   3.717   0.312   3.418
10817SOL    HW233351   3.819   0.184   3.428
10818SOL     OW33352   4.819   4.023   5.441
10818SOL    HW133353   4.819   3.929   5.476
10818SOL    HW233354   4.727   4.061   5.447
10819SOL     OW33355   6.322   5.321   6.654
10819SOL    HW133356   6.241   5.324   6.595
10819SOL    HW233357   6.400   5.286   6.601
10820SOL     OW33358   0.649   5.221   4.151
10820SOL    HW133359   0.652   5.294   4.219
10820SOL    HW233360   0.742   5.191   4.130
10821SOL     OW33361   4.568   6.888   3.213
10821SOL    HW133362   4.522   6.849   3.134
10821SOL    HW233363   4.572   6.820   3.286
10822SOL     OW33364   6.370   1.895   2.310
10822SOL    HW133365   6.276   1.915   2.338
10822SOL    HW233366   6.401   1.810   2.353
10823SOL     OW33367   0.908   0.593   2.686
10823SOL    HW133368   0.820   0.619   2.647
10823SOL    HW233369   0.972   0.572   2.613
10824SOL     OW33370   0.205   0.807   2.659
10824SOL    HW133371   0.127   0.865   2.681
10824SOL    HW233372   0.258   0.849   2.586
10825SOL     OW33373   2.041   1.813   0.465
10825SOL    HW133374   2.123   1.790   0.517
10825SOL    HW233375   2.066   1.832   0.370
10826SOL     OW33376   0.852   1.331   2.754
10826SOL    HW133377   0.932   1.370   2.801
10826SOL    HW233378   0.862   1.231   2.749
10827SOL     OW33379   0.337   3.466   4.725
10827SOL    HW133380   0.310   3.383   4.775
10827SOL    HW233381   0.382   3.529   4.787
10828SOL     OW33382   1.892   4.488   1.023
10828SOL    HW133383   1.909   4.396   1.058
10828SOL    HW233384   1.905   4.554   1.096
10829SOL     OW33385   5.155   2.901   0.078
10829SOL    HW133386   5.101   2.874   7.021
10829SOL    HW233387   5.135   2.840   0.155
10830SOL     OW33388   4.200   1.969   3.232
10830SOL    HW133389   4.284   1.928   3.196
10830SOL    HW233390   4.124   1.904   3.220
10831SOL     OW33391   2.804   6.377   1.959
10831SOL    HW133392   2.830   6.472   1.942
10831SOL    HW233393   2.886   6.321   1.969
10832SOL     OW33394   6.934   3.519   6.156
10832SOL    HW133395   6.854   3.491   6.210
10832SOL    HW233396   6.941   3.619   6.158
10833SOL     OW33397   0.590   1.554   0.819
10833SOL    HW133398   0.648   1.635   0.828
10833SOL    HW233399   0.513   1.561   0.883
10834SOL     OW33400   6.221   1.678   0.277
10834SOL    HW133401   6.183   1.649   0.189
10834SOL    HW233402   6.180   1.624   0.350
10835SOL     OW33403   6.021   3.498   0.136
10835SOL    HW133404   6.015   3.433   0.212
10835SOL    HW233405   5.974   3.583   0.161
10836SOL     OW33406   0.638   1.432   3.331
10836SOL    HW133407   0.728   1.470   3.311
10836SOL    HW233408   0.616   1.447   3.427
10837SOL     OW33409   6.851   4.912   2.087
10837SOL    HW133410   6.766   4.872   2.122
10837SOL    HW233411   6.831   4.995   2.035
10838SOL     OW33412   6.318   6.459   4.074
10838SOL    HW133413   6.292   6.463   3.978
10838SOL    HW233414   6.236   6.441   4.130
10839SOL     OW33415   4.336   3.858   0.986
10839SOL    HW133416   4.324   3.760   0.971
10839SOL    HW233417   4.249   3.905   0.972
10840SOL     OW33418   3.421   6.340   1.901
10840SOL    HW133419   3.327   6.374   1.899
10840SOL    HW233420   3.484   6.416   1.890
10841SOL     OW33421   5.797   4.632   4.800
10841SOL    HW133422   5.866   4.583   4.853
10841SOL    HW233423   5.816   4.622   4.702
10842SOL     OW33424   5.316   2.289   1.517
10842SOL    HW133425   5.291   2.299   1.613
10842SOL    HW233426   5.305   2.377   1.471
10843SOL     OW33427   1.458   1.098   1.424
10843SOL    HW133428   1.516   1.041   1.482
10843SOL    HW233429   1.363   1.072   1.435
10844SOL     OW33430   0.177   4.888   3.062
10844SOL    HW133431   0.117   4.936   3.126
10844SOL    HW233432   0.128   4.871   2.977
10845SOL     OW33433   4.266   6.306   5.246
10845SOL    HW133434   4.280   6.343   5.155
10845SOL    HW233435   4.170   6.319   5.273
10846SOL     OW33436   5.421   0.653   6.462
10846SOL    HW133437   5.341   0.597   6.444
10846SOL    HW233438   5.494   0.627   6.399
10847SOL     OW33439   3.458   2.473   0.065
10847SOL    HW133440   3.402   2.393   0.043
10847SOL    HW233441   3.507   2.503   7.005
10848SOL     OW33442   1.251   4.541   1.135
10848SOL    HW133443   1.272   4.635   1.106
10848SOL    HW233444   1.189   4.499   1.070
10849SOL     OW33445   2.727   4.674   3.956
10849SOL    HW133446   2.631   4.645   3.948
10849SOL    HW233447   2.762   4.698   3.865
10850SOL     OW33448   3.645   6.430   6.091
10850SOL    HW133449   3.593   6.358   6.137
10850SOL    HW233450   3.687   6.489   6.160
10851SOL     OW33451   3.242   4.044   0.675
10851SOL    HW133452   3.145   4.023   0.684
10851SOL    HW233453   3.268   4.040   0.578
10852SOL     OW33454   1.477   1.011   6.648
10852SOL    HW133455   1.405   0.943   6.635
10852SOL    HW233456   1.436   1.102   6.654
10853SOL     OW33457   2.509   3.129   5.715
10853SOL    HW133458   2.559   3.073   5.781
10853SOL    HW233459   2.438   3.073   5.671
10854SOL     OW33460   4.563   5.143   5.340
10854SOL    HW133461   4.583   5.045   5.341
10854SOL    HW233462   4.484   5.160   5.280
10855SOL     OW33463   3.676   0.791   0.066
10855SOL    HW133464   3.668   0.716   0.132
10855SOL    HW233465   3.769   0.827   0.069
10856SOL     OW33466   6.058   1.527   0.439
10856SOL    HW133467   6.021   1.488   0.523
10856SOL    HW233468   5.987   1.578   0.392
10857SOL     OW33469   0.985   2.427   2.389
10857SOL    HW133470   1.031   2.489   2.325
10857SOL    HW233471   1.002   2.457   2.483
10858SOL     OW33472   0.682   0.545   0.507
10858SOL    HW133473   0.648   0.537   0.600
10858SOL    HW233474   0.749   0.473   0.490
10859SOL     OW33475   0.618   4.734   4.431
10859SOL    HW133476   0.673   4.680   4.494
10859SOL    HW233477   0.628   4.831   4.453
10860SOL     OW33478   0.322   3.106   4.582
10860SOL    HW133479   0.223   3.097   4.589
10860SOL    HW233480   0.365   3.064   4.662
10861SOL     OW33481   3.415   3.783   3.354
10861SOL    HW133482   3.473   3.777   3.273
10861SOL    HW233483   3.332   3.834   3.332
10862SOL     OW33484   1.037   1.060   5.824
10862SOL    HW133485   1.131   1.093   5.814
10862SOL    HW233486   1.035   0.986   5.892
10863SOL     OW33487   2.124   0.437   4.750
10863SOL    HW133488   2.069   0.470   4.827
10863SOL    HW233489   2.217   0.418   4.781
10864SOL     OW33490   3.297   5.983   0.182
10864SOL    HW133491   3.333   5.900   0.223
10864SOL    HW233492   3.347   6.004   0.098
10865SOL     OW33493   6.565   1.264   0.918
10865SOL    HW133494   6.513   1.340   0.880
10865SOL    HW233495   6.504   1.203   0.969
10866SOL     OW33496   5.393   4.656   0.969
10866SOL    HW133497   5.444   4.582   0.926
10866SOL    HW233498   5.342   4.706   0.899
10867SOL     OW33499   3.429   4.527   0.797
10867SOL    HW133500   3.443   4.563   0.889
10867SOL    HW233501   3.389   4.435   0.803
10868SOL     OW33502   4.719   1.647   3.607
10868SOL    HW133503   4.779   1.700   3.547
10868SOL    HW233504   4.754   1.553   3.615
10869NA      NA33505   6.577   2.999   5.072
10870NA      NA33506   4.544   4.523   5.073
10871NA      NA33507   1.251   2.806   1.620
10872NA      NA33508   4.970   3.704   5.176
10873NA      NA33509   4.158   2.375   5.332
10874NA      NA33510   3.577   4.803   1.670
10875NA      NA33511   6.739   5.022   6.750
10876NA      NA33512   3.367   3.098   4.610
10877NA      NA33513   4.383   5.820   0.079
10878NA      NA33514   4.375   6.354   4.829
10879NA      NA33515   6.418   5.170   2.552
10880NA      NA33516   2.225   0.048   3.880
10881NA      NA33517   4.025   5.786   1.953
10882NA      NA33518   3.555   3.945   2.088
   7.02158   7.02158   7.02158
